
     Program PWSCF v.7.2 starts on 22Jun2024 at  2:49:14 

     This program is part of the open-source Quantum ESPRESSO suite
     for quantum simulation of materials; please cite
         "P. Giannozzi et al., J. Phys.:Condens. Matter 21 395502 (2009);
         "P. Giannozzi et al., J. Phys.:Condens. Matter 29 465901 (2017);
         "P. Giannozzi et al., J. Chem. Phys. 152 154105 (2020);
          URL http://www.quantum-espresso.org", 
     in publications or presentations arising from this work. More details at
     http://www.quantum-espresso.org/quote

     Parallel version (MPI & OpenMP), running on      48 processor cores
     Number of MPI processes:                48
     Threads/MPI process:                     1

     MPI processes distributed on     1 nodes
     60571 MiB available memory on the printing compute node when the environment starts
 
     Reading input from espresso.pwi
Warning: card &CELL ignored
Warning: card / ignored
Warning: card &FCP ignored
Warning: card / ignored
Warning: card &RISM ignored
Warning: card / ignored

     Current dimensions of program PWSCF are:
     Max number of different atomic species (ntypx) = 10
     Max number of k-points (npk) =  40000
     Max angular momentum in pseudopotentials (lmaxx) =  4
     file O.pbe-n-kjpaw_psl.0.1.UPF: wavefunction(s)  2P renormalized
     signal trapping enabled: kill the code with -SIGUSR1 to stop cleanly the simulation 
 
     K-points division:     npool     =       2
     R & G space division:  proc/nbgrp/npool/nimage =      24
     Subspace diagonalization in iterative solution of the eigenvalue problem:
     one sub-group per band group will be used
     scalapack distributed-memory algorithm (size of sub-group:  3*  3 procs)

 
     Parallelization info
     --------------------
     sticks:   dense  smooth     PW     G-vecs:    dense   smooth      PW
     Min         350     175     47                61430    21716    3036
     Max         351     177     48                61449    21727    3041
     Sum        8421    4205   1137              1474595   521381   72913
 
     Using Slab Decomposition
 


     bravais-lattice index     =            0
     lattice parameter (alat)  =      14.8599  a.u.
     unit-cell volume          =    8305.1283 (a.u.)^3
     number of atoms/cell      =           49
     number of atomic types    =            3
     number of electrons       =       430.00
     number of Kohn-Sham states=          258
     kinetic-energy cutoff     =      60.0000  Ry
     charge density cutoff     =     480.0000  Ry
     scf convergence threshold =      1.0E-08
     mixing beta               =       0.1500
     number of iterations used =            8  local-TF  mixing
     Exchange-correlation= SLA  PW   PBE  PBE
                           (   1   4   3   4   0   0   0)

     celldm(1)=  14.859904  celldm(2)=   0.000000  celldm(3)=   0.000000
     celldm(4)=   0.000000  celldm(5)=   0.000000  celldm(6)=   0.000000

     crystal axes: (cart. coord. in units of alat)
               a(1) = (   1.000000   0.000000   0.000000 )  
               a(2) = (   0.000000   1.000000   0.000000 )  
               a(3) = (   0.000000   0.000000   2.531036 )  

     reciprocal axes: (cart. coord. in units 2 pi/alat)
               b(1) = (  1.000000  0.000000  0.000000 )  
               b(2) = (  0.000000  1.000000  0.000000 )  
               b(3) = (  0.000000  0.000000  0.395095 )  


     PseudoPot. # 1 for Sr read from file:
     /bsuhome/zayahcortright/q-e/pseudo/Sr_pbe_v1.uspp.F.UPF
     MD5 check sum: 6b418c05fbe9db5448babca5e47b7a5b
     Pseudo is Ultrasoft + core correction, Zval = 10.0
     Generated by new atomic code, or converted to UPF format
     Using radial grid of  883 points,  6 beta functions with: 
                l(1) =   0
                l(2) =   0
                l(3) =   1
                l(4) =   1
                l(5) =   2
                l(6) =   2
     Q(r) pseudized with  6 coefficients,  rinner =    1.400   1.400   1.400
                                                       1.400   1.400

     PseudoPot. # 2 for O  read from file:
     /bsuhome/zayahcortright/q-e/pseudo/O.pbe-n-kjpaw_psl.0.1.UPF
     MD5 check sum: 0234752ac141de4415c5fc33072bef88
     Pseudo is Projector augmented-wave + core cor, Zval =  6.0
     Generated using "atomic" code by A. Dal Corso  v.5.0.99 svn rev. 10869
     Shape of augmentation charge: BESSEL
     Using radial grid of 1095 points,  4 beta functions with: 
                l(1) =   0
                l(2) =   0
                l(3) =   1
                l(4) =   1
     Q(r) pseudized with 0 coefficients 


     PseudoPot. # 3 for Co read from file:
     /bsuhome/zayahcortright/q-e/pseudo/Co_pbe_v1.2.uspp.F.UPF
     MD5 check sum: 5f91765df6ddd3222702df6e7b74a16d
     Pseudo is Ultrasoft + core correction, Zval = 17.0
     Generated by new atomic code, or converted to UPF format
     Using radial grid of  863 points,  6 beta functions with: 
                l(1) =   0
                l(2) =   0
                l(3) =   1
                l(4) =   1
                l(5) =   2
                l(6) =   2
     Q(r) pseudized with  8 coefficients,  rinner =    1.200   1.200   1.200
                                                       1.200   1.200

     atomic species   valence    mass     pseudopotential
        Sr            10.00    87.62000     Sr( 1.00)
        O              6.00    15.99900     O ( 1.00)
        Co            17.00    58.93319     Co( 1.00)

     No symmetry found


                                    s                        frac. trans.

      isym =  1     identity                                     

 cryst.   s( 1) = (     1          0          0      )
                  (     0          1          0      )
                  (     0          0          1      )

 cart.    s( 1) = (  1.0000000  0.0000000  0.0000000 )
                  (  0.0000000  1.0000000  0.0000000 )
                  (  0.0000000  0.0000000  1.0000000 )


   Cartesian axes

     site n.     atom                  positions (alat units)
         1           Sr  tau(   1) = (   0.2508693   0.7491307   1.7574407  )
         2           O   tau(   2) = (   0.4985141   0.5014859   1.7715967  )
         3           Sr  tau(   3) = (   0.7482398   0.7454518   1.7648669  )
         4           Sr  tau(   4) = (   0.7441748   0.2558252   1.7667843  )
         5           Sr  tau(   5) = (   0.2508693   0.7491307   1.2696799  )
         6           Sr  tau(   6) = (   0.2508693   0.7491307   0.7632319  )
         7           Co  tau(   7) = (   0.4998914   0.5001086   1.0164559  )
         8           Co  tau(   8) = (   0.4936915   0.5063085   1.5135603  )
         9           O   tau(   9) = (   0.4988895   0.7610401   1.0164559  )
        10           O   tau(  10) = (   0.2389599   0.5011105   1.0164559  )
        11           O   tau(  11) = (   0.0070918   0.7374880   1.0164559  )
        12           O   tau(  12) = (   0.0088340   0.7405089   1.5135603  )
        13           O   tau(  13) = (   0.5066944   0.7415376   1.5135603  )
        14           O   tau(  14) = (   0.2584624   0.4933056   1.5135603  )
        15           O   tau(  15) = (   0.4985141   0.5014859   0.7773880  )
        16           O   tau(  16) = (   0.4985141   0.5014859   1.2555238  )
        17           Sr  tau(  17) = (   0.7482398   0.7454518   0.7706582  )
        18           Sr  tau(  18) = (   0.7482398   0.7454518   1.2622536  )
        19           Sr  tau(  19) = (   0.7441748   0.2558252   0.7725755  )
        20           Sr  tau(  20) = (   0.7441748   0.2558252   1.2603363  )
        21           O   tau(  21) = (   0.7322655   0.0078049   1.5135603  )
        22           O   tau(  22) = (   0.7558175   0.4996027   1.5135603  )
        23           O   tau(  23) = (   0.5003973   0.2441825   1.5135603  )
        24           O   tau(  24) = (   0.7527966   0.4978604   1.0164559  )
        25           O   tau(  25) = (   0.5021396   0.2472034   1.0164559  )
        26           O   tau(  26) = (   0.7517679   0.0000000   1.0164559  )
        27           O   tau(  27) = (   0.0114961   0.4948124   1.7455321  )
        28           O   tau(  28) = (   0.0048226   0.0077944   1.7715967  )
        29           Sr  tau(  29) = (   0.2545482   0.2517602   1.7648669  )
        30           O   tau(  30) = (   0.5048017   0.0015068   1.7786929  )
        31           Co  tau(  31) = (   0.0056869   0.5006215   1.0164559  )
        32           Co  tau(  32) = (   0.0065315   0.4997770   1.5135603  )
        33           Co  tau(  33) = (   0.0061999   0.0064171   1.0164559  )
        34           Co  tau(  34) = (   0.0000000   0.0126169   1.5135603  )
        35           O   tau(  35) = (   0.0114961   0.4948124   1.2815885  )
        36           O   tau(  36) = (   0.0114961   0.4948124   0.7513233  )
        37           O   tau(  37) = (   0.0051979   0.2673486   1.0164559  )
        38           O   tau(  38) = (   0.0130029   0.2478461   1.5135603  )
        39           O   tau(  39) = (   0.0048226   0.0077944   0.7773880  )
        40           O   tau(  40) = (   0.0048226   0.0077944   1.2555238  )
        41           Sr  tau(  41) = (   0.2545482   0.2517602   0.7706582  )
        42           Sr  tau(  42) = (   0.2545482   0.2517602   1.2622536  )
        43           Co  tau(  43) = (   0.4989925   0.0073160   1.5135603  )
        44           Co  tau(  44) = (   0.4998370   0.0064714   1.0164559  )
        45           O   tau(  45) = (   0.5048017   0.0015068   0.7844841  )
        46           O   tau(  46) = (   0.5048017   0.0015068   1.2484277  )
        47           O   tau(  47) = (   0.2621260   0.0059111   1.5135603  )
        48           O   tau(  48) = (   0.2591051   0.0041689   1.0164559  )
        49           O   tau(  49) = (   0.9951520   0.4264937   2.1602013  )

   Crystallographic axes

     site n.     atom                  positions (cryst. coord.)
         1           Sr  tau(   1) = (  0.2508693  0.7491307  0.6943562  )
         2           O   tau(   2) = (  0.4985141  0.5014859  0.6999492  )
         3           Sr  tau(   3) = (  0.7482398  0.7454518  0.6972903  )
         4           Sr  tau(   4) = (  0.7441748  0.2558252  0.6980478  )
         5           Sr  tau(   5) = (  0.2508693  0.7491307  0.5016443  )
         6           Sr  tau(   6) = (  0.2508693  0.7491307  0.3015492  )
         7           Co  tau(   7) = (  0.4998914  0.5001086  0.4015968  )
         8           Co  tau(   8) = (  0.4936915  0.5063085  0.5980003  )
         9           O   tau(   9) = (  0.4988895  0.7610401  0.4015968  )
        10           O   tau(  10) = (  0.2389599  0.5011105  0.4015968  )
        11           O   tau(  11) = (  0.0070918  0.7374880  0.4015968  )
        12           O   tau(  12) = (  0.0088340  0.7405089  0.5980003  )
        13           O   tau(  13) = (  0.5066944  0.7415376  0.5980003  )
        14           O   tau(  14) = (  0.2584624  0.4933056  0.5980003  )
        15           O   tau(  15) = (  0.4985141  0.5014859  0.3071422  )
        16           O   tau(  16) = (  0.4985141  0.5014859  0.4960513  )
        17           Sr  tau(  17) = (  0.7482398  0.7454518  0.3044833  )
        18           Sr  tau(  18) = (  0.7482398  0.7454518  0.4987103  )
        19           Sr  tau(  19) = (  0.7441748  0.2558252  0.3052408  )
        20           Sr  tau(  20) = (  0.7441748  0.2558252  0.4979527  )
        21           O   tau(  21) = (  0.7322655  0.0078049  0.5980003  )
        22           O   tau(  22) = (  0.7558175  0.4996027  0.5980003  )
        23           O   tau(  23) = (  0.5003973  0.2441825  0.5980003  )
        24           O   tau(  24) = (  0.7527966  0.4978604  0.4015968  )
        25           O   tau(  25) = (  0.5021396  0.2472034  0.4015968  )
        26           O   tau(  26) = (  0.7517679  0.0000000  0.4015968  )
        27           O   tau(  27) = (  0.0114961  0.4948124  0.6896512  )
        28           O   tau(  28) = (  0.0048226  0.0077944  0.6999492  )
        29           Sr  tau(  29) = (  0.2545482  0.2517602  0.6972903  )
        30           O   tau(  30) = (  0.5048017  0.0015068  0.7027529  )
        31           Co  tau(  31) = (  0.0056869  0.5006215  0.4015968  )
        32           Co  tau(  32) = (  0.0065315  0.4997770  0.5980003  )
        33           Co  tau(  33) = (  0.0061999  0.0064171  0.4015968  )
        34           Co  tau(  34) = (  0.0000000  0.0126169  0.5980003  )
        35           O   tau(  35) = (  0.0114961  0.4948124  0.5063494  )
        36           O   tau(  36) = (  0.0114961  0.4948124  0.2968442  )
        37           O   tau(  37) = (  0.0051979  0.2673486  0.4015968  )
        38           O   tau(  38) = (  0.0130029  0.2478461  0.5980003  )
        39           O   tau(  39) = (  0.0048226  0.0077944  0.3071422  )
        40           O   tau(  40) = (  0.0048226  0.0077944  0.4960513  )
        41           Sr  tau(  41) = (  0.2545482  0.2517602  0.3044833  )
        42           Sr  tau(  42) = (  0.2545482  0.2517602  0.4987103  )
        43           Co  tau(  43) = (  0.4989925  0.0073160  0.5980003  )
        44           Co  tau(  44) = (  0.4998370  0.0064714  0.4015968  )
        45           O   tau(  45) = (  0.5048017  0.0015068  0.3099459  )
        46           O   tau(  46) = (  0.5048017  0.0015068  0.4932477  )
        47           O   tau(  47) = (  0.2621260  0.0059111  0.5980003  )
        48           O   tau(  48) = (  0.2591051  0.0041689  0.4015968  )
        49           O   tau(  49) = (  0.9951520  0.4264937  0.8534850  )

     number of k points=    10  Gaussian smearing, width (Ry)=  0.0700
                       cart. coord. in units 2pi/alat
        k(    1) = (   0.0000000   0.0000000   0.0000000), wk =   0.1250000
        k(    2) = (   0.0000000   0.2500000   0.0000000), wk =   0.2500000
        k(    3) = (   0.0000000  -0.5000000   0.0000000), wk =   0.1250000
        k(    4) = (   0.2500000   0.2500000   0.0000000), wk =   0.2500000
        k(    5) = (   0.2500000  -0.5000000   0.0000000), wk =   0.2500000
        k(    6) = (  -0.5000000  -0.5000000   0.0000000), wk =   0.1250000
        k(    7) = (   0.2500000   0.0000000   0.0000000), wk =   0.2500000
        k(    8) = (  -0.5000000   0.0000000   0.0000000), wk =   0.1250000
        k(    9) = (  -0.2500000   0.2500000   0.0000000), wk =   0.2500000
        k(   10) = (  -0.5000000   0.2500000   0.0000000), wk =   0.2500000

                       cryst. coord.
        k(    1) = (   0.0000000   0.0000000   0.0000000), wk =   0.1250000
        k(    2) = (   0.0000000   0.2500000   0.0000000), wk =   0.2500000
        k(    3) = (   0.0000000  -0.5000000   0.0000000), wk =   0.1250000
        k(    4) = (   0.2500000   0.2500000   0.0000000), wk =   0.2500000
        k(    5) = (   0.2500000  -0.5000000   0.0000000), wk =   0.2500000
        k(    6) = (  -0.5000000  -0.5000000   0.0000000), wk =   0.1250000
        k(    7) = (   0.2500000   0.0000000   0.0000000), wk =   0.2500000
        k(    8) = (  -0.5000000   0.0000000   0.0000000), wk =   0.1250000
        k(    9) = (  -0.2500000   0.2500000   0.0000000), wk =   0.2500000
        k(   10) = (  -0.5000000   0.2500000   0.0000000), wk =   0.2500000

     Dense  grid:  1474595 G-vectors     FFT dimensions: ( 108, 108, 270)

     Smooth grid:   521381 G-vectors     FFT dimensions: (  75,  75, 192)

     Dynamical RAM for                 wfc:      10.69 MB

     Dynamical RAM for     wfc (w. buffer):      64.13 MB

     Dynamical RAM for           str. fact:       2.81 MB

     Dynamical RAM for           local pot:       0.00 MB

     Dynamical RAM for          nlocal pot:      24.53 MB

     Dynamical RAM for                qrad:       5.27 MB

     Dynamical RAM for          rho,v,vnew:       6.02 MB

     Dynamical RAM for               rhoin:       2.01 MB

     Dynamical RAM for            rho*nmix:      15.00 MB

     Dynamical RAM for           G-vectors:       3.68 MB

     Dynamical RAM for          h,s,v(r/c):       1.35 MB

     Dynamical RAM for          <psi|beta>:       2.33 MB

     Dynamical RAM for                 psi:      21.38 MB

     Dynamical RAM for                hpsi:      21.38 MB

     Dynamical RAM for                spsi:      21.38 MB

     Dynamical RAM for      wfcinit/wfcrot:      34.39 MB

     Dynamical RAM for           addusdens:     101.26 MB

     Estimated static dynamical RAM per process >     117.53 MB

     Estimated max dynamical RAM per process >     233.79 MB

     Estimated total dynamical RAM >      10.61 GB

     Check: negative core charge=   -0.000004

     Initial potential from superposition of free atoms

     starting charge     421.5961, renormalised to     430.0000

     negative rho (up, down):  7.826E-01 0.000E+00
     Starting wfcs are  376 randomized atomic wfcs
     Checking if some PAW data can be deallocated... 
       PAW data deallocated on   19 nodes for type:  2

     total cpu time spent up to now is        8.8 secs

     Self-consistent Calculation

     iteration #  1     ecut=    60.00 Ry     beta= 0.15
     Davidson diagonalization with overlap

---- Real-time Memory Report at c_bands before calling an iterative solver
             0 MiB given to the printing process from OS
             0 MiB allocation reported by mallinfo(arena+hblkhd)
         51477 MiB available memory on the node where the printing process lives
------------------
     ethr =  1.00E-02,  avg # of iterations =  2.0

     negative rho (up, down):  7.718E-01 0.000E+00

     total cpu time spent up to now is       24.4 secs

     total energy              =   -4445.27584165 Ry
     estimated scf accuracy    <      54.10206628 Ry

     iteration #  2     ecut=    60.00 Ry     beta= 0.15
     Davidson diagonalization with overlap

---- Real-time Memory Report at c_bands before calling an iterative solver
             0 MiB given to the printing process from OS
             0 MiB allocation reported by mallinfo(arena+hblkhd)
         51843 MiB available memory on the node where the printing process lives
------------------
     ethr =  1.00E-02,  avg # of iterations =  1.0

     negative rho (up, down):  7.587E-01 0.000E+00

     total cpu time spent up to now is       37.5 secs

     total energy              =   -4441.80981043 Ry
     estimated scf accuracy    <      28.84853166 Ry

     iteration #  3     ecut=    60.00 Ry     beta= 0.15
     Davidson diagonalization with overlap

---- Real-time Memory Report at c_bands before calling an iterative solver
             0 MiB given to the printing process from OS
             0 MiB allocation reported by mallinfo(arena+hblkhd)
         51087 MiB available memory on the node where the printing process lives
------------------
     ethr =  6.71E-03,  avg # of iterations =  1.0

     negative rho (up, down):  7.534E-01 0.000E+00

     total cpu time spent up to now is       50.8 secs

     total energy              =   -4442.65115090 Ry
     estimated scf accuracy    <      28.58889348 Ry

     iteration #  4     ecut=    60.00 Ry     beta= 0.15
     Davidson diagonalization with overlap

---- Real-time Memory Report at c_bands before calling an iterative solver
             0 MiB given to the printing process from OS
             0 MiB allocation reported by mallinfo(arena+hblkhd)
         51027 MiB available memory on the node where the printing process lives
------------------
     ethr =  6.65E-03,  avg # of iterations =  1.0

     negative rho (up, down):  7.538E-01 0.000E+00

     total cpu time spent up to now is       63.5 secs

     total energy              =   -4442.45685637 Ry
     estimated scf accuracy    <      26.29493415 Ry

     iteration #  5     ecut=    60.00 Ry     beta= 0.15
     Davidson diagonalization with overlap

---- Real-time Memory Report at c_bands before calling an iterative solver
             0 MiB given to the printing process from OS
             0 MiB allocation reported by mallinfo(arena+hblkhd)
         51012 MiB available memory on the node where the printing process lives
------------------
     ethr =  6.12E-03,  avg # of iterations =  1.0

     negative rho (up, down):  7.356E-01 0.000E+00

     total cpu time spent up to now is       76.0 secs

     total energy              =   -4441.19105955 Ry
     estimated scf accuracy    <      18.31196146 Ry

     iteration #  6     ecut=    60.00 Ry     beta= 0.15
     Davidson diagonalization with overlap

---- Real-time Memory Report at c_bands before calling an iterative solver
             0 MiB given to the printing process from OS
             0 MiB allocation reported by mallinfo(arena+hblkhd)
         50992 MiB available memory on the node where the printing process lives
------------------
     ethr =  4.26E-03,  avg # of iterations =  2.0

     negative rho (up, down):  7.372E-01 0.000E+00

     total cpu time spent up to now is       90.0 secs

     total energy              =   -4444.77803724 Ry
     estimated scf accuracy    <      71.37139252 Ry

     iteration #  7     ecut=    60.00 Ry     beta= 0.15
     Davidson diagonalization with overlap

---- Real-time Memory Report at c_bands before calling an iterative solver
             0 MiB given to the printing process from OS
             0 MiB allocation reported by mallinfo(arena+hblkhd)
         50971 MiB available memory on the node where the printing process lives
------------------
     ethr =  4.26E-03,  avg # of iterations =  1.0

     negative rho (up, down):  7.367E-01 0.000E+00

     total cpu time spent up to now is      102.7 secs

     total energy              =   -4445.14510270 Ry
     estimated scf accuracy    <      71.24641579 Ry

     iteration #  8     ecut=    60.00 Ry     beta= 0.15
     Davidson diagonalization with overlap

---- Real-time Memory Report at c_bands before calling an iterative solver
             0 MiB given to the printing process from OS
             0 MiB allocation reported by mallinfo(arena+hblkhd)
         50958 MiB available memory on the node where the printing process lives
------------------
     ethr =  4.26E-03,  avg # of iterations =  1.0

     negative rho (up, down):  7.496E-01 0.000E+00

     total cpu time spent up to now is      115.2 secs

     total energy              =   -4440.50341296 Ry
     estimated scf accuracy    <      79.64207892 Ry

     iteration #  9     ecut=    60.00 Ry     beta= 0.15
     Davidson diagonalization with overlap

---- Real-time Memory Report at c_bands before calling an iterative solver
             0 MiB given to the printing process from OS
             0 MiB allocation reported by mallinfo(arena+hblkhd)
         50938 MiB available memory on the node where the printing process lives
------------------
     ethr =  4.26E-03,  avg # of iterations =  1.0

     negative rho (up, down):  7.587E-01 0.000E+00

     total cpu time spent up to now is      127.8 secs

     total energy              =   -4440.96778051 Ry
     estimated scf accuracy    <      10.54585046 Ry

     iteration # 10     ecut=    60.00 Ry     beta= 0.15
     Davidson diagonalization with overlap

---- Real-time Memory Report at c_bands before calling an iterative solver
             0 MiB given to the printing process from OS
             0 MiB allocation reported by mallinfo(arena+hblkhd)
         50911 MiB available memory on the node where the printing process lives
------------------
     ethr =  2.45E-03,  avg # of iterations =  1.1

     negative rho (up, down):  7.546E-01 0.000E+00

     total cpu time spent up to now is      140.7 secs

     total energy              =   -4440.27810346 Ry
     estimated scf accuracy    <       6.12866703 Ry

     iteration # 11     ecut=    60.00 Ry     beta= 0.15
     Davidson diagonalization with overlap

---- Real-time Memory Report at c_bands before calling an iterative solver
             0 MiB given to the printing process from OS
             0 MiB allocation reported by mallinfo(arena+hblkhd)
         50910 MiB available memory on the node where the printing process lives
------------------
     ethr =  1.43E-03,  avg # of iterations =  5.5

     negative rho (up, down):  7.683E-01 0.000E+00

     total cpu time spent up to now is      156.2 secs

     total energy              =   -4439.10497464 Ry
     estimated scf accuracy    <      15.45567079 Ry

     iteration # 12     ecut=    60.00 Ry     beta= 0.15
     Davidson diagonalization with overlap

---- Real-time Memory Report at c_bands before calling an iterative solver
             0 MiB given to the printing process from OS
             0 MiB allocation reported by mallinfo(arena+hblkhd)
         50811 MiB available memory on the node where the printing process lives
------------------
     ethr =  1.43E-03,  avg # of iterations =  2.0

     negative rho (up, down):  7.842E-01 0.000E+00

     total cpu time spent up to now is      170.6 secs

     total energy              =   -4440.66930567 Ry
     estimated scf accuracy    <      19.73450279 Ry

     iteration # 13     ecut=    60.00 Ry     beta= 0.15
     Davidson diagonalization with overlap

---- Real-time Memory Report at c_bands before calling an iterative solver
             0 MiB given to the printing process from OS
             0 MiB allocation reported by mallinfo(arena+hblkhd)
         50809 MiB available memory on the node where the printing process lives
------------------
     ethr =  1.43E-03,  avg # of iterations =  3.9

     negative rho (up, down):  7.836E-01 0.000E+00

     total cpu time spent up to now is      185.5 secs

     total energy              =   -4440.42464945 Ry
     estimated scf accuracy    <       6.26208830 Ry

     iteration # 14     ecut=    60.00 Ry     beta= 0.15
     Davidson diagonalization with overlap

---- Real-time Memory Report at c_bands before calling an iterative solver
             0 MiB given to the printing process from OS
             0 MiB allocation reported by mallinfo(arena+hblkhd)
         50782 MiB available memory on the node where the printing process lives
------------------
     ethr =  1.43E-03,  avg # of iterations =  2.2

     negative rho (up, down):  7.874E-01 0.000E+00

     total cpu time spent up to now is      199.4 secs

     total energy              =   -4440.51081851 Ry
     estimated scf accuracy    <       1.59391646 Ry

     iteration # 15     ecut=    60.00 Ry     beta= 0.15
     Davidson diagonalization with overlap

---- Real-time Memory Report at c_bands before calling an iterative solver
             0 MiB given to the printing process from OS
             0 MiB allocation reported by mallinfo(arena+hblkhd)
         50780 MiB available memory on the node where the printing process lives
------------------
     ethr =  3.71E-04,  avg # of iterations = 11.7

     negative rho (up, down):  7.919E-01 0.000E+00

     total cpu time spent up to now is      218.4 secs

     total energy              =   -4440.35775313 Ry
     estimated scf accuracy    <       1.70738270 Ry

     iteration # 16     ecut=    60.00 Ry     beta= 0.15
     Davidson diagonalization with overlap

---- Real-time Memory Report at c_bands before calling an iterative solver
             0 MiB given to the printing process from OS
             0 MiB allocation reported by mallinfo(arena+hblkhd)
         50395 MiB available memory on the node where the printing process lives
------------------
     ethr =  3.71E-04,  avg # of iterations =  2.0

     negative rho (up, down):  8.049E-01 0.000E+00

     total cpu time spent up to now is      232.6 secs

     total energy              =   -4440.46078481 Ry
     estimated scf accuracy    <       1.71917746 Ry

     iteration # 17     ecut=    60.00 Ry     beta= 0.15
     Davidson diagonalization with overlap

---- Real-time Memory Report at c_bands before calling an iterative solver
             0 MiB given to the printing process from OS
             0 MiB allocation reported by mallinfo(arena+hblkhd)
         50405 MiB available memory on the node where the printing process lives
------------------
     ethr =  3.71E-04,  avg # of iterations =  1.0

     negative rho (up, down):  8.220E-01 0.000E+00

     total cpu time spent up to now is      245.7 secs

     total energy              =   -4440.25283274 Ry
     estimated scf accuracy    <       1.35989493 Ry

     iteration # 18     ecut=    60.00 Ry     beta= 0.15
     Davidson diagonalization with overlap

---- Real-time Memory Report at c_bands before calling an iterative solver
             0 MiB given to the printing process from OS
             0 MiB allocation reported by mallinfo(arena+hblkhd)
         50427 MiB available memory on the node where the printing process lives
------------------
     ethr =  3.16E-04,  avg # of iterations =  5.3

     negative rho (up, down):  8.264E-01 0.000E+00

     total cpu time spent up to now is      261.6 secs

     total energy              =   -4440.37290659 Ry
     estimated scf accuracy    <       7.07224992 Ry

     iteration # 19     ecut=    60.00 Ry     beta= 0.15
     Davidson diagonalization with overlap

---- Real-time Memory Report at c_bands before calling an iterative solver
             0 MiB given to the printing process from OS
             0 MiB allocation reported by mallinfo(arena+hblkhd)
         50444 MiB available memory on the node where the printing process lives
------------------
     ethr =  3.16E-04,  avg # of iterations =  1.9

     negative rho (up, down):  8.184E-01 0.000E+00

     total cpu time spent up to now is      275.3 secs

     total energy              =   -4440.31918475 Ry
     estimated scf accuracy    <       2.09086685 Ry

     iteration # 20     ecut=    60.00 Ry     beta= 0.15
     Davidson diagonalization with overlap

---- Real-time Memory Report at c_bands before calling an iterative solver
             0 MiB given to the printing process from OS
             0 MiB allocation reported by mallinfo(arena+hblkhd)
         50444 MiB available memory on the node where the printing process lives
------------------
     ethr =  3.16E-04,  avg # of iterations =  3.1

     negative rho (up, down):  8.193E-01 0.000E+00

     total cpu time spent up to now is      289.9 secs

     total energy              =   -4440.34040533 Ry
     estimated scf accuracy    <       0.13659171 Ry

     iteration # 21     ecut=    60.00 Ry     beta= 0.15
     Davidson diagonalization with overlap

---- Real-time Memory Report at c_bands before calling an iterative solver
             0 MiB given to the printing process from OS
             0 MiB allocation reported by mallinfo(arena+hblkhd)
         50445 MiB available memory on the node where the printing process lives
------------------
     c_bands:  1 eigenvalues not converged
     ethr =  3.18E-05,  avg # of iterations = 16.5

     negative rho (up, down):  8.144E-01 0.000E+00

     total cpu time spent up to now is      310.8 secs

     total energy              =   -4440.32991534 Ry
     estimated scf accuracy    <       0.35755246 Ry

     iteration # 22     ecut=    60.00 Ry     beta= 0.15
     Davidson diagonalization with overlap

---- Real-time Memory Report at c_bands before calling an iterative solver
             0 MiB given to the printing process from OS
             0 MiB allocation reported by mallinfo(arena+hblkhd)
         50347 MiB available memory on the node where the printing process lives
------------------
     ethr =  3.18E-05,  avg # of iterations =  1.5

     negative rho (up, down):  8.031E-01 0.000E+00

     total cpu time spent up to now is      324.2 secs

     total energy              =   -4440.31716926 Ry
     estimated scf accuracy    <       0.13636858 Ry

     iteration # 23     ecut=    60.00 Ry     beta= 0.15
     Davidson diagonalization with overlap

---- Real-time Memory Report at c_bands before calling an iterative solver
             0 MiB given to the printing process from OS
             0 MiB allocation reported by mallinfo(arena+hblkhd)
         50344 MiB available memory on the node where the printing process lives
------------------
     ethr =  3.17E-05,  avg # of iterations =  5.6

     negative rho (up, down):  8.187E-01 0.000E+00

     total cpu time spent up to now is      339.9 secs

     total energy              =   -4440.30746371 Ry
     estimated scf accuracy    <       0.06435561 Ry

     iteration # 24     ecut=    60.00 Ry     beta= 0.15
     Davidson diagonalization with overlap

---- Real-time Memory Report at c_bands before calling an iterative solver
             0 MiB given to the printing process from OS
             0 MiB allocation reported by mallinfo(arena+hblkhd)
         50353 MiB available memory on the node where the printing process lives
------------------
     ethr =  1.50E-05,  avg # of iterations =  9.3

     negative rho (up, down):  8.212E-01 0.000E+00

     total cpu time spent up to now is      358.0 secs

     total energy              =   -4440.30555966 Ry
     estimated scf accuracy    <       0.06801204 Ry

     iteration # 25     ecut=    60.00 Ry     beta= 0.15
     Davidson diagonalization with overlap

---- Real-time Memory Report at c_bands before calling an iterative solver
             0 MiB given to the printing process from OS
             0 MiB allocation reported by mallinfo(arena+hblkhd)
         50384 MiB available memory on the node where the printing process lives
------------------
     ethr =  1.50E-05,  avg # of iterations =  2.0

     negative rho (up, down):  8.105E-01 0.000E+00

     total cpu time spent up to now is      372.2 secs

     total energy              =   -4440.30257198 Ry
     estimated scf accuracy    <       0.02135884 Ry

     iteration # 26     ecut=    60.00 Ry     beta= 0.15
     Davidson diagonalization with overlap

---- Real-time Memory Report at c_bands before calling an iterative solver
             0 MiB given to the printing process from OS
             0 MiB allocation reported by mallinfo(arena+hblkhd)
         50409 MiB available memory on the node where the printing process lives
------------------
     c_bands:  1 eigenvalues not converged
     c_bands:  2 eigenvalues not converged
     c_bands:  2 eigenvalues not converged
     ethr =  4.97E-06,  avg # of iterations = 11.8

     negative rho (up, down):  8.080E-01 0.000E+00

     total cpu time spent up to now is      391.2 secs

     total energy              =   -4440.30213672 Ry
     estimated scf accuracy    <       0.01368543 Ry

     iteration # 27     ecut=    60.00 Ry     beta= 0.15
     Davidson diagonalization with overlap

---- Real-time Memory Report at c_bands before calling an iterative solver
             0 MiB given to the printing process from OS
             0 MiB allocation reported by mallinfo(arena+hblkhd)
         50387 MiB available memory on the node where the printing process lives
------------------
     c_bands:  1 eigenvalues not converged
     ethr =  3.18E-06,  avg # of iterations =  9.2

     negative rho (up, down):  7.964E-01 0.000E+00

     total cpu time spent up to now is      409.0 secs

     total energy              =   -4440.30154713 Ry
     estimated scf accuracy    <       0.00830273 Ry

     iteration # 28     ecut=    60.00 Ry     beta= 0.15
     Davidson diagonalization with overlap

---- Real-time Memory Report at c_bands before calling an iterative solver
             0 MiB given to the printing process from OS
             0 MiB allocation reported by mallinfo(arena+hblkhd)
         50325 MiB available memory on the node where the printing process lives
------------------
     ethr =  1.93E-06,  avg # of iterations =  6.3

     negative rho (up, down):  7.957E-01 0.000E+00

     total cpu time spent up to now is      425.3 secs

     total energy              =   -4440.30132492 Ry
     estimated scf accuracy    <       0.00736397 Ry

     iteration # 29     ecut=    60.00 Ry     beta= 0.15
     Davidson diagonalization with overlap

---- Real-time Memory Report at c_bands before calling an iterative solver
             0 MiB given to the printing process from OS
             0 MiB allocation reported by mallinfo(arena+hblkhd)
         50360 MiB available memory on the node where the printing process lives
------------------
     ethr =  1.71E-06,  avg # of iterations =  2.0

     negative rho (up, down):  7.922E-01 0.000E+00

     total cpu time spent up to now is      439.3 secs

     total energy              =   -4440.30034928 Ry
     estimated scf accuracy    <       0.00617707 Ry

     iteration # 30     ecut=    60.00 Ry     beta= 0.15
     Davidson diagonalization with overlap

---- Real-time Memory Report at c_bands before calling an iterative solver
             0 MiB given to the printing process from OS
             0 MiB allocation reported by mallinfo(arena+hblkhd)
         50372 MiB available memory on the node where the printing process lives
------------------
     ethr =  1.44E-06,  avg # of iterations =  6.7

     negative rho (up, down):  7.932E-01 0.000E+00

     total cpu time spent up to now is      456.1 secs

     total energy              =   -4440.30029550 Ry
     estimated scf accuracy    <       0.00267567 Ry

     iteration # 31     ecut=    60.00 Ry     beta= 0.15
     Davidson diagonalization with overlap

---- Real-time Memory Report at c_bands before calling an iterative solver
             0 MiB given to the printing process from OS
             0 MiB allocation reported by mallinfo(arena+hblkhd)
         50362 MiB available memory on the node where the printing process lives
------------------
     c_bands:  1 eigenvalues not converged
     ethr =  6.22E-07,  avg # of iterations =  9.7

     negative rho (up, down):  8.003E-01 0.000E+00

     total cpu time spent up to now is      475.5 secs

     total energy              =   -4440.30065054 Ry
     estimated scf accuracy    <       0.00044063 Ry

     iteration # 32     ecut=    60.00 Ry     beta= 0.15
     Davidson diagonalization with overlap

---- Real-time Memory Report at c_bands before calling an iterative solver
             0 MiB given to the printing process from OS
             0 MiB allocation reported by mallinfo(arena+hblkhd)
         50256 MiB available memory on the node where the printing process lives
------------------
     c_bands:  1 eigenvalues not converged
     ethr =  1.02E-07,  avg # of iterations =  9.5

     negative rho (up, down):  8.004E-01 0.000E+00

     total cpu time spent up to now is      494.7 secs

     total energy              =   -4440.30068771 Ry
     estimated scf accuracy    <       0.00015657 Ry

     iteration # 33     ecut=    60.00 Ry     beta= 0.15
     Davidson diagonalization with overlap

---- Real-time Memory Report at c_bands before calling an iterative solver
             0 MiB given to the printing process from OS
             0 MiB allocation reported by mallinfo(arena+hblkhd)
         50246 MiB available memory on the node where the printing process lives
------------------
     ethr =  3.64E-08,  avg # of iterations =  2.5

     negative rho (up, down):  7.977E-01 0.000E+00

     total cpu time spent up to now is      509.5 secs

     total energy              =   -4440.30061230 Ry
     estimated scf accuracy    <       0.00011184 Ry

     iteration # 34     ecut=    60.00 Ry     beta= 0.15
     Davidson diagonalization with overlap

---- Real-time Memory Report at c_bands before calling an iterative solver
             0 MiB given to the printing process from OS
             0 MiB allocation reported by mallinfo(arena+hblkhd)
         50252 MiB available memory on the node where the printing process lives
------------------
     c_bands:  1 eigenvalues not converged
     ethr =  2.60E-08,  avg # of iterations =  5.6

     negative rho (up, down):  7.959E-01 0.000E+00

     total cpu time spent up to now is      526.1 secs

     total energy              =   -4440.30057360 Ry
     estimated scf accuracy    <       0.00007077 Ry

     iteration # 35     ecut=    60.00 Ry     beta= 0.15
     Davidson diagonalization with overlap

---- Real-time Memory Report at c_bands before calling an iterative solver
             0 MiB given to the printing process from OS
             0 MiB allocation reported by mallinfo(arena+hblkhd)
         50389 MiB available memory on the node where the printing process lives
------------------
     ethr =  1.65E-08,  avg # of iterations =  4.9

     negative rho (up, down):  7.932E-01 0.000E+00

     total cpu time spent up to now is      541.4 secs

     total energy              =   -4440.30054998 Ry
     estimated scf accuracy    <       0.00004687 Ry

     iteration # 36     ecut=    60.00 Ry     beta= 0.15
     Davidson diagonalization with overlap

---- Real-time Memory Report at c_bands before calling an iterative solver
             0 MiB given to the printing process from OS
             0 MiB allocation reported by mallinfo(arena+hblkhd)
         50402 MiB available memory on the node where the printing process lives
------------------
     ethr =  1.09E-08,  avg # of iterations =  5.4

     negative rho (up, down):  7.926E-01 0.000E+00

     total cpu time spent up to now is      557.4 secs

     total energy              =   -4440.30055361 Ry
     estimated scf accuracy    <       0.00002688 Ry

     iteration # 37     ecut=    60.00 Ry     beta= 0.15
     Davidson diagonalization with overlap

---- Real-time Memory Report at c_bands before calling an iterative solver
             0 MiB given to the printing process from OS
             0 MiB allocation reported by mallinfo(arena+hblkhd)
         50411 MiB available memory on the node where the printing process lives
------------------
     ethr =  6.25E-09,  avg # of iterations =  2.9

     negative rho (up, down):  7.926E-01 0.000E+00

     total cpu time spent up to now is      571.9 secs

     total energy              =   -4440.30055785 Ry
     estimated scf accuracy    <       0.00001147 Ry

     iteration # 38     ecut=    60.00 Ry     beta= 0.15
     Davidson diagonalization with overlap

---- Real-time Memory Report at c_bands before calling an iterative solver
             0 MiB given to the printing process from OS
             0 MiB allocation reported by mallinfo(arena+hblkhd)
         50412 MiB available memory on the node where the printing process lives
------------------
     ethr =  2.67E-09,  avg # of iterations =  2.0

     negative rho (up, down):  7.925E-01 0.000E+00

     total cpu time spent up to now is      586.0 secs

     total energy              =   -4440.30056107 Ry
     estimated scf accuracy    <       0.00000865 Ry

     iteration # 39     ecut=    60.00 Ry     beta= 0.15
     Davidson diagonalization with overlap

---- Real-time Memory Report at c_bands before calling an iterative solver
             0 MiB given to the printing process from OS
             0 MiB allocation reported by mallinfo(arena+hblkhd)
         50424 MiB available memory on the node where the printing process lives
------------------
     ethr =  2.01E-09,  avg # of iterations =  2.0

     negative rho (up, down):  7.924E-01 0.000E+00

     total cpu time spent up to now is      600.2 secs

     total energy              =   -4440.30056293 Ry
     estimated scf accuracy    <       0.00000430 Ry

     iteration # 40     ecut=    60.00 Ry     beta= 0.15
     Davidson diagonalization with overlap

---- Real-time Memory Report at c_bands before calling an iterative solver
             0 MiB given to the printing process from OS
             0 MiB allocation reported by mallinfo(arena+hblkhd)
         50424 MiB available memory on the node where the printing process lives
------------------
     ethr =  1.00E-09,  avg # of iterations =  3.0

     negative rho (up, down):  7.924E-01 0.000E+00

     total cpu time spent up to now is      614.9 secs

     total energy              =   -4440.30056300 Ry
     estimated scf accuracy    <       0.00000244 Ry

     iteration # 41     ecut=    60.00 Ry     beta= 0.15
     Davidson diagonalization with overlap

---- Real-time Memory Report at c_bands before calling an iterative solver
             0 MiB given to the printing process from OS
             0 MiB allocation reported by mallinfo(arena+hblkhd)
         50415 MiB available memory on the node where the printing process lives
------------------
     ethr =  5.67E-10,  avg # of iterations =  2.0

     negative rho (up, down):  7.924E-01 0.000E+00

     total cpu time spent up to now is      629.2 secs

     total energy              =   -4440.30056297 Ry
     estimated scf accuracy    <       0.00000161 Ry

     iteration # 42     ecut=    60.00 Ry     beta= 0.15
     Davidson diagonalization with overlap

---- Real-time Memory Report at c_bands before calling an iterative solver
             0 MiB given to the printing process from OS
             0 MiB allocation reported by mallinfo(arena+hblkhd)
         50418 MiB available memory on the node where the printing process lives
------------------
     ethr =  3.74E-10,  avg # of iterations =  1.6

     negative rho (up, down):  7.925E-01 0.000E+00

     total cpu time spent up to now is      643.0 secs

     total energy              =   -4440.30056279 Ry
     estimated scf accuracy    <       0.00000145 Ry

     iteration # 43     ecut=    60.00 Ry     beta= 0.15
     Davidson diagonalization with overlap

---- Real-time Memory Report at c_bands before calling an iterative solver
             0 MiB given to the printing process from OS
             0 MiB allocation reported by mallinfo(arena+hblkhd)
         50419 MiB available memory on the node where the printing process lives
------------------
     ethr =  3.38E-10,  avg # of iterations =  2.0

     negative rho (up, down):  7.925E-01 0.000E+00

     total cpu time spent up to now is      657.4 secs

     total energy              =   -4440.30056288 Ry
     estimated scf accuracy    <       0.00000084 Ry

     iteration # 44     ecut=    60.00 Ry     beta= 0.15
     Davidson diagonalization with overlap

---- Real-time Memory Report at c_bands before calling an iterative solver
             0 MiB given to the printing process from OS
             0 MiB allocation reported by mallinfo(arena+hblkhd)
         50418 MiB available memory on the node where the printing process lives
------------------
     ethr =  1.96E-10,  avg # of iterations =  2.0

     negative rho (up, down):  7.926E-01 0.000E+00

     total cpu time spent up to now is      671.7 secs

     total energy              =   -4440.30056313 Ry
     estimated scf accuracy    <       0.00000047 Ry

     iteration # 45     ecut=    60.00 Ry     beta= 0.15
     Davidson diagonalization with overlap

---- Real-time Memory Report at c_bands before calling an iterative solver
             0 MiB given to the printing process from OS
             0 MiB allocation reported by mallinfo(arena+hblkhd)
         50422 MiB available memory on the node where the printing process lives
------------------
     ethr =  1.08E-10,  avg # of iterations =  2.6

     negative rho (up, down):  7.926E-01 0.000E+00

     total cpu time spent up to now is      686.2 secs

     total energy              =   -4440.30056314 Ry
     estimated scf accuracy    <       0.00000026 Ry

     iteration # 46     ecut=    60.00 Ry     beta= 0.15
     Davidson diagonalization with overlap

---- Real-time Memory Report at c_bands before calling an iterative solver
             0 MiB given to the printing process from OS
             0 MiB allocation reported by mallinfo(arena+hblkhd)
         50421 MiB available memory on the node where the printing process lives
------------------
     ethr =  6.12E-11,  avg # of iterations =  3.0

     negative rho (up, down):  7.927E-01 0.000E+00

     total cpu time spent up to now is      700.8 secs

     total energy              =   -4440.30056316 Ry
     estimated scf accuracy    <       0.00000010 Ry

     iteration # 47     ecut=    60.00 Ry     beta= 0.15
     Davidson diagonalization with overlap

---- Real-time Memory Report at c_bands before calling an iterative solver
             0 MiB given to the printing process from OS
             0 MiB allocation reported by mallinfo(arena+hblkhd)
         50422 MiB available memory on the node where the printing process lives
------------------
     ethr =  2.30E-11,  avg # of iterations =  3.0

     negative rho (up, down):  7.927E-01 0.000E+00

     total cpu time spent up to now is      717.1 secs

     total energy              =   -4440.30056316 Ry
     estimated scf accuracy    <       0.00000004 Ry

     iteration # 48     ecut=    60.00 Ry     beta= 0.15
     Davidson diagonalization with overlap

---- Real-time Memory Report at c_bands before calling an iterative solver
             0 MiB given to the printing process from OS
             0 MiB allocation reported by mallinfo(arena+hblkhd)
         50415 MiB available memory on the node where the printing process lives
------------------
     ethr =  9.15E-12,  avg # of iterations =  2.0

     negative rho (up, down):  7.926E-01 0.000E+00

     total cpu time spent up to now is      731.2 secs

     total energy              =   -4440.30056316 Ry
     estimated scf accuracy    <       0.00000002 Ry

     iteration # 49     ecut=    60.00 Ry     beta= 0.15
     Davidson diagonalization with overlap

---- Real-time Memory Report at c_bands before calling an iterative solver
             0 MiB given to the printing process from OS
             0 MiB allocation reported by mallinfo(arena+hblkhd)
         50418 MiB available memory on the node where the printing process lives
------------------
     ethr =  3.75E-12,  avg # of iterations =  3.0

     negative rho (up, down):  7.926E-01 0.000E+00

     total cpu time spent up to now is      746.1 secs

     End of self-consistent calculation

          k = 0.0000 0.0000 0.0000 ( 65197 PWs)   bands (ev):

   -92.8845 -92.8338 -92.7395 -92.6914 -92.6346 -92.5913 -92.5737 -92.4535
   -56.2380 -56.2186 -56.0960 -56.0849 -56.0788 -56.0718 -56.0374 -56.0081
   -55.9926 -55.9911 -55.9855 -55.9413 -55.9221 -55.8853 -55.8666 -55.8349
   -55.8269 -55.7799 -55.7790 -55.7761 -55.7677 -55.7287 -55.7037 -55.6183
   -31.4482 -31.4283 -31.2864 -31.2283 -31.1995 -31.0443 -31.0428 -30.8385
   -30.0299 -29.9867 -29.9605 -29.8521 -15.2610 -15.2132 -15.1347 -15.0055
   -14.8034 -14.6851 -14.3969 -14.3755 -14.3485 -14.3015 -14.2529 -14.2354
   -14.2323 -14.2116 -14.1954 -14.1520 -14.1112 -13.9563 -13.7665 -13.7443
   -13.7146 -13.6739 -13.6571 -13.6050 -13.5737 -13.4906 -13.4222 -13.2960
   -13.2807 -13.2713 -13.2462 -13.2281 -13.2130 -13.1728 -13.1639 -13.1521
   -13.1220 -13.0933 -13.0719 -13.0384 -13.0195 -12.9657 -12.9426 -12.9140
   -12.9098 -12.7874 -12.7724 -12.7567 -12.5143 -12.3677 -12.1773 -12.1050
   -12.0428 -11.9920 -11.9692 -11.9579 -11.9348 -11.9171 -11.8537 -11.8363
   -11.8018 -11.7726 -11.6602 -11.5811 -11.5777  -3.1216  -2.8905  -2.6611
    -2.5115  -2.4513  -2.3094  -2.0007  -1.9853  -1.9678  -1.8777  -1.8620
    -1.7936  -1.7771  -1.7372  -1.6929  -1.5119  -1.2834  -1.2534  -1.1119
    -1.0969  -1.0493  -1.0291  -0.9826  -0.9665  -0.9152  -0.8874  -0.8119
    -0.8012  -0.7280  -0.5929  -0.5799  -0.5514  -0.4722  -0.4440  -0.3912
    -0.3654  -0.3070  -0.2579  -0.2054  -0.1839  -0.1153  -0.0440  -0.0003
     0.0260   0.0362   0.2965   0.3127   0.4880   0.5472   0.6112   0.6658
     0.7486   0.7597   0.7770   0.8453   0.8723   0.9049   0.9623   1.0923
     1.1519   1.1739   1.2043   1.2144   1.2711   1.3388   1.4545   1.4748
     1.5295   1.5352   1.5821   1.6027   1.6141   1.6662   1.7318   1.7359
     1.7744   1.8014   1.8480   1.9809   2.0685   2.1078   2.1287   2.2721
     2.2869   2.3298   2.3344   2.4450   2.4768   2.5019   2.5229   2.5370
     2.6009   2.6130   2.6323   2.6435   2.7310   2.7665   2.7704   2.7762
     2.8437   2.8580   2.8722   2.8790   2.8882   2.9007   2.9095   2.9240
     2.9307   2.9401   2.9475   2.9547   2.9749   2.9961   3.0012   3.0134
     3.0368   3.1534   3.2595   3.9345   4.2526   4.6113   4.8278   4.8640
     5.7676   5.8103   5.8372   5.9215   6.1338   6.1793   6.4330   6.4428
     6.9403   6.9937   7.0829   7.1590   7.4997   7.5426   7.5469   7.5680
     7.6008   7.8658   7.8959   8.0268   8.0313   8.1447   8.2957   8.4747
     8.7595   8.9316

     occupation numbers 
     1.0000   1.0000   1.0000   1.0000   1.0000   1.0000   1.0000   1.0000
     1.0000   1.0000   1.0000   1.0000   1.0000   1.0000   1.0000   1.0000
     1.0000   1.0000   1.0000   1.0000   1.0000   1.0000   1.0000   1.0000
     1.0000   1.0000   1.0000   1.0000   1.0000   1.0000   1.0000   1.0000
     1.0000   1.0000   1.0000   1.0000   1.0000   1.0000   1.0000   1.0000
     1.0000   1.0000   1.0000   1.0000   1.0000   1.0000   1.0000   1.0000
     1.0000   1.0000   1.0000   1.0000   1.0000   1.0000   1.0000   1.0000
     1.0000   1.0000   1.0000   1.0000   1.0000   1.0000   1.0000   1.0000
     1.0000   1.0000   1.0000   1.0000   1.0000   1.0000   1.0000   1.0000
     1.0000   1.0000   1.0000   1.0000   1.0000   1.0000   1.0000   1.0000
     1.0000   1.0000   1.0000   1.0000   1.0000   1.0000   1.0000   1.0000
     1.0000   1.0000   1.0000   1.0000   1.0000   1.0000   1.0000   1.0000
     1.0000   1.0000   1.0000   1.0000   1.0000   1.0000   1.0000   1.0000
     1.0000   1.0000   1.0000   1.0000   1.0000   1.0000   1.0000   1.0000
     1.0000   1.0000   1.0000   1.0000   1.0000   1.0000   1.0000   1.0000
     1.0000   1.0000   1.0000   1.0000   1.0000   1.0000   1.0000   1.0000
     1.0000   1.0000   1.0000   1.0000   1.0000   1.0000   1.0000   1.0000
     1.0000   1.0000   1.0000   1.0000   1.0000   1.0000   1.0000   1.0000
     1.0000   1.0000   1.0000   1.0000   1.0000   1.0000   1.0000   1.0000
     1.0000   1.0000   1.0000   1.0000   1.0000   0.9999   0.9999   0.9999
     0.9998   0.9998   0.9998   0.9997   0.9996   0.9996   0.9994   0.9988
     0.9985   0.9983   0.9980   0.9979   0.9973   0.9963   0.9939   0.9934
     0.9917   0.9916   0.9898   0.9890   0.9885   0.9859   0.9820   0.9817
     0.9790   0.9769   0.9729   0.9579   0.9449   0.9381   0.9342   0.9023
     0.8985   0.8867   0.8854   0.8504   0.8391   0.8299   0.8218   0.8163
     0.7901   0.7848   0.7764   0.7714   0.7302   0.7125   0.7105   0.7076
     0.6722   0.6645   0.6568   0.6531   0.6480   0.6411   0.6362   0.6281
     0.6243   0.6190   0.6148   0.6107   0.5992   0.5870   0.5840   0.5769
     0.5633   0.4945   0.4319   0.1203   0.0499   0.0147   0.0062   0.0053
     0.0000   0.0000   0.0000   0.0000   0.0000   0.0000   0.0000   0.0000
     0.0000   0.0000   0.0000   0.0000   0.0000   0.0000   0.0000   0.0000
     0.0000   0.0000   0.0000   0.0000   0.0000   0.0000   0.0000   0.0000
     0.0000   0.0000

          k = 0.0000 0.2500 0.0000 ( 65257 PWs)   bands (ev):

   -92.8845 -92.8338 -92.7395 -92.6914 -92.6346 -92.5913 -92.5737 -92.4535
   -56.2380 -56.2186 -56.0960 -56.0849 -56.0788 -56.0718 -56.0374 -56.0081
   -55.9926 -55.9911 -55.9855 -55.9413 -55.9221 -55.8853 -55.8666 -55.8349
   -55.8269 -55.7799 -55.7790 -55.7761 -55.7677 -55.7287 -55.7037 -55.6183
   -31.4480 -31.4282 -31.2866 -31.2281 -31.1996 -31.0441 -31.0430 -30.8387
   -30.0293 -29.9863 -29.9611 -29.8524 -15.2246 -15.1866 -15.1099 -14.9759
   -14.8482 -14.6737 -14.5429 -14.3630 -14.3242 -14.3057 -14.2765 -14.2186
   -14.2103 -14.1948 -14.1731 -14.1193 -14.0290 -13.9874 -13.8231 -13.7930
   -13.7555 -13.7168 -13.6541 -13.6278 -13.5748 -13.5162 -13.4767 -13.4058
   -13.3368 -13.3177 -13.2795 -13.2638 -13.1971 -13.1557 -13.1302 -13.1047
   -13.0736 -13.0448 -13.0363 -13.0030 -12.9757 -12.9642 -12.9342 -12.8479
   -12.8238 -12.7814 -12.7073 -12.6495 -12.5756 -12.4188 -12.2334 -12.1697
   -12.0082 -11.9920 -11.9660 -11.9376 -11.9094 -11.8929 -11.8455 -11.8342
   -11.8115 -11.7777 -11.6746 -11.6227 -11.6123  -2.9861  -2.7662  -2.6280
    -2.4453  -2.4020  -2.2395  -2.0155  -1.9361  -1.9229  -1.8572  -1.7607
    -1.7452  -1.7111  -1.6833  -1.6392  -1.4430  -1.3127  -1.3015  -1.2235
    -1.2146  -1.1119  -1.0823  -1.0221  -0.9953  -0.9583  -0.8919  -0.8646
    -0.8331  -0.8027  -0.7855  -0.7532  -0.6784  -0.6288  -0.5460  -0.4431
    -0.4096  -0.3659  -0.2688  -0.2282  -0.1618  -0.1180  -0.0572  -0.0450
    -0.0193   0.0399   0.3448   0.4317   0.4681   0.5517   0.5990   0.6227
     0.7306   0.7492   0.8468   0.8726   0.8970   1.0114   1.1115   1.1280
     1.1552   1.1779   1.1959   1.2550   1.2836   1.3118   1.3575   1.3962
     1.4294   1.5198   1.5575   1.5810   1.6373   1.6895   1.7288   1.7578
     1.7825   1.7952   1.8983   2.0184   2.0915   2.1119   2.1796   2.2258
     2.2679   2.2741   2.3370   2.3736   2.4604   2.4992   2.5170   2.6054
     2.6107   2.6379   2.6878   2.7089   2.7417   2.7648   2.7787   2.7882
     2.7926   2.8015   2.8329   2.8349   2.8521   2.8648   2.8672   2.8890
     2.9002   2.9082   2.9261   2.9370   2.9434   2.9777   2.9937   3.0532
     3.4228   3.4736   3.7032   4.1245   4.2493   4.5533   4.8819   4.9897
     5.5134   5.6603   5.8109   5.9140   5.9607   6.0621   6.0683   6.5470
     7.0283   7.0958   7.2241   7.2450   7.3459   7.4049   7.5460   7.6370
     7.7163   7.9539   8.0676   8.1558   8.2638   8.2960   8.3596   8.3720
     8.5209   8.8193

     occupation numbers 
     1.0000   1.0000   1.0000   1.0000   1.0000   1.0000   1.0000   1.0000
     1.0000   1.0000   1.0000   1.0000   1.0000   1.0000   1.0000   1.0000
     1.0000   1.0000   1.0000   1.0000   1.0000   1.0000   1.0000   1.0000
     1.0000   1.0000   1.0000   1.0000   1.0000   1.0000   1.0000   1.0000
     1.0000   1.0000   1.0000   1.0000   1.0000   1.0000   1.0000   1.0000
     1.0000   1.0000   1.0000   1.0000   1.0000   1.0000   1.0000   1.0000
     1.0000   1.0000   1.0000   1.0000   1.0000   1.0000   1.0000   1.0000
     1.0000   1.0000   1.0000   1.0000   1.0000   1.0000   1.0000   1.0000
     1.0000   1.0000   1.0000   1.0000   1.0000   1.0000   1.0000   1.0000
     1.0000   1.0000   1.0000   1.0000   1.0000   1.0000   1.0000   1.0000
     1.0000   1.0000   1.0000   1.0000   1.0000   1.0000   1.0000   1.0000
     1.0000   1.0000   1.0000   1.0000   1.0000   1.0000   1.0000   1.0000
     1.0000   1.0000   1.0000   1.0000   1.0000   1.0000   1.0000   1.0000
     1.0000   1.0000   1.0000   1.0000   1.0000   1.0000   1.0000   1.0000
     1.0000   1.0000   1.0000   1.0000   1.0000   1.0000   1.0000   1.0000
     1.0000   1.0000   1.0000   1.0000   1.0000   1.0000   1.0000   1.0000
     1.0000   1.0000   1.0000   1.0000   1.0000   1.0000   1.0000   1.0000
     1.0000   1.0000   1.0000   1.0000   1.0000   1.0000   1.0000   1.0000
     1.0000   1.0000   1.0000   1.0000   1.0000   1.0000   1.0000   1.0000
     1.0000   1.0000   1.0000   1.0000   1.0000   0.9999   0.9999   0.9999
     0.9998   0.9998   0.9997   0.9996   0.9996   0.9992   0.9987   0.9986
     0.9984   0.9982   0.9981   0.9975   0.9971   0.9967   0.9960   0.9953
     0.9946   0.9921   0.9908   0.9899   0.9874   0.9846   0.9822   0.9802
     0.9784   0.9774   0.9678   0.9527   0.9410   0.9373   0.9240   0.9136
     0.9034   0.9018   0.8846   0.8737   0.8450   0.8309   0.8241   0.7881
     0.7858   0.7739   0.7509   0.7409   0.7249   0.7133   0.7063   0.7014
     0.6992   0.6945   0.6780   0.6769   0.6677   0.6608   0.6595   0.6476
     0.6414   0.6369   0.6269   0.6207   0.6171   0.5976   0.5884   0.5537
     0.3395   0.3123   0.2032   0.0727   0.0504   0.0182   0.0049   0.0031
     0.0002   0.0001   0.0000   0.0000   0.0000   0.0000   0.0000   0.0000
     0.0000   0.0000   0.0000   0.0000   0.0000   0.0000   0.0000   0.0000
     0.0000   0.0000   0.0000   0.0000   0.0000   0.0000   0.0000   0.0000
     0.0000   0.0000

          k = 0.0000-0.5000 0.0000 ( 65180 PWs)   bands (ev):

   -92.8845 -92.8338 -92.7395 -92.6914 -92.6346 -92.5913 -92.5737 -92.4535
   -56.2380 -56.2185 -56.0960 -56.0849 -56.0788 -56.0718 -56.0374 -56.0081
   -55.9926 -55.9911 -55.9855 -55.9413 -55.9221 -55.8853 -55.8666 -55.8349
   -55.8269 -55.7799 -55.7790 -55.7761 -55.7677 -55.7287 -55.7037 -55.6183
   -31.4478 -31.4280 -31.2868 -31.2280 -31.1997 -31.0439 -31.0432 -30.8389
   -30.0286 -29.9860 -29.9618 -29.8528 -15.1875 -15.1396 -15.0837 -14.9563
   -14.8725 -14.7377 -14.5734 -14.4586 -14.3360 -14.2596 -14.2192 -14.2123
   -14.1606 -14.1482 -14.0980 -14.0673 -14.0530 -14.0169 -13.9689 -13.9307
   -13.7618 -13.7022 -13.6535 -13.6340 -13.5626 -13.5341 -13.4799 -13.4525
   -13.4347 -13.3870 -13.2804 -13.2651 -13.1862 -13.1393 -13.1278 -13.0993
   -13.0788 -13.0535 -12.9999 -12.9678 -12.9273 -12.8778 -12.8284 -12.8237
   -12.8089 -12.7801 -12.6863 -12.5776 -12.4936 -12.4573 -12.3330 -12.2860
   -11.9920 -11.9630 -11.9598 -11.9324 -11.8954 -11.8607 -11.8496 -11.8076
   -11.8038 -11.7594 -11.6962 -11.6832 -11.6693  -2.7705  -2.7133  -2.5629
    -2.4915  -2.2048  -2.1245  -1.9969  -1.8621  -1.8144  -1.8035  -1.7260
    -1.6946  -1.6115  -1.5769  -1.4963  -1.4589  -1.4222  -1.3945  -1.3311
    -1.2979  -1.2498  -1.2138  -1.1820  -1.1494  -1.0384  -0.9948  -0.9561
    -0.9514  -0.8669  -0.8373  -0.8165  -0.7678  -0.6749  -0.6072  -0.5140
    -0.4623  -0.3805  -0.3499  -0.2101  -0.1435  -0.1349  -0.0861   0.0322
     0.0958   0.2112   0.2817   0.2935   0.4166   0.4867   0.5747   0.6979
     0.8016   0.8350   0.8758   0.8923   0.9226   0.9365   0.9696   0.9865
     1.0010   1.1091   1.1708   1.2084   1.2358   1.5097   1.5229   1.5444
     1.6363   1.6615   1.6946   1.7113   1.7320   1.7555   1.7597   1.7836
     1.8270   1.8565   1.8887   1.8897   1.9199   1.9723   2.0654   2.0986
     2.2634   2.4217   2.4297   2.4524   2.4854   2.4931   2.5005   2.5486
     2.5630   2.5957   2.6085   2.6195   2.6399   2.6466   2.7191   2.7470
     2.8039   2.8069   2.8340   2.8382   2.8492   2.8528   2.8587   2.8647
     2.8688   2.8834   2.8963   2.9006   2.9631   2.9664   2.9831   3.0402
     3.9483   3.9671   4.0096   4.1044   4.5616   4.7329   4.9014   5.0232
     5.2835   5.3646   5.4894   5.6041   5.8682   5.8730   6.3818   6.6399
     6.7871   6.8967   7.1389   7.3133   7.5717   7.6491   7.7466   7.7532
     7.7782   7.9824   8.0310   8.1424   8.1803   8.3437   8.4685   8.5214
     8.6883   8.7636

     occupation numbers 
     1.0000   1.0000   1.0000   1.0000   1.0000   1.0000   1.0000   1.0000
     1.0000   1.0000   1.0000   1.0000   1.0000   1.0000   1.0000   1.0000
     1.0000   1.0000   1.0000   1.0000   1.0000   1.0000   1.0000   1.0000
     1.0000   1.0000   1.0000   1.0000   1.0000   1.0000   1.0000   1.0000
     1.0000   1.0000   1.0000   1.0000   1.0000   1.0000   1.0000   1.0000
     1.0000   1.0000   1.0000   1.0000   1.0000   1.0000   1.0000   1.0000
     1.0000   1.0000   1.0000   1.0000   1.0000   1.0000   1.0000   1.0000
     1.0000   1.0000   1.0000   1.0000   1.0000   1.0000   1.0000   1.0000
     1.0000   1.0000   1.0000   1.0000   1.0000   1.0000   1.0000   1.0000
     1.0000   1.0000   1.0000   1.0000   1.0000   1.0000   1.0000   1.0000
     1.0000   1.0000   1.0000   1.0000   1.0000   1.0000   1.0000   1.0000
     1.0000   1.0000   1.0000   1.0000   1.0000   1.0000   1.0000   1.0000
     1.0000   1.0000   1.0000   1.0000   1.0000   1.0000   1.0000   1.0000
     1.0000   1.0000   1.0000   1.0000   1.0000   1.0000   1.0000   1.0000
     1.0000   1.0000   1.0000   1.0000   1.0000   1.0000   1.0000   1.0000
     1.0000   1.0000   1.0000   1.0000   1.0000   1.0000   1.0000   1.0000
     1.0000   1.0000   1.0000   1.0000   1.0000   1.0000   1.0000   1.0000
     1.0000   1.0000   1.0000   1.0000   1.0000   1.0000   1.0000   1.0000
     1.0000   1.0000   1.0000   1.0000   1.0000   1.0000   1.0000   1.0000
     1.0000   1.0000   1.0000   1.0000   1.0000   1.0000   0.9999   0.9999
     0.9997   0.9997   0.9996   0.9996   0.9995   0.9995   0.9994   0.9993
     0.9993   0.9987   0.9983   0.9980   0.9977   0.9924   0.9920   0.9912
     0.9874   0.9861   0.9843   0.9833   0.9820   0.9804   0.9801   0.9783
     0.9748   0.9721   0.9688   0.9687   0.9655   0.9591   0.9454   0.9397
     0.9045   0.8583   0.8556   0.8478   0.8360   0.8332   0.8304   0.8117
     0.8059   0.7923   0.7868   0.7820   0.7730   0.7700   0.7360   0.7223
     0.6933   0.6917   0.6774   0.6752   0.6693   0.6673   0.6642   0.6609
     0.6586   0.6507   0.6435   0.6412   0.6059   0.6041   0.5945   0.5613
     0.1162   0.1108   0.0994   0.0769   0.0176   0.0092   0.0045   0.0026
     0.0007   0.0005   0.0002   0.0001   0.0000   0.0000   0.0000   0.0000
     0.0000   0.0000   0.0000   0.0000   0.0000   0.0000   0.0000   0.0000
     0.0000   0.0000   0.0000   0.0000   0.0000   0.0000   0.0000   0.0000
     0.0000   0.0000

          k = 0.2500 0.2500 0.0000 ( 65198 PWs)   bands (ev):

   -92.8845 -92.8338 -92.7395 -92.6914 -92.6346 -92.5913 -92.5737 -92.4535
   -56.2380 -56.2186 -56.0960 -56.0849 -56.0788 -56.0718 -56.0374 -56.0081
   -55.9926 -55.9911 -55.9855 -55.9413 -55.9221 -55.8853 -55.8666 -55.8349
   -55.8269 -55.7799 -55.7790 -55.7761 -55.7677 -55.7287 -55.7037 -55.6183
   -31.4463 -31.4298 -31.2863 -31.2280 -31.2000 -31.0443 -31.0429 -30.8389
   -30.0283 -29.9873 -29.9607 -29.8529 -15.1956 -15.1518 -15.0817 -14.9657
   -14.8403 -14.7166 -14.6489 -14.4380 -14.2857 -14.2715 -14.2352 -14.2069
   -14.1833 -14.1507 -14.1196 -14.0812 -14.0185 -14.0005 -13.8389 -13.8250
   -13.7946 -13.7761 -13.6957 -13.6838 -13.6031 -13.5983 -13.4637 -13.4252
   -13.3983 -13.3130 -13.2723 -13.2222 -13.1900 -13.1689 -13.1419 -13.1172
   -13.0875 -13.0415 -12.9903 -12.9537 -12.9287 -12.9152 -12.8978 -12.8851
   -12.8183 -12.7775 -12.6512 -12.6240 -12.5344 -12.4478 -12.2643 -12.2187
   -11.9921 -11.9805 -11.9494 -11.9380 -11.9310 -11.8686 -11.8335 -11.8272
   -11.7918 -11.7837 -11.6913 -11.6511 -11.6336  -2.8475  -2.6404  -2.5221
    -2.4252  -2.3073  -2.2428  -2.0399  -1.9003  -1.8817  -1.8454  -1.7549
    -1.7218  -1.6276  -1.5990  -1.5488  -1.4193  -1.3704  -1.2949  -1.2525
    -1.2059  -1.1841  -1.1610  -1.1178  -1.1032  -1.0118  -0.9619  -0.8896
    -0.8438  -0.8156  -0.7682  -0.7528  -0.6886  -0.6387  -0.5704  -0.5443
    -0.4494  -0.4073  -0.3724  -0.3393  -0.2841  -0.2057  -0.1722  -0.1371
    -0.0684  -0.0317   0.2329   0.3858   0.4150   0.4790   0.5169   0.5821
     0.6237   0.6930   0.7305   1.0023   1.0627   1.1367   1.1596   1.2171
     1.2397   1.2773   1.3147   1.3305   1.3579   1.4070   1.4138   1.4325
     1.4793   1.5135   1.5521   1.6138   1.6495   1.6649   1.6927   1.7285
     1.7850   1.8076   1.9358   1.9998   2.0340   2.0540   2.1276   2.1878
     2.2158   2.2515   2.2791   2.2880   2.4030   2.4415   2.5297   2.5957
     2.6098   2.6420   2.6967   2.7154   2.7189   2.7367   2.7517   2.7657
     2.7766   2.7813   2.7946   2.8081   2.8258   2.8374   2.8446   2.8559
     2.8827   2.8894   2.8976   2.9293   3.2291   3.3215   3.3783   3.4399
     3.4559   3.6919   3.7728   4.1302   4.3395   4.5602   4.8044   5.1288
     5.5000   5.5635   5.6295   5.6611   5.7224   6.0911   6.1561   6.2069
     6.8371   7.1408   7.2329   7.3745   7.4525   7.4807   7.5910   7.7596
     7.8277   7.9851   8.2024   8.2558   8.3249   8.3410   8.4385   8.4892
     8.5364   8.6425

     occupation numbers 
     1.0000   1.0000   1.0000   1.0000   1.0000   1.0000   1.0000   1.0000
     1.0000   1.0000   1.0000   1.0000   1.0000   1.0000   1.0000   1.0000
     1.0000   1.0000   1.0000   1.0000   1.0000   1.0000   1.0000   1.0000
     1.0000   1.0000   1.0000   1.0000   1.0000   1.0000   1.0000   1.0000
     1.0000   1.0000   1.0000   1.0000   1.0000   1.0000   1.0000   1.0000
     1.0000   1.0000   1.0000   1.0000   1.0000   1.0000   1.0000   1.0000
     1.0000   1.0000   1.0000   1.0000   1.0000   1.0000   1.0000   1.0000
     1.0000   1.0000   1.0000   1.0000   1.0000   1.0000   1.0000   1.0000
     1.0000   1.0000   1.0000   1.0000   1.0000   1.0000   1.0000   1.0000
     1.0000   1.0000   1.0000   1.0000   1.0000   1.0000   1.0000   1.0000
     1.0000   1.0000   1.0000   1.0000   1.0000   1.0000   1.0000   1.0000
     1.0000   1.0000   1.0000   1.0000   1.0000   1.0000   1.0000   1.0000
     1.0000   1.0000   1.0000   1.0000   1.0000   1.0000   1.0000   1.0000
     1.0000   1.0000   1.0000   1.0000   1.0000   1.0000   1.0000   1.0000
     1.0000   1.0000   1.0000   1.0000   1.0000   1.0000   1.0000   1.0000
     1.0000   1.0000   1.0000   1.0000   1.0000   1.0000   1.0000   1.0000
     1.0000   1.0000   1.0000   1.0000   1.0000   1.0000   1.0000   1.0000
     1.0000   1.0000   1.0000   1.0000   1.0000   1.0000   1.0000   1.0000
     1.0000   1.0000   1.0000   1.0000   1.0000   1.0000   1.0000   1.0000
     1.0000   1.0000   1.0000   1.0000   1.0000   1.0000   1.0000   0.9999
     0.9999   0.9999   0.9998   0.9993   0.9990   0.9986   0.9984   0.9979
     0.9977   0.9972   0.9967   0.9965   0.9960   0.9951   0.9949   0.9945
     0.9933   0.9923   0.9910   0.9885   0.9868   0.9860   0.9844   0.9822
     0.9782   0.9764   0.9636   0.9554   0.9504   0.9472   0.9344   0.9222
     0.9160   0.9075   0.9005   0.8982   0.8644   0.8516   0.8192   0.7923
     0.7862   0.7720   0.7468   0.7378   0.7361   0.7274   0.7200   0.7129
     0.7074   0.7049   0.6981   0.6911   0.6818   0.6756   0.6717   0.6657
     0.6510   0.6474   0.6428   0.6251   0.4498   0.3961   0.3640   0.3302
     0.3217   0.2080   0.1753   0.0716   0.0379   0.0177   0.0068   0.0016
     0.0002   0.0002   0.0001   0.0001   0.0001   0.0000   0.0000   0.0000
     0.0000   0.0000   0.0000   0.0000   0.0000   0.0000   0.0000   0.0000
     0.0000   0.0000   0.0000   0.0000   0.0000   0.0000   0.0000   0.0000
     0.0000   0.0000

          k = 0.2500-0.5000 0.0000 ( 65138 PWs)   bands (ev):

   -92.8845 -92.8338 -92.7395 -92.6914 -92.6346 -92.5913 -92.5737 -92.4535
   -56.2380 -56.2185 -56.0960 -56.0849 -56.0788 -56.0718 -56.0374 -56.0081
   -55.9926 -55.9911 -55.9855 -55.9413 -55.9221 -55.8853 -55.8666 -55.8349
   -55.8269 -55.7799 -55.7790 -55.7761 -55.7677 -55.7287 -55.7037 -55.6183
   -31.4461 -31.4297 -31.2865 -31.2278 -31.2001 -31.0441 -31.0431 -30.8390
   -30.0277 -29.9870 -29.9614 -29.8532 -15.1567 -15.1127 -15.0406 -14.9279
   -14.8942 -14.7783 -14.6793 -14.5555 -14.2511 -14.1946 -14.1712 -14.1456
   -14.1316 -14.1200 -14.0816 -14.0560 -14.0322 -13.9950 -13.9661 -13.9173
   -13.8425 -13.7940 -13.7159 -13.7080 -13.6416 -13.6094 -13.5192 -13.4834
   -13.3780 -13.3126 -13.2922 -13.2070 -13.1605 -13.1522 -13.1447 -13.1148
   -13.0833 -13.0375 -13.0037 -12.9527 -12.9366 -12.8597 -12.8503 -12.8282
   -12.7988 -12.7812 -12.6929 -12.5423 -12.4909 -12.4188 -12.3251 -12.2946
   -11.9921 -11.9565 -11.9442 -11.9334 -11.9061 -11.8748 -11.8459 -11.8052
   -11.7776 -11.7557 -11.7094 -11.6843 -11.6735  -2.6278  -2.5649  -2.4365
    -2.3600  -2.2254  -2.1441  -2.0213  -1.8724  -1.8131  -1.7935  -1.7337
    -1.7209  -1.6222  -1.5564  -1.4721  -1.4190  -1.4099  -1.3490  -1.3030
    -1.2718  -1.2229  -1.1854  -1.1513  -1.1129  -1.0983  -1.0554  -1.0256
    -0.9804  -0.9515  -0.8838  -0.7773  -0.7435  -0.6611  -0.5952  -0.5383
    -0.5015  -0.4866  -0.4190  -0.2705  -0.2607  -0.1335  -0.1228  -0.1138
    -0.0689  -0.0311  -0.0002   0.0322   0.0968   0.3896   0.4830   0.5408
     0.5916   0.8706   0.8816   0.9734   1.0004   1.1606   1.2013   1.2358
     1.2588   1.2706   1.2938   1.3600   1.4130   1.4456   1.5176   1.6207
     1.6520   1.6712   1.6790   1.7157   1.7296   1.7384   1.7818   1.7916
     1.8113   1.8501   1.8596   1.8812   1.9163   1.9726   2.0191   2.0983
     2.2288   2.3737   2.3914   2.4097   2.4386   2.4614   2.4885   2.5094
     2.5221   2.5442   2.5946   2.6008   2.6435   2.6500   2.7007   2.7177
     2.7290   2.7362   2.7524   2.7655   2.7861   2.7931   2.8392   2.8459
     2.8528   2.8597   2.8699   2.8788   3.3983   3.4291   3.5607   3.6150
     3.9505   4.0117   4.0189   4.1519   4.5806   4.7536   4.9211   4.9774
     5.1326   5.3125   5.5072   5.5540   5.6280   5.6737   6.3381   6.4509
     6.4884   6.7582   7.3136   7.5839   7.6595   7.6993   7.7247   7.7754
     7.8813   7.9363   8.2194   8.3210   8.3564   8.4018   8.5502   8.5880
     8.6363   8.6697

     occupation numbers 
     1.0000   1.0000   1.0000   1.0000   1.0000   1.0000   1.0000   1.0000
     1.0000   1.0000   1.0000   1.0000   1.0000   1.0000   1.0000   1.0000
     1.0000   1.0000   1.0000   1.0000   1.0000   1.0000   1.0000   1.0000
     1.0000   1.0000   1.0000   1.0000   1.0000   1.0000   1.0000   1.0000
     1.0000   1.0000   1.0000   1.0000   1.0000   1.0000   1.0000   1.0000
     1.0000   1.0000   1.0000   1.0000   1.0000   1.0000   1.0000   1.0000
     1.0000   1.0000   1.0000   1.0000   1.0000   1.0000   1.0000   1.0000
     1.0000   1.0000   1.0000   1.0000   1.0000   1.0000   1.0000   1.0000
     1.0000   1.0000   1.0000   1.0000   1.0000   1.0000   1.0000   1.0000
     1.0000   1.0000   1.0000   1.0000   1.0000   1.0000   1.0000   1.0000
     1.0000   1.0000   1.0000   1.0000   1.0000   1.0000   1.0000   1.0000
     1.0000   1.0000   1.0000   1.0000   1.0000   1.0000   1.0000   1.0000
     1.0000   1.0000   1.0000   1.0000   1.0000   1.0000   1.0000   1.0000
     1.0000   1.0000   1.0000   1.0000   1.0000   1.0000   1.0000   1.0000
     1.0000   1.0000   1.0000   1.0000   1.0000   1.0000   1.0000   1.0000
     1.0000   1.0000   1.0000   1.0000   1.0000   1.0000   1.0000   1.0000
     1.0000   1.0000   1.0000   1.0000   1.0000   1.0000   1.0000   1.0000
     1.0000   1.0000   1.0000   1.0000   1.0000   1.0000   1.0000   1.0000
     1.0000   1.0000   1.0000   1.0000   1.0000   1.0000   1.0000   1.0000
     1.0000   1.0000   1.0000   1.0000   1.0000   1.0000   1.0000   0.9999
     0.9999   0.9996   0.9996   0.9994   0.9993   0.9984   0.9980   0.9977
     0.9974   0.9973   0.9970   0.9960   0.9949   0.9942   0.9921   0.9882
     0.9866   0.9856   0.9852   0.9830   0.9821   0.9816   0.9785   0.9777
     0.9761   0.9727   0.9718   0.9696   0.9659   0.9590   0.9526   0.9398
     0.9129   0.8737   0.8681   0.8622   0.8526   0.8446   0.8348   0.8270
     0.8221   0.8135   0.7927   0.7901   0.7713   0.7684   0.7449   0.7367
     0.7311   0.7276   0.7196   0.7130   0.7025   0.6989   0.6746   0.6710
     0.6673   0.6636   0.6580   0.6532   0.3529   0.3360   0.2681   0.2422
     0.1156   0.0988   0.0970   0.0673   0.0165   0.0084   0.0042   0.0032
     0.0016   0.0006   0.0002   0.0002   0.0001   0.0001   0.0000   0.0000
     0.0000   0.0000   0.0000   0.0000   0.0000   0.0000   0.0000   0.0000
     0.0000   0.0000   0.0000   0.0000   0.0000   0.0000   0.0000   0.0000
     0.0000   0.0000

          k =-0.5000-0.5000 0.0000 ( 65132 PWs)   bands (ev):

   -92.8845 -92.8338 -92.7395 -92.6914 -92.6346 -92.5913 -92.5737 -92.4535
   -56.2380 -56.2186 -56.0960 -56.0849 -56.0788 -56.0718 -56.0374 -56.0081
   -55.9926 -55.9911 -55.9854 -55.9413 -55.9221 -55.8853 -55.8666 -55.8349
   -55.8269 -55.7799 -55.7790 -55.7761 -55.7677 -55.7287 -55.7037 -55.6183
   -31.4441 -31.4318 -31.2861 -31.2277 -31.2005 -31.0443 -31.0429 -30.8392
   -30.0267 -29.9881 -29.9610 -29.8536 -15.1094 -15.0854 -14.9688 -14.9531
   -14.8557 -14.8255 -14.7859 -14.6546 -14.1621 -14.1488 -14.1169 -14.0967
   -14.0790 -14.0532 -14.0388 -14.0264 -14.0072 -14.0011 -13.9849 -13.9093
   -13.9016 -13.8645 -13.8371 -13.7899 -13.7271 -13.6700 -13.5568 -13.5239
   -13.3286 -13.2900 -13.2206 -13.1968 -13.1611 -13.1553 -13.1459 -13.1308
   -13.1244 -12.9945 -12.9812 -12.9546 -12.9435 -12.9048 -12.8791 -12.7988
   -12.7751 -12.7671 -12.7091 -12.5121 -12.4871 -12.3778 -12.3156 -12.3107
   -11.9921 -11.9529 -11.9406 -11.9227 -11.9058 -11.8709 -11.8535 -11.8180
   -11.7576 -11.7379 -11.7321 -11.6823 -11.6792  -2.4008  -2.3284  -2.3214
    -2.2477  -2.2094  -2.1312  -2.0633  -1.9359  -1.8223  -1.7931  -1.7473
    -1.6966  -1.6244  -1.6089  -1.5396  -1.4967  -1.3780  -1.3458  -1.2988
    -1.2740  -1.2094  -1.1605  -1.1434  -1.1302  -1.0729  -1.0339  -1.0125
    -0.9037  -0.8469  -0.8000  -0.7510  -0.7197  -0.7010  -0.6711  -0.6323
    -0.5902  -0.5829  -0.4997  -0.4336  -0.3910  -0.3607  -0.2904  -0.2240
    -0.2199  -0.1578  -0.1272  -0.1123  -0.0890   0.3679   0.4054   0.4850
     0.5085   0.8930   0.9074   0.9453   0.9825   1.2499   1.2673   1.2743
     1.3206   1.4392   1.5317   1.5604   1.5967   1.6280   1.6418   1.6516
     1.6827   1.6986   1.7156   1.7229   1.7693   1.7724   1.8006   1.8192
     1.8371   1.8540   1.8902   1.9159   1.9306   1.9587   1.9954   2.0539
     2.1214   2.3866   2.4168   2.4332   2.4553   2.4656   2.4914   2.4991
     2.5201   2.5290   2.5471   2.5617   2.5777   2.5925   2.6038   2.6413
     2.6476   2.6578   2.6740   2.6852   2.7071   2.7257   2.7303   2.7373
     2.8458   2.8505   2.8649   2.8784   3.8338   3.8737   3.8821   3.9153
     4.1372   4.2125   4.2364   4.4765   4.5993   4.6816   4.8149   4.9215
     4.9285   5.0287   5.1602   5.3131   5.8078   5.8451   5.8882   6.0205
     6.7321   6.9023   6.9750   7.3648   7.8366   7.8508   7.9303   8.0757
     8.1317   8.1763   8.2102   8.3317   8.3836   8.4549   8.4929   8.5128
     8.5368   8.5503

     occupation numbers 
     1.0000   1.0000   1.0000   1.0000   1.0000   1.0000   1.0000   1.0000
     1.0000   1.0000   1.0000   1.0000   1.0000   1.0000   1.0000   1.0000
     1.0000   1.0000   1.0000   1.0000   1.0000   1.0000   1.0000   1.0000
     1.0000   1.0000   1.0000   1.0000   1.0000   1.0000   1.0000   1.0000
     1.0000   1.0000   1.0000   1.0000   1.0000   1.0000   1.0000   1.0000
     1.0000   1.0000   1.0000   1.0000   1.0000   1.0000   1.0000   1.0000
     1.0000   1.0000   1.0000   1.0000   1.0000   1.0000   1.0000   1.0000
     1.0000   1.0000   1.0000   1.0000   1.0000   1.0000   1.0000   1.0000
     1.0000   1.0000   1.0000   1.0000   1.0000   1.0000   1.0000   1.0000
     1.0000   1.0000   1.0000   1.0000   1.0000   1.0000   1.0000   1.0000
     1.0000   1.0000   1.0000   1.0000   1.0000   1.0000   1.0000   1.0000
     1.0000   1.0000   1.0000   1.0000   1.0000   1.0000   1.0000   1.0000
     1.0000   1.0000   1.0000   1.0000   1.0000   1.0000   1.0000   1.0000
     1.0000   1.0000   1.0000   1.0000   1.0000   1.0000   1.0000   1.0000
     1.0000   1.0000   1.0000   1.0000   1.0000   1.0000   1.0000   1.0000
     1.0000   1.0000   1.0000   1.0000   1.0000   1.0000   1.0000   1.0000
     1.0000   1.0000   1.0000   1.0000   1.0000   1.0000   1.0000   1.0000
     1.0000   1.0000   1.0000   1.0000   1.0000   1.0000   1.0000   1.0000
     1.0000   1.0000   1.0000   1.0000   1.0000   1.0000   1.0000   1.0000
     1.0000   1.0000   1.0000   1.0000   1.0000   1.0000   1.0000   1.0000
     1.0000   0.9996   0.9996   0.9995   0.9993   0.9975   0.9973   0.9973
     0.9966   0.9943   0.9917   0.9907   0.9892   0.9878   0.9871   0.9867
     0.9850   0.9841   0.9830   0.9826   0.9794   0.9792   0.9770   0.9754
     0.9739   0.9723   0.9687   0.9659   0.9642   0.9608   0.9560   0.9473
     0.9356   0.8696   0.8599   0.8544   0.8468   0.8431   0.8338   0.8309
     0.8229   0.8195   0.8123   0.8064   0.7998   0.7936   0.7888   0.7723
     0.7695   0.7649   0.7574   0.7522   0.7418   0.7328   0.7305   0.7271
     0.6711   0.6686   0.6608   0.6534   0.1529   0.1393   0.1366   0.1261
     0.0702   0.0563   0.0524   0.0239   0.0154   0.0112   0.0066   0.0042
     0.0040   0.0026   0.0014   0.0006   0.0000   0.0000   0.0000   0.0000
     0.0000   0.0000   0.0000   0.0000   0.0000   0.0000   0.0000   0.0000
     0.0000   0.0000   0.0000   0.0000   0.0000   0.0000   0.0000   0.0000
     0.0000   0.0000

          k = 0.2500 0.0000 0.0000 ( 65257 PWs)   bands (ev):

   -92.8845 -92.8338 -92.7395 -92.6914 -92.6346 -92.5913 -92.5737 -92.4535
   -56.2380 -56.2186 -56.0960 -56.0849 -56.0788 -56.0718 -56.0374 -56.0081
   -55.9926 -55.9911 -55.9855 -55.9413 -55.9221 -55.8853 -55.8666 -55.8349
   -55.8269 -55.7799 -55.7790 -55.7761 -55.7677 -55.7287 -55.7037 -55.6183
[...]
     0.6336   0.6208   0.6184   0.6145   0.6099   0.6049   0.5990   0.5263
     0.3527   0.3155   0.2025   0.0769   0.0445   0.0203   0.0050   0.0030
     0.0002   0.0001   0.0000   0.0000   0.0000   0.0000   0.0000   0.0000
     0.0000   0.0000   0.0000   0.0000   0.0000   0.0000   0.0000   0.0000
     0.0000   0.0000   0.0000   0.0000   0.0000   0.0000   0.0000   0.0000
     0.0000   0.0000

          k =-0.5000 0.0000 0.0000 ( 65180 PWs)   bands (ev):

   -92.8845 -92.8338 -92.7395 -92.6914 -92.6346 -92.5913 -92.5737 -92.4535
   -56.2380 -56.2185 -56.0960 -56.0849 -56.0788 -56.0718 -56.0374 -56.0081
   -55.9926 -55.9911 -55.9854 -55.9413 -55.9221 -55.8853 -55.8666 -55.8349
   -55.8269 -55.7799 -55.7790 -55.7761 -55.7677 -55.7287 -55.7037 -55.6183
   -31.4445 -31.4320 -31.2857 -31.2280 -31.2002 -31.0446 -31.0426 -30.8389
   -30.0279 -29.9887 -29.9597 -29.8529 -15.1941 -15.1393 -15.0789 -14.9659
   -14.8675 -14.7226 -14.5747 -14.4247 -14.3108 -14.2934 -14.2871 -14.2238
   -14.1673 -14.1365 -14.0853 -14.0701 -14.0575 -14.0120 -13.9850 -13.8847
   -13.7334 -13.6838 -13.6705 -13.6604 -13.5824 -13.5399 -13.4768 -13.4371
   -13.4133 -13.3983 -13.2251 -13.2138 -13.1966 -13.1847 -13.1691 -13.1190
   -13.0972 -13.0903 -12.9922 -12.9705 -12.9265 -12.8225 -12.8126 -12.8095
   -12.8035 -12.7819 -12.7125 -12.5805 -12.4975 -12.4589 -12.3297 -12.2883
   -11.9921 -11.9599 -11.9381 -11.9316 -11.9171 -11.8989 -11.8577 -11.7947
   -11.7768 -11.7439 -11.6991 -11.6903 -11.6746  -2.7614  -2.7233  -2.5606
    -2.5215  -2.2052  -2.1274  -1.9847  -1.8670  -1.8256  -1.7782  -1.7331
    -1.7100  -1.5855  -1.5423  -1.5243  -1.4432  -1.4087  -1.3898  -1.3614
    -1.3006  -1.2339  -1.2064  -1.1714  -1.0800  -1.0346  -0.9842  -0.9517
    -0.9316  -0.8963  -0.8512  -0.8275  -0.7881  -0.6777  -0.6188  -0.5355
    -0.4772  -0.3231  -0.2795  -0.2363  -0.1749  -0.1332  -0.1168   0.0213
     0.0510   0.0981   0.2596   0.3598   0.4076   0.5090   0.5641   0.6837
     0.6949   0.8282   0.8534   0.9083   0.9480   0.9755   0.9842   1.0331
     1.0542   1.1245   1.1732   1.2190   1.2352   1.5285   1.5391   1.5585
     1.5875   1.6808   1.6982   1.7085   1.7158   1.7511   1.7594   1.7954
     1.8183   1.8417   1.8971   1.9152   1.9667   1.9891   2.0450   2.1578
     2.2507   2.3218   2.3371   2.4179   2.4443   2.4688   2.5395   2.5486
     2.5574   2.5776   2.5920   2.6291   2.6509   2.6587   2.7050   2.7662
     2.7740   2.8197   2.8248   2.8342   2.8356   2.8548   2.8656   2.8760
     2.8839   2.9029   2.9067   2.9275   2.9472   2.9521   3.0812   3.0906
     3.8905   3.9648   4.0242   4.1440   4.6172   4.6983   4.8998   4.9225
     5.3788   5.4043   5.4859   5.5240   5.8598   5.8852   6.4218   6.5976
     6.7305   6.9507   7.1984   7.2587   7.6165   7.6316   7.6900   7.7384
     7.7906   8.0057   8.0756   8.1241   8.2414   8.3685   8.4038   8.4850
     8.6354   8.7517

     occupation numbers 
     1.0000   1.0000   1.0000   1.0000   1.0000   1.0000   1.0000   1.0000
     1.0000   1.0000   1.0000   1.0000   1.0000   1.0000   1.0000   1.0000
     1.0000   1.0000   1.0000   1.0000   1.0000   1.0000   1.0000   1.0000
     1.0000   1.0000   1.0000   1.0000   1.0000   1.0000   1.0000   1.0000
     1.0000   1.0000   1.0000   1.0000   1.0000   1.0000   1.0000   1.0000
     1.0000   1.0000   1.0000   1.0000   1.0000   1.0000   1.0000   1.0000
     1.0000   1.0000   1.0000   1.0000   1.0000   1.0000   1.0000   1.0000
     1.0000   1.0000   1.0000   1.0000   1.0000   1.0000   1.0000   1.0000
     1.0000   1.0000   1.0000   1.0000   1.0000   1.0000   1.0000   1.0000
     1.0000   1.0000   1.0000   1.0000   1.0000   1.0000   1.0000   1.0000
     1.0000   1.0000   1.0000   1.0000   1.0000   1.0000   1.0000   1.0000
     1.0000   1.0000   1.0000   1.0000   1.0000   1.0000   1.0000   1.0000
     1.0000   1.0000   1.0000   1.0000   1.0000   1.0000   1.0000   1.0000
     1.0000   1.0000   1.0000   1.0000   1.0000   1.0000   1.0000   1.0000
     1.0000   1.0000   1.0000   1.0000   1.0000   1.0000   1.0000   1.0000
     1.0000   1.0000   1.0000   1.0000   1.0000   1.0000   1.0000   1.0000
     1.0000   1.0000   1.0000   1.0000   1.0000   1.0000   1.0000   1.0000
     1.0000   1.0000   1.0000   1.0000   1.0000   1.0000   1.0000   1.0000
     1.0000   1.0000   1.0000   1.0000   1.0000   1.0000   1.0000   1.0000
     1.0000   1.0000   1.0000   1.0000   1.0000   1.0000   0.9999   0.9999
     0.9999   0.9997   0.9997   0.9995   0.9994   0.9994   0.9993   0.9991
     0.9990   0.9986   0.9983   0.9979   0.9977   0.9918   0.9914   0.9907
     0.9896   0.9851   0.9841   0.9835   0.9830   0.9807   0.9801   0.9774
     0.9755   0.9734   0.9680   0.9660   0.9598   0.9568   0.9487   0.9285
     0.9077   0.8890   0.8846   0.8595   0.8506   0.8420   0.8153   0.8117
     0.8082   0.7999   0.7938   0.7778   0.7680   0.7645   0.7428   0.7126
     0.7087   0.6850   0.6823   0.6773   0.6766   0.6663   0.6604   0.6547
     0.6504   0.6399   0.6378   0.6261   0.6150   0.6122   0.5372   0.5316
     0.1339   0.1115   0.0956   0.0688   0.0144   0.0105   0.0046   0.0041
     0.0005   0.0004   0.0003   0.0002   0.0000   0.0000   0.0000   0.0000
     0.0000   0.0000   0.0000   0.0000   0.0000   0.0000   0.0000   0.0000
     0.0000   0.0000   0.0000   0.0000   0.0000   0.0000   0.0000   0.0000
     0.0000   0.0000

          k =-0.2500 0.2500 0.0000 ( 65198 PWs)   bands (ev):

   -92.8845 -92.8338 -92.7395 -92.6914 -92.6346 -92.5913 -92.5737 -92.4535
   -56.2380 -56.2186 -56.0960 -56.0849 -56.0788 -56.0718 -56.0374 -56.0081
   -55.9926 -55.9911 -55.9855 -55.9413 -55.9221 -55.8853 -55.8666 -55.8349
   -55.8269 -55.7799 -55.7790 -55.7761 -55.7677 -55.7287 -55.7037 -55.6183
   -31.4463 -31.4298 -31.2863 -31.2280 -31.2000 -31.0443 -31.0429 -30.8389
   -30.0283 -29.9873 -29.9607 -29.8529 -15.1969 -15.1507 -15.0805 -14.9641
   -14.8459 -14.7224 -14.6405 -14.4283 -14.2923 -14.2635 -14.2473 -14.2021
   -14.1777 -14.1534 -14.1281 -14.0897 -14.0135 -14.0011 -13.8473 -13.8222
   -13.7908 -13.7713 -13.6961 -13.6743 -13.6078 -13.5954 -13.4709 -13.4223
   -13.3928 -13.3171 -13.2740 -13.2112 -13.1832 -13.1618 -13.1508 -13.1165
   -13.0974 -13.0359 -13.0066 -12.9606 -12.9423 -12.9305 -12.8975 -12.8639
   -12.8021 -12.7835 -12.6218 -12.6138 -12.5606 -12.4534 -12.2690 -12.2131
   -11.9921 -11.9797 -11.9585 -11.9313 -11.9191 -11.8782 -11.8433 -11.8205
   -11.7986 -11.7763 -11.6911 -11.6464 -11.6370  -2.8459  -2.6393  -2.5181
    -2.4266  -2.3117  -2.2456  -2.0373  -1.8975  -1.8792  -1.8434  -1.7556
    -1.7207  -1.6275  -1.5922  -1.5661  -1.4251  -1.3688  -1.2978  -1.2708
    -1.2090  -1.1912  -1.1505  -1.1221  -1.0817  -1.0181  -0.9700  -0.9002
    -0.8361  -0.8118  -0.7620  -0.7333  -0.6869  -0.6276  -0.5722  -0.5408
    -0.4323  -0.4097  -0.3887  -0.3476  -0.2874  -0.2111  -0.1721  -0.1269
    -0.0644  -0.0336   0.2129   0.3896   0.4222   0.4666   0.5251   0.5809
     0.6292   0.6977   0.7291   1.0105   1.1128   1.1534   1.1866   1.1978
     1.2345   1.2496   1.2959   1.3274   1.3393   1.3650   1.4160   1.4329
     1.4700   1.4972   1.5385   1.6267   1.6421   1.6642   1.6953   1.7265
     1.7661   1.8151   1.9244   2.0312   2.0547   2.1036   2.1236   2.1862
     2.2270   2.2540   2.2788   2.2997   2.4032   2.4407   2.5282   2.5974
     2.6086   2.6416   2.7054   2.7112   2.7270   2.7336   2.7466   2.7607
     2.7684   2.7852   2.7973   2.8066   2.8192   2.8289   2.8387   2.8480
     2.8821   2.8914   2.8972   2.9314   3.2225   3.3034   3.3797   3.4458
     3.4645   3.6764   3.7812   4.1295   4.3363   4.5624   4.8139   5.1291
     5.5014   5.5609   5.6340   5.6560   5.7231   6.1065   6.1397   6.2075
     6.8382   7.1586   7.2104   7.3716   7.4620   7.4864   7.5667   7.7699
     7.8668   7.9356   8.2020   8.2725   8.3252   8.3567   8.4510   8.4813
     8.5319   8.6257

     occupation numbers 
     1.0000   1.0000   1.0000   1.0000   1.0000   1.0000   1.0000   1.0000
     1.0000   1.0000   1.0000   1.0000   1.0000   1.0000   1.0000   1.0000
     1.0000   1.0000   1.0000   1.0000   1.0000   1.0000   1.0000   1.0000
     1.0000   1.0000   1.0000   1.0000   1.0000   1.0000   1.0000   1.0000
     1.0000   1.0000   1.0000   1.0000   1.0000   1.0000   1.0000   1.0000
     1.0000   1.0000   1.0000   1.0000   1.0000   1.0000   1.0000   1.0000
     1.0000   1.0000   1.0000   1.0000   1.0000   1.0000   1.0000   1.0000
     1.0000   1.0000   1.0000   1.0000   1.0000   1.0000   1.0000   1.0000
     1.0000   1.0000   1.0000   1.0000   1.0000   1.0000   1.0000   1.0000
     1.0000   1.0000   1.0000   1.0000   1.0000   1.0000   1.0000   1.0000
     1.0000   1.0000   1.0000   1.0000   1.0000   1.0000   1.0000   1.0000
     1.0000   1.0000   1.0000   1.0000   1.0000   1.0000   1.0000   1.0000
     1.0000   1.0000   1.0000   1.0000   1.0000   1.0000   1.0000   1.0000
     1.0000   1.0000   1.0000   1.0000   1.0000   1.0000   1.0000   1.0000
     1.0000   1.0000   1.0000   1.0000   1.0000   1.0000   1.0000   1.0000
     1.0000   1.0000   1.0000   1.0000   1.0000   1.0000   1.0000   1.0000
     1.0000   1.0000   1.0000   1.0000   1.0000   1.0000   1.0000   1.0000
     1.0000   1.0000   1.0000   1.0000   1.0000   1.0000   1.0000   1.0000
     1.0000   1.0000   1.0000   1.0000   1.0000   1.0000   1.0000   1.0000
     1.0000   1.0000   1.0000   1.0000   1.0000   1.0000   0.9999   0.9999
     0.9999   0.9999   0.9998   0.9992   0.9987   0.9984   0.9982   0.9981
     0.9977   0.9975   0.9970   0.9965   0.9963   0.9959   0.9949   0.9945
     0.9935   0.9928   0.9914   0.9879   0.9871   0.9860   0.9843   0.9824
     0.9796   0.9758   0.9649   0.9508   0.9471   0.9388   0.9352   0.9225
     0.9134   0.9069   0.9006   0.8950   0.8644   0.8519   0.8198   0.7915
     0.7867   0.7722   0.7426   0.7398   0.7321   0.7289   0.7225   0.7154
     0.7115   0.7029   0.6967   0.6919   0.6852   0.6801   0.6749   0.6699
     0.6514   0.6463   0.6430   0.6239   0.4537   0.4065   0.3632   0.3271
     0.3171   0.2146   0.1721   0.0717   0.0383   0.0176   0.0066   0.0016
     0.0002   0.0002   0.0001   0.0001   0.0001   0.0000   0.0000   0.0000
     0.0000   0.0000   0.0000   0.0000   0.0000   0.0000   0.0000   0.0000
     0.0000   0.0000   0.0000   0.0000   0.0000   0.0000   0.0000   0.0000
     0.0000   0.0000

          k =-0.5000 0.2500 0.0000 ( 65138 PWs)   bands (ev):

   -92.8845 -92.8338 -92.7395 -92.6914 -92.6346 -92.5913 -92.5737 -92.4535
   -56.2380 -56.2185 -56.0960 -56.0849 -56.0788 -56.0718 -56.0374 -56.0081
   -55.9926 -55.9911 -55.9854 -55.9413 -55.9221 -55.8853 -55.8666 -55.8349
   -55.8269 -55.7799 -55.7790 -55.7761 -55.7677 -55.7287 -55.7037 -55.6183
   -31.4443 -31.4319 -31.2859 -31.2278 -31.2004 -31.0444 -31.0428 -30.8390
   -30.0273 -29.9884 -29.9603 -29.8533 -15.1608 -15.1131 -15.0358 -14.9338
   -14.8940 -14.7702 -14.6790 -14.5459 -14.2433 -14.2125 -14.2001 -14.1551
   -14.1309 -14.1084 -14.0722 -14.0537 -14.0384 -13.9989 -13.9857 -13.8791
   -13.8139 -13.7653 -13.7564 -13.7205 -13.6422 -13.6267 -13.5140 -13.4658
   -13.3707 -13.3358 -13.2381 -13.1981 -13.1870 -13.1656 -13.1442 -13.1181
   -13.1096 -13.0499 -12.9982 -12.9540 -12.9340 -12.8633 -12.8458 -12.7970
   -12.7898 -12.7786 -12.7105 -12.5436 -12.4926 -12.4196 -12.3231 -12.2962
   -11.9921 -11.9526 -11.9399 -11.9259 -11.9137 -11.8924 -11.8624 -11.7813
   -11.7730 -11.7498 -11.7135 -11.6860 -11.6771  -2.6183  -2.5770  -2.4300
    -2.3879  -2.2250  -2.1461  -2.0088  -1.8726  -1.8132  -1.7868  -1.7491
    -1.7128  -1.6312  -1.5155  -1.4579  -1.4352  -1.4080  -1.3294  -1.3041
    -1.2640  -1.2484  -1.1877  -1.1543  -1.1192  -1.0845  -1.0555  -0.9961
    -0.9688  -0.9278  -0.8905  -0.7853  -0.7613  -0.6594  -0.6107  -0.5743
    -0.5085  -0.4379  -0.4034  -0.3021  -0.2621  -0.1999  -0.1530  -0.1043
    -0.0569  -0.0283   0.0051   0.0527   0.0912   0.4251   0.4770   0.5328
     0.5554   0.8410   0.9074   0.9759   1.0062   1.1759   1.2103   1.2478
     1.2571   1.2753   1.2929   1.3632   1.4114   1.4522   1.4891   1.6013
     1.6467   1.6717   1.6826   1.7149   1.7449   1.7616   1.7716   1.7888
     1.8138   1.8558   1.8725   1.9089   1.9345   1.9672   2.0214   2.1463
     2.2399   2.2693   2.3346   2.3712   2.4349   2.4662   2.4756   2.5181
     2.5452   2.5697   2.5914   2.6073   2.6497   2.6583   2.7055   2.7139
     2.7223   2.7427   2.7611   2.7721   2.7894   2.8018   2.8270   2.8400
     2.8474   2.8574   2.8641   2.8760   3.4127   3.4458   3.5955   3.6133
     3.8999   3.9738   4.0345   4.2272   4.6097   4.7108   4.8881   4.9365
     5.2461   5.2662   5.4880   5.5878   5.6102   5.6600   6.3298   6.4610
     6.5212   6.7113   7.3435   7.6008   7.6652   7.6787   7.7301   7.7812
     7.8449   7.9421   8.1826   8.3439   8.4121   8.4313   8.5027   8.5613
     8.6231   8.7045

     occupation numbers 
     1.0000   1.0000   1.0000   1.0000   1.0000   1.0000   1.0000   1.0000
     1.0000   1.0000   1.0000   1.0000   1.0000   1.0000   1.0000   1.0000
     1.0000   1.0000   1.0000   1.0000   1.0000   1.0000   1.0000   1.0000
     1.0000   1.0000   1.0000   1.0000   1.0000   1.0000   1.0000   1.0000
     1.0000   1.0000   1.0000   1.0000   1.0000   1.0000   1.0000   1.0000
     1.0000   1.0000   1.0000   1.0000   1.0000   1.0000   1.0000   1.0000
     1.0000   1.0000   1.0000   1.0000   1.0000   1.0000   1.0000   1.0000
     1.0000   1.0000   1.0000   1.0000   1.0000   1.0000   1.0000   1.0000
     1.0000   1.0000   1.0000   1.0000   1.0000   1.0000   1.0000   1.0000
     1.0000   1.0000   1.0000   1.0000   1.0000   1.0000   1.0000   1.0000
     1.0000   1.0000   1.0000   1.0000   1.0000   1.0000   1.0000   1.0000
     1.0000   1.0000   1.0000   1.0000   1.0000   1.0000   1.0000   1.0000
     1.0000   1.0000   1.0000   1.0000   1.0000   1.0000   1.0000   1.0000
     1.0000   1.0000   1.0000   1.0000   1.0000   1.0000   1.0000   1.0000
     1.0000   1.0000   1.0000   1.0000   1.0000   1.0000   1.0000   1.0000
     1.0000   1.0000   1.0000   1.0000   1.0000   1.0000   1.0000   1.0000
     1.0000   1.0000   1.0000   1.0000   1.0000   1.0000   1.0000   1.0000
     1.0000   1.0000   1.0000   1.0000   1.0000   1.0000   1.0000   1.0000
     1.0000   1.0000   1.0000   1.0000   1.0000   1.0000   1.0000   1.0000
     1.0000   1.0000   1.0000   1.0000   1.0000   1.0000   1.0000   0.9999
     0.9999   0.9997   0.9996   0.9994   0.9992   0.9983   0.9980   0.9976
     0.9975   0.9972   0.9970   0.9959   0.9950   0.9940   0.9930   0.9890
     0.9869   0.9856   0.9850   0.9831   0.9811   0.9800   0.9792   0.9779
     0.9759   0.9721   0.9705   0.9667   0.9638   0.9597   0.9522   0.9308
     0.9103   0.9030   0.8853   0.8744   0.8538   0.8429   0.8396   0.8237
     0.8131   0.8031   0.7941   0.7873   0.7686   0.7647   0.7425   0.7385
     0.7344   0.7244   0.7152   0.7096   0.7008   0.6944   0.6811   0.6742
     0.6702   0.6648   0.6612   0.6547   0.3450   0.3271   0.2513   0.2430
     0.1309   0.1090   0.0931   0.0539   0.0148   0.0100   0.0048   0.0039
     0.0009   0.0008   0.0003   0.0001   0.0001   0.0001   0.0000   0.0000
     0.0000   0.0000   0.0000   0.0000   0.0000   0.0000   0.0000   0.0000
     0.0000   0.0000   0.0000   0.0000   0.0000   0.0000   0.0000   0.0000
     0.0000   0.0000

     the Fermi energy is     3.1441 ev

!    total energy              =   -4440.30056321 Ry
     estimated scf accuracy    <          6.4E-09 Ry
     smearing contrib. (-TS)   =      -1.20797030 Ry
     internal energy E=F+TS    =   -4439.09259291 Ry

     The total energy is F=E-TS. E is the sum of the following terms:
     one-electron contribution =  -20888.97159622 Ry
     hartree contribution      =   10573.44896969 Ry
     xc contribution           =    -693.24397669 Ry
     ewald contribution        =    6845.86549023 Ry
     one-center paw contrib.   =    -276.19147993 Ry
      -> PAW hartree energy AE =      25.15447589 Ry
      -> PAW hartree energy PS =     -25.03844404 Ry
      -> PAW xc energy AE      =     -16.51634113 Ry
      -> PAW xc energy PS      =       6.87573239 Ry
      -> total E_H with PAW    =   10573.56500154 Ry
      -> total E_XC with PAW   =    -702.88458542 Ry

     convergence has been achieved in  49 iterations

     Writing all to output data dir /bsuhome/zayahcortright/scratch/pwscf.save/
 
     init_run     :      7.51s CPU      8.36s WALL (       1 calls)
     electrons    :    704.16s CPU    737.52s WALL (       1 calls)

     Called by init_run:
     wfcinit      :      6.11s CPU      6.34s WALL (       1 calls)
     wfcinit:atom :      0.04s CPU      0.06s WALL (       5 calls)
     wfcinit:wfcr :      5.79s CPU      5.92s WALL (       5 calls)
     potinit      :      0.18s CPU      0.21s WALL (       1 calls)
     hinit0       :      0.36s CPU      0.68s WALL (       1 calls)

     Called by electrons:
     c_bands      :    557.30s CPU    563.95s WALL (      49 calls)
     sum_band     :    110.30s CPU    125.00s WALL (      49 calls)
     v_of_rho     :      5.41s CPU      5.83s WALL (      50 calls)
     v_h          :      0.45s CPU      0.45s WALL (      50 calls)
     v_xc         :      4.96s CPU      5.38s WALL (      50 calls)
     newd         :     16.29s CPU     27.56s WALL (      50 calls)
     PAW_pot      :      1.80s CPU      1.84s WALL (      50 calls)
     mix_rho      :     12.68s CPU     13.03s WALL (      49 calls)

     Called by c_bands:
     init_us_2    :      6.65s CPU      6.74s WALL (     495 calls)
     init_us_2:cp :      6.65s CPU      6.73s WALL (     495 calls)
     cegterg      :    524.55s CPU    530.87s WALL (     245 calls)

     Called by sum_band:
     sum_band:wei :      0.38s CPU      0.38s WALL (      49 calls)
     sum_band:loo :     91.98s CPU     92.67s WALL (      49 calls)
     sum_band:buf :      1.37s CPU      1.42s WALL (     245 calls)
     sum_band:ini :      3.02s CPU      3.03s WALL (     245 calls)
     sum_band:cal :     19.40s CPU     19.45s WALL (     245 calls)
     sum_band:bec :      0.54s CPU      0.55s WALL (     245 calls)
     addusdens    :     15.67s CPU     29.60s WALL (      49 calls)
                                        0.00s GPU  (      49 calls)
     addusd:skk   :      0.31s CPU      0.96s WALL (     147 calls)
                                        0.00s GPU  (     147 calls)

     Called by *egterg:
     cdiaghg      :     52.86s CPU     53.12s WALL (    1214 calls)
     cegterg:over :     38.90s CPU     39.05s WALL (     969 calls)
     cegterg:upda :     27.78s CPU     28.32s WALL (     969 calls)
     cegterg:last :     56.60s CPU     56.81s WALL (     432 calls)
     cdiaghg:chol :      3.06s CPU      3.08s WALL (    1214 calls)
     cdiaghg:inve :      2.69s CPU      2.70s WALL (    1214 calls)
     cdiaghg:para :      6.85s CPU      6.90s WALL (    2428 calls)
     h_psi        :    293.85s CPU    296.86s WALL (    1219 calls)
     s_psi        :     38.73s CPU     38.83s WALL (    1219 calls)
     g_psi        :      1.00s CPU      1.00s WALL (     969 calls)

     Called by h_psi:
     h_psi:calbec :     44.67s CPU     44.89s WALL (    1219 calls)
     vloc_psi     :    207.91s CPU    209.85s WALL (    1219 calls)
     add_vuspsi   :     38.53s CPU     38.71s WALL (    1219 calls)

     General routines
     calbec       :     64.06s CPU     64.34s WALL (    1464 calls)
     fft          :      4.05s CPU      4.10s WALL (     648 calls)
     ffts         :      4.69s CPU      4.72s WALL (    5271 calls)
     fftw         :    180.36s CPU    181.79s WALL (  330482 calls)
     interpolate  :      0.41s CPU      0.42s WALL (      50 calls)
 
     Parallel routines

     PAW routines
     PAW_pot      :      1.80s CPU      1.84s WALL (      50 calls)
 
     PWSCF        :  11m53.22s CPU  12m30.65s WALL

 
   This run was terminated on:   3: 1:45  22Jun2024            

=------------------------------------------------------------------------------=
   JOB DONE.
=------------------------------------------------------------------------------=
