
     Program PWSCF v.7.2 starts on 22Jun2024 at  2:20:43 

     This program is part of the open-source Quantum ESPRESSO suite
     for quantum simulation of materials; please cite
         "P. Giannozzi et al., J. Phys.:Condens. Matter 21 395502 (2009);
         "P. Giannozzi et al., J. Phys.:Condens. Matter 29 465901 (2017);
         "P. Giannozzi et al., J. Chem. Phys. 152 154105 (2020);
          URL http://www.quantum-espresso.org", 
     in publications or presentations arising from this work. More details at
     http://www.quantum-espresso.org/quote

     Parallel version (MPI & OpenMP), running on      48 processor cores
     Number of MPI processes:                48
     Threads/MPI process:                     1

     MPI processes distributed on     1 nodes
     33228 MiB available memory on the printing compute node when the environment starts
 
     Reading input from espresso.pwi
Warning: card &CELL ignored
Warning: card / ignored
Warning: card &FCP ignored
Warning: card / ignored
Warning: card &RISM ignored
Warning: card / ignored

     Current dimensions of program PWSCF are:
     Max number of different atomic species (ntypx) = 10
     Max number of k-points (npk) =  40000
     Max angular momentum in pseudopotentials (lmaxx) =  4
     file O.pbe-n-kjpaw_psl.0.1.UPF: wavefunction(s)  2P renormalized
     signal trapping enabled: kill the code with -SIGUSR1 to stop cleanly the simulation 
 
     K-points division:     npool     =       2
     R & G space division:  proc/nbgrp/npool/nimage =      24
     Subspace diagonalization in iterative solution of the eigenvalue problem:
     one sub-group per band group will be used
     scalapack distributed-memory algorithm (size of sub-group:  3*  3 procs)

 
     Parallelization info
     --------------------
     sticks:   dense  smooth     PW     G-vecs:    dense   smooth      PW
     Min         350     175     47                61430    21716    3036
     Max         351     177     48                61449    21727    3041
     Sum        8421    4205   1137              1474595   521381   72913
 
     Using Slab Decomposition
 


     bravais-lattice index     =            0
     lattice parameter (alat)  =      14.8599  a.u.
     unit-cell volume          =    8305.1283 (a.u.)^3
     number of atoms/cell      =           50
     number of atomic types    =            4
     number of electrons       =       431.00
     number of Kohn-Sham states=          259
     kinetic-energy cutoff     =      60.0000  Ry
     charge density cutoff     =     480.0000  Ry
     scf convergence threshold =      1.0E-08
     mixing beta               =       0.1500
     number of iterations used =            8  local-TF  mixing
     Exchange-correlation= PBE
                           (   1   4   3   4   0   0   0)

     celldm(1)=  14.859904  celldm(2)=   0.000000  celldm(3)=   0.000000
     celldm(4)=   0.000000  celldm(5)=   0.000000  celldm(6)=   0.000000

     crystal axes: (cart. coord. in units of alat)
               a(1) = (   1.000000   0.000000   0.000000 )  
               a(2) = (   0.000000   1.000000   0.000000 )  
               a(3) = (   0.000000   0.000000   2.531036 )  

     reciprocal axes: (cart. coord. in units 2 pi/alat)
               b(1) = (  1.000000  0.000000  0.000000 )  
               b(2) = (  0.000000  1.000000  0.000000 )  
               b(3) = (  0.000000  0.000000  0.395095 )  


     PseudoPot. # 1 for Sr read from file:
     /bsuhome/zayahcortright/q-e/pseudo/Sr_pbe_v1.uspp.F.UPF
     MD5 check sum: 6b418c05fbe9db5448babca5e47b7a5b
     Pseudo is Ultrasoft + core correction, Zval = 10.0
     Generated by new atomic code, or converted to UPF format
     Using radial grid of  883 points,  6 beta functions with: 
                l(1) =   0
                l(2) =   0
                l(3) =   1
                l(4) =   1
                l(5) =   2
                l(6) =   2
     Q(r) pseudized with  6 coefficients,  rinner =    1.400   1.400   1.400
                                                       1.400   1.400

     PseudoPot. # 2 for O  read from file:
     /bsuhome/zayahcortright/q-e/pseudo/O.pbe-n-kjpaw_psl.0.1.UPF
     MD5 check sum: 0234752ac141de4415c5fc33072bef88
     Pseudo is Projector augmented-wave + core cor, Zval =  6.0
     Generated using "atomic" code by A. Dal Corso  v.5.0.99 svn rev. 10869
     Shape of augmentation charge: BESSEL
     Using radial grid of 1095 points,  4 beta functions with: 
                l(1) =   0
                l(2) =   0
                l(3) =   1
                l(4) =   1
     Q(r) pseudized with 0 coefficients 


     PseudoPot. # 3 for Co read from file:
     /bsuhome/zayahcortright/q-e/pseudo/Co_pbe_v1.2.uspp.F.UPF
     MD5 check sum: 5f91765df6ddd3222702df6e7b74a16d
     Pseudo is Ultrasoft + core correction, Zval = 17.0
     Generated by new atomic code, or converted to UPF format
     Using radial grid of  863 points,  6 beta functions with: 
                l(1) =   0
                l(2) =   0
                l(3) =   1
                l(4) =   1
                l(5) =   2
                l(6) =   2
     Q(r) pseudized with  8 coefficients,  rinner =    1.200   1.200   1.200
                                                       1.200   1.200

     PseudoPot. # 4 for H  read from file:
     /bsuhome/zayahcortright/q-e/pseudo/H.pbe-rrkjus_psl.1.0.0.UPF
     MD5 check sum: f52b6d4d1c606e5624b1dc7b2218f220
     Pseudo is Ultrasoft, Zval =  1.0
     Generated using "atomic" code by A. Dal Corso  v.5.1
     Using radial grid of  929 points,  2 beta functions with: 
                l(1) =   0
                l(2) =   0
     Q(r) pseudized with 0 coefficients 


     atomic species   valence    mass     pseudopotential
        Sr            10.00    87.62000     Sr( 1.00)
        O              6.00    15.99900     O ( 1.00)
        Co            17.00    58.93319     Co( 1.00)
        H              1.00     1.00800     H ( 1.00)

     No symmetry found


                                    s                        frac. trans.

      isym =  1     identity                                     

 cryst.   s( 1) = (     1          0          0      )
                  (     0          1          0      )
                  (     0          0          1      )

 cart.    s( 1) = (  1.0000000  0.0000000  0.0000000 )
                  (  0.0000000  1.0000000  0.0000000 )
                  (  0.0000000  0.0000000  1.0000000 )


   Cartesian axes

     site n.     atom                  positions (alat units)
         1           Sr  tau(   1) = (   0.2508693   0.7491307   1.7574407  )
         2           O   tau(   2) = (   0.4985141   0.5014859   1.7715967  )
         3           Sr  tau(   3) = (   0.7482398   0.7454518   1.7648669  )
         4           Sr  tau(   4) = (   0.7441748   0.2558252   1.7667843  )
         5           Sr  tau(   5) = (   0.2508693   0.7491307   1.2696799  )
         6           Sr  tau(   6) = (   0.2508693   0.7491307   0.7632319  )
         7           Co  tau(   7) = (   0.4998914   0.5001086   1.0164559  )
         8           Co  tau(   8) = (   0.4936915   0.5063085   1.5135603  )
         9           O   tau(   9) = (   0.4988895   0.7610401   1.0164559  )
        10           O   tau(  10) = (   0.2389599   0.5011105   1.0164559  )
        11           O   tau(  11) = (   0.0070918   0.7374880   1.0164559  )
        12           O   tau(  12) = (   0.0088340   0.7405089   1.5135603  )
        13           O   tau(  13) = (   0.5066944   0.7415376   1.5135603  )
        14           O   tau(  14) = (   0.2584624   0.4933056   1.5135603  )
        15           O   tau(  15) = (   0.4985141   0.5014859   0.7773880  )
        16           O   tau(  16) = (   0.4985141   0.5014859   1.2555238  )
        17           Sr  tau(  17) = (   0.7482398   0.7454518   0.7706582  )
        18           Sr  tau(  18) = (   0.7482398   0.7454518   1.2622536  )
        19           Sr  tau(  19) = (   0.7441748   0.2558252   0.7725755  )
        20           Sr  tau(  20) = (   0.7441748   0.2558252   1.2603363  )
        21           O   tau(  21) = (   0.7322655   0.0078049   1.5135603  )
        22           O   tau(  22) = (   0.7558175   0.4996027   1.5135603  )
        23           O   tau(  23) = (   0.5003973   0.2441825   1.5135603  )
        24           O   tau(  24) = (   0.7527966   0.4978604   1.0164559  )
        25           O   tau(  25) = (   0.5021396   0.2472034   1.0164559  )
        26           O   tau(  26) = (   0.7517679   0.0000000   1.0164559  )
        27           O   tau(  27) = (   0.0114961   0.4948124   1.7455321  )
        28           O   tau(  28) = (   0.0048226   0.0077944   1.7715967  )
        29           Sr  tau(  29) = (   0.2545482   0.2517602   1.7648669  )
        30           O   tau(  30) = (   0.5048017   0.0015068   1.7786929  )
        31           Co  tau(  31) = (   0.0056869   0.5006215   1.0164559  )
        32           Co  tau(  32) = (   0.0065315   0.4997770   1.5135603  )
        33           Co  tau(  33) = (   0.0061999   0.0064171   1.0164559  )
        34           Co  tau(  34) = (   0.0000000   0.0126169   1.5135603  )
        35           O   tau(  35) = (   0.0114961   0.4948124   1.2815885  )
        36           O   tau(  36) = (   0.0114961   0.4948124   0.7513233  )
        37           O   tau(  37) = (   0.0051979   0.2673486   1.0164559  )
        38           O   tau(  38) = (   0.0130029   0.2478461   1.5135603  )
        39           O   tau(  39) = (   0.0048226   0.0077944   0.7773880  )
        40           O   tau(  40) = (   0.0048226   0.0077944   1.2555238  )
        41           Sr  tau(  41) = (   0.2545482   0.2517602   0.7706582  )
        42           Sr  tau(  42) = (   0.2545482   0.2517602   1.2622536  )
        43           Co  tau(  43) = (   0.4989925   0.0073160   1.5135603  )
        44           Co  tau(  44) = (   0.4998370   0.0064714   1.0164559  )
        45           O   tau(  45) = (   0.5048017   0.0015068   0.7844841  )
        46           O   tau(  46) = (   0.5048017   0.0015068   1.2484277  )
        47           O   tau(  47) = (   0.2621260   0.0059111   1.5135603  )
        48           O   tau(  48) = (   0.2591051   0.0041689   1.0164559  )
        49           O   tau(  49) = (   0.8529874   0.2843291   2.1602013  )
        50           H   tau(  50) = (   0.8529874   0.2843291   2.2847091  )

   Crystallographic axes

     site n.     atom                  positions (cryst. coord.)
         1           Sr  tau(   1) = (  0.2508693  0.7491307  0.6943562  )
         2           O   tau(   2) = (  0.4985141  0.5014859  0.6999492  )
         3           Sr  tau(   3) = (  0.7482398  0.7454518  0.6972903  )
         4           Sr  tau(   4) = (  0.7441748  0.2558252  0.6980478  )
         5           Sr  tau(   5) = (  0.2508693  0.7491307  0.5016443  )
         6           Sr  tau(   6) = (  0.2508693  0.7491307  0.3015492  )
         7           Co  tau(   7) = (  0.4998914  0.5001086  0.4015968  )
         8           Co  tau(   8) = (  0.4936915  0.5063085  0.5980003  )
         9           O   tau(   9) = (  0.4988895  0.7610401  0.4015968  )
        10           O   tau(  10) = (  0.2389599  0.5011105  0.4015968  )
        11           O   tau(  11) = (  0.0070918  0.7374880  0.4015968  )
        12           O   tau(  12) = (  0.0088340  0.7405089  0.5980003  )
        13           O   tau(  13) = (  0.5066944  0.7415376  0.5980003  )
        14           O   tau(  14) = (  0.2584624  0.4933056  0.5980003  )
        15           O   tau(  15) = (  0.4985141  0.5014859  0.3071422  )
        16           O   tau(  16) = (  0.4985141  0.5014859  0.4960513  )
        17           Sr  tau(  17) = (  0.7482398  0.7454518  0.3044833  )
        18           Sr  tau(  18) = (  0.7482398  0.7454518  0.4987103  )
        19           Sr  tau(  19) = (  0.7441748  0.2558252  0.3052408  )
        20           Sr  tau(  20) = (  0.7441748  0.2558252  0.4979527  )
        21           O   tau(  21) = (  0.7322655  0.0078049  0.5980003  )
        22           O   tau(  22) = (  0.7558175  0.4996027  0.5980003  )
        23           O   tau(  23) = (  0.5003973  0.2441825  0.5980003  )
        24           O   tau(  24) = (  0.7527966  0.4978604  0.4015968  )
        25           O   tau(  25) = (  0.5021396  0.2472034  0.4015968  )
        26           O   tau(  26) = (  0.7517679  0.0000000  0.4015968  )
        27           O   tau(  27) = (  0.0114961  0.4948124  0.6896512  )
        28           O   tau(  28) = (  0.0048226  0.0077944  0.6999492  )
        29           Sr  tau(  29) = (  0.2545482  0.2517602  0.6972903  )
        30           O   tau(  30) = (  0.5048017  0.0015068  0.7027529  )
        31           Co  tau(  31) = (  0.0056869  0.5006215  0.4015968  )
        32           Co  tau(  32) = (  0.0065315  0.4997770  0.5980003  )
        33           Co  tau(  33) = (  0.0061999  0.0064171  0.4015968  )
        34           Co  tau(  34) = (  0.0000000  0.0126169  0.5980003  )
        35           O   tau(  35) = (  0.0114961  0.4948124  0.5063494  )
        36           O   tau(  36) = (  0.0114961  0.4948124  0.2968442  )
        37           O   tau(  37) = (  0.0051979  0.2673486  0.4015968  )
        38           O   tau(  38) = (  0.0130029  0.2478461  0.5980003  )
        39           O   tau(  39) = (  0.0048226  0.0077944  0.3071422  )
        40           O   tau(  40) = (  0.0048226  0.0077944  0.4960513  )
        41           Sr  tau(  41) = (  0.2545482  0.2517602  0.3044833  )
        42           Sr  tau(  42) = (  0.2545482  0.2517602  0.4987103  )
        43           Co  tau(  43) = (  0.4989925  0.0073160  0.5980003  )
        44           Co  tau(  44) = (  0.4998370  0.0064714  0.4015968  )
        45           O   tau(  45) = (  0.5048017  0.0015068  0.3099459  )
        46           O   tau(  46) = (  0.5048017  0.0015068  0.4932477  )
        47           O   tau(  47) = (  0.2621260  0.0059111  0.5980003  )
        48           O   tau(  48) = (  0.2591051  0.0041689  0.4015968  )
        49           O   tau(  49) = (  0.8529874  0.2843291  0.8534850  )
        50           H   tau(  50) = (  0.8529874  0.2843291  0.9026774  )

     number of k points=    10  Gaussian smearing, width (Ry)=  0.0700
                       cart. coord. in units 2pi/alat
        k(    1) = (   0.0000000   0.0000000   0.0000000), wk =   0.1250000
        k(    2) = (   0.0000000   0.2500000   0.0000000), wk =   0.2500000
        k(    3) = (   0.0000000  -0.5000000   0.0000000), wk =   0.1250000
        k(    4) = (   0.2500000   0.2500000   0.0000000), wk =   0.2500000
        k(    5) = (   0.2500000  -0.5000000   0.0000000), wk =   0.2500000
        k(    6) = (  -0.5000000  -0.5000000   0.0000000), wk =   0.1250000
        k(    7) = (   0.2500000   0.0000000   0.0000000), wk =   0.2500000
        k(    8) = (  -0.5000000   0.0000000   0.0000000), wk =   0.1250000
        k(    9) = (  -0.2500000   0.2500000   0.0000000), wk =   0.2500000
        k(   10) = (  -0.5000000   0.2500000   0.0000000), wk =   0.2500000

                       cryst. coord.
        k(    1) = (   0.0000000   0.0000000   0.0000000), wk =   0.1250000
        k(    2) = (   0.0000000   0.2500000   0.0000000), wk =   0.2500000
        k(    3) = (   0.0000000  -0.5000000   0.0000000), wk =   0.1250000
        k(    4) = (   0.2500000   0.2500000   0.0000000), wk =   0.2500000
        k(    5) = (   0.2500000  -0.5000000   0.0000000), wk =   0.2500000
        k(    6) = (  -0.5000000  -0.5000000   0.0000000), wk =   0.1250000
        k(    7) = (   0.2500000   0.0000000   0.0000000), wk =   0.2500000
        k(    8) = (  -0.5000000   0.0000000   0.0000000), wk =   0.1250000
        k(    9) = (  -0.2500000   0.2500000   0.0000000), wk =   0.2500000
        k(   10) = (  -0.5000000   0.2500000   0.0000000), wk =   0.2500000

     Dense  grid:  1474595 G-vectors     FFT dimensions: ( 108, 108, 270)

     Smooth grid:   521381 G-vectors     FFT dimensions: (  75,  75, 192)

     Dynamical RAM for                 wfc:      10.73 MB

     Dynamical RAM for     wfc (w. buffer):      64.38 MB

     Dynamical RAM for           str. fact:       3.75 MB

     Dynamical RAM for           local pot:       0.00 MB

     Dynamical RAM for          nlocal pot:      24.61 MB

     Dynamical RAM for                qrad:       7.03 MB

     Dynamical RAM for          rho,v,vnew:       6.02 MB

     Dynamical RAM for               rhoin:       2.01 MB

     Dynamical RAM for            rho*nmix:      15.00 MB

     Dynamical RAM for           G-vectors:       3.68 MB

     Dynamical RAM for          h,s,v(r/c):       1.35 MB

     Dynamical RAM for          <psi|beta>:       2.35 MB

     Dynamical RAM for                 psi:      21.46 MB

     Dynamical RAM for                hpsi:      21.46 MB

     Dynamical RAM for                spsi:      21.46 MB

     Dynamical RAM for      wfcinit/wfcrot:      34.49 MB

     Dynamical RAM for           addusdens:     101.26 MB

     Estimated static dynamical RAM per process >     121.50 MB

     Estimated max dynamical RAM per process >     237.76 MB

     Estimated total dynamical RAM >      10.79 GB

     Check: negative core charge=   -0.000004

     Initial potential from superposition of free atoms

     starting charge     422.5961, renormalised to     431.0000

     negative rho (up, down):  7.819E-01 0.000E+00
     Starting wfcs are  377 randomized atomic wfcs
     Checking if some PAW data can be deallocated... 
       PAW data deallocated on   19 nodes for type:  2

     total cpu time spent up to now is        9.3 secs

     Self-consistent Calculation

     iteration #  1     ecut=    60.00 Ry     beta= 0.15
     Davidson diagonalization with overlap

---- Real-time Memory Report at c_bands before calling an iterative solver
             0 MiB given to the printing process from OS
             0 MiB allocation reported by mallinfo(arena+hblkhd)
         23978 MiB available memory on the node where the printing process lives
------------------
     ethr =  1.00E-02,  avg # of iterations =  2.0

     negative rho (up, down):  7.715E-01 0.000E+00

     total cpu time spent up to now is       26.5 secs

     total energy              =   -4446.59622227 Ry
     estimated scf accuracy    <      44.48226112 Ry

     iteration #  2     ecut=    60.00 Ry     beta= 0.15
     Davidson diagonalization with overlap

---- Real-time Memory Report at c_bands before calling an iterative solver
             0 MiB given to the printing process from OS
             0 MiB allocation reported by mallinfo(arena+hblkhd)
         24251 MiB available memory on the node where the printing process lives
------------------
     ethr =  1.00E-02,  avg # of iterations =  1.0

     negative rho (up, down):  7.586E-01 0.000E+00

     total cpu time spent up to now is       41.3 secs

     total energy              =   -4443.40984831 Ry
     estimated scf accuracy    <      29.68306943 Ry

     iteration #  3     ecut=    60.00 Ry     beta= 0.15
     Davidson diagonalization with overlap

---- Real-time Memory Report at c_bands before calling an iterative solver
             0 MiB given to the printing process from OS
             0 MiB allocation reported by mallinfo(arena+hblkhd)
         23414 MiB available memory on the node where the printing process lives
------------------
     ethr =  6.89E-03,  avg # of iterations =  1.0

     negative rho (up, down):  7.556E-01 0.000E+00

     total cpu time spent up to now is       56.0 secs

     total energy              =   -4444.26773168 Ry
     estimated scf accuracy    <      27.05923491 Ry

     iteration #  4     ecut=    60.00 Ry     beta= 0.15
     Davidson diagonalization with overlap

---- Real-time Memory Report at c_bands before calling an iterative solver
             0 MiB given to the printing process from OS
             0 MiB allocation reported by mallinfo(arena+hblkhd)
         23397 MiB available memory on the node where the printing process lives
------------------
     ethr =  6.28E-03,  avg # of iterations =  1.0

     negative rho (up, down):  7.506E-01 0.000E+00

     total cpu time spent up to now is       70.7 secs

     total energy              =   -4443.11327998 Ry
     estimated scf accuracy    <      19.93242978 Ry

     iteration #  5     ecut=    60.00 Ry     beta= 0.15
     Davidson diagonalization with overlap

---- Real-time Memory Report at c_bands before calling an iterative solver
             0 MiB given to the printing process from OS
             0 MiB allocation reported by mallinfo(arena+hblkhd)
         23378 MiB available memory on the node where the printing process lives
------------------
     ethr =  4.62E-03,  avg # of iterations =  1.0

     negative rho (up, down):  7.397E-01 0.000E+00

     total cpu time spent up to now is       85.7 secs

     total energy              =   -4442.46870234 Ry
     estimated scf accuracy    <      12.60233694 Ry

     iteration #  6     ecut=    60.00 Ry     beta= 0.15
     Davidson diagonalization with overlap

---- Real-time Memory Report at c_bands before calling an iterative solver
             0 MiB given to the printing process from OS
             0 MiB allocation reported by mallinfo(arena+hblkhd)
         23352 MiB available memory on the node where the printing process lives
------------------
     ethr =  2.92E-03,  avg # of iterations =  1.0

     negative rho (up, down):  7.426E-01 0.000E+00

     total cpu time spent up to now is      100.2 secs

     total energy              =   -4442.84000007 Ry
     estimated scf accuracy    <       5.12003608 Ry

     iteration #  7     ecut=    60.00 Ry     beta= 0.15
     Davidson diagonalization with overlap

---- Real-time Memory Report at c_bands before calling an iterative solver
             0 MiB given to the printing process from OS
             0 MiB allocation reported by mallinfo(arena+hblkhd)
         23336 MiB available memory on the node where the printing process lives
------------------
     ethr =  1.19E-03,  avg # of iterations =  1.7

     negative rho (up, down):  7.649E-01 0.000E+00

     total cpu time spent up to now is      115.4 secs

     total energy              =   -4441.64997037 Ry
     estimated scf accuracy    <       4.00542846 Ry

     iteration #  8     ecut=    60.00 Ry     beta= 0.15
     Davidson diagonalization with overlap

---- Real-time Memory Report at c_bands before calling an iterative solver
             0 MiB given to the printing process from OS
             0 MiB allocation reported by mallinfo(arena+hblkhd)
         23317 MiB available memory on the node where the printing process lives
------------------
     ethr =  9.29E-04,  avg # of iterations =  3.7

     negative rho (up, down):  7.742E-01 0.000E+00

     total cpu time spent up to now is      134.2 secs

     total energy              =   -4441.29761292 Ry
     estimated scf accuracy    <      22.76688587 Ry

     iteration #  9     ecut=    60.00 Ry     beta= 0.15
     Davidson diagonalization with overlap

---- Real-time Memory Report at c_bands before calling an iterative solver
             0 MiB given to the printing process from OS
             0 MiB allocation reported by mallinfo(arena+hblkhd)
         23195 MiB available memory on the node where the printing process lives
------------------
     ethr =  9.29E-04,  avg # of iterations = 10.1

     negative rho (up, down):  7.709E-01 0.000E+00

     total cpu time spent up to now is      156.7 secs

     total energy              =   -4441.70532630 Ry
     estimated scf accuracy    <       4.19432941 Ry

     iteration # 10     ecut=    60.00 Ry     beta= 0.15
     Davidson diagonalization with overlap

---- Real-time Memory Report at c_bands before calling an iterative solver
             0 MiB given to the printing process from OS
             0 MiB allocation reported by mallinfo(arena+hblkhd)
         22820 MiB available memory on the node where the printing process lives
------------------
     ethr =  9.29E-04,  avg # of iterations =  1.1

     negative rho (up, down):  7.743E-01 0.000E+00

     total cpu time spent up to now is      171.6 secs

     total energy              =   -4441.89178477 Ry
     estimated scf accuracy    <       1.68203867 Ry

     iteration # 11     ecut=    60.00 Ry     beta= 0.15
     Davidson diagonalization with overlap

---- Real-time Memory Report at c_bands before calling an iterative solver
             0 MiB given to the printing process from OS
             0 MiB allocation reported by mallinfo(arena+hblkhd)
         22806 MiB available memory on the node where the printing process lives
------------------
     ethr =  3.90E-04,  avg # of iterations =  1.6

     negative rho (up, down):  7.993E-01 0.000E+00

     total cpu time spent up to now is      187.6 secs

     total energy              =   -4441.80094163 Ry
     estimated scf accuracy    <       0.93229261 Ry

     iteration # 12     ecut=    60.00 Ry     beta= 0.15
     Davidson diagonalization with overlap

---- Real-time Memory Report at c_bands before calling an iterative solver
             0 MiB given to the printing process from OS
             0 MiB allocation reported by mallinfo(arena+hblkhd)
         22811 MiB available memory on the node where the printing process lives
------------------
     ethr =  2.16E-04,  avg # of iterations =  6.9

     negative rho (up, down):  8.154E-01 0.000E+00

     total cpu time spent up to now is      208.2 secs

     total energy              =   -4441.88137221 Ry
     estimated scf accuracy    <       1.39688227 Ry

     iteration # 13     ecut=    60.00 Ry     beta= 0.15
     Davidson diagonalization with overlap

---- Real-time Memory Report at c_bands before calling an iterative solver
             0 MiB given to the printing process from OS
             0 MiB allocation reported by mallinfo(arena+hblkhd)
         22770 MiB available memory on the node where the printing process lives
------------------
     ethr =  2.16E-04,  avg # of iterations =  9.2

     negative rho (up, down):  8.187E-01 0.000E+00

     total cpu time spent up to now is      228.7 secs

     total energy              =   -4441.82758280 Ry
     estimated scf accuracy    <       1.02679296 Ry

     iteration # 14     ecut=    60.00 Ry     beta= 0.15
     Davidson diagonalization with overlap

---- Real-time Memory Report at c_bands before calling an iterative solver
             0 MiB given to the printing process from OS
             0 MiB allocation reported by mallinfo(arena+hblkhd)
         22756 MiB available memory on the node where the printing process lives
------------------
     ethr =  2.16E-04,  avg # of iterations =  1.7

     negative rho (up, down):  8.162E-01 0.000E+00

     total cpu time spent up to now is      244.7 secs

     total energy              =   -4441.74657061 Ry
     estimated scf accuracy    <       0.48244898 Ry

     iteration # 15     ecut=    60.00 Ry     beta= 0.15
     Davidson diagonalization with overlap

---- Real-time Memory Report at c_bands before calling an iterative solver
             0 MiB given to the printing process from OS
             0 MiB allocation reported by mallinfo(arena+hblkhd)
         22767 MiB available memory on the node where the printing process lives
------------------
     ethr =  1.12E-04,  avg # of iterations =  8.1

     negative rho (up, down):  8.263E-01 0.000E+00

     total cpu time spent up to now is      264.8 secs

     total energy              =   -4441.74742708 Ry
     estimated scf accuracy    <       0.37950784 Ry

     iteration # 16     ecut=    60.00 Ry     beta= 0.15
     Davidson diagonalization with overlap

---- Real-time Memory Report at c_bands before calling an iterative solver
             0 MiB given to the printing process from OS
             0 MiB allocation reported by mallinfo(arena+hblkhd)
         22746 MiB available memory on the node where the printing process lives
------------------
     ethr =  8.81E-05,  avg # of iterations = 10.3

     negative rho (up, down):  8.299E-01 0.000E+00

     total cpu time spent up to now is      285.9 secs

     total energy              =   -4441.73909593 Ry
     estimated scf accuracy    <       0.32395820 Ry

     iteration # 17     ecut=    60.00 Ry     beta= 0.15
     Davidson diagonalization with overlap

---- Real-time Memory Report at c_bands before calling an iterative solver
             0 MiB given to the printing process from OS
             0 MiB allocation reported by mallinfo(arena+hblkhd)
         22727 MiB available memory on the node where the printing process lives
------------------
     ethr =  7.52E-05,  avg # of iterations =  5.6

     negative rho (up, down):  8.294E-01 0.000E+00

     total cpu time spent up to now is      303.6 secs

     total energy              =   -4441.72783009 Ry
     estimated scf accuracy    <       0.24354404 Ry

     iteration # 18     ecut=    60.00 Ry     beta= 0.15
     Davidson diagonalization with overlap

---- Real-time Memory Report at c_bands before calling an iterative solver
             0 MiB given to the printing process from OS
             0 MiB allocation reported by mallinfo(arena+hblkhd)
         22733 MiB available memory on the node where the printing process lives
------------------
     ethr =  5.65E-05,  avg # of iterations =  5.4

     negative rho (up, down):  8.146E-01 0.000E+00

     total cpu time spent up to now is      322.1 secs

     total energy              =   -4441.69847542 Ry
     estimated scf accuracy    <       0.16149649 Ry

     iteration # 19     ecut=    60.00 Ry     beta= 0.15
     Davidson diagonalization with overlap

---- Real-time Memory Report at c_bands before calling an iterative solver
             0 MiB given to the printing process from OS
             0 MiB allocation reported by mallinfo(arena+hblkhd)
         22765 MiB available memory on the node where the printing process lives
------------------
     ethr =  3.75E-05,  avg # of iterations =  9.6

     negative rho (up, down):  8.192E-01 0.000E+00

     total cpu time spent up to now is      343.3 secs

     total energy              =   -4441.68960226 Ry
     estimated scf accuracy    <       0.10716388 Ry

     iteration # 20     ecut=    60.00 Ry     beta= 0.15
     Davidson diagonalization with overlap

---- Real-time Memory Report at c_bands before calling an iterative solver
             0 MiB given to the printing process from OS
             0 MiB allocation reported by mallinfo(arena+hblkhd)
         22729 MiB available memory on the node where the printing process lives
------------------
     ethr =  2.49E-05,  avg # of iterations =  6.6

     negative rho (up, down):  8.245E-01 0.000E+00

     total cpu time spent up to now is      362.9 secs

     total energy              =   -4441.67766609 Ry
     estimated scf accuracy    <       0.07244501 Ry

     iteration # 21     ecut=    60.00 Ry     beta= 0.15
     Davidson diagonalization with overlap

---- Real-time Memory Report at c_bands before calling an iterative solver
             0 MiB given to the printing process from OS
             0 MiB allocation reported by mallinfo(arena+hblkhd)
         22750 MiB available memory on the node where the printing process lives
------------------
     ethr =  1.68E-05,  avg # of iterations = 12.3

     negative rho (up, down):  8.250E-01 0.000E+00

     total cpu time spent up to now is      386.2 secs

     total energy              =   -4441.67857187 Ry
     estimated scf accuracy    <       0.03895427 Ry

     iteration # 22     ecut=    60.00 Ry     beta= 0.15
     Davidson diagonalization with overlap

---- Real-time Memory Report at c_bands before calling an iterative solver
             0 MiB given to the printing process from OS
             0 MiB allocation reported by mallinfo(arena+hblkhd)
         22735 MiB available memory on the node where the printing process lives
------------------
     ethr =  9.04E-06,  avg # of iterations =  6.9

     negative rho (up, down):  8.141E-01 0.000E+00

     total cpu time spent up to now is      406.0 secs

     total energy              =   -4441.67831497 Ry
     estimated scf accuracy    <       0.02310754 Ry

     iteration # 23     ecut=    60.00 Ry     beta= 0.15
     Davidson diagonalization with overlap

---- Real-time Memory Report at c_bands before calling an iterative solver
             0 MiB given to the printing process from OS
             0 MiB allocation reported by mallinfo(arena+hblkhd)
         22717 MiB available memory on the node where the printing process lives
------------------
     ethr =  5.36E-06,  avg # of iterations =  4.6

     negative rho (up, down):  7.917E-01 0.000E+00

     total cpu time spent up to now is      424.2 secs

     total energy              =   -4441.67417800 Ry
     estimated scf accuracy    <       0.01851464 Ry

     iteration # 24     ecut=    60.00 Ry     beta= 0.15
     Davidson diagonalization with overlap

---- Real-time Memory Report at c_bands before calling an iterative solver
             0 MiB given to the printing process from OS
             0 MiB allocation reported by mallinfo(arena+hblkhd)
         22745 MiB available memory on the node where the printing process lives
------------------
     c_bands:  1 eigenvalues not converged
     ethr =  4.30E-06,  avg # of iterations = 10.0

     negative rho (up, down):  7.958E-01 0.000E+00

     total cpu time spent up to now is      445.6 secs

     total energy              =   -4441.67331913 Ry
     estimated scf accuracy    <       0.01159531 Ry

     iteration # 25     ecut=    60.00 Ry     beta= 0.15
     Davidson diagonalization with overlap

---- Real-time Memory Report at c_bands before calling an iterative solver
             0 MiB given to the printing process from OS
             0 MiB allocation reported by mallinfo(arena+hblkhd)
         22731 MiB available memory on the node where the printing process lives
------------------
     ethr =  2.69E-06,  avg # of iterations =  8.8

     negative rho (up, down):  8.006E-01 0.000E+00

     total cpu time spent up to now is      466.6 secs

     total energy              =   -4441.67318842 Ry
     estimated scf accuracy    <       0.00473786 Ry

     iteration # 26     ecut=    60.00 Ry     beta= 0.15
     Davidson diagonalization with overlap

---- Real-time Memory Report at c_bands before calling an iterative solver
             0 MiB given to the printing process from OS
             0 MiB allocation reported by mallinfo(arena+hblkhd)
         22694 MiB available memory on the node where the printing process lives
------------------
     ethr =  1.10E-06,  avg # of iterations =  9.2

     negative rho (up, down):  8.027E-01 0.000E+00

     total cpu time spent up to now is      488.2 secs

     total energy              =   -4441.67329990 Ry
     estimated scf accuracy    <       0.00242504 Ry

     iteration # 27     ecut=    60.00 Ry     beta= 0.15
     Davidson diagonalization with overlap

---- Real-time Memory Report at c_bands before calling an iterative solver
             0 MiB given to the printing process from OS
             0 MiB allocation reported by mallinfo(arena+hblkhd)
         22669 MiB available memory on the node where the printing process lives
------------------
     ethr =  5.63E-07,  avg # of iterations =  2.5

     negative rho (up, down):  7.986E-01 0.000E+00

     total cpu time spent up to now is      505.5 secs

     total energy              =   -4441.67314231 Ry
     estimated scf accuracy    <       0.00112290 Ry

     iteration # 28     ecut=    60.00 Ry     beta= 0.15
     Davidson diagonalization with overlap

---- Real-time Memory Report at c_bands before calling an iterative solver
             0 MiB given to the printing process from OS
             0 MiB allocation reported by mallinfo(arena+hblkhd)
         22706 MiB available memory on the node where the printing process lives
------------------
     c_bands:  1 eigenvalues not converged
     ethr =  2.61E-07,  avg # of iterations = 10.3

     negative rho (up, down):  7.958E-01 0.000E+00

     total cpu time spent up to now is      527.3 secs

     total energy              =   -4441.67307852 Ry
     estimated scf accuracy    <       0.00052431 Ry

     iteration # 29     ecut=    60.00 Ry     beta= 0.15
     Davidson diagonalization with overlap

---- Real-time Memory Report at c_bands before calling an iterative solver
             0 MiB given to the printing process from OS
             0 MiB allocation reported by mallinfo(arena+hblkhd)
         22703 MiB available memory on the node where the printing process lives
------------------
     ethr =  1.22E-07,  avg # of iterations =  6.0

     negative rho (up, down):  7.939E-01 0.000E+00

     total cpu time spent up to now is      545.8 secs

     total energy              =   -4441.67304654 Ry
     estimated scf accuracy    <       0.00030636 Ry

     iteration # 30     ecut=    60.00 Ry     beta= 0.15
     Davidson diagonalization with overlap

---- Real-time Memory Report at c_bands before calling an iterative solver
             0 MiB given to the printing process from OS
             0 MiB allocation reported by mallinfo(arena+hblkhd)
         22708 MiB available memory on the node where the printing process lives
------------------
     c_bands:  1 eigenvalues not converged
     ethr =  7.11E-08,  avg # of iterations = 10.2

     negative rho (up, down):  7.932E-01 0.000E+00

     total cpu time spent up to now is      567.5 secs

     total energy              =   -4441.67303313 Ry
     estimated scf accuracy    <       0.00014667 Ry

     iteration # 31     ecut=    60.00 Ry     beta= 0.15
     Davidson diagonalization with overlap

---- Real-time Memory Report at c_bands before calling an iterative solver
             0 MiB given to the printing process from OS
             0 MiB allocation reported by mallinfo(arena+hblkhd)
         22673 MiB available memory on the node where the printing process lives
------------------
     ethr =  3.40E-08,  avg # of iterations =  4.5

     negative rho (up, down):  7.930E-01 0.000E+00

     total cpu time spent up to now is      588.1 secs

     total energy              =   -4441.67305232 Ry
     estimated scf accuracy    <       0.00003594 Ry

     iteration # 32     ecut=    60.00 Ry     beta= 0.15
     Davidson diagonalization with overlap

---- Real-time Memory Report at c_bands before calling an iterative solver
             0 MiB given to the printing process from OS
             0 MiB allocation reported by mallinfo(arena+hblkhd)
         22657 MiB available memory on the node where the printing process lives
------------------
     ethr =  8.34E-09,  avg # of iterations =  2.4

     negative rho (up, down):  7.925E-01 0.000E+00

     total cpu time spent up to now is      605.5 secs

     total energy              =   -4441.67305453 Ry
     estimated scf accuracy    <       0.00001859 Ry

     iteration # 33     ecut=    60.00 Ry     beta= 0.15
     Davidson diagonalization with overlap

---- Real-time Memory Report at c_bands before calling an iterative solver
             0 MiB given to the printing process from OS
             0 MiB allocation reported by mallinfo(arena+hblkhd)
         22650 MiB available memory on the node where the printing process lives
------------------
     ethr =  4.31E-09,  avg # of iterations =  2.7

     negative rho (up, down):  7.924E-01 0.000E+00

     total cpu time spent up to now is      622.7 secs

     total energy              =   -4441.67305831 Ry
     estimated scf accuracy    <       0.00001130 Ry

     iteration # 34     ecut=    60.00 Ry     beta= 0.15
     Davidson diagonalization with overlap

---- Real-time Memory Report at c_bands before calling an iterative solver
             0 MiB given to the printing process from OS
             0 MiB allocation reported by mallinfo(arena+hblkhd)
         22650 MiB available memory on the node where the printing process lives
------------------
     ethr =  2.62E-09,  avg # of iterations =  2.2

     negative rho (up, down):  7.924E-01 0.000E+00

     total cpu time spent up to now is      639.6 secs

     total energy              =   -4441.67306044 Ry
     estimated scf accuracy    <       0.00000729 Ry

     iteration # 35     ecut=    60.00 Ry     beta= 0.15
     Davidson diagonalization with overlap

---- Real-time Memory Report at c_bands before calling an iterative solver
             0 MiB given to the printing process from OS
             0 MiB allocation reported by mallinfo(arena+hblkhd)
         22657 MiB available memory on the node where the printing process lives
------------------
     ethr =  1.69E-09,  avg # of iterations =  2.2

     negative rho (up, down):  7.925E-01 0.000E+00

     total cpu time spent up to now is      656.5 secs

     total energy              =   -4441.67306295 Ry
     estimated scf accuracy    <       0.00000447 Ry

     iteration # 36     ecut=    60.00 Ry     beta= 0.15
     Davidson diagonalization with overlap

---- Real-time Memory Report at c_bands before calling an iterative solver
             0 MiB given to the printing process from OS
             0 MiB allocation reported by mallinfo(arena+hblkhd)
         22669 MiB available memory on the node where the printing process lives
------------------
     ethr =  1.04E-09,  avg # of iterations =  2.2

     negative rho (up, down):  7.925E-01 0.000E+00

     total cpu time spent up to now is      673.3 secs

     total energy              =   -4441.67306457 Ry
     estimated scf accuracy    <       0.00000297 Ry

     iteration # 37     ecut=    60.00 Ry     beta= 0.15
     Davidson diagonalization with overlap

---- Real-time Memory Report at c_bands before calling an iterative solver
             0 MiB given to the printing process from OS
             0 MiB allocation reported by mallinfo(arena+hblkhd)
         22683 MiB available memory on the node where the printing process lives
------------------
     ethr =  6.88E-10,  avg # of iterations =  2.8

     negative rho (up, down):  7.926E-01 0.000E+00

     total cpu time spent up to now is      690.7 secs

     total energy              =   -4441.67306536 Ry
     estimated scf accuracy    <       0.00000211 Ry

     iteration # 38     ecut=    60.00 Ry     beta= 0.15
     Davidson diagonalization with overlap

---- Real-time Memory Report at c_bands before calling an iterative solver
             0 MiB given to the printing process from OS
             0 MiB allocation reported by mallinfo(arena+hblkhd)
         22679 MiB available memory on the node where the printing process lives
------------------
     ethr =  4.90E-10,  avg # of iterations =  3.3

     negative rho (up, down):  7.926E-01 0.000E+00

     total cpu time spent up to now is      708.3 secs

     total energy              =   -4441.67306534 Ry
     estimated scf accuracy    <       0.00000100 Ry

     iteration # 39     ecut=    60.00 Ry     beta= 0.15
     Davidson diagonalization with overlap

---- Real-time Memory Report at c_bands before calling an iterative solver
             0 MiB given to the printing process from OS
             0 MiB allocation reported by mallinfo(arena+hblkhd)
         22672 MiB available memory on the node where the printing process lives
------------------
     ethr =  2.32E-10,  avg # of iterations =  2.7

     negative rho (up, down):  7.925E-01 0.000E+00

     total cpu time spent up to now is      725.5 secs

     total energy              =   -4441.67306531 Ry
     estimated scf accuracy    <       0.00000070 Ry

     iteration # 40     ecut=    60.00 Ry     beta= 0.15
     Davidson diagonalization with overlap

---- Real-time Memory Report at c_bands before calling an iterative solver
             0 MiB given to the printing process from OS
             0 MiB allocation reported by mallinfo(arena+hblkhd)
         22666 MiB available memory on the node where the printing process lives
------------------
     ethr =  1.64E-10,  avg # of iterations =  2.5

     negative rho (up, down):  7.925E-01 0.000E+00

     total cpu time spent up to now is      742.8 secs

     total energy              =   -4441.67306537 Ry
     estimated scf accuracy    <       0.00000028 Ry

     iteration # 41     ecut=    60.00 Ry     beta= 0.15
     Davidson diagonalization with overlap

---- Real-time Memory Report at c_bands before calling an iterative solver
             0 MiB given to the printing process from OS
             0 MiB allocation reported by mallinfo(arena+hblkhd)
         22670 MiB available memory on the node where the printing process lives
------------------
     ethr =  6.54E-11,  avg # of iterations =  2.1

     negative rho (up, down):  7.925E-01 0.000E+00

     total cpu time spent up to now is      759.7 secs

     total energy              =   -4441.67306545 Ry
     estimated scf accuracy    <       0.00000019 Ry

     iteration # 42     ecut=    60.00 Ry     beta= 0.15
     Davidson diagonalization with overlap

---- Real-time Memory Report at c_bands before calling an iterative solver
             0 MiB given to the printing process from OS
             0 MiB allocation reported by mallinfo(arena+hblkhd)
         22669 MiB available memory on the node where the printing process lives
------------------
     ethr =  4.34E-11,  avg # of iterations =  2.6

     negative rho (up, down):  7.925E-01 0.000E+00

     total cpu time spent up to now is      776.8 secs

     total energy              =   -4441.67306551 Ry
     estimated scf accuracy    <       0.00000011 Ry

     iteration # 43     ecut=    60.00 Ry     beta= 0.15
     Davidson diagonalization with overlap

---- Real-time Memory Report at c_bands before calling an iterative solver
             0 MiB given to the printing process from OS
             0 MiB allocation reported by mallinfo(arena+hblkhd)
         22671 MiB available memory on the node where the printing process lives
------------------
     ethr =  2.62E-11,  avg # of iterations =  3.7

     negative rho (up, down):  7.925E-01 0.000E+00

     total cpu time spent up to now is      794.7 secs

     total energy              =   -4441.67306552 Ry
     estimated scf accuracy    <       0.00000004 Ry

     iteration # 44     ecut=    60.00 Ry     beta= 0.15
     Davidson diagonalization with overlap

---- Real-time Memory Report at c_bands before calling an iterative solver
             0 MiB given to the printing process from OS
             0 MiB allocation reported by mallinfo(arena+hblkhd)
         22666 MiB available memory on the node where the printing process lives
------------------
     ethr =  8.33E-12,  avg # of iterations =  3.1

     negative rho (up, down):  7.925E-01 0.000E+00

     total cpu time spent up to now is      812.7 secs

     total energy              =   -4441.67306552 Ry
     estimated scf accuracy    <       0.00000001 Ry

     iteration # 45     ecut=    60.00 Ry     beta= 0.15
     Davidson diagonalization with overlap

---- Real-time Memory Report at c_bands before calling an iterative solver
             0 MiB given to the printing process from OS
             0 MiB allocation reported by mallinfo(arena+hblkhd)
         22661 MiB available memory on the node where the printing process lives
------------------
     ethr =  2.80E-12,  avg # of iterations =  2.4

     negative rho (up, down):  7.925E-01 0.000E+00

     total cpu time spent up to now is      829.5 secs

     End of self-consistent calculation

          k = 0.0000 0.0000 0.0000 ( 65197 PWs)   bands (ev):

   -92.7086 -92.6596 -92.5630 -92.5172 -92.4585 -92.4152 -92.3977 -92.2788
   -56.0620 -56.0464 -55.9202 -55.9093 -55.9042 -55.8961 -55.8623 -55.8321
   -55.8163 -55.8148 -55.8100 -55.7652 -55.7480 -55.7093 -55.6897 -55.6588
   -55.6525 -55.6046 -55.6033 -55.6004 -55.5919 -55.5538 -55.5280 -55.4440
   -31.2856 -31.2663 -31.1243 -31.0889 -31.0376 -30.9408 -30.7517 -30.6410
   -29.8545 -29.8128 -29.7853 -29.6769 -15.0887 -15.0413 -14.9618 -14.8331
   -14.6337 -14.5153 -14.2246 -14.2058 -14.1772 -14.1279 -14.0826 -14.0659
   -14.0600 -14.0415 -14.0276 -13.9930 -13.9678 -13.9373 -13.7833 -13.5989
   -13.5717 -13.5409 -13.5035 -13.4908 -13.4354 -13.4009 -13.3302 -13.2577
   -13.1233 -13.1158 -13.1093 -13.0827 -13.0683 -13.0622 -13.0090 -12.9978
   -12.9832 -12.9579 -12.9308 -12.9100 -12.8821 -12.8622 -12.8403 -12.7403
   -12.7260 -12.7032 -12.5792 -12.5599 -12.5183 -12.3501 -12.2043 -11.9958
   -11.9229 -11.8679 -11.7943 -11.7828 -11.7603 -11.7427 -11.6789 -11.6612
   -11.6275 -11.5971 -11.4852 -11.4063 -11.4028  -2.9477  -2.7161  -2.4867
    -2.3384  -2.2766  -2.1351  -1.8270  -1.8124  -1.7939  -1.7067  -1.6894
    -1.6209  -1.6046  -1.5641  -1.5198  -1.3409  -1.2573  -1.1112  -1.0807
    -0.9382  -0.9231  -0.8760  -0.8537  -0.8096  -0.7938  -0.7412  -0.7132
    -0.6373  -0.6272  -0.5538  -0.4217  -0.4097  -0.3789  -0.2980  -0.2773
    -0.2386  -0.2046  -0.1342  -0.0827  -0.0349  -0.0093   0.0596   0.1281
     0.1741   0.2009   0.2092   0.4672   0.4859   0.6581   0.7201   0.7858
     0.8379   0.9241   0.9332   0.9529   1.0182   1.0446   1.0800   1.1357
     1.2670   1.3249   1.3470   1.3732   1.3849   1.4458   1.5139   1.6254
     1.6444   1.7017   1.7090   1.7538   1.7743   1.7835   1.8386   1.9036
     1.9096   1.9456   1.9760   2.0238   2.1539   2.2396   2.2800   2.3015
     2.4305   2.4417   2.4495   2.4673   2.5051   2.5090   2.6237   2.6533
     2.6799   2.6987   2.7144   2.7967   2.9005   2.9356   2.9443   2.9501
     3.0181   3.0231   3.0465   3.0538   3.0629   3.0748   3.0829   3.0965
     3.1030   3.1152   3.1222   3.1293   3.1496   3.1709   3.1759   3.1880
     3.2116   3.3281   3.4094   4.0996   4.4229   4.7626   4.8605   5.0388
     5.8172   5.9401   5.9788   6.0028   6.3070   6.3535   6.4719   6.4856
     6.7435   7.0015   7.0949   7.3116   7.4451   7.6482   7.6582   7.6854
     7.7468   7.9046   8.0077   8.0410   8.1058   8.1714   8.4440   8.5142
     8.7381   8.8009   8.8726

     occupation numbers 
     1.0000   1.0000   1.0000   1.0000   1.0000   1.0000   1.0000   1.0000
     1.0000   1.0000   1.0000   1.0000   1.0000   1.0000   1.0000   1.0000
     1.0000   1.0000   1.0000   1.0000   1.0000   1.0000   1.0000   1.0000
     1.0000   1.0000   1.0000   1.0000   1.0000   1.0000   1.0000   1.0000
     1.0000   1.0000   1.0000   1.0000   1.0000   1.0000   1.0000   1.0000
     1.0000   1.0000   1.0000   1.0000   1.0000   1.0000   1.0000   1.0000
     1.0000   1.0000   1.0000   1.0000   1.0000   1.0000   1.0000   1.0000
     1.0000   1.0000   1.0000   1.0000   1.0000   1.0000   1.0000   1.0000
     1.0000   1.0000   1.0000   1.0000   1.0000   1.0000   1.0000   1.0000
     1.0000   1.0000   1.0000   1.0000   1.0000   1.0000   1.0000   1.0000
     1.0000   1.0000   1.0000   1.0000   1.0000   1.0000   1.0000   1.0000
     1.0000   1.0000   1.0000   1.0000   1.0000   1.0000   1.0000   1.0000
     1.0000   1.0000   1.0000   1.0000   1.0000   1.0000   1.0000   1.0000
     1.0000   1.0000   1.0000   1.0000   1.0000   1.0000   1.0000   1.0000
     1.0000   1.0000   1.0000   1.0000   1.0000   1.0000   1.0000   1.0000
     1.0000   1.0000   1.0000   1.0000   1.0000   1.0000   1.0000   1.0000
     1.0000   1.0000   1.0000   1.0000   1.0000   1.0000   1.0000   1.0000
     1.0000   1.0000   1.0000   1.0000   1.0000   1.0000   1.0000   1.0000
     1.0000   1.0000   1.0000   1.0000   1.0000   1.0000   1.0000   1.0000
     1.0000   1.0000   1.0000   1.0000   1.0000   1.0000   0.9999   0.9999
     0.9999   0.9998   0.9998   0.9998   0.9997   0.9996   0.9996   0.9994
     0.9988   0.9985   0.9983   0.9981   0.9980   0.9973   0.9963   0.9940
     0.9936   0.9918   0.9916   0.9899   0.9891   0.9887   0.9860   0.9822
     0.9818   0.9793   0.9769   0.9728   0.9582   0.9455   0.9386   0.9346
     0.9065   0.9037   0.9017   0.8970   0.8866   0.8855   0.8491   0.8386
     0.8287   0.8215   0.8154   0.7810   0.7329   0.7155   0.7111   0.7081
     0.6725   0.6699   0.6572   0.6532   0.6482   0.6416   0.6371   0.6295
     0.6258   0.6190   0.6150   0.6109   0.5994   0.5871   0.5842   0.5772
     0.5634   0.4946   0.4466   0.1232   0.0506   0.0160   0.0110   0.0053
     0.0001   0.0000   0.0000   0.0000   0.0000   0.0000   0.0000   0.0000
     0.0000   0.0000   0.0000   0.0000   0.0000   0.0000   0.0000   0.0000
     0.0000   0.0000   0.0000   0.0000   0.0000   0.0000   0.0000   0.0000
     0.0000   0.0000   0.0000

          k = 0.0000 0.2500 0.0000 ( 65257 PWs)   bands (ev):

   -92.7086 -92.6596 -92.5630 -92.5172 -92.4585 -92.4152 -92.3977 -92.2788
   -56.0620 -56.0464 -55.9202 -55.9093 -55.9042 -55.8961 -55.8623 -55.8321
   -55.8163 -55.8148 -55.8100 -55.7652 -55.7480 -55.7093 -55.6897 -55.6588
   -55.6525 -55.6046 -55.6033 -55.6004 -55.5919 -55.5538 -55.5280 -55.4440
   -31.2854 -31.2662 -31.1245 -31.0889 -31.0377 -30.9407 -30.7519 -30.6411
   -29.8539 -29.8125 -29.7859 -29.6772 -15.0523 -15.0150 -14.9367 -14.8034
   -14.6775 -14.5034 -14.3701 -14.1914 -14.1547 -14.1362 -14.1028 -14.0496
   -14.0371 -14.0239 -14.0078 -13.9908 -13.9387 -13.8556 -13.8151 -13.6547
   -13.6221 -13.5841 -13.5461 -13.4904 -13.4578 -13.3984 -13.3499 -13.3152
   -13.2246 -13.1613 -13.1537 -13.1169 -13.1025 -13.0548 -12.9908 -12.9669
   -12.9414 -12.9123 -12.8875 -12.8734 -12.8677 -12.8480 -12.8053 -12.7038
   -12.6134 -12.5819 -12.5593 -12.5231 -12.4925 -12.4114 -12.2554 -12.0491
   -11.9851 -11.8335 -11.7912 -11.7622 -11.7347 -11.7184 -11.6709 -11.6593
   -11.6364 -11.6032 -11.4993 -11.4478 -11.4374  -2.8123  -2.5918  -2.4539
    -2.2717  -2.2281  -2.0650  -1.8443  -1.7613  -1.7483  -1.6873  -1.5876
    -1.5717  -1.5380  -1.5106  -1.4669  -1.2821  -1.2472  -1.1388  -1.1276
    -1.0508  -1.0415  -0.9381  -0.9085  -0.8469  -0.8216  -0.7840  -0.7197
    -0.6926  -0.6599  -0.6281  -0.6111  -0.5790  -0.5063  -0.4553  -0.3793
    -0.2748  -0.2472  -0.2054  -0.0954  -0.0565   0.0054   0.0543   0.1178
     0.1298   0.1548   0.2132   0.5171   0.6042   0.6378   0.7236   0.7712
     0.7961   0.9047   0.9237   1.0228   1.0453   1.0716   1.1855   1.2814
     1.3017   1.3276   1.3478   1.3693   1.4289   1.4572   1.4858   1.5313
     1.5683   1.6017   1.6885   1.7233   1.7560   1.8078   1.8604   1.9072
     1.9304   1.9533   1.9686   2.0715   2.1908   2.2633   2.2863   2.3532
     2.3989   2.4271   2.4399   2.4468   2.4537   2.5150   2.5478   2.6379
     2.6780   2.6937   2.8581   2.8796   2.9136   2.9374   2.9517   2.9607
     2.9670   2.9757   3.0062   3.0083   3.0262   3.0329   3.0412   3.0607
     3.0712   3.0796   3.1008   3.1111   3.1165   3.1522   3.1684   3.2282
     3.5975   3.6323   3.8739   4.2914   4.4170   4.7071   5.0139   5.0612
     5.6383   5.8134   5.9651   5.9832   6.0786   6.1013   6.1763   6.5916
     6.8444   7.0984   7.1735   7.3237   7.4780   7.4934   7.6386   7.6627
     7.8617   7.9131   8.0333   8.1787   8.3610   8.3841   8.4205   8.4368
     8.6256   8.8543   8.9426

     occupation numbers 
     1.0000   1.0000   1.0000   1.0000   1.0000   1.0000   1.0000   1.0000
     1.0000   1.0000   1.0000   1.0000   1.0000   1.0000   1.0000   1.0000
     1.0000   1.0000   1.0000   1.0000   1.0000   1.0000   1.0000   1.0000
     1.0000   1.0000   1.0000   1.0000   1.0000   1.0000   1.0000   1.0000
     1.0000   1.0000   1.0000   1.0000   1.0000   1.0000   1.0000   1.0000
     1.0000   1.0000   1.0000   1.0000   1.0000   1.0000   1.0000   1.0000
     1.0000   1.0000   1.0000   1.0000   1.0000   1.0000   1.0000   1.0000
     1.0000   1.0000   1.0000   1.0000   1.0000   1.0000   1.0000   1.0000
     1.0000   1.0000   1.0000   1.0000   1.0000   1.0000   1.0000   1.0000
     1.0000   1.0000   1.0000   1.0000   1.0000   1.0000   1.0000   1.0000
     1.0000   1.0000   1.0000   1.0000   1.0000   1.0000   1.0000   1.0000
     1.0000   1.0000   1.0000   1.0000   1.0000   1.0000   1.0000   1.0000
     1.0000   1.0000   1.0000   1.0000   1.0000   1.0000   1.0000   1.0000
     1.0000   1.0000   1.0000   1.0000   1.0000   1.0000   1.0000   1.0000
     1.0000   1.0000   1.0000   1.0000   1.0000   1.0000   1.0000   1.0000
     1.0000   1.0000   1.0000   1.0000   1.0000   1.0000   1.0000   1.0000
     1.0000   1.0000   1.0000   1.0000   1.0000   1.0000   1.0000   1.0000
     1.0000   1.0000   1.0000   1.0000   1.0000   1.0000   1.0000   1.0000
     1.0000   1.0000   1.0000   1.0000   1.0000   1.0000   1.0000   1.0000
     1.0000   1.0000   1.0000   1.0000   1.0000   1.0000   0.9999   0.9999
     0.9999   0.9998   0.9998   0.9997   0.9996   0.9996   0.9992   0.9988
     0.9986   0.9984   0.9983   0.9981   0.9975   0.9972   0.9968   0.9960
     0.9953   0.9946   0.9923   0.9911   0.9899   0.9876   0.9848   0.9820
     0.9804   0.9787   0.9775   0.9680   0.9531   0.9415   0.9374   0.9243
     0.9141   0.9073   0.9041   0.9024   0.9006   0.8837   0.8739   0.8441
     0.8294   0.8235   0.7532   0.7430   0.7264   0.7146   0.7073   0.7027
     0.6995   0.6949   0.6789   0.6778   0.6682   0.6645   0.6601   0.6494
     0.6436   0.6389   0.6271   0.6212   0.6182   0.5979   0.5885   0.5537
     0.3396   0.3209   0.2050   0.0744   0.0515   0.0196   0.0059   0.0048
     0.0003   0.0001   0.0000   0.0000   0.0000   0.0000   0.0000   0.0000
     0.0000   0.0000   0.0000   0.0000   0.0000   0.0000   0.0000   0.0000
     0.0000   0.0000   0.0000   0.0000   0.0000   0.0000   0.0000   0.0000
     0.0000   0.0000   0.0000

          k = 0.0000-0.5000 0.0000 ( 65180 PWs)   bands (ev):

   -92.7086 -92.6596 -92.5630 -92.5172 -92.4585 -92.4152 -92.3977 -92.2788
   -56.0620 -56.0464 -55.9202 -55.9093 -55.9042 -55.8961 -55.8623 -55.8321
   -55.8163 -55.8148 -55.8100 -55.7652 -55.7480 -55.7093 -55.6897 -55.6588
   -55.6525 -55.6046 -55.6033 -55.6004 -55.5919 -55.5538 -55.5280 -55.4440
   -31.2852 -31.2661 -31.1247 -31.0888 -31.0379 -30.9405 -30.7521 -30.6411
   -29.8533 -29.8122 -29.7866 -29.6775 -15.0155 -14.9679 -14.9110 -14.7845
   -14.6989 -14.5672 -14.3998 -14.2909 -14.1649 -14.0832 -14.0476 -14.0394
   -13.9967 -13.9918 -13.9778 -13.9215 -13.9001 -13.8802 -13.8505 -13.8051
   -13.7478 -13.5905 -13.5314 -13.4921 -13.4640 -13.3825 -13.3657 -13.2956
   -13.2911 -13.2577 -13.2255 -13.1180 -13.1041 -13.0517 -12.9758 -12.9633
   -12.9365 -12.9109 -12.8901 -12.8719 -12.8454 -12.7136 -12.6998 -12.6598
   -12.5882 -12.5657 -12.5252 -12.5211 -12.4471 -12.3305 -12.3090 -12.1394
   -12.0867 -11.7882 -11.7849 -11.7569 -11.7203 -11.6857 -11.6745 -11.6336
   -11.6293 -11.5854 -11.5204 -11.5081 -11.4943  -2.5973  -2.5388  -2.3888
    -2.3171  -2.0333  -1.9515  -1.8227  -1.6879  -1.6448  -1.6300  -1.5519
    -1.5211  -1.4363  -1.4027  -1.3232  -1.2903  -1.2619  -1.2479  -1.2206
    -1.1592  -1.1196  -1.0761  -1.0402  -1.0052  -0.9757  -0.8639  -0.8208
    -0.7836  -0.7776  -0.6943  -0.6650  -0.6427  -0.5924  -0.5057  -0.4352
    -0.3435  -0.3037  -0.2138  -0.1777  -0.0368   0.0167   0.0340   0.0880
     0.2126   0.2672   0.3845   0.4570   0.4656   0.5894   0.6495   0.7555
     0.8693   0.9759   1.0086   1.0510   1.0601   1.0946   1.1090   1.1440
     1.1607   1.1776   1.2809   1.3437   1.3793   1.4008   1.6742   1.6972
     1.7185   1.8131   1.8329   1.8661   1.8807   1.9053   1.9294   1.9377
     1.9595   1.9989   2.0299   2.0616   2.0634   2.0935   2.1453   2.2348
     2.2684   2.4254   2.4368   2.4472   2.5958   2.6081   2.6294   2.6642
     2.6735   2.6773   2.7281   2.7384   2.7927   2.8133   2.8900   2.9090
     2.9766   2.9789   3.0051   3.0074   3.0230   3.0269   3.0330   3.0375
     3.0394   3.0532   3.0702   3.0730   3.1379   3.1407   3.1578   3.2126
     4.1261   4.1384   4.1797   4.2549   4.7341   4.8988   5.0182   5.1687
     5.4090   5.4575   5.5777   5.7314   6.0261   6.0410   6.2891   6.5732
     6.8458   6.9474   7.2163   7.3223   7.4210   7.4651   7.7435   7.7598
     7.9016   7.9408   8.2181   8.3250   8.3798   8.4839   8.5798   8.6778
     8.8062   8.8416   8.8625

     occupation numbers 
     1.0000   1.0000   1.0000   1.0000   1.0000   1.0000   1.0000   1.0000
     1.0000   1.0000   1.0000   1.0000   1.0000   1.0000   1.0000   1.0000
     1.0000   1.0000   1.0000   1.0000   1.0000   1.0000   1.0000   1.0000
     1.0000   1.0000   1.0000   1.0000   1.0000   1.0000   1.0000   1.0000
     1.0000   1.0000   1.0000   1.0000   1.0000   1.0000   1.0000   1.0000
     1.0000   1.0000   1.0000   1.0000   1.0000   1.0000   1.0000   1.0000
     1.0000   1.0000   1.0000   1.0000   1.0000   1.0000   1.0000   1.0000
     1.0000   1.0000   1.0000   1.0000   1.0000   1.0000   1.0000   1.0000
     1.0000   1.0000   1.0000   1.0000   1.0000   1.0000   1.0000   1.0000
     1.0000   1.0000   1.0000   1.0000   1.0000   1.0000   1.0000   1.0000
     1.0000   1.0000   1.0000   1.0000   1.0000   1.0000   1.0000   1.0000
     1.0000   1.0000   1.0000   1.0000   1.0000   1.0000   1.0000   1.0000
     1.0000   1.0000   1.0000   1.0000   1.0000   1.0000   1.0000   1.0000
     1.0000   1.0000   1.0000   1.0000   1.0000   1.0000   1.0000   1.0000
     1.0000   1.0000   1.0000   1.0000   1.0000   1.0000   1.0000   1.0000
     1.0000   1.0000   1.0000   1.0000   1.0000   1.0000   1.0000   1.0000
     1.0000   1.0000   1.0000   1.0000   1.0000   1.0000   1.0000   1.0000
     1.0000   1.0000   1.0000   1.0000   1.0000   1.0000   1.0000   1.0000
     1.0000   1.0000   1.0000   1.0000   1.0000   1.0000   1.0000   1.0000
     1.0000   1.0000   1.0000   1.0000   1.0000   1.0000   1.0000   0.9999
     0.9999   0.9997   0.9997   0.9996   0.9996   0.9995   0.9995   0.9994
     0.9993   0.9993   0.9988   0.9983   0.9980   0.9978   0.9927   0.9920
     0.9913   0.9873   0.9863   0.9845   0.9837   0.9821   0.9805   0.9799
     0.9782   0.9750   0.9722   0.9691   0.9689   0.9656   0.9593   0.9463
     0.9406   0.9078   0.9049   0.9023   0.8586   0.8545   0.8471   0.8346
     0.8311   0.8297   0.8099   0.8057   0.7828   0.7737   0.7380   0.7287
     0.6944   0.6933   0.6795   0.6783   0.6699   0.6678   0.6645   0.6621
     0.6610   0.6535   0.6441   0.6426   0.6060   0.6044   0.5947   0.5628
     0.1154   0.1119   0.1006   0.0823   0.0178   0.0095   0.0058   0.0030
     0.0010   0.0007   0.0004   0.0002   0.0000   0.0000   0.0000   0.0000
     0.0000   0.0000   0.0000   0.0000   0.0000   0.0000   0.0000   0.0000
     0.0000   0.0000   0.0000   0.0000   0.0000   0.0000   0.0000   0.0000
     0.0000   0.0000   0.0000

          k = 0.2500 0.2500 0.0000 ( 65198 PWs)   bands (ev):

   -92.7086 -92.6596 -92.5630 -92.5172 -92.4585 -92.4152 -92.3977 -92.2788
   -56.0620 -56.0464 -55.9202 -55.9093 -55.9042 -55.8961 -55.8623 -55.8321
   -55.8163 -55.8148 -55.8100 -55.7652 -55.7480 -55.7093 -55.6897 -55.6588
   -55.6525 -55.6046 -55.6033 -55.6003 -55.5919 -55.5538 -55.5280 -55.4440
   -31.2837 -31.2679 -31.1241 -31.0887 -31.0381 -30.9409 -30.7516 -30.6413
   -29.8529 -29.8135 -29.7855 -29.6776 -15.0233 -14.9810 -14.9084 -14.7932
   -14.6690 -14.5453 -14.4757 -14.2656 -14.1149 -14.1025 -14.0632 -14.0372
   -14.0112 -13.9950 -13.9827 -13.9487 -13.9014 -13.8445 -13.8279 -13.6693
   -13.6535 -13.6219 -13.6064 -13.5374 -13.5162 -13.4345 -13.4220 -13.2872
   -13.2546 -13.2321 -13.1504 -13.1096 -13.0609 -13.0290 -13.0224 -12.9778
   -12.9544 -12.9238 -12.8867 -12.8450 -12.8022 -12.7526 -12.7224 -12.7114
   -12.6673 -12.6459 -12.5305 -12.4599 -12.4357 -12.3737 -12.2845 -12.0906
   -12.0244 -11.8057 -11.7748 -11.7630 -11.7556 -11.6944 -11.6588 -11.6527
   -11.6170 -11.6081 -11.5163 -11.4762 -11.4587  -2.6739  -2.4661  -2.3480
    -2.2525  -2.1328  -2.0686  -1.8689  -1.7257  -1.7072  -1.6748  -1.5822
    -1.5484  -1.4543  -1.4264  -1.3769  -1.2673  -1.2402  -1.1947  -1.1212
    -1.0780  -1.0331  -1.0104  -0.9872  -0.9421  -0.9291  -0.8380  -0.7875
    -0.7184  -0.6724  -0.6422  -0.5933  -0.5779  -0.5158  -0.4662  -0.4016
    -0.3748  -0.2837  -0.2351  -0.2041  -0.1680  -0.1128  -0.0324  -0.0013
     0.0285   0.1042   0.1404   0.4058   0.5570   0.5872   0.6484   0.6892
     0.7588   0.7993   0.8697   0.8994   1.1724   1.2360   1.3093   1.3337
     1.3864   1.4128   1.4500   1.4873   1.5035   1.5311   1.5785   1.5872
     1.6020   1.6483   1.6857   1.7253   1.7831   1.8262   1.8339   1.8703
     1.8990   1.9581   1.9826   2.1098   2.1730   2.2062   2.2281   2.3002
     2.3625   2.3899   2.4229   2.4259   2.4446   2.4568   2.4680   2.5813
     2.6176   2.7059   2.8695   2.8868   2.8922   2.9087   2.9240   2.9378
     2.9491   2.9555   2.9677   2.9805   2.9942   3.0111   3.0182   3.0292
     3.0527   3.0629   3.0723   3.1037   3.4037   3.4969   3.5424   3.6148
     3.6289   3.8543   3.9466   4.2999   4.5045   4.7134   4.9768   5.1617
     5.6419   5.6989   5.7765   5.8311   5.8894   6.1241   6.1541   6.2051
     6.8894   6.9728   7.1117   7.3333   7.5456   7.6000   7.7068   7.8594
     7.8973   8.0425   8.2017   8.2995   8.3258   8.3632   8.4393   8.4715
     8.5630   8.7697   8.9168

     occupation numbers 
     1.0000   1.0000   1.0000   1.0000   1.0000   1.0000   1.0000   1.0000
     1.0000   1.0000   1.0000   1.0000   1.0000   1.0000   1.0000   1.0000
     1.0000   1.0000   1.0000   1.0000   1.0000   1.0000   1.0000   1.0000
     1.0000   1.0000   1.0000   1.0000   1.0000   1.0000   1.0000   1.0000
     1.0000   1.0000   1.0000   1.0000   1.0000   1.0000   1.0000   1.0000
     1.0000   1.0000   1.0000   1.0000   1.0000   1.0000   1.0000   1.0000
     1.0000   1.0000   1.0000   1.0000   1.0000   1.0000   1.0000   1.0000
     1.0000   1.0000   1.0000   1.0000   1.0000   1.0000   1.0000   1.0000
     1.0000   1.0000   1.0000   1.0000   1.0000   1.0000   1.0000   1.0000
     1.0000   1.0000   1.0000   1.0000   1.0000   1.0000   1.0000   1.0000
     1.0000   1.0000   1.0000   1.0000   1.0000   1.0000   1.0000   1.0000
     1.0000   1.0000   1.0000   1.0000   1.0000   1.0000   1.0000   1.0000
     1.0000   1.0000   1.0000   1.0000   1.0000   1.0000   1.0000   1.0000
     1.0000   1.0000   1.0000   1.0000   1.0000   1.0000   1.0000   1.0000
     1.0000   1.0000   1.0000   1.0000   1.0000   1.0000   1.0000   1.0000
     1.0000   1.0000   1.0000   1.0000   1.0000   1.0000   1.0000   1.0000
     1.0000   1.0000   1.0000   1.0000   1.0000   1.0000   1.0000   1.0000
     1.0000   1.0000   1.0000   1.0000   1.0000   1.0000   1.0000   1.0000
     1.0000   1.0000   1.0000   1.0000   1.0000   1.0000   1.0000   1.0000
     1.0000   1.0000   1.0000   1.0000   1.0000   1.0000   1.0000   1.0000
     0.9999   0.9999   0.9999   0.9998   0.9993   0.9990   0.9986   0.9984
     0.9979   0.9977   0.9972   0.9967   0.9965   0.9960   0.9951   0.9949
     0.9946   0.9934   0.9924   0.9910   0.9887   0.9867   0.9863   0.9843
     0.9825   0.9784   0.9764   0.9637   0.9556   0.9508   0.9474   0.9349
     0.9223   0.9162   0.9084   0.9076   0.9030   0.8998   0.8968   0.8633
     0.8512   0.8187   0.7478   0.7395   0.7369   0.7289   0.7213   0.7144
     0.7086   0.7054   0.6991   0.6924   0.6852   0.6763   0.6725   0.6665
     0.6538   0.6482   0.6430   0.6255   0.4500   0.3959   0.3701   0.3303
     0.3227   0.2134   0.1757   0.0726   0.0392   0.0192   0.0069   0.0031
     0.0003   0.0002   0.0001   0.0001   0.0001   0.0000   0.0000   0.0000
     0.0000   0.0000   0.0000   0.0000   0.0000   0.0000   0.0000   0.0000
     0.0000   0.0000   0.0000   0.0000   0.0000   0.0000   0.0000   0.0000
     0.0000   0.0000   0.0000

          k = 0.2500-0.5000 0.0000 ( 65138 PWs)   bands (ev):

   -92.7086 -92.6596 -92.5630 -92.5172 -92.4585 -92.4152 -92.3977 -92.2788
   -56.0620 -56.0464 -55.9202 -55.9093 -55.9042 -55.8961 -55.8623 -55.8320
   -55.8163 -55.8148 -55.8100 -55.7652 -55.7480 -55.7093 -55.6897 -55.6588
   -55.6525 -55.6046 -55.6033 -55.6003 -55.5919 -55.5538 -55.5280 -55.4440
   -31.2835 -31.2678 -31.1243 -31.0886 -31.0383 -30.9407 -30.7518 -30.6414
   -29.8523 -29.8132 -29.7862 -29.6780 -14.9848 -14.9412 -14.8685 -14.7566
   -14.7201 -14.6070 -14.5046 -14.3850 -14.0793 -14.0232 -14.0009 -13.9957
   -13.9739 -13.9612 -13.9489 -13.9048 -13.8873 -13.8625 -13.8272 -13.7975
   -13.7378 -13.6725 -13.6249 -13.5518 -13.5444 -13.4760 -13.4332 -13.3362
   -13.3023 -13.2148 -13.1499 -13.1297 -13.0447 -13.0159 -12.9970 -12.9802
   -12.9508 -12.9193 -12.8833 -12.8608 -12.8246 -12.7075 -12.6632 -12.6390
   -12.6335 -12.6297 -12.5352 -12.5259 -12.3846 -12.3279 -12.2500 -12.1341
   -12.1001 -11.7815 -11.7695 -11.7583 -11.7306 -11.7002 -11.6708 -11.6309
   -11.6032 -11.5814 -11.5339 -11.5089 -11.4986  -2.4552  -2.3904  -2.2625
    -2.1858  -2.0538  -1.9712  -1.8471  -1.6986  -1.6415  -1.6216  -1.5600
    -1.5467  -1.4468  -1.3828  -1.2984  -1.2681  -1.2440  -1.2333  -1.1750
    -1.1305  -1.0979  -1.0486  -1.0123  -0.9767  -0.9383  -0.9214  -0.8808
    -0.8518  -0.8076  -0.7780  -0.7115  -0.6065  -0.5692  -0.4907  -0.4244
    -0.3698  -0.3312  -0.3152  -0.2509  -0.0979  -0.0902   0.0279   0.0494
     0.0608   0.1046   0.1397   0.1766   0.2052   0.2691   0.5564   0.6445
     0.7224   0.7713   1.0384   1.0546   1.1428   1.1729   1.3341   1.3699
     1.4086   1.4328   1.4446   1.4664   1.5314   1.5821   1.6143   1.6918
     1.7889   1.8244   1.8428   1.8548   1.8906   1.9036   1.9099   1.9553
     1.9669   1.9852   2.0239   2.0347   2.0564   2.0897   2.1459   2.1903
     2.2688   2.3993   2.4234   2.4476   2.5488   2.5671   2.5854   2.6176
     2.6365   2.6662   2.6859   2.7015   2.7248   2.8192   2.8691   2.8885
     2.8958   2.9056   2.9260   2.9398   2.9592   2.9660   3.0044   3.0141
     3.0267   3.0337   3.0441   3.0534   3.5754   3.5914   3.7351   3.7885
     4.1287   4.1824   4.1865   4.3116   4.7534   4.9203   5.0545   5.1364
     5.2981   5.4279   5.6009   5.6469   5.7623   5.7861   6.3862   6.4012
     6.4826   6.7112   7.2521   7.4146   7.5457   7.6970   7.7997   7.8685
     7.9686   8.0415   8.3446   8.3775   8.4753   8.5303   8.5469   8.5593
     8.7116   8.7655   8.7813

     occupation numbers 
     1.0000   1.0000   1.0000   1.0000   1.0000   1.0000   1.0000   1.0000
     1.0000   1.0000   1.0000   1.0000   1.0000   1.0000   1.0000   1.0000
     1.0000   1.0000   1.0000   1.0000   1.0000   1.0000   1.0000   1.0000
     1.0000   1.0000   1.0000   1.0000   1.0000   1.0000   1.0000   1.0000
     1.0000   1.0000   1.0000   1.0000   1.0000   1.0000   1.0000   1.0000
     1.0000   1.0000   1.0000   1.0000   1.0000   1.0000   1.0000   1.0000
     1.0000   1.0000   1.0000   1.0000   1.0000   1.0000   1.0000   1.0000
     1.0000   1.0000   1.0000   1.0000   1.0000   1.0000   1.0000   1.0000
     1.0000   1.0000   1.0000   1.0000   1.0000   1.0000   1.0000   1.0000
     1.0000   1.0000   1.0000   1.0000   1.0000   1.0000   1.0000   1.0000
     1.0000   1.0000   1.0000   1.0000   1.0000   1.0000   1.0000   1.0000
     1.0000   1.0000   1.0000   1.0000   1.0000   1.0000   1.0000   1.0000
     1.0000   1.0000   1.0000   1.0000   1.0000   1.0000   1.0000   1.0000
     1.0000   1.0000   1.0000   1.0000   1.0000   1.0000   1.0000   1.0000
     1.0000   1.0000   1.0000   1.0000   1.0000   1.0000   1.0000   1.0000
     1.0000   1.0000   1.0000   1.0000   1.0000   1.0000   1.0000   1.0000
     1.0000   1.0000   1.0000   1.0000   1.0000   1.0000   1.0000   1.0000
     1.0000   1.0000   1.0000   1.0000   1.0000   1.0000   1.0000   1.0000
     1.0000   1.0000   1.0000   1.0000   1.0000   1.0000   1.0000   1.0000
     1.0000   1.0000   1.0000   1.0000   1.0000   1.0000   1.0000   1.0000
     0.9999   0.9999   0.9996   0.9996   0.9994   0.9993   0.9984   0.9981
     0.9977   0.9975   0.9973   0.9970   0.9960   0.9950   0.9943   0.9922
     0.9885   0.9868   0.9858   0.9852   0.9830   0.9822   0.9818   0.9786
     0.9777   0.9762   0.9728   0.9718   0.9696   0.9660   0.9592   0.9531
     0.9406   0.9140   0.9082   0.9022   0.8736   0.8679   0.8620   0.8512
     0.8446   0.8338   0.8264   0.8204   0.8112   0.7710   0.7480   0.7387
     0.7352   0.7304   0.7203   0.7133   0.7035   0.7000   0.6798   0.6747
     0.6679   0.6641   0.6585   0.6534   0.3517   0.3430   0.2684   0.2429
     0.1146   0.0999   0.0989   0.0703   0.0166   0.0087   0.0050   0.0035
     0.0016   0.0009   0.0004   0.0003   0.0001   0.0001   0.0000   0.0000
     0.0000   0.0000   0.0000   0.0000   0.0000   0.0000   0.0000   0.0000
     0.0000   0.0000   0.0000   0.0000   0.0000   0.0000   0.0000   0.0000
     0.0000   0.0000   0.0000

          k =-0.5000-0.5000 0.0000 ( 65132 PWs)   bands (ev):

   -92.7086 -92.6596 -92.5630 -92.5172 -92.4585 -92.4152 -92.3977 -92.2788
   -56.0620 -56.0464 -55.9202 -55.9093 -55.9042 -55.8961 -55.8623 -55.8320
   -55.8163 -55.8148 -55.8100 -55.7652 -55.7480 -55.7093 -55.6897 -55.6588
   -55.6525 -55.6046 -55.6033 -55.6003 -55.5919 -55.5538 -55.5280 -55.4440
   -31.2813 -31.2700 -31.1239 -31.0884 -31.0386 -30.9409 -30.7515 -30.6417
   -29.8512 -29.8143 -29.7858 -29.6784 -14.9382 -14.9139 -14.7975 -14.7821
   -14.6804 -14.6544 -14.6106 -14.4822 -13.9978 -13.9886 -13.9790 -13.9459
   -13.9248 -13.9072 -13.8825 -13.8676 -13.8545 -13.8340 -13.8290 -13.8145
   -13.7380 -13.7337 -13.6863 -13.6687 -13.6388 -13.5651 -13.4985 -13.3721
   -13.3403 -13.1662 -13.1266 -13.0564 -13.0328 -12.9979 -12.9921 -12.9855
   -12.9815 -12.9629 -12.8807 -12.8174 -12.8054 -12.7125 -12.7019 -12.6689
   -12.6138 -12.6048 -12.5510 -12.5348 -12.3410 -12.3240 -12.1907 -12.1333
   -12.1207 -11.7782 -11.7654 -11.7476 -11.7308 -11.6958 -11.6800 -11.6423
   -11.5834 -11.5633 -11.5570 -11.5069 -11.5042  -2.2295  -2.1562  -2.1471
    -2.0737  -2.0361  -1.9576  -1.8895  -1.7630  -1.6486  -1.6192  -1.5769
    -1.5222  -1.4503  -1.4334  -1.3657  -1.3229  -1.2611  -1.2027  -1.1744
    -1.1241  -1.0997  -1.0349  -0.9876  -0.9694  -0.9575  -0.9004  -0.8601
    -0.8404  -0.7286  -0.6739  -0.6265  -0.5776  -0.5469  -0.5311  -0.4993
    -0.4584  -0.4190  -0.4108  -0.3266  -0.2601  -0.2172  -0.1874  -0.1173
    -0.0531  -0.0480   0.0134   0.0481   0.0546   0.0690   0.5305   0.5669
     0.6699   0.6887   1.0633   1.0803   1.1160   1.1490   1.4204   1.4394
     1.4450   1.4865   1.6129   1.7041   1.7331   1.7693   1.8003   1.8176
     1.8246   1.8550   1.8688   1.8888   1.8913   1.9434   1.9443   1.9756
     1.9944   2.0134   2.0273   2.0650   2.0899   2.1038   2.1345   2.1679
     2.2267   2.2933   2.4192   2.4439   2.5619   2.5930   2.6143   2.6306
     2.6446   2.6724   2.6791   2.6962   2.7067   2.7223   2.7428   2.7549
     2.8205   2.8234   2.8471   2.8582   2.8736   2.8936   2.8957   2.9057
     3.0117   3.0165   3.0394   3.0512   4.0096   4.0339   4.0529   4.0795
     4.3123   4.3861   4.4109   4.6518   4.7740   4.8563   4.9860   5.0783
     5.0860   5.2010   5.2929   5.4348   5.8508   5.8820   5.9525   6.0227
     6.6552   6.8195   7.0042   7.1839   7.9107   7.9330   7.9515   7.9734
     8.0103   8.0853   8.1068   8.2666   8.5457   8.5674   8.5896   8.6141
     8.6560   8.7353   8.7391

     occupation numbers 
     1.0000   1.0000   1.0000   1.0000   1.0000   1.0000   1.0000   1.0000
     1.0000   1.0000   1.0000   1.0000   1.0000   1.0000   1.0000   1.0000
     1.0000   1.0000   1.0000   1.0000   1.0000   1.0000   1.0000   1.0000
     1.0000   1.0000   1.0000   1.0000   1.0000   1.0000   1.0000   1.0000
     1.0000   1.0000   1.0000   1.0000   1.0000   1.0000   1.0000   1.0000
     1.0000   1.0000   1.0000   1.0000   1.0000   1.0000   1.0000   1.0000
     1.0000   1.0000   1.0000   1.0000   1.0000   1.0000   1.0000   1.0000
     1.0000   1.0000   1.0000   1.0000   1.0000   1.0000   1.0000   1.0000
     1.0000   1.0000   1.0000   1.0000   1.0000   1.0000   1.0000   1.0000
     1.0000   1.0000   1.0000   1.0000   1.0000   1.0000   1.0000   1.0000
     1.0000   1.0000   1.0000   1.0000   1.0000   1.0000   1.0000   1.0000
     1.0000   1.0000   1.0000   1.0000   1.0000   1.0000   1.0000   1.0000
     1.0000   1.0000   1.0000   1.0000   1.0000   1.0000   1.0000   1.0000
     1.0000   1.0000   1.0000   1.0000   1.0000   1.0000   1.0000   1.0000
     1.0000   1.0000   1.0000   1.0000   1.0000   1.0000   1.0000   1.0000
     1.0000   1.0000   1.0000   1.0000   1.0000   1.0000   1.0000   1.0000
     1.0000   1.0000   1.0000   1.0000   1.0000   1.0000   1.0000   1.0000
     1.0000   1.0000   1.0000   1.0000   1.0000   1.0000   1.0000   1.0000
     1.0000   1.0000   1.0000   1.0000   1.0000   1.0000   1.0000   1.0000
     1.0000   1.0000   1.0000   1.0000   1.0000   1.0000   1.0000   1.0000
     1.0000   1.0000   0.9996   0.9996   0.9995   0.9994   0.9976   0.9974
     0.9973   0.9967   0.9944   0.9918   0.9907   0.9893   0.9879   0.9871
     0.9868   0.9851   0.9844   0.9832   0.9830   0.9795   0.9794   0.9770
     0.9754   0.9737   0.9725   0.9687   0.9660   0.9644   0.9607   0.9563
     0.9476   0.9361   0.9093   0.9031   0.8696   0.8595   0.8523   0.8467
     0.8417   0.8315   0.8290   0.8225   0.8184   0.8122   0.8039   0.7989
     0.7705   0.7692   0.7583   0.7531   0.7458   0.7362   0.7352   0.7303
     0.6760   0.6734   0.6610   0.6546   0.1526   0.1443   0.1379   0.1294
     0.0701   0.0565   0.0525   0.0239   0.0154   0.0112   0.0067   0.0045
     0.0043   0.0026   0.0017   0.0008   0.0001   0.0001   0.0000   0.0000
     0.0000   0.0000   0.0000   0.0000   0.0000   0.0000   0.0000   0.0000
     0.0000   0.0000   0.0000   0.0000   0.0000   0.0000   0.0000   0.0000
     0.0000   0.0000   0.0000

          k = 0.2500 0.0000 0.0000 ( 65257 PWs)   bands (ev):

   -92.7086 -92.6596 -92.5630 -92.5172 -92.4585 -92.4152 -92.3977 -92.2788
   -56.0620 -56.0464 -55.9202 -55.9093 -55.9042 -55.8961 -55.8623 -55.8321
   -55.8163 -55.8148 -55.8100 -55.7652 -55.7480 -55.7093 -55.6897 -55.6588
   -55.6525 -55.6046 -55.6033 -55.6004 -55.5919 -55.5538 -55.5280 -55.4440
   -31.2839 -31.2681 -31.1239 -31.0887 -31.0380 -30.9411 -30.7514 -30.6413
   -29.8535 -29.8138 -29.7849 -29.6773 -15.0560 -15.0109 -14.9421 -14.7965
   -14.6840 -14.4949 -14.3596 -14.1812 -14.1644 -14.1334 -14.1012 -14.0784
   -14.0425 -14.0268 -14.0046 -13.9951 -13.9449 -13.8444 -13.8117 -13.6666
   -13.5911 -13.5817 -13.5141 -13.4982 -13.4850 -13.4132 -13.3521 -13.3205
   -13.2217 -13.1670 -13.1555 -13.0688 -13.0625 -13.0475 -13.0308 -13.0095
   -12.9763 -12.9405 -12.8914 -12.8276 -12.8093 -12.7833 -12.7781 -12.7250
   -12.7139 -12.6956 -12.5359 -12.4920 -12.4211 -12.4136 -12.2564 -12.0521
   -11.9913 -11.8328 -11.7806 -11.7639 -11.7511 -11.7243 -11.6731 -11.6501
   -11.6415 -11.5900 -11.5014 -11.4463 -11.4403  -2.8119  -2.5909  -2.4607
    -2.2876  -2.2239  -2.0553  -1.8452  -1.7703  -1.7268  -1.6889  -1.5901
    -1.5762  -1.5407  -1.5215  -1.4526  -1.2830  -1.2496  -1.1608  -1.1232
    -1.0257  -1.0109  -0.9366  -0.9096  -0.8570  -0.8173  -0.7643  -0.7317
    -0.6851  -0.6596  -0.6390  -0.5847  -0.5710  -0.4815  -0.4716  -0.4006
    -0.3042  -0.2416  -0.1378  -0.1233  -0.0490  -0.0166   0.0385   0.0651
     0.1021   0.1680   0.2129   0.4956   0.6251   0.6616   0.7439   0.7732
     0.8138   0.8256   0.9015   1.0139   1.0611   1.0864   1.1232   1.2768
     1.3046   1.3410   1.3473   1.3854   1.4350   1.4778   1.5086   1.5659
     1.6115   1.6266   1.6845   1.7325   1.7704   1.7935   1.8794   1.8831
     1.9187   1.9503   1.9746   2.0895   2.1555   2.2242   2.2968   2.3099
     2.3855   2.4263   2.4438   2.4565   2.4775   2.5338   2.5418   2.5624
     2.6195   2.7454   2.8519   2.8736   2.9059   2.9331   2.9371   2.9602
     2.9683   2.9830   3.0042   3.0100   3.0363   3.0481   3.0541   3.0664
     3.0860   3.1112   3.1148   3.1228   3.1299   3.1397   3.1495   3.2745
     3.5758   3.6218   3.8761   4.2719   4.4541   4.6800   5.0155   5.0631
     5.6320   5.8226   5.9734   5.9971   6.0664   6.0911   6.1767   6.5772
     6.8753   7.0697   7.1193   7.3266   7.4637   7.5521   7.5873   7.7125
     7.8691   7.9916   8.0642   8.1869   8.2866   8.3913   8.3998   8.4337
     8.5943   8.8557   8.9423

[...]
     0.3515   0.3265   0.2041   0.0785   0.0460   0.0217   0.0059   0.0048
     0.0003   0.0001   0.0000   0.0000   0.0000   0.0000   0.0000   0.0000
     0.0000   0.0000   0.0000   0.0000   0.0000   0.0000   0.0000   0.0000
     0.0000   0.0000   0.0000   0.0000   0.0000   0.0000   0.0000   0.0000
     0.0000   0.0000   0.0000

          k =-0.5000 0.0000 0.0000 ( 65180 PWs)   bands (ev):

   -92.7086 -92.6596 -92.5630 -92.5172 -92.4585 -92.4152 -92.3977 -92.2788
   -56.0620 -56.0464 -55.9202 -55.9093 -55.9042 -55.8961 -55.8623 -55.8320
   -55.8163 -55.8148 -55.8100 -55.7652 -55.7480 -55.7093 -55.6897 -55.6588
   -55.6525 -55.6046 -55.6033 -55.6003 -55.5919 -55.5538 -55.5280 -55.4440
   -31.2817 -31.2703 -31.1235 -31.0885 -31.0384 -30.9413 -30.7511 -30.6416
   -29.8524 -29.8149 -29.7845 -29.6777 -15.0219 -14.9685 -14.9075 -14.7901
   -14.6957 -14.5498 -14.4075 -14.2474 -14.1398 -14.1218 -14.1157 -14.0543
   -13.9994 -13.9968 -13.9667 -13.9155 -13.8982 -13.8843 -13.8425 -13.8052
   -13.7078 -13.5626 -13.5211 -13.5013 -13.4930 -13.4105 -13.3719 -13.3078
   -13.2754 -13.2521 -13.2203 -13.0622 -13.0562 -13.0400 -13.0214 -12.9977
   -12.9587 -12.9395 -12.9229 -12.7944 -12.7611 -12.7186 -12.7077 -12.6879
   -12.6479 -12.6387 -12.5486 -12.5325 -12.3592 -12.3344 -12.2050 -12.1673
   -12.1354 -11.7847 -11.7633 -11.7563 -11.7432 -11.7248 -11.6835 -11.6196
   -11.6012 -11.5675 -11.5246 -11.5158 -11.4998  -2.5877  -2.5494  -2.3864
    -2.3468  -2.0326  -1.9565  -1.8114  -1.6923  -1.6532  -1.6063  -1.5604
    -1.5358  -1.4116  -1.3681  -1.3512  -1.2759  -1.2645  -1.2341  -1.2103
    -1.1850  -1.1270  -1.0602  -1.0331  -0.9964  -0.9023  -0.8604  -0.8111
    -0.7790  -0.7578  -0.7244  -0.6786  -0.6534  -0.6140  -0.5111  -0.4437
    -0.3718  -0.3109  -0.1490  -0.1107  -0.0631  -0.0124   0.0389   0.0504
     0.1955   0.2231   0.2710   0.4330   0.5326   0.5835   0.6778   0.7378
     0.8587   0.8726   1.0001   1.0260   1.0805   1.1169   1.1469   1.1574
     1.2072   1.2267   1.2949   1.3451   1.3910   1.4040   1.6981   1.7129
     1.7307   1.7543   1.8536   1.8651   1.8852   1.8904   1.9246   1.9314
     1.9704   1.9923   2.0184   2.0704   2.0881   2.1417   2.1636   2.2165
     2.3291   2.4173   2.4366   2.4503   2.4963   2.5113   2.5964   2.6189
     2.6527   2.7179   2.7258   2.7335   2.7644   2.8300   2.8747   2.9278
     2.9480   2.9933   2.9983   3.0009   3.0102   3.0265   3.0375   3.0501
     3.0556   3.0765   3.0807   3.1026   3.1219   3.1270   3.2559   3.2619
     4.0688   4.1227   4.1880   4.3154   4.7840   4.8585   5.0385   5.0544
     5.4793   5.5051   5.5986   5.6481   6.0267   6.0437   6.3531   6.4900
     6.7912   6.9949   7.2748   7.2864   7.3398   7.4520   7.7698   7.8617
     7.8829   8.0833   8.2245   8.2613   8.4086   8.4593   8.5324   8.6245
     8.7557   8.8240   8.9029

     occupation numbers 
     1.0000   1.0000   1.0000   1.0000   1.0000   1.0000   1.0000   1.0000
     1.0000   1.0000   1.0000   1.0000   1.0000   1.0000   1.0000   1.0000
     1.0000   1.0000   1.0000   1.0000   1.0000   1.0000   1.0000   1.0000
     1.0000   1.0000   1.0000   1.0000   1.0000   1.0000   1.0000   1.0000
     1.0000   1.0000   1.0000   1.0000   1.0000   1.0000   1.0000   1.0000
     1.0000   1.0000   1.0000   1.0000   1.0000   1.0000   1.0000   1.0000
     1.0000   1.0000   1.0000   1.0000   1.0000   1.0000   1.0000   1.0000
     1.0000   1.0000   1.0000   1.0000   1.0000   1.0000   1.0000   1.0000
     1.0000   1.0000   1.0000   1.0000   1.0000   1.0000   1.0000   1.0000
     1.0000   1.0000   1.0000   1.0000   1.0000   1.0000   1.0000   1.0000
     1.0000   1.0000   1.0000   1.0000   1.0000   1.0000   1.0000   1.0000
     1.0000   1.0000   1.0000   1.0000   1.0000   1.0000   1.0000   1.0000
     1.0000   1.0000   1.0000   1.0000   1.0000   1.0000   1.0000   1.0000
     1.0000   1.0000   1.0000   1.0000   1.0000   1.0000   1.0000   1.0000
     1.0000   1.0000   1.0000   1.0000   1.0000   1.0000   1.0000   1.0000
     1.0000   1.0000   1.0000   1.0000   1.0000   1.0000   1.0000   1.0000
     1.0000   1.0000   1.0000   1.0000   1.0000   1.0000   1.0000   1.0000
     1.0000   1.0000   1.0000   1.0000   1.0000   1.0000   1.0000   1.0000
     1.0000   1.0000   1.0000   1.0000   1.0000   1.0000   1.0000   1.0000
     1.0000   1.0000   1.0000   1.0000   1.0000   1.0000   1.0000   0.9999
     0.9999   0.9999   0.9997   0.9997   0.9996   0.9995   0.9994   0.9993
     0.9991   0.9991   0.9987   0.9983   0.9979   0.9978   0.9920   0.9915
     0.9908   0.9899   0.9852   0.9846   0.9834   0.9831   0.9808   0.9803
     0.9774   0.9756   0.9733   0.9681   0.9662   0.9598   0.9569   0.9492
     0.9292   0.9097   0.9050   0.9015   0.8891   0.8848   0.8584   0.8507
     0.8388   0.8140   0.8108   0.8077   0.7949   0.7662   0.7453   0.7194
     0.7092   0.6857   0.6831   0.6817   0.6768   0.6680   0.6621   0.6552
     0.6522   0.6406   0.6383   0.6261   0.6151   0.6123   0.5373   0.5338
     0.1328   0.1164   0.0985   0.0695   0.0148   0.0111   0.0053   0.0050
     0.0007   0.0006   0.0004   0.0003   0.0000   0.0000   0.0000   0.0000
     0.0000   0.0000   0.0000   0.0000   0.0000   0.0000   0.0000   0.0000
     0.0000   0.0000   0.0000   0.0000   0.0000   0.0000   0.0000   0.0000
     0.0000   0.0000   0.0000

          k =-0.2500 0.2500 0.0000 ( 65198 PWs)   bands (ev):

   -92.7086 -92.6596 -92.5630 -92.5172 -92.4585 -92.4152 -92.3977 -92.2788
   -56.0620 -56.0464 -55.9202 -55.9093 -55.9042 -55.8961 -55.8623 -55.8321
   -55.8163 -55.8148 -55.8100 -55.7652 -55.7480 -55.7093 -55.6897 -55.6588
   -55.6525 -55.6046 -55.6033 -55.6004 -55.5919 -55.5538 -55.5280 -55.4440
   -31.2837 -31.2679 -31.1241 -31.0887 -31.0381 -30.9409 -30.7516 -30.6413
   -29.8529 -29.8135 -29.7855 -29.6776 -15.0246 -14.9797 -14.9074 -14.7915
   -14.6744 -14.5509 -14.4673 -14.2566 -14.1209 -14.0936 -14.0779 -14.0311
   -14.0079 -13.9977 -13.9793 -13.9583 -13.9102 -13.8393 -13.8284 -13.6794
   -13.6501 -13.6190 -13.6008 -13.5371 -13.5038 -13.4431 -13.4245 -13.2944
   -13.2410 -13.2248 -13.1546 -13.1115 -13.0486 -13.0288 -13.0055 -12.9890
   -12.9519 -12.9342 -12.8920 -12.8479 -12.8102 -12.7786 -12.7097 -12.6971
   -12.6674 -12.6526 -12.5337 -12.4658 -12.4495 -12.3328 -12.2902 -12.0750
   -12.0447 -11.8049 -11.7835 -11.7566 -11.7440 -11.7037 -11.6686 -11.6462
   -11.6233 -11.6011 -11.5160 -11.4717 -11.4619  -2.6723  -2.4650  -2.3439
    -2.2541  -2.1371  -2.0713  -1.8665  -1.7226  -1.7048  -1.6730  -1.5829
    -1.5472  -1.4545  -1.4196  -1.3937  -1.2678  -1.2460  -1.1903  -1.1255
    -1.0975  -1.0359  -1.0165  -0.9762  -0.9480  -0.9075  -0.8446  -0.7947
    -0.7306  -0.6631  -0.6384  -0.5888  -0.5603  -0.5127  -0.4554  -0.4041
    -0.3701  -0.2648  -0.2365  -0.2213  -0.1784  -0.1150  -0.0378  -0.0000
     0.0377   0.1087   0.1388   0.3860   0.5591   0.5951   0.6370   0.6975
     0.7546   0.8088   0.8684   0.9014   1.1805   1.2853   1.3268   1.3596
     1.3676   1.4084   1.4235   1.4687   1.5005   1.5135   1.5386   1.5865
     1.6022   1.6431   1.6653   1.7100   1.8011   1.8116   1.8347   1.8712
     1.8981   1.9400   1.9906   2.0983   2.2039   2.2288   2.2777   2.2962
     2.3603   2.4002   2.4180   2.4367   2.4431   2.4577   2.4789   2.5797
     2.6152   2.7065   2.8768   2.8842   2.8985   2.9076   2.9191   2.9328
     2.9402   2.9587   2.9669   2.9807   2.9905   3.0022   3.0118   3.0214
     3.0542   3.0638   3.0717   3.1053   3.3971   3.4787   3.5452   3.6196
     3.6363   3.8393   3.9553   4.2993   4.5019   4.7145   4.9865   5.1617
     5.6426   5.6974   5.7807   5.8265   5.8900   6.1253   6.1621   6.1960
     6.8842   6.9819   7.1003   7.3400   7.5599   7.6065   7.6667   7.8643
     7.9283   8.0410   8.1971   8.2733   8.3265   8.3447   8.4408   8.5092
     8.5843   8.7528   8.9277

     occupation numbers 
     1.0000   1.0000   1.0000   1.0000   1.0000   1.0000   1.0000   1.0000
     1.0000   1.0000   1.0000   1.0000   1.0000   1.0000   1.0000   1.0000
     1.0000   1.0000   1.0000   1.0000   1.0000   1.0000   1.0000   1.0000
     1.0000   1.0000   1.0000   1.0000   1.0000   1.0000   1.0000   1.0000
     1.0000   1.0000   1.0000   1.0000   1.0000   1.0000   1.0000   1.0000
     1.0000   1.0000   1.0000   1.0000   1.0000   1.0000   1.0000   1.0000
     1.0000   1.0000   1.0000   1.0000   1.0000   1.0000   1.0000   1.0000
     1.0000   1.0000   1.0000   1.0000   1.0000   1.0000   1.0000   1.0000
     1.0000   1.0000   1.0000   1.0000   1.0000   1.0000   1.0000   1.0000
     1.0000   1.0000   1.0000   1.0000   1.0000   1.0000   1.0000   1.0000
     1.0000   1.0000   1.0000   1.0000   1.0000   1.0000   1.0000   1.0000
     1.0000   1.0000   1.0000   1.0000   1.0000   1.0000   1.0000   1.0000
     1.0000   1.0000   1.0000   1.0000   1.0000   1.0000   1.0000   1.0000
     1.0000   1.0000   1.0000   1.0000   1.0000   1.0000   1.0000   1.0000
     1.0000   1.0000   1.0000   1.0000   1.0000   1.0000   1.0000   1.0000
     1.0000   1.0000   1.0000   1.0000   1.0000   1.0000   1.0000   1.0000
     1.0000   1.0000   1.0000   1.0000   1.0000   1.0000   1.0000   1.0000
     1.0000   1.0000   1.0000   1.0000   1.0000   1.0000   1.0000   1.0000
     1.0000   1.0000   1.0000   1.0000   1.0000   1.0000   1.0000   1.0000
     1.0000   1.0000   1.0000   1.0000   1.0000   1.0000   1.0000   1.0000
     0.9999   0.9999   0.9999   0.9998   0.9993   0.9987   0.9985   0.9982
     0.9981   0.9977   0.9976   0.9970   0.9965   0.9963   0.9959   0.9950
     0.9946   0.9936   0.9930   0.9916   0.9879   0.9874   0.9862   0.9842
     0.9826   0.9797   0.9757   0.9651   0.9511   0.9473   0.9390   0.9356
     0.9227   0.9138   0.9096   0.9049   0.9033   0.8996   0.8939   0.8639
     0.8520   0.8185   0.7443   0.7408   0.7339   0.7294   0.7237   0.7169
     0.7131   0.7037   0.6995   0.6923   0.6872   0.6810   0.6759   0.6707
     0.6530   0.6477   0.6433   0.6245   0.4539   0.4063   0.3685   0.3277
     0.3188   0.2199   0.1724   0.0728   0.0395   0.0191   0.0066   0.0031
     0.0003   0.0002   0.0001   0.0001   0.0001   0.0000   0.0000   0.0000
     0.0000   0.0000   0.0000   0.0000   0.0000   0.0000   0.0000   0.0000
     0.0000   0.0000   0.0000   0.0000   0.0000   0.0000   0.0000   0.0000
     0.0000   0.0000   0.0000

          k =-0.5000 0.2500 0.0000 ( 65138 PWs)   bands (ev):

   -92.7086 -92.6596 -92.5630 -92.5172 -92.4585 -92.4152 -92.3977 -92.2788
   -56.0620 -56.0464 -55.9202 -55.9093 -55.9042 -55.8961 -55.8623 -55.8320
   -55.8163 -55.8148 -55.8100 -55.7652 -55.7480 -55.7093 -55.6897 -55.6588
   -55.6525 -55.6046 -55.6033 -55.6003 -55.5919 -55.5538 -55.5280 -55.4440
   -31.2815 -31.2701 -31.1237 -31.0885 -31.0385 -30.9411 -30.7513 -30.6416
   -29.8518 -29.8146 -29.7851 -29.6780 -14.9889 -14.9422 -14.8647 -14.7601
   -14.7197 -14.5977 -14.5094 -14.3710 -14.0715 -14.0416 -14.0299 -13.9965
   -13.9863 -13.9613 -13.9377 -13.9016 -13.8825 -13.8653 -13.8291 -13.8070
   -13.7021 -13.6444 -13.5952 -13.5877 -13.5649 -13.4766 -13.4554 -13.3388
   -13.2819 -13.2083 -13.1719 -13.0757 -13.0366 -13.0240 -13.0124 -12.9829
   -12.9535 -12.9455 -12.9082 -12.8136 -12.7830 -12.7093 -12.6988 -12.6853
   -12.6301 -12.6220 -12.5481 -12.5329 -12.3503 -12.3296 -12.1991 -12.1500
   -12.1277 -11.7775 -11.7651 -11.7512 -11.7384 -11.7183 -11.6883 -11.6058
   -11.5983 -11.5744 -11.5387 -11.5114 -11.5020  -2.4450  -2.4035  -2.2559
    -2.2133  -2.0520  -1.9751  -1.8355  -1.6979  -1.6413  -1.6143  -1.5765
    -1.5383  -1.4569  -1.3417  -1.2846  -1.2666  -1.2590  -1.2336  -1.1551
    -1.1292  -1.0907  -1.0740  -1.0135  -0.9802  -0.9452  -0.9106  -0.8817
    -0.8232  -0.7942  -0.7516  -0.7179  -0.6136  -0.5881  -0.4922  -0.4361
    -0.4051  -0.3434  -0.2650  -0.2299  -0.1288  -0.0905  -0.0303   0.0190
     0.0532   0.1163   0.1459   0.1795   0.2251   0.2661   0.5877   0.6453
     0.7161   0.7323   1.0124   1.0773   1.1479   1.1735   1.3482   1.3818
     1.4202   1.4299   1.4484   1.4668   1.5349   1.5836   1.6226   1.6553
     1.7759   1.8149   1.8415   1.8546   1.8930   1.9160   1.9335   1.9473
     1.9640   1.9871   2.0323   2.0456   2.0831   2.1100   2.1405   2.1949
     2.3178   2.4067   2.4287   2.4452   2.4492   2.5109   2.5463   2.6122
     2.6477   2.6537   2.6930   2.7231   2.7477   2.8296   2.8728   2.8862
     2.8917   2.9133   2.9339   2.9463   2.9611   2.9757   2.9975   3.0113
     3.0191   3.0275   3.0372   3.0503   3.5797   3.6198   3.7684   3.7881
     4.0750   4.1424   4.1958   4.3992   4.7784   4.8765   5.0385   5.0758
     5.4044   5.4259   5.5853   5.6253   5.7399   5.7966   6.3876   6.4531
     6.4916   6.6117   7.3056   7.3806   7.5874   7.7105   7.7893   7.8839
     7.9460   8.0247   8.3452   8.4242   8.4625   8.5334   8.5712   8.5867
     8.6651   8.7485   8.7882

     occupation numbers 
     1.0000   1.0000   1.0000   1.0000   1.0000   1.0000   1.0000   1.0000
     1.0000   1.0000   1.0000   1.0000   1.0000   1.0000   1.0000   1.0000
     1.0000   1.0000   1.0000   1.0000   1.0000   1.0000   1.0000   1.0000
     1.0000   1.0000   1.0000   1.0000   1.0000   1.0000   1.0000   1.0000
     1.0000   1.0000   1.0000   1.0000   1.0000   1.0000   1.0000   1.0000
     1.0000   1.0000   1.0000   1.0000   1.0000   1.0000   1.0000   1.0000
     1.0000   1.0000   1.0000   1.0000   1.0000   1.0000   1.0000   1.0000
     1.0000   1.0000   1.0000   1.0000   1.0000   1.0000   1.0000   1.0000
     1.0000   1.0000   1.0000   1.0000   1.0000   1.0000   1.0000   1.0000
     1.0000   1.0000   1.0000   1.0000   1.0000   1.0000   1.0000   1.0000
     1.0000   1.0000   1.0000   1.0000   1.0000   1.0000   1.0000   1.0000
     1.0000   1.0000   1.0000   1.0000   1.0000   1.0000   1.0000   1.0000
     1.0000   1.0000   1.0000   1.0000   1.0000   1.0000   1.0000   1.0000
     1.0000   1.0000   1.0000   1.0000   1.0000   1.0000   1.0000   1.0000
     1.0000   1.0000   1.0000   1.0000   1.0000   1.0000   1.0000   1.0000
     1.0000   1.0000   1.0000   1.0000   1.0000   1.0000   1.0000   1.0000
     1.0000   1.0000   1.0000   1.0000   1.0000   1.0000   1.0000   1.0000
     1.0000   1.0000   1.0000   1.0000   1.0000   1.0000   1.0000   1.0000
     1.0000   1.0000   1.0000   1.0000   1.0000   1.0000   1.0000   1.0000
     1.0000   1.0000   1.0000   1.0000   1.0000   1.0000   1.0000   1.0000
     0.9999   0.9999   0.9997   0.9996   0.9994   0.9993   0.9983   0.9980
     0.9976   0.9975   0.9973   0.9970   0.9960   0.9950   0.9941   0.9933
     0.9890   0.9872   0.9859   0.9852   0.9829   0.9814   0.9802   0.9792
     0.9779   0.9760   0.9720   0.9707   0.9668   0.9637   0.9600   0.9525
     0.9315   0.9123   0.9069   0.9028   0.9018   0.8849   0.8744   0.8530
     0.8406   0.8384   0.8237   0.8119   0.8019   0.7663   0.7462   0.7398
     0.7371   0.7266   0.7163   0.7100   0.7025   0.6949   0.6835   0.6762
     0.6720   0.6675   0.6622   0.6551   0.3494   0.3276   0.2523   0.2431
     0.1308   0.1107   0.0965   0.0544   0.0151   0.0104   0.0053   0.0045
     0.0010   0.0009   0.0004   0.0003   0.0002   0.0001   0.0000   0.0000
     0.0000   0.0000   0.0000   0.0000   0.0000   0.0000   0.0000   0.0000
     0.0000   0.0000   0.0000   0.0000   0.0000   0.0000   0.0000   0.0000
     0.0000   0.0000   0.0000

     the Fermi energy is     3.3191 ev

!    total energy              =   -4441.67306552 Ry
     estimated scf accuracy    <          8.6E-09 Ry
     smearing contrib. (-TS)   =      -1.15467671 Ry
     internal energy E=F+TS    =   -4440.51838881 Ry

     The total energy is F=E-TS. E is the sum of the following terms:
     one-electron contribution =  -20804.06132139 Ry
     hartree contribution      =   10533.92570536 Ry
     xc contribution           =    -694.19038241 Ry
     ewald contribution        =    6799.97537595 Ry
     one-center paw contrib.   =    -276.16776634 Ry
      -> PAW hartree energy AE =      25.15534746 Ry
      -> PAW hartree energy PS =     -25.03931244 Ry
      -> PAW xc energy AE      =     -16.51644493 Ry
      -> PAW xc energy PS      =       6.87584833 Ry
      -> total E_H with PAW    =   10534.04174038 Ry
      -> total E_XC with PAW   =    -703.83097900 Ry

     convergence has been achieved in  45 iterations

     Writing all to output data dir /bsuhome/zayahcortright/scratch/pwscf.save/
 
     init_run     :      7.59s CPU      8.53s WALL (       1 calls)
     electrons    :    741.94s CPU    820.44s WALL (       1 calls)

     Called by init_run:
     wfcinit      :      6.11s CPU      6.39s WALL (       1 calls)
     wfcinit:atom :      0.04s CPU      0.07s WALL (       5 calls)
     wfcinit:wfcr :      5.79s CPU      5.97s WALL (       5 calls)
     potinit      :      0.16s CPU      0.19s WALL (       1 calls)
     hinit0       :      0.46s CPU      0.81s WALL (       1 calls)

     Called by electrons:
     c_bands      :    600.66s CPU    611.35s WALL (      45 calls)
     sum_band     :    105.48s CPU    142.69s WALL (      45 calls)
     v_of_rho     :      4.97s CPU      5.36s WALL (      46 calls)
     v_h          :      0.46s CPU      0.46s WALL (      46 calls)
     v_xc         :      4.51s CPU      4.90s WALL (      46 calls)
     newd         :     17.11s CPU     46.86s WALL (      46 calls)
     PAW_pot      :      1.51s CPU      1.55s WALL (      46 calls)
     mix_rho      :     11.91s CPU     12.33s WALL (      45 calls)

     Called by c_bands:
     init_us_2    :      6.34s CPU      6.43s WALL (     455 calls)
     init_us_2:cp :      6.33s CPU      6.42s WALL (     455 calls)
     cegterg      :    555.20s CPU    565.50s WALL (     225 calls)

     Called by sum_band:
     sum_band:wei :      0.33s CPU      0.34s WALL (      45 calls)
     sum_band:loo :     84.45s CPU     85.14s WALL (      45 calls)
     sum_band:buf :      1.36s CPU      1.41s WALL (     225 calls)
     sum_band:ini :      2.87s CPU      2.88s WALL (     225 calls)
     sum_band:cal :     17.75s CPU     17.84s WALL (     225 calls)
     sum_band:bec :      0.52s CPU      0.53s WALL (     225 calls)
     addusdens    :     16.62s CPU     53.02s WALL (      45 calls)
                                        0.00s GPU  (      45 calls)
     addusd:skk   :      0.31s CPU      2.23s WALL (     180 calls)
                                        0.00s GPU  (     180 calls)

     Called by *egterg:
     cdiaghg      :     54.52s CPU     54.77s WALL (    1290 calls)
     cegterg:over :     42.12s CPU     42.33s WALL (    1065 calls)
     cegterg:upda :     43.68s CPU     44.46s WALL (    1065 calls)
     cegterg:last :     65.63s CPU     65.89s WALL (     412 calls)
     cdiaghg:chol :      3.18s CPU      3.21s WALL (    1290 calls)
     cdiaghg:inve :      3.33s CPU      3.35s WALL (    1290 calls)
     cdiaghg:para :      6.87s CPU      6.91s WALL (    2580 calls)
     h_psi        :    283.60s CPU    287.89s WALL (    1295 calls)
     s_psi        :     42.05s CPU     42.19s WALL (    1295 calls)
     g_psi        :      2.02s CPU      2.05s WALL (    1065 calls)

     Called by h_psi:
     h_psi:calbec :     43.00s CPU     43.21s WALL (    1295 calls)
     vloc_psi     :    194.80s CPU    196.69s WALL (    1295 calls)
     add_vuspsi   :     40.84s CPU     41.09s WALL (    1295 calls)

     General routines
     calbec       :     60.74s CPU     61.04s WALL (    1520 calls)
     fft          :      4.54s CPU      4.60s WALL (     596 calls)
     ffts         :      4.27s CPU      4.32s WALL (    4775 calls)
     fftw         :    158.74s CPU    160.07s WALL (  306807 calls)
     interpolate  :      0.38s CPU      0.39s WALL (      46 calls)
 
     Parallel routines

     PAW routines
     PAW_pot      :      1.51s CPU      1.55s WALL (      46 calls)
 
     PWSCF        :  12m31.58s CPU  13m54.45s WALL

 
   This run was terminated on:   2:34:37  22Jun2024            

=------------------------------------------------------------------------------=
   JOB DONE.
=------------------------------------------------------------------------------=
