
     Program PWSCF v.7.2 starts on 21Jun2024 at 15:59:30 

     This program is part of the open-source Quantum ESPRESSO suite
     for quantum simulation of materials; please cite
         "P. Giannozzi et al., J. Phys.:Condens. Matter 21 395502 (2009);
         "P. Giannozzi et al., J. Phys.:Condens. Matter 29 465901 (2017);
         "P. Giannozzi et al., J. Chem. Phys. 152 154105 (2020);
          URL http://www.quantum-espresso.org", 
     in publications or presentations arising from this work. More details at
     http://www.quantum-espresso.org/quote

     Parallel version (MPI & OpenMP), running on      48 processor cores
     Number of MPI processes:                48
     Threads/MPI process:                     1

     MPI processes distributed on     1 nodes
     60576 MiB available memory on the printing compute node when the environment starts
 
     Reading input from espresso.pwi
Warning: card &CELL ignored
Warning: card / ignored
Warning: card &FCP ignored
Warning: card / ignored
Warning: card &RISM ignored
Warning: card / ignored

     Current dimensions of program PWSCF are:
     Max number of different atomic species (ntypx) = 10
     Max number of k-points (npk) =  40000
     Max angular momentum in pseudopotentials (lmaxx) =  4
     file O.pbe-n-kjpaw_psl.0.1.UPF: wavefunction(s)  2P renormalized
     signal trapping enabled: kill the code with -SIGUSR1 to stop cleanly the simulation 
 
     K-points division:     npool     =       2
     R & G space division:  proc/nbgrp/npool/nimage =      24
     Subspace diagonalization in iterative solution of the eigenvalue problem:
     one sub-group per band group will be used
     scalapack distributed-memory algorithm (size of sub-group:  3*  3 procs)

 
     Parallelization info
     --------------------
     sticks:   dense  smooth     PW     G-vecs:    dense   smooth      PW
     Min         350     175     47                61430    21716    3036
     Max         351     177     48                61449    21727    3041
     Sum        8421    4205   1137              1474595   521381   72913
 
     Using Slab Decomposition
 


     bravais-lattice index     =            0
     lattice parameter (alat)  =      14.8599  a.u.
     unit-cell volume          =    8305.1283 (a.u.)^3
     number of atoms/cell      =           49
     number of atomic types    =            3
     number of electrons       =       430.00
     number of Kohn-Sham states=          258
     kinetic-energy cutoff     =      60.0000  Ry
     charge density cutoff     =     480.0000  Ry
     scf convergence threshold =      1.0E-08
     mixing beta               =       0.1500
     number of iterations used =            8  local-TF  mixing
     Exchange-correlation= SLA  PW   PBE  PBE
                           (   1   4   3   4   0   0   0)

     celldm(1)=  14.859904  celldm(2)=   0.000000  celldm(3)=   0.000000
     celldm(4)=   0.000000  celldm(5)=   0.000000  celldm(6)=   0.000000

     crystal axes: (cart. coord. in units of alat)
               a(1) = (   1.000000   0.000000   0.000000 )  
               a(2) = (   0.000000   1.000000   0.000000 )  
               a(3) = (   0.000000   0.000000   2.531036 )  

     reciprocal axes: (cart. coord. in units 2 pi/alat)
               b(1) = (  1.000000  0.000000  0.000000 )  
               b(2) = (  0.000000  1.000000  0.000000 )  
               b(3) = (  0.000000  0.000000  0.395095 )  


     PseudoPot. # 1 for Sr read from file:
     /bsuhome/zayahcortright/q-e/pseudo/Sr_pbe_v1.uspp.F.UPF
     MD5 check sum: 6b418c05fbe9db5448babca5e47b7a5b
     Pseudo is Ultrasoft + core correction, Zval = 10.0
     Generated by new atomic code, or converted to UPF format
     Using radial grid of  883 points,  6 beta functions with: 
                l(1) =   0
                l(2) =   0
                l(3) =   1
                l(4) =   1
                l(5) =   2
                l(6) =   2
     Q(r) pseudized with  6 coefficients,  rinner =    1.400   1.400   1.400
                                                       1.400   1.400

     PseudoPot. # 2 for O  read from file:
     /bsuhome/zayahcortright/q-e/pseudo/O.pbe-n-kjpaw_psl.0.1.UPF
     MD5 check sum: 0234752ac141de4415c5fc33072bef88
     Pseudo is Projector augmented-wave + core cor, Zval =  6.0
     Generated using "atomic" code by A. Dal Corso  v.5.0.99 svn rev. 10869
     Shape of augmentation charge: BESSEL
     Using radial grid of 1095 points,  4 beta functions with: 
                l(1) =   0
                l(2) =   0
                l(3) =   1
                l(4) =   1
     Q(r) pseudized with 0 coefficients 


     PseudoPot. # 3 for Co read from file:
     /bsuhome/zayahcortright/q-e/pseudo/Co_pbe_v1.2.uspp.F.UPF
     MD5 check sum: 5f91765df6ddd3222702df6e7b74a16d
     Pseudo is Ultrasoft + core correction, Zval = 17.0
     Generated by new atomic code, or converted to UPF format
     Using radial grid of  863 points,  6 beta functions with: 
                l(1) =   0
                l(2) =   0
                l(3) =   1
                l(4) =   1
                l(5) =   2
                l(6) =   2
     Q(r) pseudized with  8 coefficients,  rinner =    1.200   1.200   1.200
                                                       1.200   1.200

     atomic species   valence    mass     pseudopotential
        Sr            10.00    87.62000     Sr( 1.00)
        O              6.00    15.99900     O ( 1.00)
        Co            17.00    58.93319     Co( 1.00)

     No symmetry found


                                    s                        frac. trans.

      isym =  1     identity                                     

 cryst.   s( 1) = (     1          0          0      )
                  (     0          1          0      )
                  (     0          0          1      )

 cart.    s( 1) = (  1.0000000  0.0000000  0.0000000 )
                  (  0.0000000  1.0000000  0.0000000 )
                  (  0.0000000  0.0000000  1.0000000 )


   Cartesian axes

     site n.     atom                  positions (alat units)
         1           Sr  tau(   1) = (   0.2508693   0.7491307   1.7574407  )
         2           O   tau(   2) = (   0.4985141   0.5014859   1.7715967  )
         3           Sr  tau(   3) = (   0.7482398   0.7454518   1.7648669  )
         4           Sr  tau(   4) = (   0.7441748   0.2558252   1.7667843  )
         5           Sr  tau(   5) = (   0.2508693   0.7491307   1.2696799  )
         6           Sr  tau(   6) = (   0.2508693   0.7491307   0.7632319  )
         7           Co  tau(   7) = (   0.4998914   0.5001086   1.0164559  )
         8           Co  tau(   8) = (   0.4936915   0.5063085   1.5135603  )
         9           O   tau(   9) = (   0.4988895   0.7610401   1.0164559  )
        10           O   tau(  10) = (   0.2389599   0.5011105   1.0164559  )
        11           O   tau(  11) = (   0.0070918   0.7374880   1.0164559  )
        12           O   tau(  12) = (   0.0088340   0.7405089   1.5135603  )
        13           O   tau(  13) = (   0.5066944   0.7415376   1.5135603  )
        14           O   tau(  14) = (   0.2584624   0.4933056   1.5135603  )
        15           O   tau(  15) = (   0.4985141   0.5014859   0.7773880  )
        16           O   tau(  16) = (   0.4985141   0.5014859   1.2555238  )
        17           Sr  tau(  17) = (   0.7482398   0.7454518   0.7706582  )
        18           Sr  tau(  18) = (   0.7482398   0.7454518   1.2622536  )
        19           Sr  tau(  19) = (   0.7441748   0.2558252   0.7725755  )
        20           Sr  tau(  20) = (   0.7441748   0.2558252   1.2603363  )
        21           O   tau(  21) = (   0.7322655   0.0078049   1.5135603  )
        22           O   tau(  22) = (   0.7558175   0.4996027   1.5135603  )
        23           O   tau(  23) = (   0.5003973   0.2441825   1.5135603  )
        24           O   tau(  24) = (   0.7527966   0.4978604   1.0164559  )
        25           O   tau(  25) = (   0.5021396   0.2472034   1.0164559  )
        26           O   tau(  26) = (   0.7517679   0.0000000   1.0164559  )
        27           O   tau(  27) = (   0.0114961   0.4948124   1.7455321  )
        28           O   tau(  28) = (   0.0048226   0.0077944   1.7715967  )
        29           Sr  tau(  29) = (   0.2545482   0.2517602   1.7648669  )
        30           O   tau(  30) = (   0.5048017   0.0015068   1.7786929  )
        31           Co  tau(  31) = (   0.0056869   0.5006215   1.0164559  )
        32           Co  tau(  32) = (   0.0065315   0.4997770   1.5135603  )
        33           Co  tau(  33) = (   0.0061999   0.0064171   1.0164559  )
        34           Co  tau(  34) = (   0.0000000   0.0126169   1.5135603  )
        35           O   tau(  35) = (   0.0114961   0.4948124   1.2815885  )
        36           O   tau(  36) = (   0.0114961   0.4948124   0.7513233  )
        37           O   tau(  37) = (   0.0051979   0.2673486   1.0164559  )
        38           O   tau(  38) = (   0.0130029   0.2478461   1.5135603  )
        39           O   tau(  39) = (   0.0048226   0.0077944   0.7773880  )
        40           O   tau(  40) = (   0.0048226   0.0077944   1.2555238  )
        41           Sr  tau(  41) = (   0.2545482   0.2517602   0.7706582  )
        42           Sr  tau(  42) = (   0.2545482   0.2517602   1.2622536  )
        43           Co  tau(  43) = (   0.4989925   0.0073160   1.5135603  )
        44           Co  tau(  44) = (   0.4998370   0.0064714   1.0164559  )
        45           O   tau(  45) = (   0.5048017   0.0015068   0.7844841  )
        46           O   tau(  46) = (   0.5048017   0.0015068   1.2484277  )
        47           O   tau(  47) = (   0.2621260   0.0059111   1.5135603  )
        48           O   tau(  48) = (   0.2591051   0.0041689   1.0164559  )
        49           O   tau(  49) = (   0.1421646   0.0000000   2.1602013  )

   Crystallographic axes

     site n.     atom                  positions (cryst. coord.)
         1           Sr  tau(   1) = (  0.2508693  0.7491307  0.6943562  )
         2           O   tau(   2) = (  0.4985141  0.5014859  0.6999492  )
         3           Sr  tau(   3) = (  0.7482398  0.7454518  0.6972903  )
         4           Sr  tau(   4) = (  0.7441748  0.2558252  0.6980478  )
         5           Sr  tau(   5) = (  0.2508693  0.7491307  0.5016443  )
         6           Sr  tau(   6) = (  0.2508693  0.7491307  0.3015492  )
         7           Co  tau(   7) = (  0.4998914  0.5001086  0.4015968  )
         8           Co  tau(   8) = (  0.4936915  0.5063085  0.5980003  )
         9           O   tau(   9) = (  0.4988895  0.7610401  0.4015968  )
        10           O   tau(  10) = (  0.2389599  0.5011105  0.4015968  )
        11           O   tau(  11) = (  0.0070918  0.7374880  0.4015968  )
        12           O   tau(  12) = (  0.0088340  0.7405089  0.5980003  )
        13           O   tau(  13) = (  0.5066944  0.7415376  0.5980003  )
        14           O   tau(  14) = (  0.2584624  0.4933056  0.5980003  )
        15           O   tau(  15) = (  0.4985141  0.5014859  0.3071422  )
        16           O   tau(  16) = (  0.4985141  0.5014859  0.4960513  )
        17           Sr  tau(  17) = (  0.7482398  0.7454518  0.3044833  )
        18           Sr  tau(  18) = (  0.7482398  0.7454518  0.4987103  )
        19           Sr  tau(  19) = (  0.7441748  0.2558252  0.3052408  )
        20           Sr  tau(  20) = (  0.7441748  0.2558252  0.4979527  )
        21           O   tau(  21) = (  0.7322655  0.0078049  0.5980003  )
        22           O   tau(  22) = (  0.7558175  0.4996027  0.5980003  )
        23           O   tau(  23) = (  0.5003973  0.2441825  0.5980003  )
        24           O   tau(  24) = (  0.7527966  0.4978604  0.4015968  )
        25           O   tau(  25) = (  0.5021396  0.2472034  0.4015968  )
        26           O   tau(  26) = (  0.7517679  0.0000000  0.4015968  )
        27           O   tau(  27) = (  0.0114961  0.4948124  0.6896512  )
        28           O   tau(  28) = (  0.0048226  0.0077944  0.6999492  )
        29           Sr  tau(  29) = (  0.2545482  0.2517602  0.6972903  )
        30           O   tau(  30) = (  0.5048017  0.0015068  0.7027529  )
        31           Co  tau(  31) = (  0.0056869  0.5006215  0.4015968  )
        32           Co  tau(  32) = (  0.0065315  0.4997770  0.5980003  )
        33           Co  tau(  33) = (  0.0061999  0.0064171  0.4015968  )
        34           Co  tau(  34) = (  0.0000000  0.0126169  0.5980003  )
        35           O   tau(  35) = (  0.0114961  0.4948124  0.5063494  )
        36           O   tau(  36) = (  0.0114961  0.4948124  0.2968442  )
        37           O   tau(  37) = (  0.0051979  0.2673486  0.4015968  )
        38           O   tau(  38) = (  0.0130029  0.2478461  0.5980003  )
        39           O   tau(  39) = (  0.0048226  0.0077944  0.3071422  )
        40           O   tau(  40) = (  0.0048226  0.0077944  0.4960513  )
        41           Sr  tau(  41) = (  0.2545482  0.2517602  0.3044833  )
        42           Sr  tau(  42) = (  0.2545482  0.2517602  0.4987103  )
        43           Co  tau(  43) = (  0.4989925  0.0073160  0.5980003  )
        44           Co  tau(  44) = (  0.4998370  0.0064714  0.4015968  )
        45           O   tau(  45) = (  0.5048017  0.0015068  0.3099459  )
        46           O   tau(  46) = (  0.5048017  0.0015068  0.4932477  )
        47           O   tau(  47) = (  0.2621260  0.0059111  0.5980003  )
        48           O   tau(  48) = (  0.2591051  0.0041689  0.4015968  )
        49           O   tau(  49) = (  0.1421646  0.0000000  0.8534850  )

     number of k points=    10  Gaussian smearing, width (Ry)=  0.0700
                       cart. coord. in units 2pi/alat
        k(    1) = (   0.0000000   0.0000000   0.0000000), wk =   0.1250000
        k(    2) = (   0.0000000   0.2500000   0.0000000), wk =   0.2500000
        k(    3) = (   0.0000000  -0.5000000   0.0000000), wk =   0.1250000
        k(    4) = (   0.2500000   0.2500000   0.0000000), wk =   0.2500000
        k(    5) = (   0.2500000  -0.5000000   0.0000000), wk =   0.2500000
        k(    6) = (  -0.5000000  -0.5000000   0.0000000), wk =   0.1250000
        k(    7) = (   0.2500000   0.0000000   0.0000000), wk =   0.2500000
        k(    8) = (  -0.5000000   0.0000000   0.0000000), wk =   0.1250000
        k(    9) = (  -0.2500000   0.2500000   0.0000000), wk =   0.2500000
        k(   10) = (  -0.5000000   0.2500000   0.0000000), wk =   0.2500000

                       cryst. coord.
        k(    1) = (   0.0000000   0.0000000   0.0000000), wk =   0.1250000
        k(    2) = (   0.0000000   0.2500000   0.0000000), wk =   0.2500000
        k(    3) = (   0.0000000  -0.5000000   0.0000000), wk =   0.1250000
        k(    4) = (   0.2500000   0.2500000   0.0000000), wk =   0.2500000
        k(    5) = (   0.2500000  -0.5000000   0.0000000), wk =   0.2500000
        k(    6) = (  -0.5000000  -0.5000000   0.0000000), wk =   0.1250000
        k(    7) = (   0.2500000   0.0000000   0.0000000), wk =   0.2500000
        k(    8) = (  -0.5000000   0.0000000   0.0000000), wk =   0.1250000
        k(    9) = (  -0.2500000   0.2500000   0.0000000), wk =   0.2500000
        k(   10) = (  -0.5000000   0.2500000   0.0000000), wk =   0.2500000

     Dense  grid:  1474595 G-vectors     FFT dimensions: ( 108, 108, 270)

     Smooth grid:   521381 G-vectors     FFT dimensions: (  75,  75, 192)

     Dynamical RAM for                 wfc:      10.69 MB

     Dynamical RAM for     wfc (w. buffer):      64.13 MB

     Dynamical RAM for           str. fact:       2.81 MB

     Dynamical RAM for           local pot:       0.00 MB

     Dynamical RAM for          nlocal pot:      24.53 MB

     Dynamical RAM for                qrad:       5.27 MB

     Dynamical RAM for          rho,v,vnew:       6.02 MB

     Dynamical RAM for               rhoin:       2.01 MB

     Dynamical RAM for            rho*nmix:      15.00 MB

     Dynamical RAM for           G-vectors:       3.68 MB

     Dynamical RAM for          h,s,v(r/c):       1.35 MB

     Dynamical RAM for          <psi|beta>:       2.33 MB

     Dynamical RAM for                 psi:      21.38 MB

     Dynamical RAM for                hpsi:      21.38 MB

     Dynamical RAM for                spsi:      21.38 MB

     Dynamical RAM for      wfcinit/wfcrot:      34.39 MB

     Dynamical RAM for           addusdens:     101.26 MB

     Estimated static dynamical RAM per process >     117.53 MB

     Estimated max dynamical RAM per process >     233.79 MB

     Estimated total dynamical RAM >      10.61 GB

     Check: negative core charge=   -0.000004

     Initial potential from superposition of free atoms

     starting charge     421.5961, renormalised to     430.0000

     negative rho (up, down):  7.826E-01 0.000E+00
     Starting wfcs are  376 randomized atomic wfcs
     Checking if some PAW data can be deallocated... 
       PAW data deallocated on   19 nodes for type:  2

     total cpu time spent up to now is        9.0 secs

     Self-consistent Calculation

     iteration #  1     ecut=    60.00 Ry     beta= 0.15
     Davidson diagonalization with overlap

---- Real-time Memory Report at c_bands before calling an iterative solver
             0 MiB given to the printing process from OS
             0 MiB allocation reported by mallinfo(arena+hblkhd)
         51484 MiB available memory on the node where the printing process lives
------------------
     ethr =  1.00E-02,  avg # of iterations =  2.0

     negative rho (up, down):  7.718E-01 0.000E+00

     total cpu time spent up to now is       24.1 secs

     total energy              =   -4445.28383634 Ry
     estimated scf accuracy    <      53.93894499 Ry

     iteration #  2     ecut=    60.00 Ry     beta= 0.15
     Davidson diagonalization with overlap

---- Real-time Memory Report at c_bands before calling an iterative solver
             0 MiB given to the printing process from OS
             0 MiB allocation reported by mallinfo(arena+hblkhd)
         51868 MiB available memory on the node where the printing process lives
------------------
     ethr =  1.00E-02,  avg # of iterations =  1.0

     negative rho (up, down):  7.586E-01 0.000E+00

     total cpu time spent up to now is       37.1 secs

     total energy              =   -4441.75950590 Ry
     estimated scf accuracy    <      28.84129141 Ry

     iteration #  3     ecut=    60.00 Ry     beta= 0.15
     Davidson diagonalization with overlap

---- Real-time Memory Report at c_bands before calling an iterative solver
             0 MiB given to the printing process from OS
             0 MiB allocation reported by mallinfo(arena+hblkhd)
         51089 MiB available memory on the node where the printing process lives
------------------
     ethr =  6.71E-03,  avg # of iterations =  1.0

     negative rho (up, down):  7.534E-01 0.000E+00

     total cpu time spent up to now is       49.8 secs

     total energy              =   -4442.66681432 Ry
     estimated scf accuracy    <      29.14871507 Ry

     iteration #  4     ecut=    60.00 Ry     beta= 0.15
     Davidson diagonalization with overlap

---- Real-time Memory Report at c_bands before calling an iterative solver
             0 MiB given to the printing process from OS
             0 MiB allocation reported by mallinfo(arena+hblkhd)
         51043 MiB available memory on the node where the printing process lives
------------------
     ethr =  6.71E-03,  avg # of iterations =  1.0

     negative rho (up, down):  7.537E-01 0.000E+00

     total cpu time spent up to now is       62.4 secs

     total energy              =   -4442.38354283 Ry
     estimated scf accuracy    <      26.36521595 Ry

     iteration #  5     ecut=    60.00 Ry     beta= 0.15
     Davidson diagonalization with overlap

---- Real-time Memory Report at c_bands before calling an iterative solver
             0 MiB given to the printing process from OS
             0 MiB allocation reported by mallinfo(arena+hblkhd)
         51025 MiB available memory on the node where the printing process lives
------------------
     ethr =  6.13E-03,  avg # of iterations =  1.0

     negative rho (up, down):  7.357E-01 0.000E+00

     total cpu time spent up to now is       74.8 secs

     total energy              =   -4440.94884438 Ry
     estimated scf accuracy    <      17.89135554 Ry

     iteration #  6     ecut=    60.00 Ry     beta= 0.15
     Davidson diagonalization with overlap

---- Real-time Memory Report at c_bands before calling an iterative solver
             0 MiB given to the printing process from OS
             0 MiB allocation reported by mallinfo(arena+hblkhd)
         51004 MiB available memory on the node where the printing process lives
------------------
     ethr =  4.16E-03,  avg # of iterations =  2.0

     negative rho (up, down):  7.401E-01 0.000E+00

     total cpu time spent up to now is       88.7 secs

     total energy              =   -4443.61912171 Ry
     estimated scf accuracy    <      63.30587686 Ry

     iteration #  7     ecut=    60.00 Ry     beta= 0.15
     Davidson diagonalization with overlap

---- Real-time Memory Report at c_bands before calling an iterative solver
             0 MiB given to the printing process from OS
             0 MiB allocation reported by mallinfo(arena+hblkhd)
         50979 MiB available memory on the node where the printing process lives
------------------
     ethr =  4.16E-03,  avg # of iterations =  1.0

     negative rho (up, down):  7.437E-01 0.000E+00

     total cpu time spent up to now is      101.1 secs

     total energy              =   -4441.53461687 Ry
     estimated scf accuracy    <      56.54019373 Ry

     iteration #  8     ecut=    60.00 Ry     beta= 0.15
     Davidson diagonalization with overlap

---- Real-time Memory Report at c_bands before calling an iterative solver
             0 MiB given to the printing process from OS
             0 MiB allocation reported by mallinfo(arena+hblkhd)
         50968 MiB available memory on the node where the printing process lives
------------------
     ethr =  4.16E-03,  avg # of iterations =  1.0

     negative rho (up, down):  7.499E-01 0.000E+00

     total cpu time spent up to now is      113.5 secs

     total energy              =   -4441.02044690 Ry
     estimated scf accuracy    <      14.67750250 Ry

     iteration #  9     ecut=    60.00 Ry     beta= 0.15
     Davidson diagonalization with overlap

---- Real-time Memory Report at c_bands before calling an iterative solver
             0 MiB given to the printing process from OS
             0 MiB allocation reported by mallinfo(arena+hblkhd)
         50952 MiB available memory on the node where the printing process lives
------------------
     ethr =  3.41E-03,  avg # of iterations =  1.1

     negative rho (up, down):  7.524E-01 0.000E+00

     total cpu time spent up to now is      126.1 secs

     total energy              =   -4440.68287337 Ry
     estimated scf accuracy    <       4.87256251 Ry

     iteration # 10     ecut=    60.00 Ry     beta= 0.15
     Davidson diagonalization with overlap

---- Real-time Memory Report at c_bands before calling an iterative solver
             0 MiB given to the printing process from OS
             0 MiB allocation reported by mallinfo(arena+hblkhd)
         50928 MiB available memory on the node where the printing process lives
------------------
     ethr =  1.13E-03,  avg # of iterations =  5.9

     negative rho (up, down):  7.642E-01 0.000E+00

     total cpu time spent up to now is      141.7 secs

     total energy              =   -4440.30298927 Ry
     estimated scf accuracy    <       4.44358149 Ry

     iteration # 11     ecut=    60.00 Ry     beta= 0.15
     Davidson diagonalization with overlap

---- Real-time Memory Report at c_bands before calling an iterative solver
             0 MiB given to the printing process from OS
             0 MiB allocation reported by mallinfo(arena+hblkhd)
         50796 MiB available memory on the node where the printing process lives
------------------
     ethr =  1.03E-03,  avg # of iterations =  4.5

     negative rho (up, down):  7.811E-01 0.000E+00

     total cpu time spent up to now is      156.7 secs

     total energy              =   -4440.44942171 Ry
     estimated scf accuracy    <      23.02344035 Ry

     iteration # 12     ecut=    60.00 Ry     beta= 0.15
     Davidson diagonalization with overlap

---- Real-time Memory Report at c_bands before calling an iterative solver
             0 MiB given to the printing process from OS
             0 MiB allocation reported by mallinfo(arena+hblkhd)
         50771 MiB available memory on the node where the printing process lives
------------------
     ethr =  1.03E-03,  avg # of iterations =  8.0

     negative rho (up, down):  7.816E-01 0.000E+00

     total cpu time spent up to now is      173.1 secs

     total energy              =   -4440.12228030 Ry
     estimated scf accuracy    <      12.23411436 Ry

     iteration # 13     ecut=    60.00 Ry     beta= 0.15
     Davidson diagonalization with overlap

---- Real-time Memory Report at c_bands before calling an iterative solver
             0 MiB given to the printing process from OS
             0 MiB allocation reported by mallinfo(arena+hblkhd)
         50705 MiB available memory on the node where the printing process lives
------------------
     ethr =  1.03E-03,  avg # of iterations =  2.9

     negative rho (up, down):  7.868E-01 0.000E+00

     total cpu time spent up to now is      187.5 secs

     total energy              =   -4440.44793723 Ry
     estimated scf accuracy    <       2.07517191 Ry

     iteration # 14     ecut=    60.00 Ry     beta= 0.15
     Davidson diagonalization with overlap

---- Real-time Memory Report at c_bands before calling an iterative solver
             0 MiB given to the printing process from OS
             0 MiB allocation reported by mallinfo(arena+hblkhd)
         50689 MiB available memory on the node where the printing process lives
------------------
     ethr =  4.83E-04,  avg # of iterations =  8.3

     negative rho (up, down):  8.010E-01 0.000E+00

     total cpu time spent up to now is      204.6 secs

     total energy              =   -4440.45068090 Ry
     estimated scf accuracy    <       0.86057910 Ry

     iteration # 15     ecut=    60.00 Ry     beta= 0.15
     Davidson diagonalization with overlap

---- Real-time Memory Report at c_bands before calling an iterative solver
             0 MiB given to the printing process from OS
             0 MiB allocation reported by mallinfo(arena+hblkhd)
         50592 MiB available memory on the node where the printing process lives
------------------
     ethr =  2.00E-04,  avg # of iterations = 10.3

     negative rho (up, down):  8.243E-01 0.000E+00

     total cpu time spent up to now is      221.8 secs

     total energy              =   -4440.24479431 Ry
     estimated scf accuracy    <       3.07921160 Ry

     iteration # 16     ecut=    60.00 Ry     beta= 0.15
     Davidson diagonalization with overlap

---- Real-time Memory Report at c_bands before calling an iterative solver
             0 MiB given to the printing process from OS
             0 MiB allocation reported by mallinfo(arena+hblkhd)
         50551 MiB available memory on the node where the printing process lives
------------------
     ethr =  2.00E-04,  avg # of iterations =  8.6

     negative rho (up, down):  8.238E-01 0.000E+00

     total cpu time spent up to now is      239.0 secs

     total energy              =   -4440.35602809 Ry
     estimated scf accuracy    <       1.55106207 Ry

     iteration # 17     ecut=    60.00 Ry     beta= 0.15
     Davidson diagonalization with overlap

---- Real-time Memory Report at c_bands before calling an iterative solver
             0 MiB given to the printing process from OS
             0 MiB allocation reported by mallinfo(arena+hblkhd)
         50558 MiB available memory on the node where the printing process lives
------------------
     ethr =  2.00E-04,  avg # of iterations =  2.0

     negative rho (up, down):  8.234E-01 0.000E+00

     total cpu time spent up to now is      253.1 secs

     total energy              =   -4440.33378448 Ry
     estimated scf accuracy    <       0.21291833 Ry

     iteration # 18     ecut=    60.00 Ry     beta= 0.15
     Davidson diagonalization with overlap

---- Real-time Memory Report at c_bands before calling an iterative solver
             0 MiB given to the printing process from OS
             0 MiB allocation reported by mallinfo(arena+hblkhd)
         50559 MiB available memory on the node where the printing process lives
------------------
     c_bands:  1 eigenvalues not converged
     ethr =  4.95E-05,  avg # of iterations = 11.6

     negative rho (up, down):  8.207E-01 0.000E+00

     total cpu time spent up to now is      272.3 secs

     total energy              =   -4440.33614096 Ry
     estimated scf accuracy    <       7.69361140 Ry

     iteration # 19     ecut=    60.00 Ry     beta= 0.15
     Davidson diagonalization with overlap

---- Real-time Memory Report at c_bands before calling an iterative solver
             0 MiB given to the printing process from OS
             0 MiB allocation reported by mallinfo(arena+hblkhd)
         50500 MiB available memory on the node where the printing process lives
------------------
     ethr =  4.95E-05,  avg # of iterations =  2.0

     negative rho (up, down):  8.147E-01 0.000E+00

     total cpu time spent up to now is      286.4 secs

     total energy              =   -4440.29575233 Ry
     estimated scf accuracy    <       1.53452520 Ry

     iteration # 20     ecut=    60.00 Ry     beta= 0.15
     Davidson diagonalization with overlap

---- Real-time Memory Report at c_bands before calling an iterative solver
             0 MiB given to the printing process from OS
             0 MiB allocation reported by mallinfo(arena+hblkhd)
         50518 MiB available memory on the node where the printing process lives
------------------
     ethr =  4.95E-05,  avg # of iterations =  2.9

     negative rho (up, down):  8.066E-01 0.000E+00

     total cpu time spent up to now is      301.1 secs

     total energy              =   -4440.29403489 Ry
     estimated scf accuracy    <       0.42899232 Ry

     iteration # 21     ecut=    60.00 Ry     beta= 0.15
     Davidson diagonalization with overlap

---- Real-time Memory Report at c_bands before calling an iterative solver
             0 MiB given to the printing process from OS
             0 MiB allocation reported by mallinfo(arena+hblkhd)
         50522 MiB available memory on the node where the printing process lives
------------------
     ethr =  4.95E-05,  avg # of iterations =  5.7

     negative rho (up, down):  8.425E-01 0.000E+00

     total cpu time spent up to now is      317.4 secs

     total energy              =   -4440.32285626 Ry
     estimated scf accuracy    <       0.72875969 Ry

     iteration # 22     ecut=    60.00 Ry     beta= 0.15
     Davidson diagonalization with overlap

---- Real-time Memory Report at c_bands before calling an iterative solver
             0 MiB given to the printing process from OS
             0 MiB allocation reported by mallinfo(arena+hblkhd)
         50533 MiB available memory on the node where the printing process lives
------------------
     ethr =  4.95E-05,  avg # of iterations =  8.3

     negative rho (up, down):  8.447E-01 0.000E+00

     total cpu time spent up to now is      334.4 secs

     total energy              =   -4440.27674912 Ry
     estimated scf accuracy    <       1.59975396 Ry

     iteration # 23     ecut=    60.00 Ry     beta= 0.15
     Davidson diagonalization with overlap

---- Real-time Memory Report at c_bands before calling an iterative solver
             0 MiB given to the printing process from OS
             0 MiB allocation reported by mallinfo(arena+hblkhd)
         50486 MiB available memory on the node where the printing process lives
------------------
     ethr =  4.95E-05,  avg # of iterations =  1.8

     negative rho (up, down):  8.359E-01 0.000E+00

     total cpu time spent up to now is      348.5 secs

     total energy              =   -4440.29905008 Ry
     estimated scf accuracy    <       0.02631911 Ry

     iteration # 24     ecut=    60.00 Ry     beta= 0.15
     Davidson diagonalization with overlap

---- Real-time Memory Report at c_bands before calling an iterative solver
             0 MiB given to the printing process from OS
             0 MiB allocation reported by mallinfo(arena+hblkhd)
         50509 MiB available memory on the node where the printing process lives
------------------
     c_bands:  1 eigenvalues not converged
     ethr =  6.12E-06,  avg # of iterations = 12.5

     negative rho (up, down):  8.140E-01 0.000E+00

     total cpu time spent up to now is      368.0 secs

     total energy              =   -4440.29581178 Ry
     estimated scf accuracy    <       0.10924831 Ry

     iteration # 25     ecut=    60.00 Ry     beta= 0.15
     Davidson diagonalization with overlap

---- Real-time Memory Report at c_bands before calling an iterative solver
             0 MiB given to the printing process from OS
             0 MiB allocation reported by mallinfo(arena+hblkhd)
         50350 MiB available memory on the node where the printing process lives
------------------
     ethr =  6.12E-06,  avg # of iterations =  3.2

     negative rho (up, down):  8.062E-01 0.000E+00

     total cpu time spent up to now is      382.5 secs

     total energy              =   -4440.29571282 Ry
     estimated scf accuracy    <       0.01683656 Ry

     iteration # 26     ecut=    60.00 Ry     beta= 0.15
     Davidson diagonalization with overlap

---- Real-time Memory Report at c_bands before calling an iterative solver
             0 MiB given to the printing process from OS
             0 MiB allocation reported by mallinfo(arena+hblkhd)
         50357 MiB available memory on the node where the printing process lives
------------------
     ethr =  3.92E-06,  avg # of iterations =  5.1

     negative rho (up, down):  8.069E-01 0.000E+00

     total cpu time spent up to now is      398.1 secs

     total energy              =   -4440.29398791 Ry
     estimated scf accuracy    <       0.01068746 Ry

     iteration # 27     ecut=    60.00 Ry     beta= 0.15
     Davidson diagonalization with overlap

---- Real-time Memory Report at c_bands before calling an iterative solver
             0 MiB given to the printing process from OS
             0 MiB allocation reported by mallinfo(arena+hblkhd)
         50452 MiB available memory on the node where the printing process lives
------------------
     c_bands:  1 eigenvalues not converged
     ethr =  2.49E-06,  avg # of iterations = 13.5

     negative rho (up, down):  8.022E-01 0.000E+00

     total cpu time spent up to now is      419.1 secs

     total energy              =   -4440.29406443 Ry
     estimated scf accuracy    <       0.03188809 Ry

     iteration # 28     ecut=    60.00 Ry     beta= 0.15
     Davidson diagonalization with overlap

---- Real-time Memory Report at c_bands before calling an iterative solver
             0 MiB given to the printing process from OS
             0 MiB allocation reported by mallinfo(arena+hblkhd)
         50300 MiB available memory on the node where the printing process lives
------------------
     ethr =  2.49E-06,  avg # of iterations =  8.3

     negative rho (up, down):  7.989E-01 0.000E+00

     total cpu time spent up to now is      435.7 secs

     total energy              =   -4440.29409746 Ry
     estimated scf accuracy    <       0.00315722 Ry

     iteration # 29     ecut=    60.00 Ry     beta= 0.15
     Davidson diagonalization with overlap

---- Real-time Memory Report at c_bands before calling an iterative solver
             0 MiB given to the printing process from OS
             0 MiB allocation reported by mallinfo(arena+hblkhd)
         50359 MiB available memory on the node where the printing process lives
------------------
     c_bands:  1 eigenvalues not converged
     ethr =  7.34E-07,  avg # of iterations =  9.5

     negative rho (up, down):  7.937E-01 0.000E+00

     total cpu time spent up to now is      452.9 secs

     total energy              =   -4440.29413386 Ry
     estimated scf accuracy    <       0.00465393 Ry

     iteration # 30     ecut=    60.00 Ry     beta= 0.15
     Davidson diagonalization with overlap

---- Real-time Memory Report at c_bands before calling an iterative solver
             0 MiB given to the printing process from OS
             0 MiB allocation reported by mallinfo(arena+hblkhd)
         50424 MiB available memory on the node where the printing process lives
------------------
     c_bands:  1 eigenvalues not converged
     c_bands:  1 eigenvalues not converged
     ethr =  7.34E-07,  avg # of iterations = 12.8

     negative rho (up, down):  7.944E-01 0.000E+00

     total cpu time spent up to now is      471.5 secs

     total energy              =   -4440.29400444 Ry
     estimated scf accuracy    <       0.00598927 Ry

     iteration # 31     ecut=    60.00 Ry     beta= 0.15
     Davidson diagonalization with overlap

---- Real-time Memory Report at c_bands before calling an iterative solver
             0 MiB given to the printing process from OS
             0 MiB allocation reported by mallinfo(arena+hblkhd)
         50410 MiB available memory on the node where the printing process lives
------------------
     ethr =  7.34E-07,  avg # of iterations =  5.3

     negative rho (up, down):  7.933E-01 0.000E+00

     total cpu time spent up to now is      486.7 secs

     total energy              =   -4440.29413945 Ry
     estimated scf accuracy    <       0.00027190 Ry

     iteration # 32     ecut=    60.00 Ry     beta= 0.15
     Davidson diagonalization with overlap

---- Real-time Memory Report at c_bands before calling an iterative solver
             0 MiB given to the printing process from OS
             0 MiB allocation reported by mallinfo(arena+hblkhd)
         50410 MiB available memory on the node where the printing process lives
------------------
     ethr =  6.32E-08,  avg # of iterations =  2.0

     negative rho (up, down):  7.922E-01 0.000E+00

     total cpu time spent up to now is      500.9 secs

     total energy              =   -4440.29414167 Ry
     estimated scf accuracy    <       0.00011409 Ry

     iteration # 33     ecut=    60.00 Ry     beta= 0.15
     Davidson diagonalization with overlap

---- Real-time Memory Report at c_bands before calling an iterative solver
             0 MiB given to the printing process from OS
             0 MiB allocation reported by mallinfo(arena+hblkhd)
         50416 MiB available memory on the node where the printing process lives
------------------
     ethr =  2.65E-08,  avg # of iterations =  2.0

     negative rho (up, down):  7.921E-01 0.000E+00

     total cpu time spent up to now is      514.9 secs

     total energy              =   -4440.29414341 Ry
     estimated scf accuracy    <       0.00008042 Ry

     iteration # 34     ecut=    60.00 Ry     beta= 0.15
     Davidson diagonalization with overlap

---- Real-time Memory Report at c_bands before calling an iterative solver
             0 MiB given to the printing process from OS
             0 MiB allocation reported by mallinfo(arena+hblkhd)
         50412 MiB available memory on the node where the printing process lives
------------------
     ethr =  1.87E-08,  avg # of iterations =  2.0

     negative rho (up, down):  7.918E-01 0.000E+00

     total cpu time spent up to now is      528.8 secs

     total energy              =   -4440.29414098 Ry
     estimated scf accuracy    <       0.00003299 Ry

     iteration # 35     ecut=    60.00 Ry     beta= 0.15
     Davidson diagonalization with overlap

---- Real-time Memory Report at c_bands before calling an iterative solver
             0 MiB given to the printing process from OS
             0 MiB allocation reported by mallinfo(arena+hblkhd)
         50417 MiB available memory on the node where the printing process lives
------------------
     ethr =  7.67E-09,  avg # of iterations =  2.0

     negative rho (up, down):  7.918E-01 0.000E+00

     total cpu time spent up to now is      543.0 secs

     total energy              =   -4440.29413882 Ry
     estimated scf accuracy    <       0.00001449 Ry

     iteration # 36     ecut=    60.00 Ry     beta= 0.15
     Davidson diagonalization with overlap

---- Real-time Memory Report at c_bands before calling an iterative solver
             0 MiB given to the printing process from OS
             0 MiB allocation reported by mallinfo(arena+hblkhd)
         50426 MiB available memory on the node where the printing process lives
------------------
     ethr =  3.37E-09,  avg # of iterations =  2.0

     negative rho (up, down):  7.919E-01 0.000E+00

     total cpu time spent up to now is      557.1 secs

     total energy              =   -4440.29413986 Ry
     estimated scf accuracy    <       0.00000803 Ry

     iteration # 37     ecut=    60.00 Ry     beta= 0.15
     Davidson diagonalization with overlap

---- Real-time Memory Report at c_bands before calling an iterative solver
             0 MiB given to the printing process from OS
             0 MiB allocation reported by mallinfo(arena+hblkhd)
         50442 MiB available memory on the node where the printing process lives
------------------
     ethr =  1.87E-09,  avg # of iterations =  1.5

     negative rho (up, down):  7.922E-01 0.000E+00

     total cpu time spent up to now is      570.7 secs

     total energy              =   -4440.29414118 Ry
     estimated scf accuracy    <       0.00000451 Ry

     iteration # 38     ecut=    60.00 Ry     beta= 0.15
     Davidson diagonalization with overlap

---- Real-time Memory Report at c_bands before calling an iterative solver
             0 MiB given to the printing process from OS
             0 MiB allocation reported by mallinfo(arena+hblkhd)
         50446 MiB available memory on the node where the printing process lives
------------------
     ethr =  1.05E-09,  avg # of iterations =  2.3

     negative rho (up, down):  7.924E-01 0.000E+00

     total cpu time spent up to now is      584.7 secs

     total energy              =   -4440.29414291 Ry
     estimated scf accuracy    <       0.00000226 Ry

     iteration # 39     ecut=    60.00 Ry     beta= 0.15
     Davidson diagonalization with overlap

---- Real-time Memory Report at c_bands before calling an iterative solver
             0 MiB given to the printing process from OS
             0 MiB allocation reported by mallinfo(arena+hblkhd)
         50445 MiB available memory on the node where the printing process lives
------------------
     ethr =  5.26E-10,  avg # of iterations =  3.7

     negative rho (up, down):  7.926E-01 0.000E+00

     total cpu time spent up to now is      599.5 secs

     total energy              =   -4440.29414366 Ry
     estimated scf accuracy    <       0.00000136 Ry

     iteration # 40     ecut=    60.00 Ry     beta= 0.15
     Davidson diagonalization with overlap

---- Real-time Memory Report at c_bands before calling an iterative solver
             0 MiB given to the printing process from OS
             0 MiB allocation reported by mallinfo(arena+hblkhd)
         50424 MiB available memory on the node where the printing process lives
------------------
     ethr =  3.15E-10,  avg # of iterations =  3.0

     negative rho (up, down):  7.926E-01 0.000E+00

     total cpu time spent up to now is      614.0 secs

     total energy              =   -4440.29414379 Ry
     estimated scf accuracy    <       0.00000112 Ry

     iteration # 41     ecut=    60.00 Ry     beta= 0.15
     Davidson diagonalization with overlap

---- Real-time Memory Report at c_bands before calling an iterative solver
             0 MiB given to the printing process from OS
             0 MiB allocation reported by mallinfo(arena+hblkhd)
         50441 MiB available memory on the node where the printing process lives
------------------
     ethr =  2.60E-10,  avg # of iterations =  1.2

     negative rho (up, down):  7.925E-01 0.000E+00

     total cpu time spent up to now is      627.2 secs

     total energy              =   -4440.29414382 Ry
     estimated scf accuracy    <       0.00000084 Ry

     iteration # 42     ecut=    60.00 Ry     beta= 0.15
     Davidson diagonalization with overlap

---- Real-time Memory Report at c_bands before calling an iterative solver
             0 MiB given to the printing process from OS
             0 MiB allocation reported by mallinfo(arena+hblkhd)
         50441 MiB available memory on the node where the printing process lives
------------------
     ethr =  1.96E-10,  avg # of iterations =  2.0

     negative rho (up, down):  7.925E-01 0.000E+00

     total cpu time spent up to now is      641.8 secs

     total energy              =   -4440.29414387 Ry
     estimated scf accuracy    <       0.00000050 Ry

     iteration # 43     ecut=    60.00 Ry     beta= 0.15
     Davidson diagonalization with overlap

---- Real-time Memory Report at c_bands before calling an iterative solver
             0 MiB given to the printing process from OS
             0 MiB allocation reported by mallinfo(arena+hblkhd)
         50436 MiB available memory on the node where the printing process lives
------------------
     ethr =  1.15E-10,  avg # of iterations =  2.0

     negative rho (up, down):  7.925E-01 0.000E+00

     total cpu time spent up to now is      656.4 secs

     total energy              =   -4440.29414391 Ry
     estimated scf accuracy    <       0.00000031 Ry

     iteration # 44     ecut=    60.00 Ry     beta= 0.15
     Davidson diagonalization with overlap

---- Real-time Memory Report at c_bands before calling an iterative solver
             0 MiB given to the printing process from OS
             0 MiB allocation reported by mallinfo(arena+hblkhd)
         50439 MiB available memory on the node where the printing process lives
------------------
     ethr =  7.24E-11,  avg # of iterations =  3.0

     negative rho (up, down):  7.925E-01 0.000E+00

     total cpu time spent up to now is      671.3 secs

     total energy              =   -4440.29414389 Ry
     estimated scf accuracy    <       0.00000018 Ry

     iteration # 45     ecut=    60.00 Ry     beta= 0.15
     Davidson diagonalization with overlap

---- Real-time Memory Report at c_bands before calling an iterative solver
             0 MiB given to the printing process from OS
             0 MiB allocation reported by mallinfo(arena+hblkhd)
         50440 MiB available memory on the node where the printing process lives
------------------
     ethr =  4.21E-11,  avg # of iterations =  2.0

     negative rho (up, down):  7.926E-01 0.000E+00

     total cpu time spent up to now is      685.3 secs

     total energy              =   -4440.29414385 Ry
     estimated scf accuracy    <       0.00000013 Ry

     iteration # 46     ecut=    60.00 Ry     beta= 0.15
     Davidson diagonalization with overlap

---- Real-time Memory Report at c_bands before calling an iterative solver
             0 MiB given to the printing process from OS
             0 MiB allocation reported by mallinfo(arena+hblkhd)
         50440 MiB available memory on the node where the printing process lives
------------------
     ethr =  2.98E-11,  avg # of iterations =  2.0

     negative rho (up, down):  7.926E-01 0.000E+00

     total cpu time spent up to now is      699.3 secs

     total energy              =   -4440.29414382 Ry
     estimated scf accuracy    <       0.00000006 Ry

     iteration # 47     ecut=    60.00 Ry     beta= 0.15
     Davidson diagonalization with overlap

---- Real-time Memory Report at c_bands before calling an iterative solver
             0 MiB given to the printing process from OS
             0 MiB allocation reported by mallinfo(arena+hblkhd)
         50443 MiB available memory on the node where the printing process lives
------------------
     ethr =  1.48E-11,  avg # of iterations =  2.2

     negative rho (up, down):  7.926E-01 0.000E+00

     total cpu time spent up to now is      713.5 secs

     total energy              =   -4440.29414383 Ry
     estimated scf accuracy    <       0.00000004 Ry

     iteration # 48     ecut=    60.00 Ry     beta= 0.15
     Davidson diagonalization with overlap

---- Real-time Memory Report at c_bands before calling an iterative solver
             0 MiB given to the printing process from OS
             0 MiB allocation reported by mallinfo(arena+hblkhd)
         50446 MiB available memory on the node where the printing process lives
------------------
     ethr =  8.52E-12,  avg # of iterations =  2.0

     negative rho (up, down):  7.926E-01 0.000E+00

     total cpu time spent up to now is      727.8 secs

     total energy              =   -4440.29414384 Ry
     estimated scf accuracy    <       0.00000002 Ry

     iteration # 49     ecut=    60.00 Ry     beta= 0.15
     Davidson diagonalization with overlap

---- Real-time Memory Report at c_bands before calling an iterative solver
             0 MiB given to the printing process from OS
             0 MiB allocation reported by mallinfo(arena+hblkhd)
         50446 MiB available memory on the node where the printing process lives
------------------
     ethr =  3.53E-12,  avg # of iterations =  2.0

     negative rho (up, down):  7.926E-01 0.000E+00

     total cpu time spent up to now is      741.8 secs

     total energy              =   -4440.29414384 Ry
     estimated scf accuracy    <       0.00000001 Ry

     iteration # 50     ecut=    60.00 Ry     beta= 0.15
     Davidson diagonalization with overlap

---- Real-time Memory Report at c_bands before calling an iterative solver
             0 MiB given to the printing process from OS
             0 MiB allocation reported by mallinfo(arena+hblkhd)
         50450 MiB available memory on the node where the printing process lives
------------------
     ethr =  2.45E-12,  avg # of iterations =  2.0

     negative rho (up, down):  7.926E-01 0.000E+00

     total cpu time spent up to now is      755.6 secs

     End of self-consistent calculation

          k = 0.0000 0.0000 0.0000 ( 65197 PWs)   bands (ev):

   -92.8582 -92.8060 -92.7121 -92.6653 -92.6065 -92.5645 -92.5477 -92.4244
   -56.2118 -56.1928 -56.0690 -56.0586 -56.0523 -56.0455 -56.0106 -55.9811
   -55.9666 -55.9642 -55.9556 -55.9140 -55.8957 -55.8576 -55.8387 -55.8064
   -55.8009 -55.7527 -55.7497 -55.7495 -55.7411 -55.6972 -55.6776 -55.5927
   -31.4231 -31.4027 -31.2620 -31.2503 -31.1742 -31.1647 -30.9110 -30.7887
   -30.0039 -29.9598 -29.9350 -29.8257 -15.2349 -15.1884 -15.1104 -14.9795
   -14.7846 -14.6597 -14.3718 -14.3514 -14.3226 -14.2774 -14.2289 -14.2186
   -14.2090 -14.1915 -14.1681 -14.1387 -14.0845 -13.9326 -13.7525 -13.7205
   -13.6900 -13.6589 -13.6411 -13.5834 -13.5521 -13.4656 -13.3979 -13.2824
   -13.2560 -13.2546 -13.2316 -13.2208 -13.2030 -13.1541 -13.1484 -13.1230
   -13.1024 -13.0704 -13.0682 -13.0481 -13.0429 -13.0240 -12.9146 -12.8890
   -12.8463 -12.7366 -12.7214 -12.6957 -12.4889 -12.3431 -12.1503 -12.0771
   -12.0166 -11.9709 -11.9429 -11.9320 -11.9083 -11.8909 -11.8274 -11.8103
   -11.7754 -11.7470 -11.6341 -11.5551 -11.5513  -3.0963  -2.8644  -2.6346
    -2.4878  -2.4250  -2.2832  -1.9758  -1.9616  -1.9424  -1.8575  -1.8374
    -1.7692  -1.7525  -1.7122  -1.6660  -1.4860  -1.2610  -1.2318  -1.0858
    -1.0713  -1.0241  -1.0066  -0.9597  -0.9429  -0.8888  -0.8622  -0.7886
    -0.7742  -0.7022  -0.5676  -0.5536  -0.5273  -0.4470  -0.4240  -0.4154
    -0.3477  -0.2824  -0.2342  -0.1831  -0.1564  -0.0880  -0.0108   0.0259
     0.0534   0.0678   0.3201   0.3350   0.5089   0.5721   0.6386   0.6952
     0.7745   0.7877   0.8074   0.8695   0.8963   0.9308   0.9878   1.1181
     1.1793   1.2005   1.2248   1.2334   1.2963   1.3653   1.4746   1.4887
     1.5530   1.5634   1.6072   1.6268   1.6334   1.6898   1.7473   1.7631
     1.8004   1.8422   1.8745   2.0063   2.0900   2.1309   2.1623   2.3023
     2.3205   2.3561   2.3588   2.4649   2.5027   2.5290   2.5482   2.5617
     2.6244   2.6319   2.6553   2.6832   2.7540   2.7849   2.7970   2.8025
     2.8700   2.8743   2.8980   2.9057   2.9159   2.9328   2.9351   2.9489
     2.9541   2.9681   2.9768   2.9880   3.0014   3.0220   3.0277   3.0396
     3.0684   3.1803   3.2869   3.9675   4.2788   4.6315   4.8405   4.8977
     5.7586   5.7866   5.8433   5.8908   6.1588   6.2058   6.4477   6.4586
     6.9582   6.9781   7.0841   7.1812   7.4180   7.5015   7.5633   7.5666
     7.5861   7.7856   7.8911   7.9963   8.0484   8.1267   8.2357   8.6447
     8.7689   8.9474

     occupation numbers 
     1.0000   1.0000   1.0000   1.0000   1.0000   1.0000   1.0000   1.0000
     1.0000   1.0000   1.0000   1.0000   1.0000   1.0000   1.0000   1.0000
     1.0000   1.0000   1.0000   1.0000   1.0000   1.0000   1.0000   1.0000
     1.0000   1.0000   1.0000   1.0000   1.0000   1.0000   1.0000   1.0000
     1.0000   1.0000   1.0000   1.0000   1.0000   1.0000   1.0000   1.0000
     1.0000   1.0000   1.0000   1.0000   1.0000   1.0000   1.0000   1.0000
     1.0000   1.0000   1.0000   1.0000   1.0000   1.0000   1.0000   1.0000
     1.0000   1.0000   1.0000   1.0000   1.0000   1.0000   1.0000   1.0000
     1.0000   1.0000   1.0000   1.0000   1.0000   1.0000   1.0000   1.0000
     1.0000   1.0000   1.0000   1.0000   1.0000   1.0000   1.0000   1.0000
     1.0000   1.0000   1.0000   1.0000   1.0000   1.0000   1.0000   1.0000
     1.0000   1.0000   1.0000   1.0000   1.0000   1.0000   1.0000   1.0000
     1.0000   1.0000   1.0000   1.0000   1.0000   1.0000   1.0000   1.0000
     1.0000   1.0000   1.0000   1.0000   1.0000   1.0000   1.0000   1.0000
     1.0000   1.0000   1.0000   1.0000   1.0000   1.0000   1.0000   1.0000
     1.0000   1.0000   1.0000   1.0000   1.0000   1.0000   1.0000   1.0000
     1.0000   1.0000   1.0000   1.0000   1.0000   1.0000   1.0000   1.0000
     1.0000   1.0000   1.0000   1.0000   1.0000   1.0000   1.0000   1.0000
     1.0000   1.0000   1.0000   1.0000   1.0000   1.0000   1.0000   1.0000
     1.0000   1.0000   1.0000   1.0000   1.0000   0.9999   0.9999   0.9999
     0.9998   0.9998   0.9998   0.9997   0.9996   0.9996   0.9994   0.9988
     0.9984   0.9983   0.9981   0.9980   0.9973   0.9963   0.9941   0.9937
     0.9918   0.9915   0.9899   0.9891   0.9888   0.9860   0.9827   0.9817
     0.9790   0.9757   0.9728   0.9581   0.9457   0.9387   0.9328   0.9013
     0.8965   0.8867   0.8860   0.8526   0.8393   0.8296   0.8223   0.8170
     0.7913   0.7881   0.7778   0.7653   0.7319   0.7165   0.7104   0.7076
     0.6723   0.6700   0.6571   0.6529   0.6473   0.6379   0.6366   0.6289
     0.6260   0.6181   0.6132   0.6068   0.5991   0.5873   0.5840   0.5771
     0.5603   0.4942   0.4314   0.1183   0.0499   0.0150   0.0066   0.0052
     0.0001   0.0001   0.0000   0.0000   0.0000   0.0000   0.0000   0.0000
     0.0000   0.0000   0.0000   0.0000   0.0000   0.0000   0.0000   0.0000
     0.0000   0.0000   0.0000   0.0000   0.0000   0.0000   0.0000   0.0000
     0.0000   0.0000

          k = 0.0000 0.2500 0.0000 ( 65257 PWs)   bands (ev):

   -92.8582 -92.8060 -92.7121 -92.6653 -92.6065 -92.5645 -92.5477 -92.4244
   -56.2118 -56.1928 -56.0690 -56.0586 -56.0523 -56.0455 -56.0106 -55.9811
   -55.9666 -55.9642 -55.9556 -55.9140 -55.8957 -55.8576 -55.8387 -55.8064
   -55.8009 -55.7527 -55.7497 -55.7495 -55.7411 -55.6972 -55.6776 -55.5927
   -31.4229 -31.4026 -31.2622 -31.2499 -31.1743 -31.1650 -30.9107 -30.7890
   -30.0033 -29.9595 -29.9357 -29.8261 -15.1985 -15.1620 -15.0851 -14.9504
   -14.8259 -14.6516 -14.5174 -14.3378 -14.3009 -14.2810 -14.2533 -14.1941
   -14.1884 -14.1720 -14.1532 -14.1072 -14.0027 -13.9630 -13.7980 -13.7788
   -13.7307 -13.6943 -13.6492 -13.6043 -13.5619 -13.4915 -13.4519 -13.3908
   -13.3188 -13.2926 -13.2551 -13.2448 -13.2106 -13.1398 -13.1168 -13.0866
   -13.0740 -13.0477 -13.0130 -12.9872 -12.9608 -12.9448 -12.8964 -12.8724
   -12.8259 -12.7345 -12.6444 -12.5821 -12.5502 -12.3943 -12.2064 -12.1419
   -11.9821 -11.9709 -11.9396 -11.9115 -11.8834 -11.8668 -11.8192 -11.8081
   -11.7856 -11.7513 -11.6486 -11.5966 -11.5860  -2.9609  -2.7401  -2.6020
    -2.4203  -2.3769  -2.2135  -1.9933  -1.9100  -1.8970  -1.8386  -1.7362
    -1.7195  -1.6843  -1.6585  -1.6144  -1.4172  -1.2886  -1.2770  -1.1997
    -1.1902  -1.0863  -1.0565  -0.9984  -0.9727  -0.9331  -0.8680  -0.8408
    -0.8097  -0.7766  -0.7595  -0.7280  -0.6527  -0.6030  -0.5334  -0.4221
    -0.4017  -0.3595  -0.2446  -0.2089  -0.1389  -0.0979  -0.0256  -0.0069
     0.0086   0.0668   0.3686   0.4550   0.4845   0.5775   0.6252   0.6534
     0.7588   0.7793   0.8719   0.8982   0.9219   1.0375   1.1337   1.1537
     1.1774   1.1991   1.2218   1.2804   1.3086   1.3352   1.3830   1.4216
     1.4504   1.5340   1.5691   1.6098   1.6584   1.7126   1.7589   1.7891
     1.8136   1.8290   1.9218   2.0388   2.1148   2.1427   2.2054   2.2542
     2.2939   2.3071   2.3635   2.3995   2.4815   2.5249   2.5388   2.6201
     2.6400   2.6761   2.7125   2.7376   2.7651   2.7871   2.8055   2.8125
     2.8194   2.8331   2.8587   2.8628   2.8810   2.8857   2.8936   2.9144
     2.9253   2.9312   2.9526   2.9644   2.9689   3.0029   3.0196   3.0833
     3.4525   3.5031   3.7318   4.1611   4.2766   4.5654   4.9164   5.0045
     5.5308   5.6549   5.8335   5.9163   5.9633   6.0033   6.0834   6.5632
     7.0214   7.0460   7.2015   7.2587   7.3656   7.4234   7.5209   7.5647
     7.7335   7.9093   8.0872   8.1504   8.2214   8.2959   8.3142   8.3786
     8.6445   8.8335

     occupation numbers 
     1.0000   1.0000   1.0000   1.0000   1.0000   1.0000   1.0000   1.0000
     1.0000   1.0000   1.0000   1.0000   1.0000   1.0000   1.0000   1.0000
     1.0000   1.0000   1.0000   1.0000   1.0000   1.0000   1.0000   1.0000
     1.0000   1.0000   1.0000   1.0000   1.0000   1.0000   1.0000   1.0000
     1.0000   1.0000   1.0000   1.0000   1.0000   1.0000   1.0000   1.0000
     1.0000   1.0000   1.0000   1.0000   1.0000   1.0000   1.0000   1.0000
     1.0000   1.0000   1.0000   1.0000   1.0000   1.0000   1.0000   1.0000
     1.0000   1.0000   1.0000   1.0000   1.0000   1.0000   1.0000   1.0000
     1.0000   1.0000   1.0000   1.0000   1.0000   1.0000   1.0000   1.0000
     1.0000   1.0000   1.0000   1.0000   1.0000   1.0000   1.0000   1.0000
     1.0000   1.0000   1.0000   1.0000   1.0000   1.0000   1.0000   1.0000
     1.0000   1.0000   1.0000   1.0000   1.0000   1.0000   1.0000   1.0000
     1.0000   1.0000   1.0000   1.0000   1.0000   1.0000   1.0000   1.0000
     1.0000   1.0000   1.0000   1.0000   1.0000   1.0000   1.0000   1.0000
     1.0000   1.0000   1.0000   1.0000   1.0000   1.0000   1.0000   1.0000
     1.0000   1.0000   1.0000   1.0000   1.0000   1.0000   1.0000   1.0000
     1.0000   1.0000   1.0000   1.0000   1.0000   1.0000   1.0000   1.0000
     1.0000   1.0000   1.0000   1.0000   1.0000   1.0000   1.0000   1.0000
     1.0000   1.0000   1.0000   1.0000   1.0000   1.0000   1.0000   1.0000
     1.0000   1.0000   1.0000   1.0000   1.0000   0.9999   0.9999   0.9999
     0.9998   0.9998   0.9997   0.9996   0.9996   0.9992   0.9988   0.9986
     0.9985   0.9983   0.9981   0.9975   0.9972   0.9968   0.9960   0.9953
     0.9947   0.9925   0.9913   0.9898   0.9876   0.9848   0.9820   0.9799
     0.9780   0.9768   0.9681   0.9536   0.9415   0.9365   0.9241   0.9132
     0.9035   0.9001   0.8846   0.8739   0.8469   0.8311   0.8259   0.7931
     0.7846   0.7686   0.7518   0.7398   0.7264   0.7154   0.7061   0.7025
     0.6989   0.6918   0.6783   0.6761   0.6664   0.6638   0.6595   0.6481
     0.6421   0.6388   0.6268   0.6202   0.6177   0.5983   0.5886   0.5515
     0.3377   0.3107   0.2023   0.0706   0.0502   0.0192   0.0048   0.0032
     0.0002   0.0001   0.0000   0.0000   0.0000   0.0000   0.0000   0.0000
     0.0000   0.0000   0.0000   0.0000   0.0000   0.0000   0.0000   0.0000
     0.0000   0.0000   0.0000   0.0000   0.0000   0.0000   0.0000   0.0000
     0.0000   0.0000

          k = 0.0000-0.5000 0.0000 ( 65180 PWs)   bands (ev):

   -92.8582 -92.8060 -92.7121 -92.6653 -92.6065 -92.5645 -92.5477 -92.4244
   -56.2118 -56.1928 -56.0690 -56.0586 -56.0523 -56.0455 -56.0106 -55.9811
   -55.9666 -55.9642 -55.9556 -55.9140 -55.8957 -55.8576 -55.8387 -55.8064
   -55.8009 -55.7527 -55.7497 -55.7495 -55.7411 -55.6972 -55.6776 -55.5927
   -31.4227 -31.4024 -31.2624 -31.2496 -31.1745 -31.1654 -30.9105 -30.7893
   -30.0027 -29.9592 -29.9363 -29.8264 -15.1623 -15.1138 -15.0594 -14.9315
   -14.8491 -14.7111 -14.5560 -14.4315 -14.3101 -14.2391 -14.1954 -14.1905
   -14.1375 -14.1224 -14.0744 -14.0513 -14.0282 -13.9919 -13.9536 -13.9144
   -13.7362 -13.6774 -13.6551 -13.6079 -13.5626 -13.5090 -13.4593 -13.4272
   -13.4041 -13.3621 -13.2564 -13.2460 -13.1899 -13.1516 -13.1123 -13.0935
   -13.0739 -13.0286 -12.9686 -12.9521 -12.8971 -12.8589 -12.8520 -12.8061
   -12.7984 -12.7366 -12.6610 -12.5182 -12.4694 -12.3957 -12.3106 -12.2638
   -11.9711 -11.9365 -11.9337 -11.9062 -11.8696 -11.8351 -11.8240 -11.7811
   -11.7772 -11.7324 -11.6706 -11.6571 -11.6430  -2.7466  -2.6865  -2.5369
    -2.4652  -2.1831  -2.0984  -1.9726  -1.8356  -1.7977  -1.7785  -1.6986
    -1.6683  -1.5863  -1.5509  -1.4731  -1.4333  -1.3955  -1.3682  -1.3075
    -1.2730  -1.2247  -1.1902  -1.1571  -1.1223  -1.0134  -0.9687  -0.9324
    -0.9310  -0.8449  -0.8119  -0.7909  -0.7386  -0.6546  -0.5821  -0.4966
    -0.4696  -0.3631  -0.3170  -0.1830  -0.1379  -0.1193  -0.0461   0.0773
     0.1141   0.2374   0.3074   0.3142   0.4413   0.4947   0.6230   0.7207
     0.8318   0.8614   0.9002   0.9066   0.9518   0.9621   0.9955   1.0145
     1.0221   1.1338   1.1968   1.2276   1.2527   1.5133   1.5453   1.5675
     1.6666   1.6977   1.7168   1.7321   1.7583   1.7739   1.7970   1.8211
     1.8495   1.8823   1.9146   1.9193   1.9469   2.0004   2.0842   2.1141
     2.3037   2.4473   2.4577   2.4731   2.5136   2.5192   2.5263   2.5763
     2.5894   2.6193   2.6247   2.6458   2.6586   2.6937   2.7504   2.7598
     2.8242   2.8416   2.8539   2.8579   2.8752   2.8860   2.8887   2.8922
     2.8947   2.9096   2.9229   2.9288   2.9879   2.9946   3.0093   3.0627
     3.9934   4.0141   4.0279   4.1130   4.6045   4.7533   4.9304   5.0198
     5.3099   5.3768   5.5130   5.5998   5.8772   5.9027   6.2393   6.6125
     6.8104   6.9052   7.1602   7.3233   7.5554   7.6088   7.6866   7.7066
     7.7969   7.9305   8.0709   8.1477   8.2037   8.3680   8.5188   8.5477
     8.7089   8.7513

     occupation numbers 
     1.0000   1.0000   1.0000   1.0000   1.0000   1.0000   1.0000   1.0000
     1.0000   1.0000   1.0000   1.0000   1.0000   1.0000   1.0000   1.0000
     1.0000   1.0000   1.0000   1.0000   1.0000   1.0000   1.0000   1.0000
     1.0000   1.0000   1.0000   1.0000   1.0000   1.0000   1.0000   1.0000
     1.0000   1.0000   1.0000   1.0000   1.0000   1.0000   1.0000   1.0000
     1.0000   1.0000   1.0000   1.0000   1.0000   1.0000   1.0000   1.0000
     1.0000   1.0000   1.0000   1.0000   1.0000   1.0000   1.0000   1.0000
     1.0000   1.0000   1.0000   1.0000   1.0000   1.0000   1.0000   1.0000
     1.0000   1.0000   1.0000   1.0000   1.0000   1.0000   1.0000   1.0000
     1.0000   1.0000   1.0000   1.0000   1.0000   1.0000   1.0000   1.0000
     1.0000   1.0000   1.0000   1.0000   1.0000   1.0000   1.0000   1.0000
     1.0000   1.0000   1.0000   1.0000   1.0000   1.0000   1.0000   1.0000
     1.0000   1.0000   1.0000   1.0000   1.0000   1.0000   1.0000   1.0000
     1.0000   1.0000   1.0000   1.0000   1.0000   1.0000   1.0000   1.0000
     1.0000   1.0000   1.0000   1.0000   1.0000   1.0000   1.0000   1.0000
     1.0000   1.0000   1.0000   1.0000   1.0000   1.0000   1.0000   1.0000
     1.0000   1.0000   1.0000   1.0000   1.0000   1.0000   1.0000   1.0000
     1.0000   1.0000   1.0000   1.0000   1.0000   1.0000   1.0000   1.0000
     1.0000   1.0000   1.0000   1.0000   1.0000   1.0000   1.0000   1.0000
     1.0000   1.0000   1.0000   1.0000   1.0000   1.0000   0.9999   0.9999
     0.9997   0.9997   0.9996   0.9996   0.9995   0.9995   0.9994   0.9993
     0.9993   0.9988   0.9983   0.9980   0.9978   0.9931   0.9921   0.9914
     0.9872   0.9856   0.9846   0.9837   0.9820   0.9810   0.9793   0.9774
     0.9751   0.9721   0.9689   0.9684   0.9654   0.9588   0.9466   0.9416
     0.9010   0.8586   0.8551   0.8498   0.8353   0.8333   0.8306   0.8112
     0.8059   0.7935   0.7912   0.7820   0.7764   0.7605   0.7336   0.7290
     0.6964   0.6873   0.6809   0.6787   0.6695   0.6637   0.6622   0.6603
     0.6589   0.6508   0.6434   0.6401   0.6068   0.6030   0.5946   0.5636
     0.1109   0.1052   0.1015   0.0808   0.0166   0.0094   0.0045   0.0030
     0.0007   0.0005   0.0003   0.0002   0.0000   0.0000   0.0000   0.0000
     0.0000   0.0000   0.0000   0.0000   0.0000   0.0000   0.0000   0.0000
     0.0000   0.0000   0.0000   0.0000   0.0000   0.0000   0.0000   0.0000
     0.0000   0.0000

          k = 0.2500 0.2500 0.0000 ( 65198 PWs)   bands (ev):

   -92.8582 -92.8060 -92.7121 -92.6653 -92.6065 -92.5645 -92.5477 -92.4244
   -56.2118 -56.1928 -56.0690 -56.0586 -56.0523 -56.0455 -56.0106 -55.9811
   -55.9666 -55.9642 -55.9556 -55.9140 -55.8957 -55.8576 -55.8387 -55.8064
   -55.8009 -55.7527 -55.7497 -55.7495 -55.7411 -55.6972 -55.6776 -55.5927
   -31.4213 -31.4042 -31.2618 -31.2499 -31.1747 -31.1649 -30.9108 -30.7891
   -30.0023 -29.9604 -29.9353 -29.8265 -15.1696 -15.1269 -15.0572 -14.9401
   -14.8190 -14.6926 -14.6236 -14.4155 -14.2610 -14.2466 -14.2111 -14.1819
   -14.1592 -14.1286 -14.0991 -14.0719 -13.9936 -13.9766 -13.8150 -13.8003
   -13.7724 -13.7509 -13.6976 -13.6615 -13.5968 -13.5749 -13.4406 -13.3969
   -13.3739 -13.2880 -13.2480 -13.2057 -13.1868 -13.1638 -13.1334 -13.0943
   -13.0885 -13.0631 -13.0124 -12.9660 -12.8908 -12.8691 -12.8595 -12.8478
   -12.7999 -12.7352 -12.6095 -12.5986 -12.4996 -12.4234 -12.2336 -12.1882
   -11.9710 -11.9544 -11.9229 -11.9118 -11.9052 -11.8421 -11.8077 -11.8009
   -11.7654 -11.7581 -11.6652 -11.6248 -11.6074  -2.8226  -2.6142  -2.4958
    -2.4019  -2.2814  -2.2166  -2.0179  -1.8746  -1.8556  -1.8254  -1.7311
    -1.6949  -1.6021  -1.5738  -1.5239  -1.3934  -1.3445  -1.2717  -1.2273
    -1.1827  -1.1598  -1.1358  -1.0930  -1.0778  -0.9866  -0.9366  -0.8702
    -0.8207  -0.7907  -0.7424  -0.7259  -0.6634  -0.6152  -0.5561  -0.5221
    -0.4358  -0.3841  -0.3543  -0.3175  -0.2610  -0.1853  -0.1493  -0.1191
    -0.0400   0.0038   0.2563   0.4039   0.4382   0.4992   0.5395   0.6171
     0.6673   0.7170   0.7521   1.0236   1.0873   1.1609   1.1849   1.2370
     1.2660   1.3012   1.3379   1.3555   1.3821   1.4286   1.4367   1.4509
     1.4984   1.5411   1.5752   1.6339   1.6794   1.6820   1.7234   1.7545
     1.8140   1.8448   1.9625   2.0238   2.0559   2.0804   2.1564   2.2187
     2.2429   2.2770   2.3035   2.3176   2.4280   2.4632   2.5512   2.6204
     2.6429   2.6823   2.7217   2.7386   2.7440   2.7609   2.7750   2.7883
     2.8014   2.8083   2.8203   2.8331   2.8457   2.8643   2.8715   2.8820
     2.9044   2.9157   2.9234   2.9563   3.2557   3.3507   3.3947   3.4692
     3.5061   3.7143   3.8002   4.1607   4.3710   4.5768   4.8346   5.1431
     5.5211   5.5796   5.6200   5.6837   5.7461   6.0748   6.1240   6.1724
     6.8511   7.0709   7.1430   7.3584   7.4728   7.5015   7.6114   7.7786
     7.8511   7.9551   8.1732   8.2232   8.3439   8.3551   8.4170   8.4593
     8.5362   8.7412

     occupation numbers 
     1.0000   1.0000   1.0000   1.0000   1.0000   1.0000   1.0000   1.0000
     1.0000   1.0000   1.0000   1.0000   1.0000   1.0000   1.0000   1.0000
     1.0000   1.0000   1.0000   1.0000   1.0000   1.0000   1.0000   1.0000
     1.0000   1.0000   1.0000   1.0000   1.0000   1.0000   1.0000   1.0000
     1.0000   1.0000   1.0000   1.0000   1.0000   1.0000   1.0000   1.0000
     1.0000   1.0000   1.0000   1.0000   1.0000   1.0000   1.0000   1.0000
     1.0000   1.0000   1.0000   1.0000   1.0000   1.0000   1.0000   1.0000
     1.0000   1.0000   1.0000   1.0000   1.0000   1.0000   1.0000   1.0000
     1.0000   1.0000   1.0000   1.0000   1.0000   1.0000   1.0000   1.0000
     1.0000   1.0000   1.0000   1.0000   1.0000   1.0000   1.0000   1.0000
     1.0000   1.0000   1.0000   1.0000   1.0000   1.0000   1.0000   1.0000
     1.0000   1.0000   1.0000   1.0000   1.0000   1.0000   1.0000   1.0000
     1.0000   1.0000   1.0000   1.0000   1.0000   1.0000   1.0000   1.0000
     1.0000   1.0000   1.0000   1.0000   1.0000   1.0000   1.0000   1.0000
     1.0000   1.0000   1.0000   1.0000   1.0000   1.0000   1.0000   1.0000
     1.0000   1.0000   1.0000   1.0000   1.0000   1.0000   1.0000   1.0000
     1.0000   1.0000   1.0000   1.0000   1.0000   1.0000   1.0000   1.0000
     1.0000   1.0000   1.0000   1.0000   1.0000   1.0000   1.0000   1.0000
     1.0000   1.0000   1.0000   1.0000   1.0000   1.0000   1.0000   1.0000
     1.0000   1.0000   1.0000   1.0000   1.0000   1.0000   1.0000   0.9999
     0.9999   0.9999   0.9998   0.9993   0.9990   0.9986   0.9984   0.9980
     0.9977   0.9972   0.9967   0.9965   0.9960   0.9952   0.9950   0.9947
     0.9935   0.9922   0.9911   0.9887   0.9866   0.9865   0.9842   0.9823
     0.9780   0.9755   0.9636   0.9557   0.9510   0.9472   0.9339   0.9212
     0.9158   0.9077   0.9010   0.8973   0.8649   0.8532   0.8211   0.7930
     0.7833   0.7657   0.7474   0.7393   0.7367   0.7285   0.7215   0.7148
     0.7082   0.7046   0.6985   0.6918   0.6852   0.6753   0.6715   0.6658
     0.6536   0.6474   0.6432   0.6248   0.4496   0.3945   0.3696   0.3287
     0.3091   0.2097   0.1749   0.0707   0.0373   0.0184   0.0067   0.0017
     0.0002   0.0002   0.0001   0.0001   0.0001   0.0000   0.0000   0.0000
     0.0000   0.0000   0.0000   0.0000   0.0000   0.0000   0.0000   0.0000
     0.0000   0.0000   0.0000   0.0000   0.0000   0.0000   0.0000   0.0000
     0.0000   0.0000

          k = 0.2500-0.5000 0.0000 ( 65138 PWs)   bands (ev):

   -92.8582 -92.8060 -92.7121 -92.6653 -92.6065 -92.5645 -92.5477 -92.4244
   -56.2118 -56.1928 -56.0690 -56.0586 -56.0523 -56.0455 -56.0106 -55.9811
   -55.9666 -55.9642 -55.9556 -55.9140 -55.8957 -55.8576 -55.8387 -55.8064
   -55.8009 -55.7527 -55.7497 -55.7495 -55.7411 -55.6972 -55.6776 -55.5927
   -31.4211 -31.4040 -31.2620 -31.2495 -31.1748 -31.1653 -30.9106 -30.7894
   -30.0017 -29.9601 -29.9359 -29.8268 -15.1314 -15.0868 -15.0160 -14.9020
   -14.8717 -14.7518 -14.6603 -14.5300 -14.2260 -14.1721 -14.1463 -14.1230
   -14.1083 -14.0946 -14.0588 -14.0401 -14.0084 -13.9693 -13.9440 -13.9062
   -13.8177 -13.7682 -13.7144 -13.6887 -13.6205 -13.6084 -13.4973 -13.4505
   -13.3523 -13.2876 -13.2684 -13.1879 -13.1621 -13.1429 -13.1284 -13.1051
   -13.0872 -13.0577 -12.9707 -12.9472 -12.8945 -12.8751 -12.8188 -12.8022
   -12.7720 -12.7399 -12.6675 -12.4978 -12.4667 -12.3709 -12.2999 -12.2681
   -11.9710 -11.9302 -11.9180 -11.9072 -11.8802 -11.8486 -11.8204 -11.7788
   -11.7513 -11.7292 -11.6835 -11.6584 -11.6471  -2.6046  -2.5380  -2.4105
    -2.3338  -2.2034  -2.1181  -1.9969  -1.8467  -1.7927  -1.7706  -1.7070
    -1.6943  -1.5972  -1.5302  -1.4458  -1.3948  -1.3855  -1.3231  -1.2787
    -1.2459  -1.1986  -1.1611  -1.1264  -1.0867  -1.0749  -1.0296  -0.9997
    -0.9583  -0.9269  -0.8597  -0.7575  -0.7151  -0.6387  -0.5735  -0.5240
    -0.4819  -0.4614  -0.4083  -0.2462  -0.2349  -0.1268  -0.0946  -0.0832
    -0.0374  -0.0110   0.0338   0.0550   0.1208   0.3968   0.4931   0.5870
     0.6388   0.8836   0.9112   0.9963   1.0217   1.1843   1.2201   1.2613
     1.2812   1.2974   1.3177   1.3812   1.4292   1.4632   1.5499   1.6356
     1.6774   1.6965   1.7084   1.7428   1.7571   1.7599   1.8096   1.8186
     1.8388   1.8826   1.8917   1.9065   1.9450   2.0009   2.0378   2.1191
     2.2605   2.3993   2.4168   2.4352   2.4643   2.4877   2.5147   2.5356
     2.5474   2.5711   2.6209   2.6363   2.6577   2.7006   2.7248   2.7401
     2.7521   2.7593   2.7781   2.7921   2.8110   2.8189   2.8513   2.8643
     2.8769   2.8892   2.8983   2.9076   3.4398   3.4512   3.5873   3.6376
     3.9993   4.0326   4.0532   4.1672   4.6216   4.7747   4.9506   4.9852
     5.1595   5.3226   5.5261   5.5432   5.6512   5.6870   6.3249   6.3604
     6.4592   6.7175   7.2347   7.6056   7.6753   7.7128   7.7436   7.8096
     7.8705   7.9470   8.1113   8.3196   8.4071   8.4340   8.5675   8.6075
     8.6563   8.6785

     occupation numbers 
     1.0000   1.0000   1.0000   1.0000   1.0000   1.0000   1.0000   1.0000
     1.0000   1.0000   1.0000   1.0000   1.0000   1.0000   1.0000   1.0000
     1.0000   1.0000   1.0000   1.0000   1.0000   1.0000   1.0000   1.0000
     1.0000   1.0000   1.0000   1.0000   1.0000   1.0000   1.0000   1.0000
     1.0000   1.0000   1.0000   1.0000   1.0000   1.0000   1.0000   1.0000
     1.0000   1.0000   1.0000   1.0000   1.0000   1.0000   1.0000   1.0000
     1.0000   1.0000   1.0000   1.0000   1.0000   1.0000   1.0000   1.0000
     1.0000   1.0000   1.0000   1.0000   1.0000   1.0000   1.0000   1.0000
     1.0000   1.0000   1.0000   1.0000   1.0000   1.0000   1.0000   1.0000
     1.0000   1.0000   1.0000   1.0000   1.0000   1.0000   1.0000   1.0000
     1.0000   1.0000   1.0000   1.0000   1.0000   1.0000   1.0000   1.0000
     1.0000   1.0000   1.0000   1.0000   1.0000   1.0000   1.0000   1.0000
     1.0000   1.0000   1.0000   1.0000   1.0000   1.0000   1.0000   1.0000
     1.0000   1.0000   1.0000   1.0000   1.0000   1.0000   1.0000   1.0000
     1.0000   1.0000   1.0000   1.0000   1.0000   1.0000   1.0000   1.0000
     1.0000   1.0000   1.0000   1.0000   1.0000   1.0000   1.0000   1.0000
     1.0000   1.0000   1.0000   1.0000   1.0000   1.0000   1.0000   1.0000
     1.0000   1.0000   1.0000   1.0000   1.0000   1.0000   1.0000   1.0000
     1.0000   1.0000   1.0000   1.0000   1.0000   1.0000   1.0000   1.0000
     1.0000   1.0000   1.0000   1.0000   1.0000   1.0000   1.0000   0.9999
     0.9999   0.9997   0.9996   0.9994   0.9993   0.9984   0.9981   0.9977
     0.9975   0.9973   0.9970   0.9961   0.9951   0.9944   0.9919   0.9887
     0.9867   0.9857   0.9850   0.9830   0.9821   0.9819   0.9783   0.9776
     0.9760   0.9721   0.9712   0.9697   0.9656   0.9588   0.9537   0.9408
     0.9117   0.8739   0.8685   0.8625   0.8528   0.8447   0.8349   0.8271
     0.8226   0.8133   0.7928   0.7862   0.7768   0.7574   0.7460   0.7386
     0.7328   0.7293   0.7199   0.7129   0.7032   0.6992   0.6822   0.6753
     0.6686   0.6619   0.6570   0.6519   0.3446   0.3384   0.2680   0.2440
     0.1092   0.1003   0.0950   0.0694   0.0156   0.0086   0.0041   0.0035
     0.0016   0.0007   0.0002   0.0002   0.0001   0.0001   0.0000   0.0000
     0.0000   0.0000   0.0000   0.0000   0.0000   0.0000   0.0000   0.0000
     0.0000   0.0000   0.0000   0.0000   0.0000   0.0000   0.0000   0.0000
     0.0000   0.0000

          k =-0.5000-0.5000 0.0000 ( 65132 PWs)   bands (ev):

   -92.8582 -92.8060 -92.7121 -92.6653 -92.6065 -92.5645 -92.5477 -92.4244
   -56.2118 -56.1928 -56.0690 -56.0586 -56.0523 -56.0455 -56.0106 -55.9811
   -55.9666 -55.9642 -55.9556 -55.9140 -55.8957 -55.8576 -55.8387 -55.8064
   -55.8009 -55.7527 -55.7497 -55.7495 -55.7411 -55.6972 -55.6776 -55.5927
   -31.4192 -31.4060 -31.2617 -31.2494 -31.1752 -31.1652 -30.9107 -30.7895
   -30.0007 -29.9611 -29.9355 -29.8272 -15.0839 -15.0599 -14.9421 -14.9284
   -14.8349 -14.7982 -14.7652 -14.6305 -14.1371 -14.1239 -14.0905 -14.0729
   -14.0536 -14.0384 -14.0126 -13.9992 -13.9874 -13.9777 -13.9634 -13.8853
   -13.8752 -13.8496 -13.8113 -13.7985 -13.7045 -13.6760 -13.5359 -13.4885
   -13.3020 -13.2669 -13.1967 -13.1718 -13.1528 -13.1405 -13.1300 -13.1205
   -13.1041 -13.0893 -12.9739 -12.9355 -12.9004 -12.8785 -12.8369 -12.7596
   -12.7479 -12.7365 -12.6838 -12.4790 -12.4626 -12.3441 -12.2865 -12.2773
   -11.9710 -11.9265 -11.9146 -11.8967 -11.8798 -11.8448 -11.8264 -11.7929
   -11.7313 -11.7119 -11.7058 -11.6561 -11.6528  -2.3800  -2.3050  -2.2944
    -2.2202  -2.1838  -2.1060  -2.0382  -1.9119  -1.7973  -1.7670  -1.7272
    -1.6701  -1.5986  -1.5838  -1.5134  -1.4701  -1.3532  -1.3227  -1.2753
    -1.2479  -1.1835  -1.1358  -1.1179  -1.1046  -1.0509  -1.0080  -0.9917
    -0.8789  -0.8203  -0.7739  -0.7251  -0.6954  -0.6845  -0.6503  -0.6058
    -0.5713  -0.5628  -0.4750  -0.4103  -0.3649  -0.3379  -0.2650  -0.2070
    -0.1878  -0.1348  -0.1034  -0.0962  -0.0697   0.3704   0.4120   0.5306
     0.5675   0.9167   0.9300   0.9610   1.0013   1.2714   1.2912   1.2979
     1.3373   1.4628   1.5585   1.5852   1.6215   1.6442   1.6712   1.6770
     1.7065   1.7186   1.7367   1.7485   1.7959   1.7972   1.8274   1.8551
     1.8664   1.8811   1.9190   1.9413   1.9604   1.9884   2.0221   2.0778
     2.1454   2.4107   2.4429   2.4635   2.4817   2.4880   2.5220   2.5256
     2.5448   2.5556   2.5705   2.5887   2.6059   2.6233   2.6351   2.6564
     2.6764   2.6830   2.7016   2.7209   2.7338   2.7468   2.7549   2.7645
     2.8602   2.8649   2.8964   2.9059   3.8818   3.9023   3.9208   3.9278
     4.1658   4.2452   4.2625   4.5032   4.6257   4.7084   4.8410   4.9425
     4.9639   5.0515   5.1909   5.2657   5.8160   5.8691   5.9077   6.0223
     6.4746   6.8756   6.9377   7.4725   7.8606   7.8704   7.9500   8.0798
     8.1207   8.1558   8.2055   8.2490   8.3091   8.4753   8.5130   8.5234
     8.5507   8.6262

     occupation numbers 
     1.0000   1.0000   1.0000   1.0000   1.0000   1.0000   1.0000   1.0000
     1.0000   1.0000   1.0000   1.0000   1.0000   1.0000   1.0000   1.0000
     1.0000   1.0000   1.0000   1.0000   1.0000   1.0000   1.0000   1.0000
     1.0000   1.0000   1.0000   1.0000   1.0000   1.0000   1.0000   1.0000
     1.0000   1.0000   1.0000   1.0000   1.0000   1.0000   1.0000   1.0000
     1.0000   1.0000   1.0000   1.0000   1.0000   1.0000   1.0000   1.0000
     1.0000   1.0000   1.0000   1.0000   1.0000   1.0000   1.0000   1.0000
     1.0000   1.0000   1.0000   1.0000   1.0000   1.0000   1.0000   1.0000
     1.0000   1.0000   1.0000   1.0000   1.0000   1.0000   1.0000   1.0000
     1.0000   1.0000   1.0000   1.0000   1.0000   1.0000   1.0000   1.0000
     1.0000   1.0000   1.0000   1.0000   1.0000   1.0000   1.0000   1.0000
     1.0000   1.0000   1.0000   1.0000   1.0000   1.0000   1.0000   1.0000
     1.0000   1.0000   1.0000   1.0000   1.0000   1.0000   1.0000   1.0000
     1.0000   1.0000   1.0000   1.0000   1.0000   1.0000   1.0000   1.0000
     1.0000   1.0000   1.0000   1.0000   1.0000   1.0000   1.0000   1.0000
     1.0000   1.0000   1.0000   1.0000   1.0000   1.0000   1.0000   1.0000
     1.0000   1.0000   1.0000   1.0000   1.0000   1.0000   1.0000   1.0000
     1.0000   1.0000   1.0000   1.0000   1.0000   1.0000   1.0000   1.0000
     1.0000   1.0000   1.0000   1.0000   1.0000   1.0000   1.0000   1.0000
     1.0000   1.0000   1.0000   1.0000   1.0000   1.0000   1.0000   1.0000
     0.9999   0.9996   0.9996   0.9995   0.9994   0.9976   0.9974   0.9973
     0.9968   0.9944   0.9917   0.9907   0.9893   0.9883   0.9870   0.9867
     0.9851   0.9845   0.9834   0.9826   0.9794   0.9793   0.9769   0.9746
     0.9736   0.9722   0.9684   0.9660   0.9638   0.9604   0.9559   0.9477
     0.9360   0.8704   0.8600   0.8531   0.8468   0.8446   0.8322   0.8309
     0.8236   0.8194   0.8135   0.8062   0.7991   0.7918   0.7867   0.7774
     0.7684   0.7654   0.7569   0.7478   0.7417   0.7354   0.7314   0.7267
     0.6775   0.6750   0.6580   0.6528   0.1454   0.1386   0.1326   0.1304
     0.0697   0.0553   0.0525   0.0239   0.0154   0.0112   0.0066   0.0043
[...]
     0.6340   0.6204   0.6183   0.6146   0.6099   0.6049   0.5991   0.5250
     0.3455   0.3135   0.2043   0.0758   0.0444   0.0206   0.0049   0.0032
     0.0002   0.0001   0.0000   0.0000   0.0000   0.0000   0.0000   0.0000
     0.0000   0.0000   0.0000   0.0000   0.0000   0.0000   0.0000   0.0000
     0.0000   0.0000   0.0000   0.0000   0.0000   0.0000   0.0000   0.0000
     0.0000   0.0000

          k =-0.5000 0.0000 0.0000 ( 65180 PWs)   bands (ev):

   -92.8582 -92.8060 -92.7121 -92.6653 -92.6065 -92.5645 -92.5477 -92.4244
   -56.2118 -56.1928 -56.0690 -56.0586 -56.0523 -56.0455 -56.0106 -55.9811
   -55.9666 -55.9642 -55.9556 -55.9140 -55.8957 -55.8576 -55.8387 -55.8064
   -55.8009 -55.7527 -55.7497 -55.7495 -55.7411 -55.6972 -55.6776 -55.5927
   -31.4195 -31.4063 -31.2613 -31.2501 -31.1749 -31.1645 -30.9112 -30.7889
   -30.0019 -29.9618 -29.9343 -29.8266 -15.1680 -15.1141 -15.0523 -14.9466
   -14.8410 -14.6978 -14.5458 -14.4117 -14.2848 -14.2728 -14.2613 -14.1962
   -14.1415 -14.1095 -14.0606 -14.0572 -14.0381 -13.9886 -13.9755 -13.8606
   -13.7071 -13.6779 -13.6464 -13.6400 -13.5784 -13.5148 -13.4369 -13.4120
   -13.3881 -13.3669 -13.2328 -13.2002 -13.1874 -13.1653 -13.1550 -13.1124
   -13.0918 -13.0729 -13.0495 -13.0372 -12.8478 -12.7873 -12.7781 -12.7412
   -12.7349 -12.7104 -12.6871 -12.6029 -12.4831 -12.4730 -12.2823 -12.2385
   -11.9708 -11.9341 -11.9119 -11.9057 -11.8902 -11.8723 -11.8309 -11.7689
   -11.7517 -11.7190 -11.6725 -11.6633 -11.6483  -2.7362  -2.6980  -2.5344
    -2.4956  -2.1811  -2.1062  -1.9577  -1.8415  -1.8022  -1.7551  -1.7079
    -1.6840  -1.5600  -1.5162  -1.4994  -1.4175  -1.3831  -1.3651  -1.3358
    -1.2771  -1.2089  -1.1802  -1.1505  -1.0560  -1.0088  -0.9590  -0.9265
    -0.9054  -0.8750  -0.8273  -0.8027  -0.7632  -0.6640  -0.5885  -0.5243
    -0.4629  -0.2961  -0.2526  -0.2099  -0.1732  -0.1106  -0.0970   0.0457
     0.0752   0.1329   0.2857   0.3852   0.4319   0.5320   0.5964   0.7137
     0.7242   0.8548   0.8778   0.9326   0.9651   1.0026   1.0097   1.0548
     1.0801   1.1475   1.1977   1.2445   1.2526   1.5559   1.5600   1.5826
     1.5973   1.7033   1.7205   1.7345   1.7439   1.7731   1.7852   1.8260
     1.8470   1.8740   1.9232   1.9427   1.9904   2.0209   2.0677   2.1910
     2.2806   2.3477   2.3616   2.4416   2.4707   2.4950   2.5641   2.5735
     2.5839   2.6135   2.6266   2.6334   2.6643   2.7102   2.7317   2.7773
     2.8019   2.8460   2.8493   2.8551   2.8621   2.8820   2.8890   2.9029
     2.9100   2.9293   2.9357   2.9535   2.9737   2.9785   3.1096   3.1189
     3.9580   3.9775   4.0356   4.1837   4.6418   4.7198   4.9118   4.9428
     5.3944   5.4263   5.5083   5.5294   5.8842   5.8849   6.2204   6.6426
     6.7474   6.9647   7.2149   7.2756   7.5794   7.6353   7.6482   7.7064
     7.7847   7.8458   8.0477   8.1071   8.2625   8.3888   8.5091   8.6563
     8.6629   8.7572

     occupation numbers 
     1.0000   1.0000   1.0000   1.0000   1.0000   1.0000   1.0000   1.0000
     1.0000   1.0000   1.0000   1.0000   1.0000   1.0000   1.0000   1.0000
     1.0000   1.0000   1.0000   1.0000   1.0000   1.0000   1.0000   1.0000
     1.0000   1.0000   1.0000   1.0000   1.0000   1.0000   1.0000   1.0000
     1.0000   1.0000   1.0000   1.0000   1.0000   1.0000   1.0000   1.0000
     1.0000   1.0000   1.0000   1.0000   1.0000   1.0000   1.0000   1.0000
     1.0000   1.0000   1.0000   1.0000   1.0000   1.0000   1.0000   1.0000
     1.0000   1.0000   1.0000   1.0000   1.0000   1.0000   1.0000   1.0000
     1.0000   1.0000   1.0000   1.0000   1.0000   1.0000   1.0000   1.0000
     1.0000   1.0000   1.0000   1.0000   1.0000   1.0000   1.0000   1.0000
     1.0000   1.0000   1.0000   1.0000   1.0000   1.0000   1.0000   1.0000
     1.0000   1.0000   1.0000   1.0000   1.0000   1.0000   1.0000   1.0000
     1.0000   1.0000   1.0000   1.0000   1.0000   1.0000   1.0000   1.0000
     1.0000   1.0000   1.0000   1.0000   1.0000   1.0000   1.0000   1.0000
     1.0000   1.0000   1.0000   1.0000   1.0000   1.0000   1.0000   1.0000
     1.0000   1.0000   1.0000   1.0000   1.0000   1.0000   1.0000   1.0000
     1.0000   1.0000   1.0000   1.0000   1.0000   1.0000   1.0000   1.0000
     1.0000   1.0000   1.0000   1.0000   1.0000   1.0000   1.0000   1.0000
     1.0000   1.0000   1.0000   1.0000   1.0000   1.0000   1.0000   1.0000
     1.0000   1.0000   1.0000   1.0000   1.0000   1.0000   0.9999   0.9999
     0.9999   0.9997   0.9997   0.9996   0.9995   0.9994   0.9993   0.9992
     0.9990   0.9987   0.9983   0.9979   0.9978   0.9917   0.9916   0.9908
     0.9903   0.9853   0.9843   0.9835   0.9829   0.9810   0.9802   0.9771
     0.9753   0.9729   0.9680   0.9659   0.9601   0.9561   0.9492   0.9271
     0.9068   0.8891   0.8851   0.8604   0.8506   0.8421   0.8161   0.8123
     0.8081   0.7959   0.7904   0.7874   0.7739   0.7529   0.7427   0.7203
     0.7079   0.6851   0.6833   0.6802   0.6765   0.6658   0.6620   0.6544
     0.6505   0.6399   0.6363   0.6264   0.6149   0.6122   0.5360   0.5305
     0.1211   0.1154   0.0995   0.0662   0.0145   0.0107   0.0049   0.0042
     0.0005   0.0004   0.0003   0.0002   0.0000   0.0000   0.0000   0.0000
     0.0000   0.0000   0.0000   0.0000   0.0000   0.0000   0.0000   0.0000
     0.0000   0.0000   0.0000   0.0000   0.0000   0.0000   0.0000   0.0000
     0.0000   0.0000

          k =-0.2500 0.2500 0.0000 ( 65198 PWs)   bands (ev):

   -92.8582 -92.8060 -92.7121 -92.6653 -92.6065 -92.5645 -92.5477 -92.4244
   -56.2118 -56.1928 -56.0690 -56.0586 -56.0523 -56.0455 -56.0106 -55.9811
   -55.9666 -55.9642 -55.9556 -55.9140 -55.8957 -55.8576 -55.8387 -55.8064
   -55.8009 -55.7527 -55.7497 -55.7495 -55.7411 -55.6972 -55.6776 -55.5927
   -31.4213 -31.4042 -31.2618 -31.2499 -31.1747 -31.1649 -30.9108 -30.7891
   -30.0023 -29.9604 -29.9353 -29.8265 -15.1709 -15.1258 -15.0558 -14.9384
   -14.8252 -14.6972 -14.6156 -14.4065 -14.2676 -14.2374 -14.2241 -14.1765
   -14.1537 -14.1323 -14.1123 -14.0737 -13.9891 -13.9776 -13.8222 -13.7983
   -13.7690 -13.7473 -13.7004 -13.6487 -13.5907 -13.5828 -13.4494 -13.3952
   -13.3682 -13.2918 -13.2502 -13.1930 -13.1833 -13.1559 -13.1349 -13.1033
   -13.0730 -13.0707 -13.0260 -12.9829 -12.9173 -12.8848 -12.8404 -12.8356
   -12.7805 -12.7328 -12.5884 -12.5877 -12.5265 -12.4291 -12.2385 -12.1815
   -11.9710 -11.9536 -11.9323 -11.9049 -11.8931 -11.8517 -11.8174 -11.7940
   -11.7730 -11.7502 -11.6650 -11.6203 -11.6106  -2.8210  -2.6132  -2.4917
    -2.4035  -2.2856  -2.2194  -2.0155  -1.8715  -1.8533  -1.8234  -1.7317
    -1.6937  -1.6017  -1.5674  -1.5412  -1.3990  -1.3431  -1.2745  -1.2461
    -1.1860  -1.1657  -1.1256  -1.0969  -1.0566  -0.9930  -0.9453  -0.8815
    -0.8124  -0.7865  -0.7359  -0.7066  -0.6612  -0.6048  -0.5595  -0.5171
    -0.4172  -0.3848  -0.3720  -0.3304  -0.2630  -0.1903  -0.1445  -0.1120
    -0.0374   0.0023   0.2374   0.4071   0.4460   0.4863   0.5472   0.6204
     0.6672   0.7236   0.7505   1.0317   1.1373   1.1777   1.2104   1.2174
     1.2599   1.2753   1.3202   1.3505   1.3649   1.3902   1.4366   1.4531
     1.4958   1.5156   1.5602   1.6474   1.6701   1.6823   1.7304   1.7498
     1.7920   1.8548   1.9521   2.0517   2.0796   2.1299   2.1520   2.2182
     2.2550   2.2794   2.3043   2.3274   2.4259   2.4628   2.5529   2.6203
     2.6417   2.6817   2.7279   2.7374   2.7502   2.7597   2.7710   2.7850
     2.7915   2.8097   2.8207   2.8324   2.8434   2.8550   2.8659   2.8744
     2.9058   2.9153   2.9226   2.9587   3.2492   3.3319   3.3973   3.4835
     3.5034   3.7003   3.8089   4.1600   4.3685   4.5783   4.8445   5.1434
     5.5225   5.5757   5.6235   5.6804   5.7471   6.0807   6.1311   6.1575
     6.8520   7.0867   7.1271   7.3626   7.4818   7.5078   7.5861   7.7879
     7.8377   7.9624   8.2161   8.2244   8.3000   8.3464   8.4381   8.4478
     8.5306   8.7601

     occupation numbers 
     1.0000   1.0000   1.0000   1.0000   1.0000   1.0000   1.0000   1.0000
     1.0000   1.0000   1.0000   1.0000   1.0000   1.0000   1.0000   1.0000
     1.0000   1.0000   1.0000   1.0000   1.0000   1.0000   1.0000   1.0000
     1.0000   1.0000   1.0000   1.0000   1.0000   1.0000   1.0000   1.0000
     1.0000   1.0000   1.0000   1.0000   1.0000   1.0000   1.0000   1.0000
     1.0000   1.0000   1.0000   1.0000   1.0000   1.0000   1.0000   1.0000
     1.0000   1.0000   1.0000   1.0000   1.0000   1.0000   1.0000   1.0000
     1.0000   1.0000   1.0000   1.0000   1.0000   1.0000   1.0000   1.0000
     1.0000   1.0000   1.0000   1.0000   1.0000   1.0000   1.0000   1.0000
     1.0000   1.0000   1.0000   1.0000   1.0000   1.0000   1.0000   1.0000
     1.0000   1.0000   1.0000   1.0000   1.0000   1.0000   1.0000   1.0000
     1.0000   1.0000   1.0000   1.0000   1.0000   1.0000   1.0000   1.0000
     1.0000   1.0000   1.0000   1.0000   1.0000   1.0000   1.0000   1.0000
     1.0000   1.0000   1.0000   1.0000   1.0000   1.0000   1.0000   1.0000
     1.0000   1.0000   1.0000   1.0000   1.0000   1.0000   1.0000   1.0000
     1.0000   1.0000   1.0000   1.0000   1.0000   1.0000   1.0000   1.0000
     1.0000   1.0000   1.0000   1.0000   1.0000   1.0000   1.0000   1.0000
     1.0000   1.0000   1.0000   1.0000   1.0000   1.0000   1.0000   1.0000
     1.0000   1.0000   1.0000   1.0000   1.0000   1.0000   1.0000   1.0000
     1.0000   1.0000   1.0000   1.0000   1.0000   1.0000   1.0000   0.9999
     0.9999   0.9999   0.9998   0.9993   0.9987   0.9985   0.9982   0.9981
     0.9977   0.9976   0.9970   0.9966   0.9963   0.9959   0.9950   0.9946
     0.9936   0.9930   0.9916   0.9881   0.9871   0.9864   0.9838   0.9826
     0.9797   0.9746   0.9648   0.9517   0.9474   0.9389   0.9348   0.9213
     0.9130   0.9071   0.9008   0.8947   0.8655   0.8533   0.8204   0.7930
     0.7838   0.7660   0.7445   0.7399   0.7337   0.7291   0.7235   0.7165
     0.7132   0.7039   0.6982   0.6922   0.6864   0.6803   0.6745   0.6699
     0.6529   0.6476   0.6436   0.6234   0.4535   0.4053   0.3681   0.3210
     0.3105   0.2157   0.1716   0.0709   0.0376   0.0183   0.0065   0.0017
     0.0002   0.0002   0.0001   0.0001   0.0001   0.0000   0.0000   0.0000
     0.0000   0.0000   0.0000   0.0000   0.0000   0.0000   0.0000   0.0000
     0.0000   0.0000   0.0000   0.0000   0.0000   0.0000   0.0000   0.0000
     0.0000   0.0000

          k =-0.5000 0.2500 0.0000 ( 65138 PWs)   bands (ev):

   -92.8582 -92.8060 -92.7121 -92.6653 -92.6065 -92.5645 -92.5477 -92.4244
   -56.2118 -56.1928 -56.0690 -56.0586 -56.0523 -56.0455 -56.0106 -55.9811
   -55.9666 -55.9642 -55.9556 -55.9140 -55.8957 -55.8576 -55.8387 -55.8064
   -55.8009 -55.7527 -55.7497 -55.7495 -55.7411 -55.6972 -55.6776 -55.5927
   -31.4193 -31.4061 -31.2615 -31.2498 -31.1751 -31.1649 -30.9109 -30.7892
   -30.0013 -29.9615 -29.9349 -29.8269 -15.1348 -15.0882 -15.0092 -14.9124
   -14.8709 -14.7445 -14.6518 -14.5271 -14.2186 -14.1873 -14.1751 -14.1279
   -14.1079 -14.0830 -14.0470 -14.0432 -14.0161 -13.9797 -13.9690 -13.8555
   -13.7883 -13.7400 -13.7355 -13.7206 -13.6287 -13.6163 -13.4822 -13.4373
   -13.3447 -13.3112 -13.2156 -13.1893 -13.1709 -13.1615 -13.1368 -13.1056
   -13.0870 -13.0746 -13.0409 -12.9878 -12.8580 -12.8044 -12.8016 -12.7696
   -12.7625 -12.7326 -12.6851 -12.5297 -12.4685 -12.4124 -12.2818 -12.2531
   -11.9709 -11.9267 -11.9136 -11.8995 -11.8878 -11.8658 -11.8358 -11.7560
   -11.7470 -11.7244 -11.6870 -11.6593 -11.6509  -2.5937  -2.5520  -2.4040
    -2.3620  -2.2003  -2.1245  -1.9820  -1.8476  -1.7905  -1.7630  -1.7244
    -1.6862  -1.6052  -1.4900  -1.4324  -1.4097  -1.3839  -1.3046  -1.2793
    -1.2391  -1.2230  -1.1618  -1.1325  -1.0940  -1.0586  -1.0298  -0.9715
    -0.9446  -0.9034  -0.8678  -0.7632  -0.7362  -0.6463  -0.5841  -0.5518
    -0.4972  -0.4109  -0.3778  -0.2782  -0.2379  -0.1775  -0.1271  -0.1047
    -0.0333  -0.0004   0.0380   0.0788   0.1165   0.4355   0.4898   0.5752
     0.6048   0.8656   0.9268   0.9959   1.0242   1.1986   1.2348   1.2722
     1.2830   1.3013   1.3190   1.3893   1.4319   1.4750   1.5031   1.6265
     1.6617   1.6942   1.7105   1.7487   1.7666   1.7826   1.8003   1.8185
     1.8392   1.8894   1.8994   1.9369   1.9596   1.9963   2.0490   2.1751
     2.2684   2.2944   2.3603   2.3976   2.4568   2.4963   2.5010   2.5404
     2.5742   2.5947   2.6235   2.6284   2.6627   2.7125   2.7301   2.7401
     2.7441   2.7634   2.7868   2.8000   2.8152   2.8253   2.8477   2.8612
     2.8706   2.8791   2.8937   2.9046   3.4394   3.4752   3.6225   3.6409
     3.9587   3.9969   4.0487   4.2616   4.6346   4.7324   4.9092   4.9580
     5.2586   5.2893   5.5086   5.5869   5.6314   5.6645   6.3066   6.3486
     6.4723   6.7546   7.2094   7.6207   7.6929   7.7198   7.7282   7.7746
     7.8755   7.9504   8.0810   8.3154   8.4143   8.4415   8.5252   8.5826
     8.7160   8.7513

     occupation numbers 
     1.0000   1.0000   1.0000   1.0000   1.0000   1.0000   1.0000   1.0000
     1.0000   1.0000   1.0000   1.0000   1.0000   1.0000   1.0000   1.0000
     1.0000   1.0000   1.0000   1.0000   1.0000   1.0000   1.0000   1.0000
     1.0000   1.0000   1.0000   1.0000   1.0000   1.0000   1.0000   1.0000
     1.0000   1.0000   1.0000   1.0000   1.0000   1.0000   1.0000   1.0000
     1.0000   1.0000   1.0000   1.0000   1.0000   1.0000   1.0000   1.0000
     1.0000   1.0000   1.0000   1.0000   1.0000   1.0000   1.0000   1.0000
     1.0000   1.0000   1.0000   1.0000   1.0000   1.0000   1.0000   1.0000
     1.0000   1.0000   1.0000   1.0000   1.0000   1.0000   1.0000   1.0000
     1.0000   1.0000   1.0000   1.0000   1.0000   1.0000   1.0000   1.0000
     1.0000   1.0000   1.0000   1.0000   1.0000   1.0000   1.0000   1.0000
     1.0000   1.0000   1.0000   1.0000   1.0000   1.0000   1.0000   1.0000
     1.0000   1.0000   1.0000   1.0000   1.0000   1.0000   1.0000   1.0000
     1.0000   1.0000   1.0000   1.0000   1.0000   1.0000   1.0000   1.0000
     1.0000   1.0000   1.0000   1.0000   1.0000   1.0000   1.0000   1.0000
     1.0000   1.0000   1.0000   1.0000   1.0000   1.0000   1.0000   1.0000
     1.0000   1.0000   1.0000   1.0000   1.0000   1.0000   1.0000   1.0000
     1.0000   1.0000   1.0000   1.0000   1.0000   1.0000   1.0000   1.0000
     1.0000   1.0000   1.0000   1.0000   1.0000   1.0000   1.0000   1.0000
     1.0000   1.0000   1.0000   1.0000   1.0000   1.0000   1.0000   0.9999
     0.9999   0.9997   0.9996   0.9994   0.9993   0.9983   0.9980   0.9976
     0.9975   0.9972   0.9970   0.9959   0.9951   0.9941   0.9934   0.9891
     0.9875   0.9858   0.9849   0.9826   0.9814   0.9803   0.9791   0.9777
     0.9760   0.9714   0.9705   0.9665   0.9639   0.9594   0.9521   0.9303
     0.9098   0.9034   0.8855   0.8745   0.8554   0.8416   0.8399   0.8252
     0.8121   0.8037   0.7917   0.7896   0.7746   0.7518   0.7434   0.7386
     0.7367   0.7272   0.7156   0.7089   0.7011   0.6959   0.6841   0.6770
     0.6719   0.6674   0.6595   0.6535   0.3449   0.3254   0.2510   0.2424
     0.1209   0.1099   0.0961   0.0526   0.0149   0.0102   0.0049   0.0040
     0.0010   0.0008   0.0003   0.0002   0.0001   0.0001   0.0000   0.0000
     0.0000   0.0000   0.0000   0.0000   0.0000   0.0000   0.0000   0.0000
     0.0000   0.0000   0.0000   0.0000   0.0000   0.0000   0.0000   0.0000
     0.0000   0.0000

     the Fermi energy is     3.1705 ev

!    total energy              =   -4440.29414385 Ry
     estimated scf accuracy    <          5.8E-09 Ry
     smearing contrib. (-TS)   =      -1.20691122 Ry
     internal energy E=F+TS    =   -4439.08723263 Ry

     The total energy is F=E-TS. E is the sum of the following terms:
     one-electron contribution =  -20890.17031485 Ry
     hartree contribution      =   10574.42455807 Ry
     xc contribution           =    -693.24445479 Ry
     ewald contribution        =    6846.09482665 Ry
     one-center paw contrib.   =    -276.19184772 Ry
      -> PAW hartree energy AE =      25.17051091 Ry
      -> PAW hartree energy PS =     -25.05432475 Ry
      -> PAW xc energy AE      =     -16.51858599 Ry
      -> PAW xc energy PS      =       6.87809753 Ry
      -> total E_H with PAW    =   10574.54074423 Ry
      -> total E_XC with PAW   =    -702.88494325 Ry

     convergence has been achieved in  50 iterations

     Writing all to output data dir /bsuhome/zayahcortright/scratch/pwscf.save/
 
     init_run     :      7.76s CPU      8.38s WALL (       1 calls)
     electrons    :    712.30s CPU    746.79s WALL (       1 calls)

     Called by init_run:
     wfcinit      :      6.12s CPU      6.34s WALL (       1 calls)
     wfcinit:atom :      0.04s CPU      0.07s WALL (       5 calls)
     wfcinit:wfcr :      5.80s CPU      5.94s WALL (       5 calls)
     potinit      :      0.17s CPU      0.19s WALL (       1 calls)
     hinit0       :      0.61s CPU      0.71s WALL (       1 calls)

     Called by electrons:
     c_bands      :    567.18s CPU    573.92s WALL (      50 calls)
     sum_band     :    108.67s CPU    124.09s WALL (      50 calls)
     v_of_rho     :      5.40s CPU      5.79s WALL (      51 calls)
     v_h          :      0.49s CPU      0.49s WALL (      51 calls)
     v_xc         :      4.91s CPU      5.30s WALL (      51 calls)
     newd         :     16.54s CPU     28.12s WALL (      51 calls)
     PAW_pot      :      1.63s CPU      1.67s WALL (      51 calls)
     mix_rho      :     12.49s CPU     12.87s WALL (      50 calls)

     Called by c_bands:
     init_us_2    :      7.17s CPU      7.27s WALL (     505 calls)
     init_us_2:cp :      7.17s CPU      7.27s WALL (     505 calls)
     cegterg      :    534.32s CPU    540.73s WALL (     250 calls)

     Called by sum_band:
     sum_band:wei :      0.35s CPU      0.36s WALL (      50 calls)
     sum_band:loo :     91.15s CPU     91.85s WALL (      50 calls)
     sum_band:buf :      1.41s CPU      1.49s WALL (     250 calls)
     sum_band:ini :      3.39s CPU      3.41s WALL (     250 calls)
     sum_band:cal :     19.96s CPU     20.01s WALL (     250 calls)
     sum_band:bec :      0.54s CPU      0.54s WALL (     250 calls)
     addusdens    :     15.94s CPU     30.59s WALL (      50 calls)
                                        0.00s GPU  (      50 calls)
     addusd:skk   :      0.30s CPU      0.96s WALL (     150 calls)
                                        0.00s GPU  (     150 calls)

     Called by *egterg:
     cdiaghg      :     56.82s CPU     57.06s WALL (    1275 calls)
     cegterg:over :     38.58s CPU     38.74s WALL (    1025 calls)
     cegterg:upda :     28.39s CPU     28.91s WALL (    1025 calls)
     cegterg:last :     61.80s CPU     62.03s WALL (     460 calls)
     cdiaghg:chol :      3.30s CPU      3.32s WALL (    1275 calls)
     cdiaghg:inve :      3.12s CPU      3.13s WALL (    1275 calls)
     cdiaghg:para :      7.19s CPU      7.23s WALL (    2550 calls)
     h_psi        :    292.49s CPU    295.56s WALL (    1280 calls)
     s_psi        :     39.87s CPU     39.98s WALL (    1280 calls)
     g_psi        :      1.07s CPU      1.08s WALL (    1025 calls)

     Called by h_psi:
     h_psi:calbec :     45.06s CPU     45.27s WALL (    1280 calls)
     vloc_psi     :    204.79s CPU    206.74s WALL (    1280 calls)
     add_vuspsi   :     39.74s CPU     39.97s WALL (    1280 calls)

     General routines
     calbec       :     65.01s CPU     65.28s WALL (    1530 calls)
     fft          :      3.60s CPU      3.65s WALL (     661 calls)
     ffts         :      4.60s CPU      4.64s WALL (    5334 calls)
     fftw         :    176.23s CPU    177.63s WALL (  335090 calls)
     interpolate  :      0.42s CPU      0.43s WALL (      51 calls)
 
     Parallel routines

     PAW routines
     PAW_pot      :      1.63s CPU      1.67s WALL (      51 calls)
 
     PWSCF        :  12m 1.78s CPU  12m39.78s WALL

 
   This run was terminated on:  16:12: 9  21Jun2024            

=------------------------------------------------------------------------------=
   JOB DONE.
=------------------------------------------------------------------------------=
