
     Program PWSCF v.7.2 starts on 21Jun2024 at 14:29:13 

     This program is part of the open-source Quantum ESPRESSO suite
     for quantum simulation of materials; please cite
         "P. Giannozzi et al., J. Phys.:Condens. Matter 21 395502 (2009);
         "P. Giannozzi et al., J. Phys.:Condens. Matter 29 465901 (2017);
         "P. Giannozzi et al., J. Chem. Phys. 152 154105 (2020);
          URL http://www.quantum-espresso.org", 
     in publications or presentations arising from this work. More details at
     http://www.quantum-espresso.org/quote

     Parallel version (MPI & OpenMP), running on      48 processor cores
     Number of MPI processes:                48
     Threads/MPI process:                     1

     MPI processes distributed on     1 nodes
     60576 MiB available memory on the printing compute node when the environment starts
 
     Reading input from espresso.pwi
Warning: card &CELL ignored
Warning: card / ignored
Warning: card &FCP ignored
Warning: card / ignored
Warning: card &RISM ignored
Warning: card / ignored

     Current dimensions of program PWSCF are:
     Max number of different atomic species (ntypx) = 10
     Max number of k-points (npk) =  40000
     Max angular momentum in pseudopotentials (lmaxx) =  4
     file O.pbe-n-kjpaw_psl.0.1.UPF: wavefunction(s)  2P renormalized
     signal trapping enabled: kill the code with -SIGUSR1 to stop cleanly the simulation 
 
     K-points division:     npool     =       2
     R & G space division:  proc/nbgrp/npool/nimage =      24
     Subspace diagonalization in iterative solution of the eigenvalue problem:
     one sub-group per band group will be used
     scalapack distributed-memory algorithm (size of sub-group:  3*  3 procs)

 
     Parallelization info
     --------------------
     sticks:   dense  smooth     PW     G-vecs:    dense   smooth      PW
     Min         350     175     47                61430    21716    3036
     Max         351     177     48                61449    21727    3041
     Sum        8421    4205   1137              1474595   521381   72913
 
     Using Slab Decomposition
 


     bravais-lattice index     =            0
     lattice parameter (alat)  =      14.8599  a.u.
     unit-cell volume          =    8305.1283 (a.u.)^3
     number of atoms/cell      =           49
     number of atomic types    =            3
     number of electrons       =       430.00
     number of Kohn-Sham states=          258
     kinetic-energy cutoff     =      60.0000  Ry
     charge density cutoff     =     480.0000  Ry
     scf convergence threshold =      1.0E-08
     mixing beta               =       0.1500
     number of iterations used =            8  local-TF  mixing
     Exchange-correlation= SLA  PW   PBE  PBE
                           (   1   4   3   4   0   0   0)

     celldm(1)=  14.859904  celldm(2)=   0.000000  celldm(3)=   0.000000
     celldm(4)=   0.000000  celldm(5)=   0.000000  celldm(6)=   0.000000

     crystal axes: (cart. coord. in units of alat)
               a(1) = (   1.000000   0.000000   0.000000 )  
               a(2) = (   0.000000   1.000000   0.000000 )  
               a(3) = (   0.000000   0.000000   2.531036 )  

     reciprocal axes: (cart. coord. in units 2 pi/alat)
               b(1) = (  1.000000  0.000000  0.000000 )  
               b(2) = (  0.000000  1.000000  0.000000 )  
               b(3) = (  0.000000  0.000000  0.395095 )  


     PseudoPot. # 1 for Sr read from file:
     /bsuhome/zayahcortright/q-e/pseudo/Sr_pbe_v1.uspp.F.UPF
     MD5 check sum: 6b418c05fbe9db5448babca5e47b7a5b
     Pseudo is Ultrasoft + core correction, Zval = 10.0
     Generated by new atomic code, or converted to UPF format
     Using radial grid of  883 points,  6 beta functions with: 
                l(1) =   0
                l(2) =   0
                l(3) =   1
                l(4) =   1
                l(5) =   2
                l(6) =   2
     Q(r) pseudized with  6 coefficients,  rinner =    1.400   1.400   1.400
                                                       1.400   1.400

     PseudoPot. # 2 for O  read from file:
     /bsuhome/zayahcortright/q-e/pseudo/O.pbe-n-kjpaw_psl.0.1.UPF
     MD5 check sum: 0234752ac141de4415c5fc33072bef88
     Pseudo is Projector augmented-wave + core cor, Zval =  6.0
     Generated using "atomic" code by A. Dal Corso  v.5.0.99 svn rev. 10869
     Shape of augmentation charge: BESSEL
     Using radial grid of 1095 points,  4 beta functions with: 
                l(1) =   0
                l(2) =   0
                l(3) =   1
                l(4) =   1
     Q(r) pseudized with 0 coefficients 


     PseudoPot. # 3 for Co read from file:
     /bsuhome/zayahcortright/q-e/pseudo/Co_pbe_v1.2.uspp.F.UPF
     MD5 check sum: 5f91765df6ddd3222702df6e7b74a16d
     Pseudo is Ultrasoft + core correction, Zval = 17.0
     Generated by new atomic code, or converted to UPF format
     Using radial grid of  863 points,  6 beta functions with: 
                l(1) =   0
                l(2) =   0
                l(3) =   1
                l(4) =   1
                l(5) =   2
                l(6) =   2
     Q(r) pseudized with  8 coefficients,  rinner =    1.200   1.200   1.200
                                                       1.200   1.200

     atomic species   valence    mass     pseudopotential
        Sr            10.00    87.62000     Sr( 1.00)
        O              6.00    15.99900     O ( 1.00)
        Co            17.00    58.93319     Co( 1.00)

     No symmetry found


                                    s                        frac. trans.

      isym =  1     identity                                     

 cryst.   s( 1) = (     1          0          0      )
                  (     0          1          0      )
                  (     0          0          1      )

 cart.    s( 1) = (  1.0000000  0.0000000  0.0000000 )
                  (  0.0000000  1.0000000  0.0000000 )
                  (  0.0000000  0.0000000  1.0000000 )


   Cartesian axes

     site n.     atom                  positions (alat units)
         1           Sr  tau(   1) = (   0.2508693   0.7491307   1.7574407  )
         2           O   tau(   2) = (   0.4985141   0.5014859   1.7715967  )
         3           Sr  tau(   3) = (   0.7482398   0.7454518   1.7648669  )
         4           Sr  tau(   4) = (   0.7441748   0.2558252   1.7667843  )
         5           Sr  tau(   5) = (   0.2508693   0.7491307   1.2696799  )
         6           Sr  tau(   6) = (   0.2508693   0.7491307   0.7632319  )
         7           Co  tau(   7) = (   0.4998914   0.5001086   1.0164559  )
         8           Co  tau(   8) = (   0.4936915   0.5063085   1.5135603  )
         9           O   tau(   9) = (   0.4988895   0.7610401   1.0164559  )
        10           O   tau(  10) = (   0.2389599   0.5011105   1.0164559  )
        11           O   tau(  11) = (   0.0070918   0.7374880   1.0164559  )
        12           O   tau(  12) = (   0.0088340   0.7405089   1.5135603  )
        13           O   tau(  13) = (   0.5066944   0.7415376   1.5135603  )
        14           O   tau(  14) = (   0.2584624   0.4933056   1.5135603  )
        15           O   tau(  15) = (   0.4985141   0.5014859   0.7773880  )
        16           O   tau(  16) = (   0.4985141   0.5014859   1.2555238  )
        17           Sr  tau(  17) = (   0.7482398   0.7454518   0.7706582  )
        18           Sr  tau(  18) = (   0.7482398   0.7454518   1.2622536  )
        19           Sr  tau(  19) = (   0.7441748   0.2558252   0.7725755  )
        20           Sr  tau(  20) = (   0.7441748   0.2558252   1.2603363  )
        21           O   tau(  21) = (   0.7322655   0.0078049   1.5135603  )
        22           O   tau(  22) = (   0.7558175   0.4996027   1.5135603  )
        23           O   tau(  23) = (   0.5003973   0.2441825   1.5135603  )
        24           O   tau(  24) = (   0.7527966   0.4978604   1.0164559  )
        25           O   tau(  25) = (   0.5021396   0.2472034   1.0164559  )
        26           O   tau(  26) = (   0.7517679   0.0000000   1.0164559  )
        27           O   tau(  27) = (   0.0114961   0.4948124   1.7455321  )
        28           O   tau(  28) = (   0.0048226   0.0077944   1.7715967  )
        29           Sr  tau(  29) = (   0.2545482   0.2517602   1.7648669  )
        30           O   tau(  30) = (   0.5048017   0.0015068   1.7786929  )
        31           Co  tau(  31) = (   0.0056869   0.5006215   1.0164559  )
        32           Co  tau(  32) = (   0.0065315   0.4997770   1.5135603  )
        33           Co  tau(  33) = (   0.0061999   0.0064171   1.0164559  )
        34           Co  tau(  34) = (   0.0000000   0.0126169   1.5135603  )
        35           O   tau(  35) = (   0.0114961   0.4948124   1.2815885  )
        36           O   tau(  36) = (   0.0114961   0.4948124   0.7513233  )
        37           O   tau(  37) = (   0.0051979   0.2673486   1.0164559  )
        38           O   tau(  38) = (   0.0130029   0.2478461   1.5135603  )
        39           O   tau(  39) = (   0.0048226   0.0077944   0.7773880  )
        40           O   tau(  40) = (   0.0048226   0.0077944   1.2555238  )
        41           Sr  tau(  41) = (   0.2545482   0.2517602   0.7706582  )
        42           Sr  tau(  42) = (   0.2545482   0.2517602   1.2622536  )
        43           Co  tau(  43) = (   0.4989925   0.0073160   1.5135603  )
        44           Co  tau(  44) = (   0.4998370   0.0064714   1.0164559  )
        45           O   tau(  45) = (   0.5048017   0.0015068   0.7844841  )
        46           O   tau(  46) = (   0.5048017   0.0015068   1.2484277  )
        47           O   tau(  47) = (   0.2621260   0.0059111   1.5135603  )
        48           O   tau(  48) = (   0.2591051   0.0041689   1.0164559  )
        49           O   tau(  49) = (   0.0000000   0.1421646   2.1602013  )

   Crystallographic axes

     site n.     atom                  positions (cryst. coord.)
         1           Sr  tau(   1) = (  0.2508693  0.7491307  0.6943562  )
         2           O   tau(   2) = (  0.4985141  0.5014859  0.6999492  )
         3           Sr  tau(   3) = (  0.7482398  0.7454518  0.6972903  )
         4           Sr  tau(   4) = (  0.7441748  0.2558252  0.6980478  )
         5           Sr  tau(   5) = (  0.2508693  0.7491307  0.5016443  )
         6           Sr  tau(   6) = (  0.2508693  0.7491307  0.3015492  )
         7           Co  tau(   7) = (  0.4998914  0.5001086  0.4015968  )
         8           Co  tau(   8) = (  0.4936915  0.5063085  0.5980003  )
         9           O   tau(   9) = (  0.4988895  0.7610401  0.4015968  )
        10           O   tau(  10) = (  0.2389599  0.5011105  0.4015968  )
        11           O   tau(  11) = (  0.0070918  0.7374880  0.4015968  )
        12           O   tau(  12) = (  0.0088340  0.7405089  0.5980003  )
        13           O   tau(  13) = (  0.5066944  0.7415376  0.5980003  )
        14           O   tau(  14) = (  0.2584624  0.4933056  0.5980003  )
        15           O   tau(  15) = (  0.4985141  0.5014859  0.3071422  )
        16           O   tau(  16) = (  0.4985141  0.5014859  0.4960513  )
        17           Sr  tau(  17) = (  0.7482398  0.7454518  0.3044833  )
        18           Sr  tau(  18) = (  0.7482398  0.7454518  0.4987103  )
        19           Sr  tau(  19) = (  0.7441748  0.2558252  0.3052408  )
        20           Sr  tau(  20) = (  0.7441748  0.2558252  0.4979527  )
        21           O   tau(  21) = (  0.7322655  0.0078049  0.5980003  )
        22           O   tau(  22) = (  0.7558175  0.4996027  0.5980003  )
        23           O   tau(  23) = (  0.5003973  0.2441825  0.5980003  )
        24           O   tau(  24) = (  0.7527966  0.4978604  0.4015968  )
        25           O   tau(  25) = (  0.5021396  0.2472034  0.4015968  )
        26           O   tau(  26) = (  0.7517679  0.0000000  0.4015968  )
        27           O   tau(  27) = (  0.0114961  0.4948124  0.6896512  )
        28           O   tau(  28) = (  0.0048226  0.0077944  0.6999492  )
        29           Sr  tau(  29) = (  0.2545482  0.2517602  0.6972903  )
        30           O   tau(  30) = (  0.5048017  0.0015068  0.7027529  )
        31           Co  tau(  31) = (  0.0056869  0.5006215  0.4015968  )
        32           Co  tau(  32) = (  0.0065315  0.4997770  0.5980003  )
        33           Co  tau(  33) = (  0.0061999  0.0064171  0.4015968  )
        34           Co  tau(  34) = (  0.0000000  0.0126169  0.5980003  )
        35           O   tau(  35) = (  0.0114961  0.4948124  0.5063494  )
        36           O   tau(  36) = (  0.0114961  0.4948124  0.2968442  )
        37           O   tau(  37) = (  0.0051979  0.2673486  0.4015968  )
        38           O   tau(  38) = (  0.0130029  0.2478461  0.5980003  )
        39           O   tau(  39) = (  0.0048226  0.0077944  0.3071422  )
        40           O   tau(  40) = (  0.0048226  0.0077944  0.4960513  )
        41           Sr  tau(  41) = (  0.2545482  0.2517602  0.3044833  )
        42           Sr  tau(  42) = (  0.2545482  0.2517602  0.4987103  )
        43           Co  tau(  43) = (  0.4989925  0.0073160  0.5980003  )
        44           Co  tau(  44) = (  0.4998370  0.0064714  0.4015968  )
        45           O   tau(  45) = (  0.5048017  0.0015068  0.3099459  )
        46           O   tau(  46) = (  0.5048017  0.0015068  0.4932477  )
        47           O   tau(  47) = (  0.2621260  0.0059111  0.5980003  )
        48           O   tau(  48) = (  0.2591051  0.0041689  0.4015968  )
        49           O   tau(  49) = (  0.0000000  0.1421646  0.8534850  )

     number of k points=    10  Gaussian smearing, width (Ry)=  0.0700
                       cart. coord. in units 2pi/alat
        k(    1) = (   0.0000000   0.0000000   0.0000000), wk =   0.1250000
        k(    2) = (   0.0000000   0.2500000   0.0000000), wk =   0.2500000
        k(    3) = (   0.0000000  -0.5000000   0.0000000), wk =   0.1250000
        k(    4) = (   0.2500000   0.2500000   0.0000000), wk =   0.2500000
        k(    5) = (   0.2500000  -0.5000000   0.0000000), wk =   0.2500000
        k(    6) = (  -0.5000000  -0.5000000   0.0000000), wk =   0.1250000
        k(    7) = (   0.2500000   0.0000000   0.0000000), wk =   0.2500000
        k(    8) = (  -0.5000000   0.0000000   0.0000000), wk =   0.1250000
        k(    9) = (  -0.2500000   0.2500000   0.0000000), wk =   0.2500000
        k(   10) = (  -0.5000000   0.2500000   0.0000000), wk =   0.2500000

                       cryst. coord.
        k(    1) = (   0.0000000   0.0000000   0.0000000), wk =   0.1250000
        k(    2) = (   0.0000000   0.2500000   0.0000000), wk =   0.2500000
        k(    3) = (   0.0000000  -0.5000000   0.0000000), wk =   0.1250000
        k(    4) = (   0.2500000   0.2500000   0.0000000), wk =   0.2500000
        k(    5) = (   0.2500000  -0.5000000   0.0000000), wk =   0.2500000
        k(    6) = (  -0.5000000  -0.5000000   0.0000000), wk =   0.1250000
        k(    7) = (   0.2500000   0.0000000   0.0000000), wk =   0.2500000
        k(    8) = (  -0.5000000   0.0000000   0.0000000), wk =   0.1250000
        k(    9) = (  -0.2500000   0.2500000   0.0000000), wk =   0.2500000
        k(   10) = (  -0.5000000   0.2500000   0.0000000), wk =   0.2500000

     Dense  grid:  1474595 G-vectors     FFT dimensions: ( 108, 108, 270)

     Smooth grid:   521381 G-vectors     FFT dimensions: (  75,  75, 192)

     Dynamical RAM for                 wfc:      10.69 MB

     Dynamical RAM for     wfc (w. buffer):      64.13 MB

     Dynamical RAM for           str. fact:       2.81 MB

     Dynamical RAM for           local pot:       0.00 MB

     Dynamical RAM for          nlocal pot:      24.53 MB

     Dynamical RAM for                qrad:       5.27 MB

     Dynamical RAM for          rho,v,vnew:       6.02 MB

     Dynamical RAM for               rhoin:       2.01 MB

     Dynamical RAM for            rho*nmix:      15.00 MB

     Dynamical RAM for           G-vectors:       3.68 MB

     Dynamical RAM for          h,s,v(r/c):       1.35 MB

     Dynamical RAM for          <psi|beta>:       2.33 MB

     Dynamical RAM for                 psi:      21.38 MB

     Dynamical RAM for                hpsi:      21.38 MB

     Dynamical RAM for                spsi:      21.38 MB

     Dynamical RAM for      wfcinit/wfcrot:      34.39 MB

     Dynamical RAM for           addusdens:     101.26 MB

     Estimated static dynamical RAM per process >     117.53 MB

     Estimated max dynamical RAM per process >     233.79 MB

     Estimated total dynamical RAM >      10.61 GB

     Check: negative core charge=   -0.000004

     Initial potential from superposition of free atoms

     starting charge     421.5961, renormalised to     430.0000

     negative rho (up, down):  7.826E-01 0.000E+00
     Starting wfcs are  376 randomized atomic wfcs
     Checking if some PAW data can be deallocated... 
       PAW data deallocated on   19 nodes for type:  2

     total cpu time spent up to now is        8.9 secs

     Self-consistent Calculation

     iteration #  1     ecut=    60.00 Ry     beta= 0.15
     Davidson diagonalization with overlap

---- Real-time Memory Report at c_bands before calling an iterative solver
             0 MiB given to the printing process from OS
             0 MiB allocation reported by mallinfo(arena+hblkhd)
         51479 MiB available memory on the node where the printing process lives
------------------
     ethr =  1.00E-02,  avg # of iterations =  2.0

     negative rho (up, down):  7.714E-01 0.000E+00

     total cpu time spent up to now is       23.9 secs

     total energy              =   -4445.13211306 Ry
     estimated scf accuracy    <      53.95623857 Ry

     iteration #  2     ecut=    60.00 Ry     beta= 0.15
     Davidson diagonalization with overlap

---- Real-time Memory Report at c_bands before calling an iterative solver
             0 MiB given to the printing process from OS
             0 MiB allocation reported by mallinfo(arena+hblkhd)
         51864 MiB available memory on the node where the printing process lives
------------------
     ethr =  1.00E-02,  avg # of iterations =  1.0

     negative rho (up, down):  7.595E-01 0.000E+00

     total cpu time spent up to now is       36.7 secs

     total energy              =   -4442.05864354 Ry
     estimated scf accuracy    <      27.74000416 Ry

     iteration #  3     ecut=    60.00 Ry     beta= 0.15
     Davidson diagonalization with overlap

---- Real-time Memory Report at c_bands before calling an iterative solver
             0 MiB given to the printing process from OS
             0 MiB allocation reported by mallinfo(arena+hblkhd)
         51093 MiB available memory on the node where the printing process lives
------------------
     ethr =  6.45E-03,  avg # of iterations =  1.0

     negative rho (up, down):  7.529E-01 0.000E+00

     total cpu time spent up to now is       49.9 secs

     total energy              =   -4442.53375311 Ry
     estimated scf accuracy    <      29.85030068 Ry

     iteration #  4     ecut=    60.00 Ry     beta= 0.15
     Davidson diagonalization with overlap

---- Real-time Memory Report at c_bands before calling an iterative solver
             0 MiB given to the printing process from OS
             0 MiB allocation reported by mallinfo(arena+hblkhd)
         51034 MiB available memory on the node where the printing process lives
------------------
     ethr =  6.45E-03,  avg # of iterations =  1.0

     negative rho (up, down):  7.524E-01 0.000E+00

     total cpu time spent up to now is       62.8 secs

     total energy              =   -4442.92217729 Ry
     estimated scf accuracy    <      28.24941901 Ry

     iteration #  5     ecut=    60.00 Ry     beta= 0.15
     Davidson diagonalization with overlap

---- Real-time Memory Report at c_bands before calling an iterative solver
             0 MiB given to the printing process from OS
             0 MiB allocation reported by mallinfo(arena+hblkhd)
         51023 MiB available memory on the node where the printing process lives
------------------
     ethr =  6.45E-03,  avg # of iterations =  1.0

     negative rho (up, down):  7.364E-01 0.000E+00

     total cpu time spent up to now is       75.5 secs

     total energy              =   -4442.36781715 Ry
     estimated scf accuracy    <      33.78124357 Ry

     iteration #  6     ecut=    60.00 Ry     beta= 0.15
     Davidson diagonalization with overlap

---- Real-time Memory Report at c_bands before calling an iterative solver
             0 MiB given to the printing process from OS
             0 MiB allocation reported by mallinfo(arena+hblkhd)
         51002 MiB available memory on the node where the printing process lives
------------------
     ethr =  6.45E-03,  avg # of iterations =  1.0

     negative rho (up, down):  7.453E-01 0.000E+00

     total cpu time spent up to now is       88.1 secs

     total energy              =   -4442.22224996 Ry
     estimated scf accuracy    <      43.50132399 Ry

     iteration #  7     ecut=    60.00 Ry     beta= 0.15
     Davidson diagonalization with overlap

---- Real-time Memory Report at c_bands before calling an iterative solver
             0 MiB given to the printing process from OS
             0 MiB allocation reported by mallinfo(arena+hblkhd)
         50984 MiB available memory on the node where the printing process lives
------------------
     ethr =  6.45E-03,  avg # of iterations =  1.0

     negative rho (up, down):  7.473E-01 0.000E+00

     total cpu time spent up to now is      100.8 secs

     total energy              =   -4439.55853034 Ry
     estimated scf accuracy    <      39.87424086 Ry

     iteration #  8     ecut=    60.00 Ry     beta= 0.15
     Davidson diagonalization with overlap

---- Real-time Memory Report at c_bands before calling an iterative solver
             0 MiB given to the printing process from OS
             0 MiB allocation reported by mallinfo(arena+hblkhd)
         50971 MiB available memory on the node where the printing process lives
------------------
     ethr =  6.45E-03,  avg # of iterations =  1.0

     negative rho (up, down):  7.427E-01 0.000E+00

     total cpu time spent up to now is      113.3 secs

     total energy              =   -4440.66346991 Ry
     estimated scf accuracy    <       7.55333461 Ry

     iteration #  9     ecut=    60.00 Ry     beta= 0.15
     Davidson diagonalization with overlap

---- Real-time Memory Report at c_bands before calling an iterative solver
             0 MiB given to the printing process from OS
             0 MiB allocation reported by mallinfo(arena+hblkhd)
         50947 MiB available memory on the node where the printing process lives
------------------
     ethr =  1.76E-03,  avg # of iterations =  1.5

     negative rho (up, down):  7.603E-01 0.000E+00

     total cpu time spent up to now is      126.5 secs

     total energy              =   -4440.55577438 Ry
     estimated scf accuracy    <       7.15229924 Ry

     iteration # 10     ecut=    60.00 Ry     beta= 0.15
     Davidson diagonalization with overlap

---- Real-time Memory Report at c_bands before calling an iterative solver
             0 MiB given to the printing process from OS
             0 MiB allocation reported by mallinfo(arena+hblkhd)
         50925 MiB available memory on the node where the printing process lives
------------------
     ethr =  1.66E-03,  avg # of iterations =  2.0

     negative rho (up, down):  7.666E-01 0.000E+00

     total cpu time spent up to now is      140.6 secs

     total energy              =   -4440.33498706 Ry
     estimated scf accuracy    <      19.20506741 Ry

     iteration # 11     ecut=    60.00 Ry     beta= 0.15
     Davidson diagonalization with overlap

---- Real-time Memory Report at c_bands before calling an iterative solver
             0 MiB given to the printing process from OS
             0 MiB allocation reported by mallinfo(arena+hblkhd)
         50919 MiB available memory on the node where the printing process lives
------------------
     ethr =  1.66E-03,  avg # of iterations =  4.9

     negative rho (up, down):  7.775E-01 0.000E+00

     total cpu time spent up to now is      155.9 secs

     total energy              =   -4440.51565895 Ry
     estimated scf accuracy    <       3.46174835 Ry

     iteration # 12     ecut=    60.00 Ry     beta= 0.15
     Davidson diagonalization with overlap

---- Real-time Memory Report at c_bands before calling an iterative solver
             0 MiB given to the printing process from OS
             0 MiB allocation reported by mallinfo(arena+hblkhd)
         50872 MiB available memory on the node where the printing process lives
------------------
     ethr =  8.05E-04,  avg # of iterations = 10.9

     negative rho (up, down):  7.831E-01 0.000E+00

     total cpu time spent up to now is      174.5 secs

     total energy              =   -4440.52638287 Ry
     estimated scf accuracy    <       2.00980555 Ry

     iteration # 13     ecut=    60.00 Ry     beta= 0.15
     Davidson diagonalization with overlap

---- Real-time Memory Report at c_bands before calling an iterative solver
             0 MiB given to the printing process from OS
             0 MiB allocation reported by mallinfo(arena+hblkhd)
         50555 MiB available memory on the node where the printing process lives
------------------
     ethr =  4.67E-04,  avg # of iterations =  3.5

     negative rho (up, down):  7.967E-01 0.000E+00

     total cpu time spent up to now is      189.6 secs

     total energy              =   -4440.50106516 Ry
     estimated scf accuracy    <       2.51151597 Ry

     iteration # 14     ecut=    60.00 Ry     beta= 0.15
     Davidson diagonalization with overlap

---- Real-time Memory Report at c_bands before calling an iterative solver
             0 MiB given to the printing process from OS
             0 MiB allocation reported by mallinfo(arena+hblkhd)
         50558 MiB available memory on the node where the printing process lives
------------------
     ethr =  4.67E-04,  avg # of iterations =  1.2

     negative rho (up, down):  8.119E-01 0.000E+00

     total cpu time spent up to now is      202.8 secs

     total energy              =   -4440.37116871 Ry
     estimated scf accuracy    <       2.92231449 Ry

     iteration # 15     ecut=    60.00 Ry     beta= 0.15
     Davidson diagonalization with overlap

---- Real-time Memory Report at c_bands before calling an iterative solver
             0 MiB given to the printing process from OS
             0 MiB allocation reported by mallinfo(arena+hblkhd)
         50581 MiB available memory on the node where the printing process lives
------------------
     ethr =  4.67E-04,  avg # of iterations =  4.5

     negative rho (up, down):  8.232E-01 0.000E+00

     total cpu time spent up to now is      217.8 secs

     total energy              =   -4440.39736285 Ry
     estimated scf accuracy    <       0.77159313 Ry

     iteration # 16     ecut=    60.00 Ry     beta= 0.15
     Davidson diagonalization with overlap

---- Real-time Memory Report at c_bands before calling an iterative solver
             0 MiB given to the printing process from OS
             0 MiB allocation reported by mallinfo(arena+hblkhd)
         50557 MiB available memory on the node where the printing process lives
------------------
     c_bands:  1 eigenvalues not converged
     ethr =  1.79E-04,  avg # of iterations = 12.5

     negative rho (up, down):  8.249E-01 0.000E+00

     total cpu time spent up to now is      236.3 secs

     total energy              =   -4440.35733797 Ry
     estimated scf accuracy    <       0.53123125 Ry

     iteration # 17     ecut=    60.00 Ry     beta= 0.15
     Davidson diagonalization with overlap

---- Real-time Memory Report at c_bands before calling an iterative solver
             0 MiB given to the printing process from OS
             0 MiB allocation reported by mallinfo(arena+hblkhd)
         50460 MiB available memory on the node where the printing process lives
------------------
     ethr =  1.24E-04,  avg # of iterations =  3.7

     negative rho (up, down):  8.221E-01 0.000E+00

     total cpu time spent up to now is      250.9 secs

     total energy              =   -4440.35926117 Ry
     estimated scf accuracy    <       0.21020142 Ry

     iteration # 18     ecut=    60.00 Ry     beta= 0.15
     Davidson diagonalization with overlap

---- Real-time Memory Report at c_bands before calling an iterative solver
             0 MiB given to the printing process from OS
             0 MiB allocation reported by mallinfo(arena+hblkhd)
         50491 MiB available memory on the node where the printing process lives
------------------
     ethr =  4.89E-05,  avg # of iterations =  8.6

     negative rho (up, down):  8.139E-01 0.000E+00

     total cpu time spent up to now is      268.1 secs

     total energy              =   -4440.34220103 Ry
     estimated scf accuracy    <       0.16271589 Ry

     iteration # 19     ecut=    60.00 Ry     beta= 0.15
     Davidson diagonalization with overlap

---- Real-time Memory Report at c_bands before calling an iterative solver
             0 MiB given to the printing process from OS
             0 MiB allocation reported by mallinfo(arena+hblkhd)
         50508 MiB available memory on the node where the printing process lives
------------------
     c_bands:  1 eigenvalues not converged
     ethr =  3.78E-05,  avg # of iterations =  5.2

     negative rho (up, down):  8.091E-01 0.000E+00

     total cpu time spent up to now is      283.9 secs

     total energy              =   -4440.32446668 Ry
     estimated scf accuracy    <       0.12194278 Ry

     iteration # 20     ecut=    60.00 Ry     beta= 0.15
     Davidson diagonalization with overlap

---- Real-time Memory Report at c_bands before calling an iterative solver
             0 MiB given to the printing process from OS
             0 MiB allocation reported by mallinfo(arena+hblkhd)
         50505 MiB available memory on the node where the printing process lives
------------------
     ethr =  2.84E-05,  avg # of iterations =  9.0

     negative rho (up, down):  8.092E-01 0.000E+00

     total cpu time spent up to now is      301.8 secs

     total energy              =   -4440.31197952 Ry
     estimated scf accuracy    <       0.15098119 Ry

     iteration # 21     ecut=    60.00 Ry     beta= 0.15
     Davidson diagonalization with overlap

---- Real-time Memory Report at c_bands before calling an iterative solver
             0 MiB given to the printing process from OS
             0 MiB allocation reported by mallinfo(arena+hblkhd)
         50467 MiB available memory on the node where the printing process lives
------------------
     ethr =  2.84E-05,  avg # of iterations =  8.5

     negative rho (up, down):  8.122E-01 0.000E+00

     total cpu time spent up to now is      319.0 secs

     total energy              =   -4440.30768871 Ry
     estimated scf accuracy    <       0.09867236 Ry

     iteration # 22     ecut=    60.00 Ry     beta= 0.15
     Davidson diagonalization with overlap

---- Real-time Memory Report at c_bands before calling an iterative solver
             0 MiB given to the printing process from OS
             0 MiB allocation reported by mallinfo(arena+hblkhd)
         50430 MiB available memory on the node where the printing process lives
------------------
     ethr =  2.29E-05,  avg # of iterations =  3.0

     negative rho (up, down):  7.970E-01 0.000E+00

     total cpu time spent up to now is      333.6 secs

     total energy              =   -4440.30485758 Ry
     estimated scf accuracy    <       0.04640094 Ry

     iteration # 23     ecut=    60.00 Ry     beta= 0.15
     Davidson diagonalization with overlap

---- Real-time Memory Report at c_bands before calling an iterative solver
             0 MiB given to the printing process from OS
             0 MiB allocation reported by mallinfo(arena+hblkhd)
         50454 MiB available memory on the node where the printing process lives
------------------
     c_bands:  1 eigenvalues not converged
     ethr =  1.08E-05,  avg # of iterations =  8.7

     negative rho (up, down):  7.924E-01 0.000E+00

     total cpu time spent up to now is      350.9 secs

     total energy              =   -4440.30205980 Ry
     estimated scf accuracy    <       0.03064953 Ry

     iteration # 24     ecut=    60.00 Ry     beta= 0.15
     Davidson diagonalization with overlap

---- Real-time Memory Report at c_bands before calling an iterative solver
             0 MiB given to the printing process from OS
             0 MiB allocation reported by mallinfo(arena+hblkhd)
         50468 MiB available memory on the node where the printing process lives
------------------
     ethr =  7.13E-06,  avg # of iterations =  8.6

     negative rho (up, down):  7.935E-01 0.000E+00

     total cpu time spent up to now is      368.4 secs

     total energy              =   -4440.30122117 Ry
     estimated scf accuracy    <       0.02079647 Ry

     iteration # 25     ecut=    60.00 Ry     beta= 0.15
     Davidson diagonalization with overlap

---- Real-time Memory Report at c_bands before calling an iterative solver
             0 MiB given to the printing process from OS
             0 MiB allocation reported by mallinfo(arena+hblkhd)
         50452 MiB available memory on the node where the printing process lives
------------------
     c_bands:  1 eigenvalues not converged
     ethr =  4.84E-06,  avg # of iterations =  8.2

     negative rho (up, down):  7.935E-01 0.000E+00

     total cpu time spent up to now is      385.7 secs

     total energy              =   -4440.29810568 Ry
     estimated scf accuracy    <       0.01662775 Ry

     iteration # 26     ecut=    60.00 Ry     beta= 0.15
     Davidson diagonalization with overlap

---- Real-time Memory Report at c_bands before calling an iterative solver
             0 MiB given to the printing process from OS
             0 MiB allocation reported by mallinfo(arena+hblkhd)
         50460 MiB available memory on the node where the printing process lives
------------------
     c_bands:  1 eigenvalues not converged
     ethr =  3.87E-06,  avg # of iterations =  9.3

     negative rho (up, down):  8.003E-01 0.000E+00

     total cpu time spent up to now is      403.4 secs

     total energy              =   -4440.29687856 Ry
     estimated scf accuracy    <       0.00908601 Ry

     iteration # 27     ecut=    60.00 Ry     beta= 0.15
     Davidson diagonalization with overlap

---- Real-time Memory Report at c_bands before calling an iterative solver
             0 MiB given to the printing process from OS
             0 MiB allocation reported by mallinfo(arena+hblkhd)
         50532 MiB available memory on the node where the printing process lives
------------------
     c_bands:  1 eigenvalues not converged
     ethr =  2.11E-06,  avg # of iterations = 11.8

     negative rho (up, down):  8.009E-01 0.000E+00

     total cpu time spent up to now is      423.2 secs

     total energy              =   -4440.29698563 Ry
     estimated scf accuracy    <       0.00302069 Ry

     iteration # 28     ecut=    60.00 Ry     beta= 0.15
     Davidson diagonalization with overlap

---- Real-time Memory Report at c_bands before calling an iterative solver
             0 MiB given to the printing process from OS
             0 MiB allocation reported by mallinfo(arena+hblkhd)
         50379 MiB available memory on the node where the printing process lives
------------------
     c_bands:  1 eigenvalues not converged
     ethr =  7.02E-07,  avg # of iterations =  8.7

     negative rho (up, down):  8.030E-01 0.000E+00

     total cpu time spent up to now is      441.6 secs

     total energy              =   -4440.29719691 Ry
     estimated scf accuracy    <       0.00154886 Ry

     iteration # 29     ecut=    60.00 Ry     beta= 0.15
     Davidson diagonalization with overlap

---- Real-time Memory Report at c_bands before calling an iterative solver
             0 MiB given to the printing process from OS
             0 MiB allocation reported by mallinfo(arena+hblkhd)
         50353 MiB available memory on the node where the printing process lives
------------------
     ethr =  3.60E-07,  avg # of iterations =  5.7

     negative rho (up, down):  7.959E-01 0.000E+00

     total cpu time spent up to now is      458.0 secs

     total energy              =   -4440.29690900 Ry
     estimated scf accuracy    <       0.00075453 Ry

     iteration # 30     ecut=    60.00 Ry     beta= 0.15
     Davidson diagonalization with overlap

---- Real-time Memory Report at c_bands before calling an iterative solver
             0 MiB given to the printing process from OS
             0 MiB allocation reported by mallinfo(arena+hblkhd)
         50335 MiB available memory on the node where the printing process lives
------------------
     c_bands:  1 eigenvalues not converged
     c_bands:  1 eigenvalues not converged
     c_bands:  1 eigenvalues not converged
     ethr =  1.75E-07,  avg # of iterations = 12.3

     negative rho (up, down):  7.963E-01 0.000E+00

     total cpu time spent up to now is      477.5 secs

     total energy              =   -4440.29695919 Ry
     estimated scf accuracy    <       0.00021008 Ry

     iteration # 31     ecut=    60.00 Ry     beta= 0.15
     Davidson diagonalization with overlap

---- Real-time Memory Report at c_bands before calling an iterative solver
             0 MiB given to the printing process from OS
             0 MiB allocation reported by mallinfo(arena+hblkhd)
         50361 MiB available memory on the node where the printing process lives
------------------
     c_bands:  1 eigenvalues not converged
     ethr =  4.89E-08,  avg # of iterations =  7.4

     negative rho (up, down):  7.941E-01 0.000E+00

     total cpu time spent up to now is      495.4 secs

     total energy              =   -4440.29694939 Ry
     estimated scf accuracy    <       0.00012016 Ry

     iteration # 32     ecut=    60.00 Ry     beta= 0.15
     Davidson diagonalization with overlap

---- Real-time Memory Report at c_bands before calling an iterative solver
             0 MiB given to the printing process from OS
             0 MiB allocation reported by mallinfo(arena+hblkhd)
         50332 MiB available memory on the node where the printing process lives
------------------
     c_bands:  1 eigenvalues not converged
     ethr =  2.79E-08,  avg # of iterations =  5.9

     negative rho (up, down):  7.932E-01 0.000E+00

     total cpu time spent up to now is      511.3 secs

     total energy              =   -4440.29695501 Ry
     estimated scf accuracy    <       0.00004482 Ry

     iteration # 33     ecut=    60.00 Ry     beta= 0.15
     Davidson diagonalization with overlap

---- Real-time Memory Report at c_bands before calling an iterative solver
             0 MiB given to the printing process from OS
             0 MiB allocation reported by mallinfo(arena+hblkhd)
         50428 MiB available memory on the node where the printing process lives
------------------
     ethr =  1.04E-08,  avg # of iterations =  2.0

     negative rho (up, down):  7.929E-01 0.000E+00

     total cpu time spent up to now is      525.9 secs

     total energy              =   -4440.29695779 Ry
     estimated scf accuracy    <       0.00002890 Ry

     iteration # 34     ecut=    60.00 Ry     beta= 0.15
     Davidson diagonalization with overlap

---- Real-time Memory Report at c_bands before calling an iterative solver
             0 MiB given to the printing process from OS
             0 MiB allocation reported by mallinfo(arena+hblkhd)
         50390 MiB available memory on the node where the printing process lives
------------------
     ethr =  6.72E-09,  avg # of iterations =  2.0

     negative rho (up, down):  7.924E-01 0.000E+00

     total cpu time spent up to now is      540.7 secs

     total energy              =   -4440.29696260 Ry
     estimated scf accuracy    <       0.00001339 Ry

     iteration # 35     ecut=    60.00 Ry     beta= 0.15
     Davidson diagonalization with overlap

---- Real-time Memory Report at c_bands before calling an iterative solver
             0 MiB given to the printing process from OS
             0 MiB allocation reported by mallinfo(arena+hblkhd)
         50407 MiB available memory on the node where the printing process lives
------------------
     ethr =  3.11E-09,  avg # of iterations =  3.4

     negative rho (up, down):  7.924E-01 0.000E+00

     total cpu time spent up to now is      555.5 secs

     total energy              =   -4440.29696247 Ry
     estimated scf accuracy    <       0.00000461 Ry

     iteration # 36     ecut=    60.00 Ry     beta= 0.15
     Davidson diagonalization with overlap

---- Real-time Memory Report at c_bands before calling an iterative solver
             0 MiB given to the printing process from OS
             0 MiB allocation reported by mallinfo(arena+hblkhd)
         50427 MiB available memory on the node where the printing process lives
------------------
     ethr =  1.07E-09,  avg # of iterations =  3.4

     negative rho (up, down):  7.924E-01 0.000E+00

     total cpu time spent up to now is      570.5 secs

     total energy              =   -4440.29696288 Ry
     estimated scf accuracy    <       0.00000259 Ry

     iteration # 37     ecut=    60.00 Ry     beta= 0.15
     Davidson diagonalization with overlap

---- Real-time Memory Report at c_bands before calling an iterative solver
             0 MiB given to the printing process from OS
             0 MiB allocation reported by mallinfo(arena+hblkhd)
         50426 MiB available memory on the node where the printing process lives
------------------
     ethr =  6.03E-10,  avg # of iterations =  1.9

     negative rho (up, down):  7.924E-01 0.000E+00

     total cpu time spent up to now is      584.6 secs

     total energy              =   -4440.29696293 Ry
     estimated scf accuracy    <       0.00000191 Ry

     iteration # 38     ecut=    60.00 Ry     beta= 0.15
     Davidson diagonalization with overlap

---- Real-time Memory Report at c_bands before calling an iterative solver
             0 MiB given to the printing process from OS
             0 MiB allocation reported by mallinfo(arena+hblkhd)
         50454 MiB available memory on the node where the printing process lives
------------------
     ethr =  4.44E-10,  avg # of iterations =  2.0

     negative rho (up, down):  7.924E-01 0.000E+00

     total cpu time spent up to now is      598.6 secs

     total energy              =   -4440.29696271 Ry
     estimated scf accuracy    <       0.00000150 Ry

     iteration # 39     ecut=    60.00 Ry     beta= 0.15
     Davidson diagonalization with overlap

---- Real-time Memory Report at c_bands before calling an iterative solver
             0 MiB given to the printing process from OS
             0 MiB allocation reported by mallinfo(arena+hblkhd)
         50451 MiB available memory on the node where the printing process lives
------------------
     ethr =  3.49E-10,  avg # of iterations =  2.0

     negative rho (up, down):  7.924E-01 0.000E+00

     total cpu time spent up to now is      612.8 secs

     total energy              =   -4440.29696274 Ry
     estimated scf accuracy    <       0.00000131 Ry

     iteration # 40     ecut=    60.00 Ry     beta= 0.15
     Davidson diagonalization with overlap

---- Real-time Memory Report at c_bands before calling an iterative solver
             0 MiB given to the printing process from OS
             0 MiB allocation reported by mallinfo(arena+hblkhd)
         50449 MiB available memory on the node where the printing process lives
------------------
     ethr =  3.05E-10,  avg # of iterations =  1.0

     negative rho (up, down):  7.924E-01 0.000E+00

     total cpu time spent up to now is      625.5 secs

     total energy              =   -4440.29696334 Ry
     estimated scf accuracy    <       0.00000111 Ry

     iteration # 41     ecut=    60.00 Ry     beta= 0.15
     Davidson diagonalization with overlap

---- Real-time Memory Report at c_bands before calling an iterative solver
             0 MiB given to the printing process from OS
             0 MiB allocation reported by mallinfo(arena+hblkhd)
         50452 MiB available memory on the node where the printing process lives
------------------
     ethr =  2.59E-10,  avg # of iterations =  2.0

     negative rho (up, down):  7.925E-01 0.000E+00

     total cpu time spent up to now is      639.8 secs

     total energy              =   -4440.29696359 Ry
     estimated scf accuracy    <       0.00000069 Ry

     iteration # 42     ecut=    60.00 Ry     beta= 0.15
     Davidson diagonalization with overlap

---- Real-time Memory Report at c_bands before calling an iterative solver
             0 MiB given to the printing process from OS
             0 MiB allocation reported by mallinfo(arena+hblkhd)
         50471 MiB available memory on the node where the printing process lives
------------------
     ethr =  1.61E-10,  avg # of iterations =  2.7

     negative rho (up, down):  7.926E-01 0.000E+00

     total cpu time spent up to now is      654.6 secs

     total energy              =   -4440.29696359 Ry
     estimated scf accuracy    <       0.00000032 Ry

     iteration # 43     ecut=    60.00 Ry     beta= 0.15
     Davidson diagonalization with overlap

---- Real-time Memory Report at c_bands before calling an iterative solver
             0 MiB given to the printing process from OS
             0 MiB allocation reported by mallinfo(arena+hblkhd)
         50475 MiB available memory on the node where the printing process lives
------------------
     ethr =  7.34E-11,  avg # of iterations =  2.2

     negative rho (up, down):  7.926E-01 0.000E+00

     total cpu time spent up to now is      668.8 secs

     total energy              =   -4440.29696345 Ry
     estimated scf accuracy    <       0.00000016 Ry

     iteration # 44     ecut=    60.00 Ry     beta= 0.15
     Davidson diagonalization with overlap

---- Real-time Memory Report at c_bands before calling an iterative solver
             0 MiB given to the printing process from OS
             0 MiB allocation reported by mallinfo(arena+hblkhd)
         50480 MiB available memory on the node where the printing process lives
------------------
     ethr =  3.82E-11,  avg # of iterations =  2.9

     negative rho (up, down):  7.926E-01 0.000E+00

     total cpu time spent up to now is      683.6 secs

     total energy              =   -4440.29696348 Ry
     estimated scf accuracy    <       0.00000005 Ry

     iteration # 45     ecut=    60.00 Ry     beta= 0.15
     Davidson diagonalization with overlap

---- Real-time Memory Report at c_bands before calling an iterative solver
             0 MiB given to the printing process from OS
             0 MiB allocation reported by mallinfo(arena+hblkhd)
         50474 MiB available memory on the node where the printing process lives
------------------
     ethr =  1.22E-11,  avg # of iterations =  2.0

     negative rho (up, down):  7.926E-01 0.000E+00

     total cpu time spent up to now is      697.6 secs

     total energy              =   -4440.29696349 Ry
     estimated scf accuracy    <       0.00000003 Ry

     iteration # 46     ecut=    60.00 Ry     beta= 0.15
     Davidson diagonalization with overlap

---- Real-time Memory Report at c_bands before calling an iterative solver
             0 MiB given to the printing process from OS
             0 MiB allocation reported by mallinfo(arena+hblkhd)
         50478 MiB available memory on the node where the printing process lives
------------------
     ethr =  7.35E-12,  avg # of iterations =  1.0

     negative rho (up, down):  7.926E-01 0.000E+00

     total cpu time spent up to now is      710.3 secs

     total energy              =   -4440.29696353 Ry
     estimated scf accuracy    <       0.00000002 Ry

     iteration # 47     ecut=    60.00 Ry     beta= 0.15
     Davidson diagonalization with overlap

---- Real-time Memory Report at c_bands before calling an iterative solver
             0 MiB given to the printing process from OS
             0 MiB allocation reported by mallinfo(arena+hblkhd)
         50476 MiB available memory on the node where the printing process lives
------------------
     ethr =  5.37E-12,  avg # of iterations =  2.0

     negative rho (up, down):  7.926E-01 0.000E+00

     total cpu time spent up to now is      724.3 secs

     total energy              =   -4440.29696355 Ry
     estimated scf accuracy    <       0.00000002 Ry

     iteration # 48     ecut=    60.00 Ry     beta= 0.15
     Davidson diagonalization with overlap

---- Real-time Memory Report at c_bands before calling an iterative solver
             0 MiB given to the printing process from OS
             0 MiB allocation reported by mallinfo(arena+hblkhd)
         50474 MiB available memory on the node where the printing process lives
------------------
     ethr =  3.75E-12,  avg # of iterations =  1.8

     negative rho (up, down):  7.926E-01 0.000E+00

     total cpu time spent up to now is      738.3 secs

     total energy              =   -4440.29696356 Ry
     estimated scf accuracy    <       0.00000001 Ry

     iteration # 49     ecut=    60.00 Ry     beta= 0.15
     Davidson diagonalization with overlap

---- Real-time Memory Report at c_bands before calling an iterative solver
             0 MiB given to the printing process from OS
             0 MiB allocation reported by mallinfo(arena+hblkhd)
         50477 MiB available memory on the node where the printing process lives
------------------
     ethr =  2.41E-12,  avg # of iterations =  2.0

     negative rho (up, down):  7.926E-01 0.000E+00

     total cpu time spent up to now is      752.6 secs

     End of self-consistent calculation

          k = 0.0000 0.0000 0.0000 ( 65197 PWs)   bands (ev):

   -92.8663 -92.8152 -92.7206 -92.6738 -92.6145 -92.5727 -92.5558 -92.4334
   -56.2199 -56.2020 -56.0774 -56.0667 -56.0610 -56.0536 -56.0192 -55.9894
   -55.9748 -55.9725 -55.9649 -55.9218 -55.9042 -55.8655 -55.8473 -55.8146
   -55.8094 -55.7609 -55.7597 -55.7577 -55.7493 -55.7064 -55.6858 -55.6004
   -31.4311 -31.4112 -31.2690 -31.2564 -31.1820 -31.0605 -31.0103 -30.7908
   -30.0122 -29.9690 -29.9424 -29.8339 -15.2431 -15.1971 -15.1178 -14.9875
   -14.7905 -14.6684 -14.3798 -14.3592 -14.3317 -14.2839 -14.2361 -14.2209
   -14.2162 -14.1980 -14.1826 -14.1368 -14.0932 -13.9397 -13.7560 -13.7278
   -13.6976 -13.6620 -13.6478 -13.5889 -13.5583 -13.4736 -13.4056 -13.2854
   -13.2638 -13.2586 -13.2308 -13.2286 -13.2099 -13.1556 -13.1474 -13.1318
   -13.1049 -13.0765 -13.0584 -13.0471 -13.0242 -12.9731 -12.9405 -12.9096
   -12.8841 -12.7477 -12.7421 -12.7157 -12.4967 -12.3509 -12.1597 -12.0841
   -12.0250 -11.9782 -11.9515 -11.9400 -11.9170 -11.8992 -11.8358 -11.8183
   -11.7842 -11.7548 -11.6421 -11.5632 -11.5596  -3.1042  -2.8725  -2.6427
    -2.4955  -2.4331  -2.2914  -1.9836  -1.9691  -1.9503  -1.8642  -1.8453
    -1.7766  -1.7604  -1.7202  -1.6738  -1.4941  -1.2678  -1.2390  -1.0939
    -1.0792  -1.0329  -1.0127  -0.9671  -0.9506  -0.8973  -0.8700  -0.7959
    -0.7832  -0.7102  -0.5756  -0.5620  -0.5349  -0.4549  -0.4297  -0.4078
    -0.3549  -0.2907  -0.2441  -0.1910  -0.1658  -0.0976  -0.0198   0.0177
     0.0452   0.0610   0.3127   0.3279   0.5014   0.5639   0.6289   0.6881
     0.7682   0.7794   0.7993   0.8617   0.8885   0.9225   0.9796   1.1101
     1.1696   1.1918   1.2192   1.2277   1.2881   1.3570   1.4678   1.4846
     1.5439   1.5537   1.5992   1.6198   1.6268   1.6821   1.7445   1.7529
     1.7916   1.8288   1.8658   1.9980   2.0820   2.1229   2.1468   2.2913
     2.3092   2.3476   2.3494   2.4636   2.4942   2.5194   2.5403   2.5542
     2.6209   2.6282   2.6363   2.6816   2.7457   2.7773   2.7881   2.7946
     2.8617   2.8666   2.8904   2.8976   2.9075   2.9227   2.9266   2.9412
     2.9469   2.9622   2.9684   2.9798   2.9932   3.0140   3.0207   3.0312
     3.0567   3.1719   3.2794   3.9587   4.2687   4.6234   4.8360   4.8898
     5.7787   5.7974   5.8324   5.8869   6.1512   6.1976   6.4433   6.4534
     6.9531   6.9823   7.0819   7.1739   7.4182   7.5106   7.5494   7.5607
     7.5823   7.8131   7.8828   8.0431   8.0492   8.1360   8.3148   8.5879
     8.7655   8.9433

     occupation numbers 
     1.0000   1.0000   1.0000   1.0000   1.0000   1.0000   1.0000   1.0000
     1.0000   1.0000   1.0000   1.0000   1.0000   1.0000   1.0000   1.0000
     1.0000   1.0000   1.0000   1.0000   1.0000   1.0000   1.0000   1.0000
     1.0000   1.0000   1.0000   1.0000   1.0000   1.0000   1.0000   1.0000
     1.0000   1.0000   1.0000   1.0000   1.0000   1.0000   1.0000   1.0000
     1.0000   1.0000   1.0000   1.0000   1.0000   1.0000   1.0000   1.0000
     1.0000   1.0000   1.0000   1.0000   1.0000   1.0000   1.0000   1.0000
     1.0000   1.0000   1.0000   1.0000   1.0000   1.0000   1.0000   1.0000
     1.0000   1.0000   1.0000   1.0000   1.0000   1.0000   1.0000   1.0000
     1.0000   1.0000   1.0000   1.0000   1.0000   1.0000   1.0000   1.0000
     1.0000   1.0000   1.0000   1.0000   1.0000   1.0000   1.0000   1.0000
     1.0000   1.0000   1.0000   1.0000   1.0000   1.0000   1.0000   1.0000
     1.0000   1.0000   1.0000   1.0000   1.0000   1.0000   1.0000   1.0000
     1.0000   1.0000   1.0000   1.0000   1.0000   1.0000   1.0000   1.0000
     1.0000   1.0000   1.0000   1.0000   1.0000   1.0000   1.0000   1.0000
     1.0000   1.0000   1.0000   1.0000   1.0000   1.0000   1.0000   1.0000
     1.0000   1.0000   1.0000   1.0000   1.0000   1.0000   1.0000   1.0000
     1.0000   1.0000   1.0000   1.0000   1.0000   1.0000   1.0000   1.0000
     1.0000   1.0000   1.0000   1.0000   1.0000   1.0000   1.0000   1.0000
     1.0000   1.0000   1.0000   1.0000   1.0000   0.9999   0.9999   0.9999
     0.9998   0.9998   0.9998   0.9997   0.9996   0.9996   0.9994   0.9988
     0.9985   0.9983   0.9980   0.9980   0.9973   0.9963   0.9941   0.9936
     0.9919   0.9915   0.9899   0.9890   0.9887   0.9860   0.9824   0.9818
     0.9791   0.9762   0.9729   0.9581   0.9457   0.9386   0.9342   0.9021
     0.8974   0.8868   0.8863   0.8503   0.8394   0.8301   0.8222   0.8167
     0.7893   0.7861   0.7826   0.7623   0.7319   0.7162   0.7108   0.7075
     0.6724   0.6697   0.6568   0.6529   0.6474   0.6390   0.6368   0.6287
     0.6255   0.6168   0.6133   0.6068   0.5991   0.5871   0.5833   0.5772
     0.5623   0.4943   0.4310   0.1185   0.0502   0.0150   0.0065   0.0052
     0.0001   0.0000   0.0000   0.0000   0.0000   0.0000   0.0000   0.0000
     0.0000   0.0000   0.0000   0.0000   0.0000   0.0000   0.0000   0.0000
     0.0000   0.0000   0.0000   0.0000   0.0000   0.0000   0.0000   0.0000
     0.0000   0.0000

          k = 0.0000 0.2500 0.0000 ( 65257 PWs)   bands (ev):

   -92.8663 -92.8152 -92.7206 -92.6738 -92.6145 -92.5727 -92.5558 -92.4334
   -56.2199 -56.2020 -56.0774 -56.0667 -56.0610 -56.0536 -56.0192 -55.9894
   -55.9748 -55.9725 -55.9649 -55.9218 -55.9042 -55.8655 -55.8473 -55.8146
   -55.8094 -55.7609 -55.7597 -55.7577 -55.7493 -55.7064 -55.6858 -55.6004
   -31.4309 -31.4111 -31.2692 -31.2562 -31.1822 -31.0604 -31.0105 -30.7909
   -30.0116 -29.9687 -29.9430 -29.8343 -15.2066 -15.1706 -15.0926 -14.9582
   -14.8336 -14.6586 -14.5250 -14.3455 -14.3093 -14.2889 -14.2592 -14.2028
   -14.1941 -14.1791 -14.1612 -14.1071 -14.0109 -13.9712 -13.8056 -13.7831
   -13.7385 -13.7006 -13.6512 -13.6112 -13.5632 -13.4993 -13.4597 -13.3893
   -13.3173 -13.3004 -13.2630 -13.2515 -13.2141 -13.1395 -13.1127 -13.0873
   -13.0599 -13.0424 -13.0215 -13.0186 -12.9846 -12.9523 -12.9166 -12.8333
   -12.7844 -12.7378 -12.6892 -12.6334 -12.5580 -12.4020 -12.2136 -12.1472
   -11.9905 -11.9781 -11.9484 -11.9198 -11.8914 -11.8750 -11.8277 -11.8163
   -11.7936 -11.7602 -11.6563 -11.6047 -11.5943  -2.9688  -2.7482  -2.6101
    -2.4283  -2.3847  -2.2215  -2.0004  -1.9180  -1.9050  -1.8449  -1.7438
    -1.7277  -1.6923  -1.6662  -1.6221  -1.4252  -1.2963  -1.2851  -1.2068
    -1.1984  -1.0947  -1.0645  -1.0050  -0.9796  -0.9408  -0.8757  -0.8486
    -0.8173  -0.7852  -0.7678  -0.7364  -0.6607  -0.6112  -0.5362  -0.4285
    -0.4038  -0.3645  -0.2530  -0.2169  -0.1476  -0.1050  -0.0352  -0.0153
     0.0011   0.0576   0.3607   0.4473   0.4782   0.5695   0.6167   0.6466
     0.7503   0.7702   0.8649   0.8902   0.9141   1.0297   1.1266   1.1452
     1.1697   1.1932   1.2137   1.2723   1.3007   1.3281   1.3751   1.4134
     1.4439   1.5288   1.5644   1.5999   1.6526   1.7046   1.7489   1.7783
     1.8051   1.8159   1.9163   2.0314   2.1054   2.1291   2.1969   2.2447
     2.2851   2.2958   2.3560   2.3915   2.4788   2.5166   2.5341   2.6158
     2.6265   2.6577   2.7047   2.7287   2.7574   2.7816   2.7976   2.8047
     2.8109   2.8231   2.8506   2.8550   2.8721   2.8796   2.8883   2.9059
     2.9199   2.9246   2.9448   2.9554   2.9618   2.9950   3.0114   3.0750
     3.4404   3.4961   3.7241   4.1527   4.2652   4.5596   4.9079   4.9995
     5.5253   5.6564   5.8255   5.9199   5.9653   6.0097   6.0777   6.5579
     7.0371   7.0726   7.2284   7.2546   7.3603   7.4186   7.4980   7.5601
     7.7100   7.8389   8.0806   8.2077   8.2785   8.3110   8.3394   8.3926
     8.6284   8.8332

     occupation numbers 
     1.0000   1.0000   1.0000   1.0000   1.0000   1.0000   1.0000   1.0000
     1.0000   1.0000   1.0000   1.0000   1.0000   1.0000   1.0000   1.0000
     1.0000   1.0000   1.0000   1.0000   1.0000   1.0000   1.0000   1.0000
     1.0000   1.0000   1.0000   1.0000   1.0000   1.0000   1.0000   1.0000
     1.0000   1.0000   1.0000   1.0000   1.0000   1.0000   1.0000   1.0000
     1.0000   1.0000   1.0000   1.0000   1.0000   1.0000   1.0000   1.0000
     1.0000   1.0000   1.0000   1.0000   1.0000   1.0000   1.0000   1.0000
     1.0000   1.0000   1.0000   1.0000   1.0000   1.0000   1.0000   1.0000
     1.0000   1.0000   1.0000   1.0000   1.0000   1.0000   1.0000   1.0000
     1.0000   1.0000   1.0000   1.0000   1.0000   1.0000   1.0000   1.0000
     1.0000   1.0000   1.0000   1.0000   1.0000   1.0000   1.0000   1.0000
     1.0000   1.0000   1.0000   1.0000   1.0000   1.0000   1.0000   1.0000
     1.0000   1.0000   1.0000   1.0000   1.0000   1.0000   1.0000   1.0000
     1.0000   1.0000   1.0000   1.0000   1.0000   1.0000   1.0000   1.0000
     1.0000   1.0000   1.0000   1.0000   1.0000   1.0000   1.0000   1.0000
     1.0000   1.0000   1.0000   1.0000   1.0000   1.0000   1.0000   1.0000
     1.0000   1.0000   1.0000   1.0000   1.0000   1.0000   1.0000   1.0000
     1.0000   1.0000   1.0000   1.0000   1.0000   1.0000   1.0000   1.0000
     1.0000   1.0000   1.0000   1.0000   1.0000   1.0000   1.0000   1.0000
     1.0000   1.0000   1.0000   1.0000   1.0000   0.9999   0.9999   0.9999
     0.9998   0.9998   0.9997   0.9996   0.9996   0.9992   0.9987   0.9986
     0.9985   0.9983   0.9981   0.9975   0.9971   0.9968   0.9960   0.9953
     0.9946   0.9924   0.9912   0.9898   0.9875   0.9848   0.9821   0.9801
     0.9781   0.9772   0.9679   0.9535   0.9417   0.9375   0.9241   0.9135
     0.9036   0.9009   0.8844   0.8738   0.8449   0.8312   0.8245   0.7915
     0.7869   0.7731   0.7516   0.7402   0.7261   0.7141   0.7059   0.7023
     0.6991   0.6928   0.6783   0.6759   0.6668   0.6627   0.6580   0.6483
     0.6406   0.6379   0.6266   0.6207   0.6170   0.5981   0.5886   0.5516
     0.3398   0.3101   0.2021   0.0707   0.0507   0.0190   0.0048   0.0032
     0.0002   0.0001   0.0000   0.0000   0.0000   0.0000   0.0000   0.0000
     0.0000   0.0000   0.0000   0.0000   0.0000   0.0000   0.0000   0.0000
     0.0000   0.0000   0.0000   0.0000   0.0000   0.0000   0.0000   0.0000
     0.0000   0.0000

          k = 0.0000-0.5000 0.0000 ( 65180 PWs)   bands (ev):

   -92.8663 -92.8152 -92.7206 -92.6738 -92.6145 -92.5727 -92.5558 -92.4334
   -56.2199 -56.2020 -56.0774 -56.0667 -56.0610 -56.0536 -56.0192 -55.9894
   -55.9748 -55.9725 -55.9649 -55.9218 -55.9042 -55.8655 -55.8473 -55.8146
   -55.8094 -55.7609 -55.7597 -55.7577 -55.7493 -55.7064 -55.6858 -55.6004
   -31.4307 -31.4110 -31.2694 -31.2561 -31.1823 -31.0602 -31.0106 -30.7910
   -30.0110 -29.9684 -29.9436 -29.8346 -15.1704 -15.1225 -15.0662 -14.9413
   -14.8550 -14.7214 -14.5571 -14.4441 -14.3181 -14.2425 -14.2026 -14.1976
   -14.1457 -14.1309 -14.0790 -14.0570 -14.0344 -14.0015 -13.9647 -13.9139
   -13.7440 -13.6848 -13.6545 -13.6159 -13.5578 -13.5170 -13.4568 -13.4355
   -13.4094 -13.3697 -13.2644 -13.2536 -13.2094 -13.1217 -13.1101 -13.0821
   -13.0747 -13.0367 -13.0175 -12.9830 -12.9114 -12.8602 -12.8069 -12.8033
   -12.7677 -12.7353 -12.6687 -12.5767 -12.4770 -12.4541 -12.3050 -12.2548
   -11.9781 -11.9453 -11.9422 -11.9145 -11.8772 -11.8428 -11.8316 -11.7902
   -11.7861 -11.7420 -11.6778 -11.6650 -11.6512  -2.7541  -2.6948  -2.5450
    -2.4734  -2.1902  -2.1065  -1.9798  -1.8440  -1.8029  -1.7864  -1.7066
    -1.6774  -1.5933  -1.5590  -1.4804  -1.4414  -1.4043  -1.3768  -1.3146
    -1.2801  -1.2341  -1.1979  -1.1642  -1.1319  -1.0207  -0.9768  -0.9394
    -0.9370  -0.8522  -0.8199  -0.7996  -0.7477  -0.6609  -0.5904  -0.5015
    -0.4690  -0.3703  -0.3276  -0.1913  -0.1405  -0.1260  -0.0557   0.0644
     0.1068   0.2293   0.2998   0.3067   0.4332   0.4896   0.6132   0.7126
     0.8227   0.8530   0.8932   0.9020   0.9438   0.9539   0.9874   1.0048
     1.0162   1.1254   1.1889   1.2239   1.2458   1.5116   1.5379   1.5592
     1.6601   1.6870   1.7093   1.7232   1.7493   1.7662   1.7836   1.8075
     1.8411   1.8750   1.9078   1.9112   1.9391   1.9912   2.0771   2.1080
     2.2909   2.4389   2.4489   2.4710   2.5015   2.5108   2.5168   2.5684
     2.5814   2.6069   2.6249   2.6332   2.6436   2.6807   2.7370   2.7598
     2.8180   2.8321   2.8472   2.8503   2.8670   2.8750   2.8806   2.8847
     2.8881   2.9079   2.9164   2.9204   2.9804   2.9862   3.0009   3.0551
     3.9779   4.0067   4.0188   4.1069   4.5958   4.7464   4.9212   5.0187
     5.3014   5.3717   5.5065   5.6007   5.8728   5.8937   6.2410   6.7071
     6.8020   6.9034   7.1512   7.3238   7.5469   7.5722   7.6627   7.7343
     7.7924   7.8667   8.0245   8.2041   8.2576   8.3589   8.5262   8.5891
     8.7037   8.7559

     occupation numbers 
     1.0000   1.0000   1.0000   1.0000   1.0000   1.0000   1.0000   1.0000
     1.0000   1.0000   1.0000   1.0000   1.0000   1.0000   1.0000   1.0000
     1.0000   1.0000   1.0000   1.0000   1.0000   1.0000   1.0000   1.0000
     1.0000   1.0000   1.0000   1.0000   1.0000   1.0000   1.0000   1.0000
     1.0000   1.0000   1.0000   1.0000   1.0000   1.0000   1.0000   1.0000
     1.0000   1.0000   1.0000   1.0000   1.0000   1.0000   1.0000   1.0000
     1.0000   1.0000   1.0000   1.0000   1.0000   1.0000   1.0000   1.0000
     1.0000   1.0000   1.0000   1.0000   1.0000   1.0000   1.0000   1.0000
     1.0000   1.0000   1.0000   1.0000   1.0000   1.0000   1.0000   1.0000
     1.0000   1.0000   1.0000   1.0000   1.0000   1.0000   1.0000   1.0000
     1.0000   1.0000   1.0000   1.0000   1.0000   1.0000   1.0000   1.0000
     1.0000   1.0000   1.0000   1.0000   1.0000   1.0000   1.0000   1.0000
     1.0000   1.0000   1.0000   1.0000   1.0000   1.0000   1.0000   1.0000
     1.0000   1.0000   1.0000   1.0000   1.0000   1.0000   1.0000   1.0000
     1.0000   1.0000   1.0000   1.0000   1.0000   1.0000   1.0000   1.0000
     1.0000   1.0000   1.0000   1.0000   1.0000   1.0000   1.0000   1.0000
     1.0000   1.0000   1.0000   1.0000   1.0000   1.0000   1.0000   1.0000
     1.0000   1.0000   1.0000   1.0000   1.0000   1.0000   1.0000   1.0000
     1.0000   1.0000   1.0000   1.0000   1.0000   1.0000   1.0000   1.0000
     1.0000   1.0000   1.0000   1.0000   1.0000   1.0000   0.9999   0.9999
     0.9997   0.9997   0.9996   0.9996   0.9995   0.9995   0.9994   0.9993
     0.9993   0.9988   0.9983   0.9980   0.9978   0.9929   0.9921   0.9914
     0.9871   0.9858   0.9845   0.9837   0.9821   0.9809   0.9797   0.9779
     0.9751   0.9720   0.9688   0.9684   0.9653   0.9590   0.9465   0.9413
     0.9022   0.8586   0.8553   0.8477   0.8368   0.8333   0.8311   0.8111
     0.8058   0.7952   0.7876   0.7840   0.7794   0.7627   0.7361   0.7250
     0.6954   0.6880   0.6801   0.6784   0.6695   0.6652   0.6621   0.6599
     0.6580   0.6472   0.6425   0.6403   0.6065   0.6031   0.5947   0.5632
     0.1129   0.1049   0.1017   0.0804   0.0166   0.0093   0.0045   0.0029
     0.0007   0.0005   0.0002   0.0001   0.0000   0.0000   0.0000   0.0000
     0.0000   0.0000   0.0000   0.0000   0.0000   0.0000   0.0000   0.0000
     0.0000   0.0000   0.0000   0.0000   0.0000   0.0000   0.0000   0.0000
     0.0000   0.0000

          k = 0.2500 0.2500 0.0000 ( 65198 PWs)   bands (ev):

   -92.8663 -92.8152 -92.7206 -92.6738 -92.6145 -92.5727 -92.5558 -92.4334
   -56.2199 -56.2020 -56.0774 -56.0667 -56.0610 -56.0536 -56.0192 -55.9894
   -55.9748 -55.9725 -55.9649 -55.9218 -55.9042 -55.8655 -55.8473 -55.8146
   -55.8094 -55.7609 -55.7597 -55.7577 -55.7493 -55.7064 -55.6858 -55.6004
   -31.4293 -31.4128 -31.2688 -31.2561 -31.1825 -31.0605 -31.0103 -30.7911
   -30.0107 -29.9697 -29.9426 -29.8347 -15.1777 -15.1359 -15.0644 -14.9481
   -14.8258 -14.7003 -14.6312 -14.4227 -14.2686 -14.2547 -14.2183 -14.1907
   -14.1668 -14.1356 -14.1078 -14.0693 -14.0010 -13.9844 -13.8217 -13.8081
   -13.7785 -13.7590 -13.6985 -13.6688 -13.5970 -13.5824 -13.4453 -13.4030
   -13.3804 -13.2964 -13.2557 -13.2118 -13.1870 -13.1716 -13.1268 -13.1000
   -13.0717 -13.0459 -12.9927 -12.9426 -12.9298 -12.8984 -12.8734 -12.8672
   -12.8038 -12.7365 -12.6377 -12.6064 -12.5083 -12.4311 -12.2429 -12.1964
   -11.9783 -11.9628 -11.9316 -11.9202 -11.9132 -11.8510 -11.8156 -11.8094
   -11.7740 -11.7658 -11.6731 -11.6330 -11.6157  -2.8304  -2.6224  -2.5039
    -2.4094  -2.2893  -2.2248  -2.0249  -1.8826  -1.8636  -1.8321  -1.7388
    -1.7028  -1.6100  -1.5818  -1.5317  -1.4015  -1.3526  -1.2789  -1.2355
    -1.1901  -1.1674  -1.1437  -1.1002  -1.0860  -0.9947  -0.9447  -0.8765
    -0.8283  -0.7989  -0.7502  -0.7346  -0.6715  -0.6227  -0.5602  -0.5290
    -0.4405  -0.3919  -0.3608  -0.3247  -0.2682  -0.1932  -0.1572  -0.1262
    -0.0497  -0.0034   0.2486   0.3979   0.4305   0.4912   0.5318   0.6101
     0.6541   0.7107   0.7451   1.0171   1.0796   1.1533   1.1771   1.2305
     1.2576   1.2932   1.3302   1.3475   1.3743   1.4218   1.4299   1.4444
     1.4927   1.5329   1.5687   1.6259   1.6691   1.6749   1.7147   1.7453
     1.8037   1.8326   1.9553   2.0151   2.0483   2.0723   2.1423   2.2090
     2.2343   2.2694   2.2954   2.3080   2.4217   2.4579   2.5453   2.6175
     2.6196   2.6732   2.7160   2.7310   2.7362   2.7530   2.7677   2.7815
     2.7931   2.7996   2.8114   2.8250   2.8377   2.8564   2.8669   2.8734
     2.8971   2.9085   2.9156   2.9493   3.2476   3.3420   3.3881   3.4605
     3.4929   3.7082   3.7920   4.1521   4.3595   4.5708   4.8267   5.1381
     5.5147   5.5755   5.6209   5.6760   5.7386   6.0953   6.1319   6.1703
     6.8474   7.0321   7.2190   7.3717   7.4661   7.4952   7.6052   7.7731
     7.8086   8.0113   8.1633   8.2168   8.3383   8.3884   8.4404   8.4664
     8.5395   8.7135

     occupation numbers 
     1.0000   1.0000   1.0000   1.0000   1.0000   1.0000   1.0000   1.0000
     1.0000   1.0000   1.0000   1.0000   1.0000   1.0000   1.0000   1.0000
     1.0000   1.0000   1.0000   1.0000   1.0000   1.0000   1.0000   1.0000
     1.0000   1.0000   1.0000   1.0000   1.0000   1.0000   1.0000   1.0000
     1.0000   1.0000   1.0000   1.0000   1.0000   1.0000   1.0000   1.0000
     1.0000   1.0000   1.0000   1.0000   1.0000   1.0000   1.0000   1.0000
     1.0000   1.0000   1.0000   1.0000   1.0000   1.0000   1.0000   1.0000
     1.0000   1.0000   1.0000   1.0000   1.0000   1.0000   1.0000   1.0000
     1.0000   1.0000   1.0000   1.0000   1.0000   1.0000   1.0000   1.0000
     1.0000   1.0000   1.0000   1.0000   1.0000   1.0000   1.0000   1.0000
     1.0000   1.0000   1.0000   1.0000   1.0000   1.0000   1.0000   1.0000
     1.0000   1.0000   1.0000   1.0000   1.0000   1.0000   1.0000   1.0000
     1.0000   1.0000   1.0000   1.0000   1.0000   1.0000   1.0000   1.0000
     1.0000   1.0000   1.0000   1.0000   1.0000   1.0000   1.0000   1.0000
     1.0000   1.0000   1.0000   1.0000   1.0000   1.0000   1.0000   1.0000
     1.0000   1.0000   1.0000   1.0000   1.0000   1.0000   1.0000   1.0000
     1.0000   1.0000   1.0000   1.0000   1.0000   1.0000   1.0000   1.0000
     1.0000   1.0000   1.0000   1.0000   1.0000   1.0000   1.0000   1.0000
     1.0000   1.0000   1.0000   1.0000   1.0000   1.0000   1.0000   1.0000
     1.0000   1.0000   1.0000   1.0000   1.0000   1.0000   1.0000   0.9999
     0.9999   0.9999   0.9998   0.9993   0.9990   0.9986   0.9984   0.9979
     0.9977   0.9972   0.9967   0.9965   0.9960   0.9951   0.9950   0.9946
     0.9934   0.9922   0.9910   0.9887   0.9867   0.9864   0.9842   0.9823
     0.9782   0.9758   0.9635   0.9558   0.9510   0.9472   0.9351   0.9215
     0.9159   0.9076   0.9010   0.8977   0.8643   0.8522   0.8202   0.7907
     0.7898   0.7662   0.7462   0.7391   0.7365   0.7283   0.7211   0.7141
     0.7083   0.7049   0.6988   0.6918   0.6851   0.6752   0.6695   0.6660
     0.6531   0.6469   0.6429   0.6241   0.4496   0.3948   0.3687   0.3290
     0.3117   0.2088   0.1749   0.0708   0.0377   0.0182   0.0067   0.0017
     0.0002   0.0002   0.0001   0.0001   0.0001   0.0000   0.0000   0.0000
     0.0000   0.0000   0.0000   0.0000   0.0000   0.0000   0.0000   0.0000
     0.0000   0.0000   0.0000   0.0000   0.0000   0.0000   0.0000   0.0000
     0.0000   0.0000

          k = 0.2500-0.5000 0.0000 ( 65138 PWs)   bands (ev):

   -92.8663 -92.8152 -92.7206 -92.6738 -92.6145 -92.5727 -92.5558 -92.4334
   -56.2199 -56.2020 -56.0774 -56.0667 -56.0610 -56.0536 -56.0192 -55.9894
   -55.9748 -55.9725 -55.9649 -55.9218 -55.9042 -55.8655 -55.8473 -55.8146
   -55.8094 -55.7609 -55.7597 -55.7577 -55.7493 -55.7064 -55.6858 -55.6004
   -31.4291 -31.4126 -31.2690 -31.2560 -31.1827 -31.0604 -31.0105 -30.7912
   -30.0100 -29.9694 -29.9432 -29.8350 -15.1396 -15.0957 -15.0231 -14.9125
   -14.8770 -14.7613 -14.6629 -14.5403 -14.2335 -14.1783 -14.1548 -14.1298
   -14.1161 -14.1024 -14.0630 -14.0449 -14.0169 -13.9778 -13.9547 -13.9059
   -13.8252 -13.7764 -13.7140 -13.6963 -13.6257 -13.6080 -13.4985 -13.4541
   -13.3608 -13.2953 -13.2769 -13.1959 -13.1744 -13.1426 -13.1272 -13.0973
   -13.0659 -13.0326 -13.0135 -12.9650 -12.9212 -12.8458 -12.8184 -12.8102
   -12.7795 -12.7375 -12.6753 -12.5344 -12.4744 -12.4069 -12.2987 -12.2656
   -11.9782 -11.9387 -11.9266 -11.9154 -11.8881 -11.8572 -11.8279 -11.7877
   -11.7596 -11.7381 -11.6911 -11.6661 -11.6554  -2.6121  -2.5462  -2.4187
    -2.3420  -2.2106  -2.1260  -2.0041  -1.8548  -1.7988  -1.7783  -1.7157
    -1.7025  -1.6040  -1.5389  -1.4542  -1.4023  -1.3937  -1.3312  -1.2862
    -1.2540  -1.2061  -1.1691  -1.1344  -1.0950  -1.0810  -1.0378  -1.0083
    -0.9657  -0.9348  -0.8676  -0.7638  -0.7239  -0.6459  -0.5807  -0.5283
    -0.4880  -0.4699  -0.4129  -0.2534  -0.2447  -0.1297  -0.1039  -0.0916
    -0.0455  -0.0176   0.0234   0.0470   0.1130   0.3928   0.4865   0.5770
     0.6272   0.8789   0.9022   0.9882   1.0158   1.1772   1.2140   1.2535
     1.2743   1.2889   1.3100   1.3748   1.4242   1.4565   1.5418   1.6288
     1.6686   1.6887   1.7007   1.7333   1.7481   1.7511   1.7993   1.8094
     1.8273   1.8735   1.8811   1.8995   1.9369   1.9915   2.0313   2.1122
     2.2510   2.3915   2.4097   2.4283   2.4575   2.4783   2.5048   2.5276
     2.5363   2.5618   2.6117   2.6233   2.6453   2.6906   2.7144   2.7323
     2.7459   2.7557   2.7702   2.7860   2.8036   2.8104   2.8455   2.8585
     2.8693   2.8793   2.8949   2.8992   3.4331   3.4406   3.5790   3.6301
     3.9850   4.0250   4.0442   4.1603   4.6130   4.7676   4.9412   4.9819
     5.1509   5.3183   5.5199   5.5445   5.6419   5.6849   6.3441   6.3500
     6.4595   6.8270   7.1518   7.5972   7.6719   7.7243   7.7548   7.7966
     7.8749   7.9453   8.1498   8.2650   8.4112   8.4283   8.5668   8.6038
     8.6499   8.7503

     occupation numbers 
     1.0000   1.0000   1.0000   1.0000   1.0000   1.0000   1.0000   1.0000
     1.0000   1.0000   1.0000   1.0000   1.0000   1.0000   1.0000   1.0000
     1.0000   1.0000   1.0000   1.0000   1.0000   1.0000   1.0000   1.0000
     1.0000   1.0000   1.0000   1.0000   1.0000   1.0000   1.0000   1.0000
     1.0000   1.0000   1.0000   1.0000   1.0000   1.0000   1.0000   1.0000
     1.0000   1.0000   1.0000   1.0000   1.0000   1.0000   1.0000   1.0000
     1.0000   1.0000   1.0000   1.0000   1.0000   1.0000   1.0000   1.0000
     1.0000   1.0000   1.0000   1.0000   1.0000   1.0000   1.0000   1.0000
     1.0000   1.0000   1.0000   1.0000   1.0000   1.0000   1.0000   1.0000
     1.0000   1.0000   1.0000   1.0000   1.0000   1.0000   1.0000   1.0000
     1.0000   1.0000   1.0000   1.0000   1.0000   1.0000   1.0000   1.0000
     1.0000   1.0000   1.0000   1.0000   1.0000   1.0000   1.0000   1.0000
     1.0000   1.0000   1.0000   1.0000   1.0000   1.0000   1.0000   1.0000
     1.0000   1.0000   1.0000   1.0000   1.0000   1.0000   1.0000   1.0000
     1.0000   1.0000   1.0000   1.0000   1.0000   1.0000   1.0000   1.0000
     1.0000   1.0000   1.0000   1.0000   1.0000   1.0000   1.0000   1.0000
     1.0000   1.0000   1.0000   1.0000   1.0000   1.0000   1.0000   1.0000
     1.0000   1.0000   1.0000   1.0000   1.0000   1.0000   1.0000   1.0000
     1.0000   1.0000   1.0000   1.0000   1.0000   1.0000   1.0000   1.0000
     1.0000   1.0000   1.0000   1.0000   1.0000   1.0000   1.0000   0.9999
     0.9999   0.9997   0.9996   0.9994   0.9993   0.9984   0.9981   0.9977
     0.9975   0.9973   0.9970   0.9960   0.9951   0.9943   0.9919   0.9886
     0.9867   0.9857   0.9850   0.9831   0.9821   0.9819   0.9785   0.9777
     0.9763   0.9722   0.9714   0.9696   0.9656   0.9589   0.9535   0.9405
     0.9120   0.8738   0.8681   0.8621   0.8523   0.8451   0.8356   0.8270
     0.8237   0.8137   0.7932   0.7883   0.7786   0.7582   0.7470   0.7384
     0.7318   0.7270   0.7198   0.7118   0.7028   0.6993   0.6810   0.6740
     0.6682   0.6628   0.6543   0.6520   0.3438   0.3397   0.2680   0.2437
     0.1109   0.1001   0.0952   0.0692   0.0156   0.0086   0.0041   0.0034
     0.0016   0.0007   0.0002   0.0002   0.0001   0.0001   0.0000   0.0000
     0.0000   0.0000   0.0000   0.0000   0.0000   0.0000   0.0000   0.0000
     0.0000   0.0000   0.0000   0.0000   0.0000   0.0000   0.0000   0.0000
     0.0000   0.0000

          k =-0.5000-0.5000 0.0000 ( 65132 PWs)   bands (ev):

   -92.8663 -92.8152 -92.7206 -92.6738 -92.6145 -92.5727 -92.5558 -92.4334
   -56.2199 -56.2020 -56.0774 -56.0667 -56.0610 -56.0536 -56.0192 -55.9894
   -55.9748 -55.9725 -55.9649 -55.9218 -55.9042 -55.8655 -55.8473 -55.8146
   -55.8094 -55.7609 -55.7597 -55.7577 -55.7493 -55.7064 -55.6858 -55.6004
   -31.4270 -31.4147 -31.2687 -31.2558 -31.1831 -31.0606 -31.0103 -30.7913
   -30.0090 -29.9704 -29.9428 -29.8354 -15.0924 -15.0684 -14.9517 -14.9361
   -14.8390 -14.8077 -14.7705 -14.6393 -14.1449 -14.1328 -14.0996 -14.0800
   -14.0612 -14.0408 -14.0221 -14.0082 -13.9888 -13.9872 -13.9710 -13.8920
   -13.8841 -13.8506 -13.8196 -13.7993 -13.7122 -13.6761 -13.5364 -13.4918
   -13.3117 -13.2748 -13.2031 -13.1796 -13.1564 -13.1422 -13.1378 -13.1283
   -13.1104 -13.0024 -12.9747 -12.9490 -12.9363 -12.8964 -12.8607 -12.7642
   -12.7543 -12.7394 -12.6917 -12.4995 -12.4706 -12.3588 -12.2892 -12.2870
   -11.9783 -11.9349 -11.9229 -11.9050 -11.8881 -11.8533 -11.8360 -11.7999
   -11.7394 -11.7201 -11.7140 -11.6641 -11.6612  -2.3869  -2.3127  -2.3031
    -2.2279  -2.1918  -2.1139  -2.0459  -1.9192  -1.8051  -1.7755  -1.7341
    -1.6783  -1.6069  -1.5908  -1.5220  -1.4780  -1.3607  -1.3302  -1.2827
    -1.2560  -1.1916  -1.1436  -1.1262  -1.1132  -1.0576  -1.0161  -0.9985
    -0.8870  -0.8298  -0.7822  -0.7334  -0.7027  -0.6895  -0.6568  -0.6139
    -0.5763  -0.5696  -0.4830  -0.4186  -0.3730  -0.3456  -0.2732  -0.2129
    -0.1990  -0.1427  -0.1080  -0.1010  -0.0773   0.3676   0.4053   0.5177
     0.5563   0.9091   0.9232   0.9560   0.9944   1.2652   1.2844   1.2909
     1.3314   1.4557   1.5489   1.5771   1.6129   1.6378   1.6624   1.6690
     1.6989   1.7114   1.7285   1.7394   1.7879   1.7897   1.8196   1.8404
     1.8585   1.8722   1.9088   1.9337   1.9513   1.9801   2.0131   2.0704
     2.1378   2.4037   2.4357   2.4540   2.4734   2.4830   2.5079   2.5187
     2.5388   2.5458   2.5615   2.5824   2.5951   2.6174   2.6214   2.6433
     2.6665   2.6721   2.6949   2.7096   2.7248   2.7384   2.7434   2.7688
     2.8557   2.8593   2.8877   2.9010   3.8781   3.8959   3.9036   3.9163
     4.1580   4.2364   4.2543   4.4951   4.6174   4.7000   4.8330   4.9355
     4.9553   5.0446   5.1805   5.2751   5.8106   5.8583   5.9048   6.0252
     6.5896   6.7431   7.0472   7.4504   7.8528   7.8640   7.9433   8.0866
     8.1281   8.1626   8.1889   8.2676   8.3544   8.4666   8.4841   8.5101
     8.5442   8.6251

     occupation numbers 
     1.0000   1.0000   1.0000   1.0000   1.0000   1.0000   1.0000   1.0000
     1.0000   1.0000   1.0000   1.0000   1.0000   1.0000   1.0000   1.0000
     1.0000   1.0000   1.0000   1.0000   1.0000   1.0000   1.0000   1.0000
     1.0000   1.0000   1.0000   1.0000   1.0000   1.0000   1.0000   1.0000
     1.0000   1.0000   1.0000   1.0000   1.0000   1.0000   1.0000   1.0000
     1.0000   1.0000   1.0000   1.0000   1.0000   1.0000   1.0000   1.0000
     1.0000   1.0000   1.0000   1.0000   1.0000   1.0000   1.0000   1.0000
     1.0000   1.0000   1.0000   1.0000   1.0000   1.0000   1.0000   1.0000
     1.0000   1.0000   1.0000   1.0000   1.0000   1.0000   1.0000   1.0000
     1.0000   1.0000   1.0000   1.0000   1.0000   1.0000   1.0000   1.0000
     1.0000   1.0000   1.0000   1.0000   1.0000   1.0000   1.0000   1.0000
     1.0000   1.0000   1.0000   1.0000   1.0000   1.0000   1.0000   1.0000
     1.0000   1.0000   1.0000   1.0000   1.0000   1.0000   1.0000   1.0000
     1.0000   1.0000   1.0000   1.0000   1.0000   1.0000   1.0000   1.0000
     1.0000   1.0000   1.0000   1.0000   1.0000   1.0000   1.0000   1.0000
     1.0000   1.0000   1.0000   1.0000   1.0000   1.0000   1.0000   1.0000
     1.0000   1.0000   1.0000   1.0000   1.0000   1.0000   1.0000   1.0000
     1.0000   1.0000   1.0000   1.0000   1.0000   1.0000   1.0000   1.0000
     1.0000   1.0000   1.0000   1.0000   1.0000   1.0000   1.0000   1.0000
     1.0000   1.0000   1.0000   1.0000   1.0000   1.0000   1.0000   1.0000
     0.9999   0.9996   0.9996   0.9995   0.9994   0.9976   0.9974   0.9973
     0.9967   0.9944   0.9917   0.9907   0.9893   0.9882   0.9870   0.9867
     0.9851   0.9844   0.9834   0.9827   0.9794   0.9792   0.9769   0.9752
     0.9736   0.9723   0.9687   0.9659   0.9639   0.9604   0.9560   0.9475
     0.9359   0.8700   0.8597   0.8535   0.8468   0.8434   0.8344   0.8304
     0.8228   0.8200   0.8138   0.8054   0.8002   0.7908   0.7891   0.7795
     0.7692   0.7667   0.7562   0.7493   0.7420   0.7355   0.7331   0.7205
     0.6755   0.6736   0.6583   0.6510   0.1439   0.1380   0.1355   0.1314
     0.0696   0.0554   0.0525   0.0239   0.0154   0.0112   0.0066   0.0042
     0.0039   0.0026   0.0014   0.0009   0.0000   0.0000   0.0000   0.0000
     0.0000   0.0000   0.0000   0.0000   0.0000   0.0000   0.0000   0.0000
     0.0000   0.0000   0.0000   0.0000   0.0000   0.0000   0.0000   0.0000
     0.0000   0.0000

          k = 0.2500 0.0000 0.0000 ( 65257 PWs)   bands (ev):

   -92.8663 -92.8152 -92.7206 -92.6738 -92.6145 -92.5727 -92.5558 -92.4334
[...]
     0.6340   0.6199   0.6186   0.6145   0.6099   0.6049   0.5984   0.5262
     0.3452   0.3138   0.2040   0.0757   0.0449   0.0205   0.0049   0.0031
     0.0002   0.0001   0.0000   0.0000   0.0000   0.0000   0.0000   0.0000
     0.0000   0.0000   0.0000   0.0000   0.0000   0.0000   0.0000   0.0000
     0.0000   0.0000   0.0000   0.0000   0.0000   0.0000   0.0000   0.0000
     0.0000   0.0000

          k =-0.5000 0.0000 0.0000 ( 65180 PWs)   bands (ev):

   -92.8663 -92.8152 -92.7206 -92.6738 -92.6145 -92.5727 -92.5558 -92.4334
   -56.2199 -56.2020 -56.0774 -56.0667 -56.0610 -56.0536 -56.0192 -55.9894
   -55.9748 -55.9725 -55.9649 -55.9218 -55.9042 -55.8655 -55.8473 -55.8146
   -55.8094 -55.7609 -55.7597 -55.7577 -55.7493 -55.7064 -55.6858 -55.6004
   -31.4274 -31.4150 -31.2683 -31.2561 -31.1828 -31.0608 -31.0101 -30.7911
   -30.0102 -29.9711 -29.9416 -29.8348 -15.1764 -15.1230 -15.0616 -14.9505
   -14.8499 -14.7049 -14.5581 -14.4114 -14.2931 -14.2783 -14.2694 -14.2100
   -14.1501 -14.1190 -14.0691 -14.0594 -14.0424 -13.9957 -13.9729 -13.8679
   -13.7153 -13.6809 -13.6544 -13.6474 -13.5809 -13.5228 -13.4551 -13.4199
   -13.3962 -13.3751 -13.2174 -13.2076 -13.1914 -13.1680 -13.1547 -13.1090
   -13.0913 -13.0757 -12.9875 -12.9701 -12.9190 -12.8182 -12.7982 -12.7948
   -12.7856 -12.7358 -12.6950 -12.5652 -12.4809 -12.4382 -12.3057 -12.2629
   -11.9783 -11.9422 -11.9202 -11.9138 -11.8993 -11.8812 -11.8401 -11.7766
   -11.7589 -11.7260 -11.6810 -11.6721 -11.6566  -2.7442  -2.7058  -2.5426
    -2.5035  -2.1888  -2.1130  -1.9666  -1.8493  -1.8097  -1.7621  -1.7161
    -1.6920  -1.5678  -1.5243  -1.5072  -1.4255  -1.3907  -1.3732  -1.3437
    -1.2845  -1.2170  -1.1885  -1.1567  -1.0633  -1.0170  -0.9678  -0.9347
    -0.9138  -0.8817  -0.8347  -0.8102  -0.7714  -0.6687  -0.5980  -0.5278
    -0.4678  -0.3070  -0.2586  -0.2182  -0.1744  -0.1204  -0.1046   0.0380
     0.0670   0.1254   0.2774   0.3771   0.4245   0.5277   0.5838   0.7034
     0.7188   0.8457   0.8702   0.9248   0.9618   0.9936   1.0013   1.0482
     1.0713   1.1387   1.1906   1.2386   1.2450   1.5460   1.5533   1.5724
     1.5928   1.6949   1.7130   1.7266   1.7347   1.7664   1.7776   1.8165
     1.8382   1.8624   1.9150   1.9345   1.9836   2.0099   2.0614   2.1736
     2.2695   2.3396   2.3538   2.4360   2.4625   2.4919   2.5592   2.5667
     2.5757   2.6048   2.6151   2.6255   2.6547   2.7019   2.7253   2.7711
     2.7921   2.8377   2.8415   2.8457   2.8542   2.8716   2.8813   2.8939
     2.9025   2.9209   2.9326   2.9453   2.9655   2.9702   3.0995   3.1098
     3.9488   3.9717   4.0297   4.1683   4.6338   4.7121   4.9077   4.9360
     5.3893   5.4187   5.4991   5.5297   5.8762   5.8859   6.3552   6.5029
     6.7417   6.9618   7.2101   7.2689   7.5994   7.6384   7.6810   7.7560
     7.7860   7.8896   8.0800   8.1972   8.2717   8.3837   8.4749   8.5074
     8.6505   8.7408

     occupation numbers 
     1.0000   1.0000   1.0000   1.0000   1.0000   1.0000   1.0000   1.0000
     1.0000   1.0000   1.0000   1.0000   1.0000   1.0000   1.0000   1.0000
     1.0000   1.0000   1.0000   1.0000   1.0000   1.0000   1.0000   1.0000
     1.0000   1.0000   1.0000   1.0000   1.0000   1.0000   1.0000   1.0000
     1.0000   1.0000   1.0000   1.0000   1.0000   1.0000   1.0000   1.0000
     1.0000   1.0000   1.0000   1.0000   1.0000   1.0000   1.0000   1.0000
     1.0000   1.0000   1.0000   1.0000   1.0000   1.0000   1.0000   1.0000
     1.0000   1.0000   1.0000   1.0000   1.0000   1.0000   1.0000   1.0000
     1.0000   1.0000   1.0000   1.0000   1.0000   1.0000   1.0000   1.0000
     1.0000   1.0000   1.0000   1.0000   1.0000   1.0000   1.0000   1.0000
     1.0000   1.0000   1.0000   1.0000   1.0000   1.0000   1.0000   1.0000
     1.0000   1.0000   1.0000   1.0000   1.0000   1.0000   1.0000   1.0000
     1.0000   1.0000   1.0000   1.0000   1.0000   1.0000   1.0000   1.0000
     1.0000   1.0000   1.0000   1.0000   1.0000   1.0000   1.0000   1.0000
     1.0000   1.0000   1.0000   1.0000   1.0000   1.0000   1.0000   1.0000
     1.0000   1.0000   1.0000   1.0000   1.0000   1.0000   1.0000   1.0000
     1.0000   1.0000   1.0000   1.0000   1.0000   1.0000   1.0000   1.0000
     1.0000   1.0000   1.0000   1.0000   1.0000   1.0000   1.0000   1.0000
     1.0000   1.0000   1.0000   1.0000   1.0000   1.0000   1.0000   1.0000
     1.0000   1.0000   1.0000   1.0000   1.0000   1.0000   0.9999   0.9999
     0.9999   0.9997   0.9997   0.9996   0.9995   0.9994   0.9993   0.9992
     0.9990   0.9987   0.9983   0.9979   0.9978   0.9918   0.9916   0.9909
     0.9901   0.9853   0.9843   0.9835   0.9830   0.9809   0.9801   0.9772
     0.9754   0.9732   0.9680   0.9659   0.9600   0.9565   0.9489   0.9290
     0.9075   0.8891   0.8850   0.8596   0.8506   0.8403   0.8147   0.8118
     0.8081   0.7961   0.7918   0.7873   0.7745   0.7529   0.7418   0.7194
     0.7088   0.6851   0.6831   0.6809   0.6763   0.6670   0.6617   0.6549
     0.6501   0.6400   0.6335   0.6264   0.6150   0.6123   0.5372   0.5311
     0.1214   0.1147   0.0989   0.0676   0.0144   0.0107   0.0048   0.0042
     0.0005   0.0004   0.0003   0.0002   0.0000   0.0000   0.0000   0.0000
     0.0000   0.0000   0.0000   0.0000   0.0000   0.0000   0.0000   0.0000
     0.0000   0.0000   0.0000   0.0000   0.0000   0.0000   0.0000   0.0000
     0.0000   0.0000

          k =-0.2500 0.2500 0.0000 ( 65198 PWs)   bands (ev):

   -92.8663 -92.8152 -92.7206 -92.6738 -92.6145 -92.5727 -92.5558 -92.4334
   -56.2199 -56.2020 -56.0774 -56.0667 -56.0610 -56.0536 -56.0192 -55.9894
   -55.9748 -55.9725 -55.9649 -55.9218 -55.9042 -55.8655 -55.8473 -55.8146
   -55.8094 -55.7609 -55.7597 -55.7577 -55.7493 -55.7064 -55.6858 -55.6004
   -31.4293 -31.4128 -31.2688 -31.2561 -31.1825 -31.0605 -31.0103 -30.7911
   -30.0107 -29.9697 -29.9426 -29.8347 -15.1790 -15.1347 -15.0634 -14.9462
   -14.8315 -14.7059 -14.6228 -14.4134 -14.2752 -14.2462 -14.2308 -14.1853
   -14.1612 -14.1374 -14.1191 -14.0762 -13.9957 -13.9852 -13.8301 -13.8053
   -13.7760 -13.7543 -13.7001 -13.6565 -13.5929 -13.5893 -13.4543 -13.3980
   -13.3751 -13.3003 -13.2578 -13.1971 -13.1867 -13.1569 -13.1369 -13.0993
   -13.0804 -13.0402 -13.0037 -12.9697 -12.9263 -12.9161 -12.8939 -12.8464
   -12.7748 -12.7348 -12.6032 -12.5962 -12.5438 -12.4368 -12.2489 -12.1889
   -11.9783 -11.9620 -11.9407 -11.9134 -11.9013 -11.8604 -11.8253 -11.8028
   -11.7807 -11.7585 -11.6729 -11.6284 -11.6188  -2.8288  -2.6213  -2.4998
    -2.4110  -2.2936  -2.2276  -2.0225  -1.8795  -1.8613  -1.8301  -1.7394
    -1.7016  -1.6098  -1.5752  -1.5491  -1.4071  -1.3512  -1.2818  -1.2540
    -1.1933  -1.1735  -1.1332  -1.1048  -1.0646  -1.0011  -0.9530  -0.8881
    -0.8198  -0.7948  -0.7443  -0.7153  -0.6691  -0.6119  -0.5631  -0.5246
    -0.4217  -0.3928  -0.3783  -0.3363  -0.2708  -0.1986  -0.1537  -0.1183
    -0.0467  -0.0048   0.2298   0.4008   0.4382   0.4792   0.5394   0.6094
     0.6589   0.7155   0.7441   1.0253   1.1293   1.1701   1.2032   1.2114
     1.2516   1.2673   1.3122   1.3432   1.3570   1.3822   1.4296   1.4461
     1.4880   1.5100   1.5542   1.6389   1.6596   1.6756   1.7192   1.7420
     1.7847   1.8414   1.9441   2.0437   2.0715   2.1205   2.1399   2.2069
     2.2462   2.2714   2.2954   2.3191   2.4230   2.4565   2.5454   2.6160
     2.6201   2.6741   2.7210   2.7292   2.7428   2.7514   2.7633   2.7775
     2.7831   2.8020   2.8120   2.8240   2.8346   2.8463   2.8567   2.8718
     2.8983   2.9080   2.9161   2.9507   3.2411   3.3238   3.3900   3.4723
     3.4931   3.6943   3.8007   4.1516   4.3566   4.5724   4.8365   5.1383
     5.5162   5.5719   5.6243   5.6720   5.7395   6.1066   6.1369   6.1540
     6.8482   7.0582   7.1832   7.3661   7.4754   7.5013   7.5799   7.7829
     7.8406   7.9700   8.2121   8.2254   8.3390   8.3633   8.4453   8.4559
     8.5394   8.7277

     occupation numbers 
     1.0000   1.0000   1.0000   1.0000   1.0000   1.0000   1.0000   1.0000
     1.0000   1.0000   1.0000   1.0000   1.0000   1.0000   1.0000   1.0000
     1.0000   1.0000   1.0000   1.0000   1.0000   1.0000   1.0000   1.0000
     1.0000   1.0000   1.0000   1.0000   1.0000   1.0000   1.0000   1.0000
     1.0000   1.0000   1.0000   1.0000   1.0000   1.0000   1.0000   1.0000
     1.0000   1.0000   1.0000   1.0000   1.0000   1.0000   1.0000   1.0000
     1.0000   1.0000   1.0000   1.0000   1.0000   1.0000   1.0000   1.0000
     1.0000   1.0000   1.0000   1.0000   1.0000   1.0000   1.0000   1.0000
     1.0000   1.0000   1.0000   1.0000   1.0000   1.0000   1.0000   1.0000
     1.0000   1.0000   1.0000   1.0000   1.0000   1.0000   1.0000   1.0000
     1.0000   1.0000   1.0000   1.0000   1.0000   1.0000   1.0000   1.0000
     1.0000   1.0000   1.0000   1.0000   1.0000   1.0000   1.0000   1.0000
     1.0000   1.0000   1.0000   1.0000   1.0000   1.0000   1.0000   1.0000
     1.0000   1.0000   1.0000   1.0000   1.0000   1.0000   1.0000   1.0000
     1.0000   1.0000   1.0000   1.0000   1.0000   1.0000   1.0000   1.0000
     1.0000   1.0000   1.0000   1.0000   1.0000   1.0000   1.0000   1.0000
     1.0000   1.0000   1.0000   1.0000   1.0000   1.0000   1.0000   1.0000
     1.0000   1.0000   1.0000   1.0000   1.0000   1.0000   1.0000   1.0000
     1.0000   1.0000   1.0000   1.0000   1.0000   1.0000   1.0000   1.0000
     1.0000   1.0000   1.0000   1.0000   1.0000   1.0000   1.0000   0.9999
     0.9999   0.9999   0.9998   0.9992   0.9987   0.9985   0.9982   0.9981
     0.9977   0.9976   0.9970   0.9965   0.9963   0.9959   0.9950   0.9946
     0.9935   0.9929   0.9915   0.9882   0.9872   0.9864   0.9839   0.9825
     0.9796   0.9751   0.9648   0.9516   0.9474   0.9391   0.9355   0.9220
     0.9131   0.9071   0.9010   0.8947   0.8638   0.8527   0.8202   0.7914
     0.7896   0.7658   0.7439   0.7399   0.7333   0.7291   0.7232   0.7161
     0.7133   0.7037   0.6985   0.6923   0.6867   0.6806   0.6750   0.6669
     0.6525   0.6471   0.6427   0.6233   0.4534   0.4053   0.3676   0.3227
     0.3116   0.2148   0.1716   0.0709   0.0381   0.0181   0.0065   0.0017
     0.0002   0.0002   0.0001   0.0001   0.0001   0.0000   0.0000   0.0000
     0.0000   0.0000   0.0000   0.0000   0.0000   0.0000   0.0000   0.0000
     0.0000   0.0000   0.0000   0.0000   0.0000   0.0000   0.0000   0.0000
     0.0000   0.0000

          k =-0.5000 0.2500 0.0000 ( 65138 PWs)   bands (ev):

   -92.8663 -92.8152 -92.7206 -92.6738 -92.6145 -92.5727 -92.5558 -92.4334
   -56.2199 -56.2020 -56.0774 -56.0667 -56.0610 -56.0536 -56.0192 -55.9894
   -55.9748 -55.9725 -55.9649 -55.9218 -55.9042 -55.8655 -55.8473 -55.8146
   -55.8094 -55.7609 -55.7597 -55.7577 -55.7493 -55.7064 -55.6858 -55.6004
   -31.4272 -31.4149 -31.2685 -31.2559 -31.1829 -31.0607 -31.0102 -30.7912
   -30.0096 -29.9708 -29.9422 -29.8351 -15.1432 -15.0968 -15.0186 -14.9181
   -14.8769 -14.7523 -14.6625 -14.5314 -14.2260 -14.1957 -14.1837 -14.1381
   -14.1159 -14.0911 -14.0556 -14.0449 -14.0219 -13.9828 -13.9723 -13.8624
   -13.7961 -13.7475 -13.7409 -13.7249 -13.6303 -13.6239 -13.4930 -13.4384
   -13.3536 -13.3189 -13.2227 -13.1868 -13.1745 -13.1683 -13.1349 -13.1020
   -13.0923 -13.0530 -12.9901 -12.9586 -12.9210 -12.8568 -12.8311 -12.7774
   -12.7700 -12.7375 -12.6931 -12.5299 -12.4761 -12.3995 -12.2990 -12.2709
   -11.9783 -11.9348 -11.9220 -11.9081 -11.8959 -11.8748 -11.8449 -11.7634
   -11.7549 -11.7319 -11.6954 -11.6680 -11.6590  -2.6015  -2.5598  -2.4121
    -2.3700  -2.2081  -2.1314  -1.9908  -1.8550  -1.7979  -1.7703  -1.7325
    -1.6943  -1.6133  -1.4978  -1.4402  -1.4173  -1.3913  -1.3129  -1.2866
    -1.2475  -1.2308  -1.1702  -1.1392  -1.1023  -1.0670  -1.0382  -0.9793
    -0.9520  -0.9107  -0.8749  -0.7701  -0.7445  -0.6506  -0.5917  -0.5598
    -0.5012  -0.4191  -0.3860  -0.2860  -0.2472  -0.1837  -0.1373  -0.1072
    -0.0409  -0.0075   0.0304   0.0708   0.1083   0.4310   0.4822   0.5631
     0.5952   0.8570   0.9218   0.9902   1.0177   1.1920   1.2271   1.2646
     1.2745   1.2930   1.3109   1.3801   1.4259   1.4670   1.4986   1.6157
     1.6551   1.6866   1.7024   1.7369   1.7589   1.7764   1.7931   1.8087
     1.8306   1.8781   1.8908   1.9293   1.9527   1.9858   2.0404   2.1615
     2.2588   2.2861   2.3522   2.3895   2.4527   2.4888   2.4947   2.5345
     2.5664   2.5849   2.6154   2.6160   2.6499   2.6991   2.7256   2.7310
     2.7374   2.7563   2.7796   2.7906   2.8066   2.8185   2.8408   2.8555
     2.8628   2.8711   2.8838   2.9015   3.4328   3.4634   3.6144   3.6318
     3.9490   3.9900   4.0421   4.2491   4.6265   4.7249   4.9023   4.9521
     5.2538   5.2817   5.5011   5.5878   5.6239   5.6619   6.3403   6.4427
     6.4689   6.6013   7.3573   7.6133   7.6669   7.6880   7.7327   7.7818
     7.8597   7.9455   8.1346   8.3420   8.4343   8.4603   8.5175   8.5743
     8.6678   8.7249

     occupation numbers 
     1.0000   1.0000   1.0000   1.0000   1.0000   1.0000   1.0000   1.0000
     1.0000   1.0000   1.0000   1.0000   1.0000   1.0000   1.0000   1.0000
     1.0000   1.0000   1.0000   1.0000   1.0000   1.0000   1.0000   1.0000
     1.0000   1.0000   1.0000   1.0000   1.0000   1.0000   1.0000   1.0000
     1.0000   1.0000   1.0000   1.0000   1.0000   1.0000   1.0000   1.0000
     1.0000   1.0000   1.0000   1.0000   1.0000   1.0000   1.0000   1.0000
     1.0000   1.0000   1.0000   1.0000   1.0000   1.0000   1.0000   1.0000
     1.0000   1.0000   1.0000   1.0000   1.0000   1.0000   1.0000   1.0000
     1.0000   1.0000   1.0000   1.0000   1.0000   1.0000   1.0000   1.0000
     1.0000   1.0000   1.0000   1.0000   1.0000   1.0000   1.0000   1.0000
     1.0000   1.0000   1.0000   1.0000   1.0000   1.0000   1.0000   1.0000
     1.0000   1.0000   1.0000   1.0000   1.0000   1.0000   1.0000   1.0000
     1.0000   1.0000   1.0000   1.0000   1.0000   1.0000   1.0000   1.0000
     1.0000   1.0000   1.0000   1.0000   1.0000   1.0000   1.0000   1.0000
     1.0000   1.0000   1.0000   1.0000   1.0000   1.0000   1.0000   1.0000
     1.0000   1.0000   1.0000   1.0000   1.0000   1.0000   1.0000   1.0000
     1.0000   1.0000   1.0000   1.0000   1.0000   1.0000   1.0000   1.0000
     1.0000   1.0000   1.0000   1.0000   1.0000   1.0000   1.0000   1.0000
     1.0000   1.0000   1.0000   1.0000   1.0000   1.0000   1.0000   1.0000
     1.0000   1.0000   1.0000   1.0000   1.0000   1.0000   1.0000   0.9999
     0.9999   0.9997   0.9996   0.9994   0.9993   0.9983   0.9980   0.9976
     0.9975   0.9972   0.9970   0.9959   0.9950   0.9941   0.9933   0.9892
     0.9874   0.9858   0.9849   0.9829   0.9814   0.9802   0.9790   0.9778
     0.9760   0.9717   0.9705   0.9664   0.9638   0.9597   0.9521   0.9314
     0.9101   0.9034   0.8855   0.8744   0.8540   0.8414   0.8392   0.8244
     0.8119   0.8044   0.7917   0.7914   0.7767   0.7542   0.7416   0.7391
     0.7360   0.7267   0.7151   0.7095   0.7013   0.6951   0.6835   0.6757
     0.6717   0.6673   0.6604   0.6507   0.3440   0.3274   0.2510   0.2428
     0.1214   0.1095   0.0957   0.0533   0.0148   0.0102   0.0049   0.0039
     0.0009   0.0008   0.0003   0.0002   0.0001   0.0001   0.0000   0.0000
     0.0000   0.0000   0.0000   0.0000   0.0000   0.0000   0.0000   0.0000
     0.0000   0.0000   0.0000   0.0000   0.0000   0.0000   0.0000   0.0000
     0.0000   0.0000

     the Fermi energy is     3.1623 ev

!    total energy              =   -4440.29696357 Ry
     estimated scf accuracy    <          6.6E-09 Ry
     smearing contrib. (-TS)   =      -1.20688872 Ry
     internal energy E=F+TS    =   -4439.09007485 Ry

     The total energy is F=E-TS. E is the sum of the following terms:
     one-electron contribution =  -20889.97851708 Ry
     hartree contribution      =   10574.21716233 Ry
     xc contribution           =    -693.24471282 Ry
     ewald contribution        =    6846.10779060 Ry
     one-center paw contrib.   =    -276.19179789 Ry
      -> PAW hartree energy AE =      25.17014820 Ry
      -> PAW hartree energy PS =     -25.05396345 Ry
      -> PAW xc energy AE      =     -16.51854310 Ry
      -> PAW xc energy PS      =       6.87804916 Ry
      -> total E_H with PAW    =   10574.33334709 Ry
      -> total E_XC with PAW   =    -702.88520676 Ry

     convergence has been achieved in  49 iterations

     Writing all to output data dir /bsuhome/zayahcortright/scratch/pwscf.save/
 
     init_run     :      7.64s CPU      8.42s WALL (       1 calls)
     electrons    :    710.55s CPU    743.88s WALL (       1 calls)

     Called by init_run:
     wfcinit      :      6.19s CPU      6.42s WALL (       1 calls)
     wfcinit:atom :      0.05s CPU      0.07s WALL (       5 calls)
     wfcinit:wfcr :      5.86s CPU      5.98s WALL (       5 calls)
     potinit      :      0.17s CPU      0.20s WALL (       1 calls)
     hinit0       :      0.41s CPU      0.66s WALL (       1 calls)

     Called by electrons:
     c_bands      :    564.29s CPU    571.33s WALL (      49 calls)
     sum_band     :    110.19s CPU    124.51s WALL (      49 calls)
     v_of_rho     :      5.29s CPU      5.68s WALL (      50 calls)
     v_h          :      0.46s CPU      0.46s WALL (      50 calls)
     v_xc         :      4.83s CPU      5.21s WALL (      50 calls)
     newd         :     16.30s CPU     27.55s WALL (      50 calls)
     PAW_pot      :      1.59s CPU      1.63s WALL (      50 calls)
     mix_rho      :     12.55s CPU     12.90s WALL (      49 calls)

     Called by c_bands:
     init_us_2    :      6.91s CPU      7.00s WALL (     495 calls)
     init_us_2:cp :      6.90s CPU      7.00s WALL (     495 calls)
     cegterg      :    530.52s CPU    537.19s WALL (     245 calls)

     Called by sum_band:
     sum_band:wei :      0.35s CPU      0.35s WALL (      49 calls)
     sum_band:loo :     91.85s CPU     92.63s WALL (      49 calls)
     sum_band:buf :      1.38s CPU      1.45s WALL (     245 calls)
     sum_band:ini :      3.16s CPU      3.17s WALL (     245 calls)
     sum_band:cal :     19.34s CPU     19.42s WALL (     245 calls)
     sum_band:bec :      0.56s CPU      0.57s WALL (     245 calls)
     addusdens    :     16.01s CPU     29.49s WALL (      49 calls)
                                        0.00s GPU  (      49 calls)
     addusd:skk   :      0.31s CPU      1.00s WALL (     147 calls)
                                        0.00s GPU  (     147 calls)

     Called by *egterg:
     cdiaghg      :     58.39s CPU     58.67s WALL (    1351 calls)
     cegterg:over :     39.15s CPU     39.32s WALL (    1106 calls)
     cegterg:upda :     28.04s CPU     28.59s WALL (    1106 calls)
     cegterg:last :     56.78s CPU     57.07s WALL (     435 calls)
     cdiaghg:chol :      3.35s CPU      3.37s WALL (    1351 calls)
     cdiaghg:inve :      3.27s CPU      3.28s WALL (    1351 calls)
     cdiaghg:para :      7.05s CPU      7.09s WALL (    2702 calls)
     h_psi        :    293.16s CPU    296.36s WALL (    1356 calls)
     s_psi        :     39.56s CPU     39.68s WALL (    1356 calls)
     g_psi        :      1.07s CPU      1.07s WALL (    1106 calls)

     Called by h_psi:
     h_psi:calbec :     44.37s CPU     44.60s WALL (    1356 calls)
     vloc_psi     :    206.28s CPU    208.37s WALL (    1356 calls)
     add_vuspsi   :     39.60s CPU     39.80s WALL (    1356 calls)

     General routines
     calbec       :     63.70s CPU     64.01s WALL (    1601 calls)
     fft          :      3.96s CPU      4.00s WALL (     648 calls)
     ffts         :      4.67s CPU      4.70s WALL (    5177 calls)
     fftw         :    176.57s CPU    178.15s WALL (  329770 calls)
     interpolate  :      0.41s CPU      0.42s WALL (      50 calls)
 
     Parallel routines

     PAW routines
     PAW_pot      :      1.59s CPU      1.63s WALL (      50 calls)
 
     PWSCF        :  12m 0.50s CPU  12m37.50s WALL

 
   This run was terminated on:  14:41:51  21Jun2024            

=------------------------------------------------------------------------------=
   JOB DONE.
=------------------------------------------------------------------------------=
