
     Program PWSCF v.7.2 starts on 20Jun2024 at 15: 2:34 

     This program is part of the open-source Quantum ESPRESSO suite
     for quantum simulation of materials; please cite
         "P. Giannozzi et al., J. Phys.:Condens. Matter 21 395502 (2009);
         "P. Giannozzi et al., J. Phys.:Condens. Matter 29 465901 (2017);
         "P. Giannozzi et al., J. Chem. Phys. 152 154105 (2020);
          URL http://www.quantum-espresso.org", 
     in publications or presentations arising from this work. More details at
     http://www.quantum-espresso.org/quote

     Parallel version (MPI & OpenMP), running on      48 processor cores
     Number of MPI processes:                48
     Threads/MPI process:                     1

     MPI processes distributed on     1 nodes
     41863 MiB available memory on the printing compute node when the environment starts
 
     Reading input from espresso.pwi
Warning: card &CELL ignored
Warning: card / ignored
Warning: card &FCP ignored
Warning: card / ignored
Warning: card &RISM ignored
Warning: card / ignored

     Current dimensions of program PWSCF are:
     Max number of different atomic species (ntypx) = 10
     Max number of k-points (npk) =  40000
     Max angular momentum in pseudopotentials (lmaxx) =  4
     file O.pbe-n-kjpaw_psl.0.1.UPF: wavefunction(s)  2P renormalized
     signal trapping enabled: kill the code with -SIGUSR1 to stop cleanly the simulation 
 
     K-points division:     npool     =       2
     R & G space division:  proc/nbgrp/npool/nimage =      24
     Subspace diagonalization in iterative solution of the eigenvalue problem:
     one sub-group per band group will be used
     scalapack distributed-memory algorithm (size of sub-group:  3*  3 procs)

 
     Parallelization info
     --------------------
     sticks:   dense  smooth     PW     G-vecs:    dense   smooth      PW
     Min         350     175     47                61430    21716    3036
     Max         351     177     48                61449    21727    3041
     Sum        8421    4205   1137              1474595   521381   72913
 
     Using Slab Decomposition
 


     bravais-lattice index     =            0
     lattice parameter (alat)  =      14.8599  a.u.
     unit-cell volume          =    8305.1283 (a.u.)^3
     number of atoms/cell      =           51
     number of atomic types    =            4
     number of electrons       =       437.00
     number of Kohn-Sham states=          263
     kinetic-energy cutoff     =      60.0000  Ry
     charge density cutoff     =     480.0000  Ry
     scf convergence threshold =      1.0E-08
     mixing beta               =       0.1500
     number of iterations used =            8  local-TF  mixing
     Exchange-correlation= PBE
                           (   1   4   3   4   0   0   0)

     celldm(1)=  14.859904  celldm(2)=   0.000000  celldm(3)=   0.000000
     celldm(4)=   0.000000  celldm(5)=   0.000000  celldm(6)=   0.000000

     crystal axes: (cart. coord. in units of alat)
               a(1) = (   1.000000   0.000000   0.000000 )  
               a(2) = (   0.000000   1.000000   0.000000 )  
               a(3) = (   0.000000   0.000000   2.531036 )  

     reciprocal axes: (cart. coord. in units 2 pi/alat)
               b(1) = (  1.000000  0.000000  0.000000 )  
               b(2) = (  0.000000  1.000000  0.000000 )  
               b(3) = (  0.000000  0.000000  0.395095 )  


     PseudoPot. # 1 for Sr read from file:
     /bsuhome/zayahcortright/q-e/pseudo/Sr_pbe_v1.uspp.F.UPF
     MD5 check sum: 6b418c05fbe9db5448babca5e47b7a5b
     Pseudo is Ultrasoft + core correction, Zval = 10.0
     Generated by new atomic code, or converted to UPF format
     Using radial grid of  883 points,  6 beta functions with: 
                l(1) =   0
                l(2) =   0
                l(3) =   1
                l(4) =   1
                l(5) =   2
                l(6) =   2
     Q(r) pseudized with  6 coefficients,  rinner =    1.400   1.400   1.400
                                                       1.400   1.400

     PseudoPot. # 2 for O  read from file:
     /bsuhome/zayahcortright/q-e/pseudo/O.pbe-n-kjpaw_psl.0.1.UPF
     MD5 check sum: 0234752ac141de4415c5fc33072bef88
     Pseudo is Projector augmented-wave + core cor, Zval =  6.0
     Generated using "atomic" code by A. Dal Corso  v.5.0.99 svn rev. 10869
     Shape of augmentation charge: BESSEL
     Using radial grid of 1095 points,  4 beta functions with: 
                l(1) =   0
                l(2) =   0
                l(3) =   1
                l(4) =   1
     Q(r) pseudized with 0 coefficients 


     PseudoPot. # 3 for Co read from file:
     /bsuhome/zayahcortright/q-e/pseudo/Co_pbe_v1.2.uspp.F.UPF
     MD5 check sum: 5f91765df6ddd3222702df6e7b74a16d
     Pseudo is Ultrasoft + core correction, Zval = 17.0
     Generated by new atomic code, or converted to UPF format
     Using radial grid of  863 points,  6 beta functions with: 
                l(1) =   0
                l(2) =   0
                l(3) =   1
                l(4) =   1
                l(5) =   2
                l(6) =   2
     Q(r) pseudized with  8 coefficients,  rinner =    1.200   1.200   1.200
                                                       1.200   1.200

     PseudoPot. # 4 for H  read from file:
     /bsuhome/zayahcortright/q-e/pseudo/H.pbe-rrkjus_psl.1.0.0.UPF
     MD5 check sum: f52b6d4d1c606e5624b1dc7b2218f220
     Pseudo is Ultrasoft, Zval =  1.0
     Generated using "atomic" code by A. Dal Corso  v.5.1
     Using radial grid of  929 points,  2 beta functions with: 
                l(1) =   0
                l(2) =   0
     Q(r) pseudized with 0 coefficients 


     atomic species   valence    mass     pseudopotential
        Sr            10.00    87.62000     Sr( 1.00)
        O              6.00    15.99900     O ( 1.00)
        Co            17.00    58.93319     Co( 1.00)
        H              1.00     1.00800     H ( 1.00)

     No symmetry found


                                    s                        frac. trans.

      isym =  1     identity                                     

 cryst.   s( 1) = (     1          0          0      )
                  (     0          1          0      )
                  (     0          0          1      )

 cart.    s( 1) = (  1.0000000  0.0000000  0.0000000 )
                  (  0.0000000  1.0000000  0.0000000 )
                  (  0.0000000  0.0000000  1.0000000 )


   Cartesian axes

     site n.     atom                  positions (alat units)
         1           Sr  tau(   1) = (   0.2508693   0.7491307   1.7574407  )
         2           O   tau(   2) = (   0.4985141   0.5014859   1.7715967  )
         3           Sr  tau(   3) = (   0.7482398   0.7454518   1.7648669  )
         4           Sr  tau(   4) = (   0.7441748   0.2558252   1.7667843  )
         5           Sr  tau(   5) = (   0.2508693   0.7491307   1.2696799  )
         6           Sr  tau(   6) = (   0.2508693   0.7491307   0.7632319  )
         7           Co  tau(   7) = (   0.4998914   0.5001086   1.0164559  )
         8           Co  tau(   8) = (   0.4936915   0.5063085   1.5135603  )
         9           O   tau(   9) = (   0.4988895   0.7610401   1.0164559  )
        10           O   tau(  10) = (   0.2389599   0.5011105   1.0164559  )
        11           O   tau(  11) = (   0.0070918   0.7374880   1.0164559  )
        12           O   tau(  12) = (   0.0088340   0.7405089   1.5135603  )
        13           O   tau(  13) = (   0.5066944   0.7415376   1.5135603  )
        14           O   tau(  14) = (   0.2584624   0.4933056   1.5135603  )
        15           O   tau(  15) = (   0.4985141   0.5014859   0.7773880  )
        16           O   tau(  16) = (   0.4985141   0.5014859   1.2555238  )
        17           Sr  tau(  17) = (   0.7482398   0.7454518   0.7706582  )
        18           Sr  tau(  18) = (   0.7482398   0.7454518   1.2622536  )
        19           Sr  tau(  19) = (   0.7441748   0.2558252   0.7725755  )
        20           Sr  tau(  20) = (   0.7441748   0.2558252   1.2603363  )
        21           O   tau(  21) = (   0.7322655   0.0078049   1.5135603  )
        22           O   tau(  22) = (   0.7558175   0.4996027   1.5135603  )
        23           O   tau(  23) = (   0.5003973   0.2441825   1.5135603  )
        24           O   tau(  24) = (   0.7527966   0.4978604   1.0164559  )
        25           O   tau(  25) = (   0.5021396   0.2472034   1.0164559  )
        26           O   tau(  26) = (   0.7517679   0.0000000   1.0164559  )
        27           O   tau(  27) = (   0.0114961   0.4948124   1.7455321  )
        28           O   tau(  28) = (   0.0048226   0.0077944   1.7715967  )
        29           Sr  tau(  29) = (   0.2545482   0.2517602   1.7648669  )
        30           O   tau(  30) = (   0.5048017   0.0015068   1.7786929  )
        31           Co  tau(  31) = (   0.0056869   0.5006215   1.0164559  )
        32           Co  tau(  32) = (   0.0065315   0.4997770   1.5135603  )
        33           Co  tau(  33) = (   0.0061999   0.0064171   1.0164559  )
        34           Co  tau(  34) = (   0.0000000   0.0126169   1.5135603  )
        35           O   tau(  35) = (   0.0114961   0.4948124   1.2815885  )
        36           O   tau(  36) = (   0.0114961   0.4948124   0.7513233  )
        37           O   tau(  37) = (   0.0051979   0.2673486   1.0164559  )
        38           O   tau(  38) = (   0.0130029   0.2478461   1.5135603  )
        39           O   tau(  39) = (   0.0048226   0.0077944   0.7773880  )
        40           O   tau(  40) = (   0.0048226   0.0077944   1.2555238  )
        41           Sr  tau(  41) = (   0.2545482   0.2517602   0.7706582  )
        42           Sr  tau(  42) = (   0.2545482   0.2517602   1.2622536  )
        43           Co  tau(  43) = (   0.4989925   0.0073160   1.5135603  )
        44           Co  tau(  44) = (   0.4998370   0.0064714   1.0164559  )
        45           O   tau(  45) = (   0.5048017   0.0015068   0.7844841  )
        46           O   tau(  46) = (   0.5048017   0.0015068   1.2484277  )
        47           O   tau(  47) = (   0.2621260   0.0059111   1.5135603  )
        48           O   tau(  48) = (   0.2591051   0.0041689   1.0164559  )
        49           O   tau(  49) = (   0.5686583   0.8529874   2.1602013  )
        50           O   tau(  50) = (   0.5686583   0.8529874   2.3186489  )
        51           H   tau(  51) = (   0.5686583   0.8529874   2.4431567  )

   Crystallographic axes

     site n.     atom                  positions (cryst. coord.)
         1           Sr  tau(   1) = (  0.2508693  0.7491307  0.6943562  )
         2           O   tau(   2) = (  0.4985141  0.5014859  0.6999492  )
         3           Sr  tau(   3) = (  0.7482398  0.7454518  0.6972903  )
         4           Sr  tau(   4) = (  0.7441748  0.2558252  0.6980478  )
         5           Sr  tau(   5) = (  0.2508693  0.7491307  0.5016443  )
         6           Sr  tau(   6) = (  0.2508693  0.7491307  0.3015492  )
         7           Co  tau(   7) = (  0.4998914  0.5001086  0.4015968  )
         8           Co  tau(   8) = (  0.4936915  0.5063085  0.5980003  )
         9           O   tau(   9) = (  0.4988895  0.7610401  0.4015968  )
        10           O   tau(  10) = (  0.2389599  0.5011105  0.4015968  )
        11           O   tau(  11) = (  0.0070918  0.7374880  0.4015968  )
        12           O   tau(  12) = (  0.0088340  0.7405089  0.5980003  )
        13           O   tau(  13) = (  0.5066944  0.7415376  0.5980003  )
        14           O   tau(  14) = (  0.2584624  0.4933056  0.5980003  )
        15           O   tau(  15) = (  0.4985141  0.5014859  0.3071422  )
        16           O   tau(  16) = (  0.4985141  0.5014859  0.4960513  )
        17           Sr  tau(  17) = (  0.7482398  0.7454518  0.3044833  )
        18           Sr  tau(  18) = (  0.7482398  0.7454518  0.4987103  )
        19           Sr  tau(  19) = (  0.7441748  0.2558252  0.3052408  )
        20           Sr  tau(  20) = (  0.7441748  0.2558252  0.4979527  )
        21           O   tau(  21) = (  0.7322655  0.0078049  0.5980003  )
        22           O   tau(  22) = (  0.7558175  0.4996027  0.5980003  )
        23           O   tau(  23) = (  0.5003973  0.2441825  0.5980003  )
        24           O   tau(  24) = (  0.7527966  0.4978604  0.4015968  )
        25           O   tau(  25) = (  0.5021396  0.2472034  0.4015968  )
        26           O   tau(  26) = (  0.7517679  0.0000000  0.4015968  )
        27           O   tau(  27) = (  0.0114961  0.4948124  0.6896512  )
        28           O   tau(  28) = (  0.0048226  0.0077944  0.6999492  )
        29           Sr  tau(  29) = (  0.2545482  0.2517602  0.6972903  )
        30           O   tau(  30) = (  0.5048017  0.0015068  0.7027529  )
        31           Co  tau(  31) = (  0.0056869  0.5006215  0.4015968  )
        32           Co  tau(  32) = (  0.0065315  0.4997770  0.5980003  )
        33           Co  tau(  33) = (  0.0061999  0.0064171  0.4015968  )
        34           Co  tau(  34) = (  0.0000000  0.0126169  0.5980003  )
        35           O   tau(  35) = (  0.0114961  0.4948124  0.5063494  )
        36           O   tau(  36) = (  0.0114961  0.4948124  0.2968442  )
        37           O   tau(  37) = (  0.0051979  0.2673486  0.4015968  )
        38           O   tau(  38) = (  0.0130029  0.2478461  0.5980003  )
        39           O   tau(  39) = (  0.0048226  0.0077944  0.3071422  )
        40           O   tau(  40) = (  0.0048226  0.0077944  0.4960513  )
        41           Sr  tau(  41) = (  0.2545482  0.2517602  0.3044833  )
        42           Sr  tau(  42) = (  0.2545482  0.2517602  0.4987103  )
        43           Co  tau(  43) = (  0.4989925  0.0073160  0.5980003  )
        44           Co  tau(  44) = (  0.4998370  0.0064714  0.4015968  )
        45           O   tau(  45) = (  0.5048017  0.0015068  0.3099459  )
        46           O   tau(  46) = (  0.5048017  0.0015068  0.4932477  )
        47           O   tau(  47) = (  0.2621260  0.0059111  0.5980003  )
        48           O   tau(  48) = (  0.2591051  0.0041689  0.4015968  )
        49           O   tau(  49) = (  0.5686583  0.8529874  0.8534850  )
        50           O   tau(  50) = (  0.5686583  0.8529874  0.9160869  )
        51           H   tau(  51) = (  0.5686583  0.8529874  0.9652793  )

     number of k points=    10  Gaussian smearing, width (Ry)=  0.0700
                       cart. coord. in units 2pi/alat
        k(    1) = (   0.0000000   0.0000000   0.0000000), wk =   0.1250000
        k(    2) = (   0.0000000   0.2500000   0.0000000), wk =   0.2500000
        k(    3) = (   0.0000000  -0.5000000   0.0000000), wk =   0.1250000
        k(    4) = (   0.2500000   0.2500000   0.0000000), wk =   0.2500000
        k(    5) = (   0.2500000  -0.5000000   0.0000000), wk =   0.2500000
        k(    6) = (  -0.5000000  -0.5000000   0.0000000), wk =   0.1250000
        k(    7) = (   0.2500000   0.0000000   0.0000000), wk =   0.2500000
        k(    8) = (  -0.5000000   0.0000000   0.0000000), wk =   0.1250000
        k(    9) = (  -0.2500000   0.2500000   0.0000000), wk =   0.2500000
        k(   10) = (  -0.5000000   0.2500000   0.0000000), wk =   0.2500000

                       cryst. coord.
        k(    1) = (   0.0000000   0.0000000   0.0000000), wk =   0.1250000
        k(    2) = (   0.0000000   0.2500000   0.0000000), wk =   0.2500000
        k(    3) = (   0.0000000  -0.5000000   0.0000000), wk =   0.1250000
        k(    4) = (   0.2500000   0.2500000   0.0000000), wk =   0.2500000
        k(    5) = (   0.2500000  -0.5000000   0.0000000), wk =   0.2500000
        k(    6) = (  -0.5000000  -0.5000000   0.0000000), wk =   0.1250000
        k(    7) = (   0.2500000   0.0000000   0.0000000), wk =   0.2500000
        k(    8) = (  -0.5000000   0.0000000   0.0000000), wk =   0.1250000
        k(    9) = (  -0.2500000   0.2500000   0.0000000), wk =   0.2500000
        k(   10) = (  -0.5000000   0.2500000   0.0000000), wk =   0.2500000

     Dense  grid:  1474595 G-vectors     FFT dimensions: ( 108, 108, 270)

     Smooth grid:   521381 G-vectors     FFT dimensions: (  75,  75, 192)

     Dynamical RAM for                 wfc:      10.90 MB

     Dynamical RAM for     wfc (w. buffer):      65.37 MB

     Dynamical RAM for           str. fact:       3.75 MB

     Dynamical RAM for           local pot:       0.00 MB

     Dynamical RAM for          nlocal pot:      24.94 MB

     Dynamical RAM for                qrad:       7.03 MB

     Dynamical RAM for          rho,v,vnew:       6.02 MB

     Dynamical RAM for               rhoin:       2.01 MB

     Dynamical RAM for            rho*nmix:      15.00 MB

     Dynamical RAM for           G-vectors:       3.68 MB

     Dynamical RAM for          h,s,v(r/c):       1.40 MB

     Dynamical RAM for          <psi|beta>:       2.42 MB

     Dynamical RAM for                 psi:      21.79 MB

     Dynamical RAM for                hpsi:      21.79 MB

     Dynamical RAM for                spsi:      21.79 MB

     Dynamical RAM for      wfcinit/wfcrot:      34.89 MB

     Dynamical RAM for           addusdens:     101.73 MB

     Estimated static dynamical RAM per process >     122.82 MB

     Estimated max dynamical RAM per process >     239.55 MB

     Estimated total dynamical RAM >      10.88 GB

     Check: negative core charge=   -0.000004

     Initial potential from superposition of free atoms

     starting charge     428.5961, renormalised to     437.0000

     negative rho (up, down):  7.813E-01 0.000E+00
     Starting wfcs are  381 randomized atomic wfcs
     Checking if some PAW data can be deallocated... 
       PAW data deallocated on   18 nodes for type:  2

     total cpu time spent up to now is        9.7 secs

     Self-consistent Calculation

     iteration #  1     ecut=    60.00 Ry     beta= 0.15
     Davidson diagonalization with overlap

---- Real-time Memory Report at c_bands before calling an iterative solver
             0 MiB given to the printing process from OS
             0 MiB allocation reported by mallinfo(arena+hblkhd)
         32116 MiB available memory on the node where the printing process lives
------------------
     ethr =  1.00E-02,  avg # of iterations =  2.0

     negative rho (up, down):  7.716E-01 0.000E+00

     total cpu time spent up to now is       25.6 secs

     total energy              =   -4489.32070704 Ry
     estimated scf accuracy    <      49.74515651 Ry

     iteration #  2     ecut=    60.00 Ry     beta= 0.15
     Davidson diagonalization with overlap

---- Real-time Memory Report at c_bands before calling an iterative solver
             0 MiB given to the printing process from OS
             0 MiB allocation reported by mallinfo(arena+hblkhd)
         32478 MiB available memory on the node where the printing process lives
------------------
     ethr =  1.00E-02,  avg # of iterations =  1.0

     negative rho (up, down):  7.614E-01 0.000E+00

     total cpu time spent up to now is       39.0 secs

     total energy              =   -4486.81520228 Ry
     estimated scf accuracy    <      35.41372237 Ry

     iteration #  3     ecut=    60.00 Ry     beta= 0.15
     Davidson diagonalization with overlap

---- Real-time Memory Report at c_bands before calling an iterative solver
             0 MiB given to the printing process from OS
             0 MiB allocation reported by mallinfo(arena+hblkhd)
         31740 MiB available memory on the node where the printing process lives
------------------
     ethr =  8.10E-03,  avg # of iterations =  1.0

     negative rho (up, down):  7.563E-01 0.000E+00

     total cpu time spent up to now is       52.2 secs

     total energy              =   -4486.77436892 Ry
     estimated scf accuracy    <      35.39220243 Ry

     iteration #  4     ecut=    60.00 Ry     beta= 0.15
     Davidson diagonalization with overlap

---- Real-time Memory Report at c_bands before calling an iterative solver
             0 MiB given to the printing process from OS
             0 MiB allocation reported by mallinfo(arena+hblkhd)
         31712 MiB available memory on the node where the printing process lives
------------------
     ethr =  8.10E-03,  avg # of iterations =  1.0

     negative rho (up, down):  7.576E-01 0.000E+00

     total cpu time spent up to now is       65.4 secs

     total energy              =   -4486.58071062 Ry
     estimated scf accuracy    <      34.25892427 Ry

     iteration #  5     ecut=    60.00 Ry     beta= 0.15
     Davidson diagonalization with overlap

---- Real-time Memory Report at c_bands before calling an iterative solver
             0 MiB given to the printing process from OS
             0 MiB allocation reported by mallinfo(arena+hblkhd)
         31699 MiB available memory on the node where the printing process lives
------------------
     ethr =  7.84E-03,  avg # of iterations =  1.0

     negative rho (up, down):  7.334E-01 0.000E+00

     total cpu time spent up to now is       78.5 secs

     total energy              =   -4482.45362385 Ry
     estimated scf accuracy    <      22.53641128 Ry

     iteration #  6     ecut=    60.00 Ry     beta= 0.15
     Davidson diagonalization with overlap

---- Real-time Memory Report at c_bands before calling an iterative solver
             0 MiB given to the printing process from OS
             0 MiB allocation reported by mallinfo(arena+hblkhd)
         31682 MiB available memory on the node where the printing process lives
------------------
     ethr =  5.16E-03,  avg # of iterations =  2.0

     negative rho (up, down):  7.491E-01 0.000E+00

     total cpu time spent up to now is       93.3 secs

     total energy              =   -4483.45890275 Ry
     estimated scf accuracy    <      34.45731935 Ry

     iteration #  7     ecut=    60.00 Ry     beta= 0.15
     Davidson diagonalization with overlap

---- Real-time Memory Report at c_bands before calling an iterative solver
             0 MiB given to the printing process from OS
             0 MiB allocation reported by mallinfo(arena+hblkhd)
         31653 MiB available memory on the node where the printing process lives
------------------
     ethr =  5.16E-03,  avg # of iterations =  1.0

     negative rho (up, down):  7.541E-01 0.000E+00

     total cpu time spent up to now is      106.4 secs

     total energy              =   -4483.62926676 Ry
     estimated scf accuracy    <      33.36558563 Ry

     iteration #  8     ecut=    60.00 Ry     beta= 0.15
     Davidson diagonalization with overlap

---- Real-time Memory Report at c_bands before calling an iterative solver
             0 MiB given to the printing process from OS
             0 MiB allocation reported by mallinfo(arena+hblkhd)
         31629 MiB available memory on the node where the printing process lives
------------------
     ethr =  5.16E-03,  avg # of iterations =  1.0

     negative rho (up, down):  7.516E-01 0.000E+00

     total cpu time spent up to now is      119.4 secs

     total energy              =   -4483.86321299 Ry
     estimated scf accuracy    <       6.59980570 Ry

     iteration #  9     ecut=    60.00 Ry     beta= 0.15
     Davidson diagonalization with overlap

---- Real-time Memory Report at c_bands before calling an iterative solver
             0 MiB given to the printing process from OS
             0 MiB allocation reported by mallinfo(arena+hblkhd)
         31607 MiB available memory on the node where the printing process lives
------------------
     ethr =  1.51E-03,  avg # of iterations =  2.8

     negative rho (up, down):  7.662E-01 0.000E+00

     total cpu time spent up to now is      134.3 secs

     total energy              =   -4483.77187441 Ry
     estimated scf accuracy    <       3.88274054 Ry

     iteration # 10     ecut=    60.00 Ry     beta= 0.15
     Davidson diagonalization with overlap

---- Real-time Memory Report at c_bands before calling an iterative solver
             0 MiB given to the printing process from OS
             0 MiB allocation reported by mallinfo(arena+hblkhd)
         31568 MiB available memory on the node where the printing process lives
------------------
     ethr =  8.88E-04,  avg # of iterations = 11.3

     negative rho (up, down):  7.896E-01 0.000E+00

     total cpu time spent up to now is      153.9 secs

     total energy              =   -4483.49514550 Ry
     estimated scf accuracy    <       4.56898788 Ry

     iteration # 11     ecut=    60.00 Ry     beta= 0.15
     Davidson diagonalization with overlap

---- Real-time Memory Report at c_bands before calling an iterative solver
             0 MiB given to the printing process from OS
             0 MiB allocation reported by mallinfo(arena+hblkhd)
         31233 MiB available memory on the node where the printing process lives
------------------
     ethr =  8.88E-04,  avg # of iterations =  7.5

     negative rho (up, down):  7.928E-01 0.000E+00

     total cpu time spent up to now is      172.0 secs

     total energy              =   -4483.19042552 Ry
     estimated scf accuracy    <       3.92212999 Ry

     iteration # 12     ecut=    60.00 Ry     beta= 0.15
     Davidson diagonalization with overlap

---- Real-time Memory Report at c_bands before calling an iterative solver
             0 MiB given to the printing process from OS
             0 MiB allocation reported by mallinfo(arena+hblkhd)
         31114 MiB available memory on the node where the printing process lives
------------------
     ethr =  8.88E-04,  avg # of iterations =  6.3

     negative rho (up, down):  8.022E-01 0.000E+00

     total cpu time spent up to now is      188.6 secs

     total energy              =   -4483.21361902 Ry
     estimated scf accuracy    <       2.01805955 Ry

     iteration # 13     ecut=    60.00 Ry     beta= 0.15
     Davidson diagonalization with overlap

---- Real-time Memory Report at c_bands before calling an iterative solver
             0 MiB given to the printing process from OS
             0 MiB allocation reported by mallinfo(arena+hblkhd)
         31097 MiB available memory on the node where the printing process lives
------------------
     ethr =  4.62E-04,  avg # of iterations =  2.3

     negative rho (up, down):  8.031E-01 0.000E+00

     total cpu time spent up to now is      203.3 secs

     total energy              =   -4483.26270801 Ry
     estimated scf accuracy    <       1.06707591 Ry

     iteration # 14     ecut=    60.00 Ry     beta= 0.15
     Davidson diagonalization with overlap

---- Real-time Memory Report at c_bands before calling an iterative solver
             0 MiB given to the printing process from OS
             0 MiB allocation reported by mallinfo(arena+hblkhd)
         31101 MiB available memory on the node where the printing process lives
------------------
     ethr =  2.44E-04,  avg # of iterations =  8.8

     negative rho (up, down):  8.150E-01 0.000E+00

     total cpu time spent up to now is      221.2 secs

     total energy              =   -4483.11432990 Ry
     estimated scf accuracy    <       0.74081911 Ry

     iteration # 15     ecut=    60.00 Ry     beta= 0.15
     Davidson diagonalization with overlap

---- Real-time Memory Report at c_bands before calling an iterative solver
             0 MiB given to the printing process from OS
             0 MiB allocation reported by mallinfo(arena+hblkhd)
         31076 MiB available memory on the node where the printing process lives
------------------
     ethr =  1.70E-04,  avg # of iterations =  7.8

     negative rho (up, down):  8.181E-01 0.000E+00

     total cpu time spent up to now is      238.4 secs

     total energy              =   -4483.13543669 Ry
     estimated scf accuracy    <       2.51394959 Ry

     iteration # 16     ecut=    60.00 Ry     beta= 0.15
     Davidson diagonalization with overlap

---- Real-time Memory Report at c_bands before calling an iterative solver
             0 MiB given to the printing process from OS
             0 MiB allocation reported by mallinfo(arena+hblkhd)
         31115 MiB available memory on the node where the printing process lives
------------------
     ethr =  1.70E-04,  avg # of iterations =  2.2

     negative rho (up, down):  8.160E-01 0.000E+00

     total cpu time spent up to now is      252.9 secs

     total energy              =   -4483.11402670 Ry
     estimated scf accuracy    <       0.99646078 Ry

     iteration # 17     ecut=    60.00 Ry     beta= 0.15
     Davidson diagonalization with overlap

---- Real-time Memory Report at c_bands before calling an iterative solver
             0 MiB given to the printing process from OS
             0 MiB allocation reported by mallinfo(arena+hblkhd)
         31107 MiB available memory on the node where the printing process lives
------------------
     ethr =  1.70E-04,  avg # of iterations =  3.7

     negative rho (up, down):  8.197E-01 0.000E+00

     total cpu time spent up to now is      267.8 secs

     total energy              =   -4483.04818973 Ry
     estimated scf accuracy    <       0.39942668 Ry

     iteration # 18     ecut=    60.00 Ry     beta= 0.15
     Davidson diagonalization with overlap

---- Real-time Memory Report at c_bands before calling an iterative solver
             0 MiB given to the printing process from OS
             0 MiB allocation reported by mallinfo(arena+hblkhd)
         31150 MiB available memory on the node where the printing process lives
------------------
     ethr =  9.14E-05,  avg # of iterations = 12.1

     negative rho (up, down):  8.202E-01 0.000E+00

     total cpu time spent up to now is      287.9 secs

     total energy              =   -4483.03096232 Ry
     estimated scf accuracy    <       1.19899794 Ry

     iteration # 19     ecut=    60.00 Ry     beta= 0.15
     Davidson diagonalization with overlap

---- Real-time Memory Report at c_bands before calling an iterative solver
             0 MiB given to the printing process from OS
             0 MiB allocation reported by mallinfo(arena+hblkhd)
         31085 MiB available memory on the node where the printing process lives
------------------
     ethr =  9.14E-05,  avg # of iterations =  3.1

     negative rho (up, down):  8.296E-01 0.000E+00

     total cpu time spent up to now is      303.6 secs

     total energy              =   -4483.02185598 Ry
     estimated scf accuracy    <       0.39838535 Ry

     iteration # 20     ecut=    60.00 Ry     beta= 0.15
     Davidson diagonalization with overlap

---- Real-time Memory Report at c_bands before calling an iterative solver
             0 MiB given to the printing process from OS
             0 MiB allocation reported by mallinfo(arena+hblkhd)
         31081 MiB available memory on the node where the printing process lives
------------------
     ethr =  9.12E-05,  avg # of iterations =  3.2

     negative rho (up, down):  8.272E-01 0.000E+00

     total cpu time spent up to now is      318.9 secs

     total energy              =   -4482.96681139 Ry
     estimated scf accuracy    <       0.66285752 Ry

     iteration # 21     ecut=    60.00 Ry     beta= 0.15
     Davidson diagonalization with overlap

---- Real-time Memory Report at c_bands before calling an iterative solver
             0 MiB given to the printing process from OS
             0 MiB allocation reported by mallinfo(arena+hblkhd)
         31098 MiB available memory on the node where the printing process lives
------------------
     ethr =  9.12E-05,  avg # of iterations = 10.0

     negative rho (up, down):  8.462E-01 0.000E+00

     total cpu time spent up to now is      337.8 secs

     total energy              =   -4482.97864138 Ry
     estimated scf accuracy    <       0.06299436 Ry

     iteration # 22     ecut=    60.00 Ry     beta= 0.15
     Davidson diagonalization with overlap

---- Real-time Memory Report at c_bands before calling an iterative solver
             0 MiB given to the printing process from OS
             0 MiB allocation reported by mallinfo(arena+hblkhd)
         31080 MiB available memory on the node where the printing process lives
------------------
     ethr =  1.44E-05,  avg # of iterations = 10.6

     negative rho (up, down):  8.361E-01 0.000E+00

     total cpu time spent up to now is      357.8 secs

     total energy              =   -4482.97672046 Ry
     estimated scf accuracy    <       0.04208297 Ry

     iteration # 23     ecut=    60.00 Ry     beta= 0.15
     Davidson diagonalization with overlap

---- Real-time Memory Report at c_bands before calling an iterative solver
             0 MiB given to the printing process from OS
             0 MiB allocation reported by mallinfo(arena+hblkhd)
         30852 MiB available memory on the node where the printing process lives
------------------
     ethr =  9.63E-06,  avg # of iterations =  3.8

     negative rho (up, down):  8.258E-01 0.000E+00

     total cpu time spent up to now is      373.6 secs

     total energy              =   -4482.97279719 Ry
     estimated scf accuracy    <       0.02742014 Ry

     iteration # 24     ecut=    60.00 Ry     beta= 0.15
     Davidson diagonalization with overlap

---- Real-time Memory Report at c_bands before calling an iterative solver
             0 MiB given to the printing process from OS
             0 MiB allocation reported by mallinfo(arena+hblkhd)
         30869 MiB available memory on the node where the printing process lives
------------------
     ethr =  6.27E-06,  avg # of iterations = 12.8

     negative rho (up, down):  8.183E-01 0.000E+00

     total cpu time spent up to now is      394.3 secs

     total energy              =   -4482.97287044 Ry
     estimated scf accuracy    <       0.01351769 Ry

     iteration # 25     ecut=    60.00 Ry     beta= 0.15
     Davidson diagonalization with overlap

---- Real-time Memory Report at c_bands before calling an iterative solver
             0 MiB given to the printing process from OS
             0 MiB allocation reported by mallinfo(arena+hblkhd)
         30826 MiB available memory on the node where the printing process lives
------------------
     ethr =  3.09E-06,  avg # of iterations =  2.0

     negative rho (up, down):  8.082E-01 0.000E+00

     total cpu time spent up to now is      409.1 secs

     total energy              =   -4482.97106564 Ry
     estimated scf accuracy    <       0.01123158 Ry

     iteration # 26     ecut=    60.00 Ry     beta= 0.15
     Davidson diagonalization with overlap

---- Real-time Memory Report at c_bands before calling an iterative solver
             0 MiB given to the printing process from OS
             0 MiB allocation reported by mallinfo(arena+hblkhd)
         30821 MiB available memory on the node where the printing process lives
------------------
     ethr =  2.57E-06,  avg # of iterations =  6.7

     negative rho (up, down):  7.978E-01 0.000E+00

     total cpu time spent up to now is      426.7 secs

     total energy              =   -4482.97017434 Ry
     estimated scf accuracy    <       0.00653920 Ry

     iteration # 27     ecut=    60.00 Ry     beta= 0.15
     Davidson diagonalization with overlap

---- Real-time Memory Report at c_bands before calling an iterative solver
             0 MiB given to the printing process from OS
             0 MiB allocation reported by mallinfo(arena+hblkhd)
         30815 MiB available memory on the node where the printing process lives
------------------
     ethr =  1.50E-06,  avg # of iterations = 10.9

     negative rho (up, down):  7.960E-01 0.000E+00

     total cpu time spent up to now is      447.7 secs

     total energy              =   -4482.97043064 Ry
     estimated scf accuracy    <       0.00169920 Ry

     iteration # 28     ecut=    60.00 Ry     beta= 0.15
     Davidson diagonalization with overlap

---- Real-time Memory Report at c_bands before calling an iterative solver
             0 MiB given to the printing process from OS
             0 MiB allocation reported by mallinfo(arena+hblkhd)
         30686 MiB available memory on the node where the printing process lives
------------------
     ethr =  3.89E-07,  avg # of iterations =  6.1

     negative rho (up, down):  7.963E-01 0.000E+00

     total cpu time spent up to now is      464.9 secs

     total energy              =   -4482.97048390 Ry
     estimated scf accuracy    <       0.00089031 Ry

     iteration # 29     ecut=    60.00 Ry     beta= 0.15
     Davidson diagonalization with overlap

---- Real-time Memory Report at c_bands before calling an iterative solver
             0 MiB given to the printing process from OS
             0 MiB allocation reported by mallinfo(arena+hblkhd)
         30687 MiB available memory on the node where the printing process lives
------------------
     ethr =  2.04E-07,  avg # of iterations =  5.3

     negative rho (up, down):  7.951E-01 0.000E+00

     total cpu time spent up to now is      481.3 secs

     total energy              =   -4482.97042325 Ry
     estimated scf accuracy    <       0.00058643 Ry

     iteration # 30     ecut=    60.00 Ry     beta= 0.15
     Davidson diagonalization with overlap

---- Real-time Memory Report at c_bands before calling an iterative solver
             0 MiB given to the printing process from OS
             0 MiB allocation reported by mallinfo(arena+hblkhd)
         30691 MiB available memory on the node where the printing process lives
------------------
     c_bands:  1 eigenvalues not converged
     ethr =  1.34E-07,  avg # of iterations = 10.1

     negative rho (up, down):  7.938E-01 0.000E+00

     total cpu time spent up to now is      499.4 secs

     total energy              =   -4482.97041509 Ry
     estimated scf accuracy    <       0.00028904 Ry

     iteration # 31     ecut=    60.00 Ry     beta= 0.15
     Davidson diagonalization with overlap

---- Real-time Memory Report at c_bands before calling an iterative solver
             0 MiB given to the printing process from OS
             0 MiB allocation reported by mallinfo(arena+hblkhd)
         30752 MiB available memory on the node where the printing process lives
------------------
     ethr =  6.61E-08,  avg # of iterations =  4.8

     negative rho (up, down):  7.927E-01 0.000E+00

     total cpu time spent up to now is      515.6 secs

     total energy              =   -4482.97039535 Ry
     estimated scf accuracy    <       0.00019381 Ry

     iteration # 32     ecut=    60.00 Ry     beta= 0.15
     Davidson diagonalization with overlap

---- Real-time Memory Report at c_bands before calling an iterative solver
             0 MiB given to the printing process from OS
             0 MiB allocation reported by mallinfo(arena+hblkhd)
         30786 MiB available memory on the node where the printing process lives
------------------
     ethr =  4.44E-08,  avg # of iterations =  6.0

     negative rho (up, down):  7.920E-01 0.000E+00

     total cpu time spent up to now is      532.4 secs

     total energy              =   -4482.97038347 Ry
     estimated scf accuracy    <       0.00013867 Ry

     iteration # 33     ecut=    60.00 Ry     beta= 0.15
     Davidson diagonalization with overlap

---- Real-time Memory Report at c_bands before calling an iterative solver
             0 MiB given to the printing process from OS
             0 MiB allocation reported by mallinfo(arena+hblkhd)
         30836 MiB available memory on the node where the printing process lives
------------------
     ethr =  3.17E-08,  avg # of iterations =  5.0

     negative rho (up, down):  7.919E-01 0.000E+00

     total cpu time spent up to now is      549.1 secs

     total energy              =   -4482.97039142 Ry
     estimated scf accuracy    <       0.00004879 Ry

     iteration # 34     ecut=    60.00 Ry     beta= 0.15
     Davidson diagonalization with overlap

---- Real-time Memory Report at c_bands before calling an iterative solver
             0 MiB given to the printing process from OS
             0 MiB allocation reported by mallinfo(arena+hblkhd)
         30813 MiB available memory on the node where the printing process lives
------------------
     ethr =  1.12E-08,  avg # of iterations =  4.8

     negative rho (up, down):  7.920E-01 0.000E+00

     total cpu time spent up to now is      565.3 secs

     total energy              =   -4482.97039503 Ry
     estimated scf accuracy    <       0.00002834 Ry

     iteration # 35     ecut=    60.00 Ry     beta= 0.15
     Davidson diagonalization with overlap

---- Real-time Memory Report at c_bands before calling an iterative solver
             0 MiB given to the printing process from OS
             0 MiB allocation reported by mallinfo(arena+hblkhd)
         30838 MiB available memory on the node where the printing process lives
------------------
     ethr =  6.49E-09,  avg # of iterations =  3.2

     negative rho (up, down):  7.920E-01 0.000E+00

     total cpu time spent up to now is      580.7 secs

     total energy              =   -4482.97039623 Ry
     estimated scf accuracy    <       0.00002548 Ry

     iteration # 36     ecut=    60.00 Ry     beta= 0.15
     Davidson diagonalization with overlap

---- Real-time Memory Report at c_bands before calling an iterative solver
             0 MiB given to the printing process from OS
             0 MiB allocation reported by mallinfo(arena+hblkhd)
         30834 MiB available memory on the node where the printing process lives
------------------
     ethr =  5.83E-09,  avg # of iterations =  3.9

     negative rho (up, down):  7.920E-01 0.000E+00

     total cpu time spent up to now is      596.3 secs

     total energy              =   -4482.97039965 Ry
     estimated scf accuracy    <       0.00001785 Ry

     iteration # 37     ecut=    60.00 Ry     beta= 0.15
     Davidson diagonalization with overlap

---- Real-time Memory Report at c_bands before calling an iterative solver
             0 MiB given to the printing process from OS
             0 MiB allocation reported by mallinfo(arena+hblkhd)
         30857 MiB available memory on the node where the printing process lives
------------------
     ethr =  4.09E-09,  avg # of iterations =  2.5

     negative rho (up, down):  7.923E-01 0.000E+00

     total cpu time spent up to now is      611.2 secs

     total energy              =   -4482.97040142 Ry
     estimated scf accuracy    <       0.00001573 Ry

     iteration # 38     ecut=    60.00 Ry     beta= 0.15
     Davidson diagonalization with overlap

---- Real-time Memory Report at c_bands before calling an iterative solver
             0 MiB given to the printing process from OS
             0 MiB allocation reported by mallinfo(arena+hblkhd)
         30899 MiB available memory on the node where the printing process lives
------------------
     c_bands:  1 eigenvalues not converged
     ethr =  3.60E-09,  avg # of iterations =  7.6

     negative rho (up, down):  7.924E-01 0.000E+00

     total cpu time spent up to now is      628.2 secs

     total energy              =   -4482.97040123 Ry
     estimated scf accuracy    <       0.00000615 Ry

     iteration # 39     ecut=    60.00 Ry     beta= 0.15
     Davidson diagonalization with overlap

---- Real-time Memory Report at c_bands before calling an iterative solver
             0 MiB given to the printing process from OS
             0 MiB allocation reported by mallinfo(arena+hblkhd)
         30883 MiB available memory on the node where the printing process lives
------------------
     ethr =  1.41E-09,  avg # of iterations =  3.5

     negative rho (up, down):  7.924E-01 0.000E+00

     total cpu time spent up to now is      643.6 secs

     total energy              =   -4482.97040138 Ry
     estimated scf accuracy    <       0.00000446 Ry

     iteration # 40     ecut=    60.00 Ry     beta= 0.15
     Davidson diagonalization with overlap

---- Real-time Memory Report at c_bands before calling an iterative solver
             0 MiB given to the printing process from OS
             0 MiB allocation reported by mallinfo(arena+hblkhd)
         30912 MiB available memory on the node where the printing process lives
------------------
     ethr =  1.02E-09,  avg # of iterations =  2.9

     negative rho (up, down):  7.925E-01 0.000E+00

     total cpu time spent up to now is      658.6 secs

     total energy              =   -4482.97040373 Ry
     estimated scf accuracy    <       0.00000345 Ry

     iteration # 41     ecut=    60.00 Ry     beta= 0.15
     Davidson diagonalization with overlap

---- Real-time Memory Report at c_bands before calling an iterative solver
             0 MiB given to the printing process from OS
             0 MiB allocation reported by mallinfo(arena+hblkhd)
         30901 MiB available memory on the node where the printing process lives
------------------
     ethr =  7.90E-10,  avg # of iterations =  4.4

     negative rho (up, down):  7.924E-01 0.000E+00

     total cpu time spent up to now is      674.4 secs

     total energy              =   -4482.97040573 Ry
     estimated scf accuracy    <       0.00000251 Ry

     iteration # 42     ecut=    60.00 Ry     beta= 0.15
     Davidson diagonalization with overlap

---- Real-time Memory Report at c_bands before calling an iterative solver
             0 MiB given to the printing process from OS
             0 MiB allocation reported by mallinfo(arena+hblkhd)
         30900 MiB available memory on the node where the printing process lives
------------------
     ethr =  5.75E-10,  avg # of iterations =  5.7

     negative rho (up, down):  7.924E-01 0.000E+00

     total cpu time spent up to now is      691.2 secs

     total energy              =   -4482.97040672 Ry
     estimated scf accuracy    <       0.00000112 Ry

     iteration # 43     ecut=    60.00 Ry     beta= 0.15
     Davidson diagonalization with overlap

---- Real-time Memory Report at c_bands before calling an iterative solver
             0 MiB given to the printing process from OS
             0 MiB allocation reported by mallinfo(arena+hblkhd)
         30894 MiB available memory on the node where the printing process lives
------------------
     ethr =  2.55E-10,  avg # of iterations =  5.2

     negative rho (up, down):  7.923E-01 0.000E+00

     total cpu time spent up to now is      707.3 secs

     total energy              =   -4482.97040722 Ry
     estimated scf accuracy    <       0.00000057 Ry

     iteration # 44     ecut=    60.00 Ry     beta= 0.15
     Davidson diagonalization with overlap

---- Real-time Memory Report at c_bands before calling an iterative solver
             0 MiB given to the printing process from OS
             0 MiB allocation reported by mallinfo(arena+hblkhd)
         30900 MiB available memory on the node where the printing process lives
------------------
     ethr =  1.30E-10,  avg # of iterations =  4.6

     negative rho (up, down):  7.923E-01 0.000E+00

     total cpu time spent up to now is      723.4 secs

     total energy              =   -4482.97040747 Ry
     estimated scf accuracy    <       0.00000036 Ry

     iteration # 45     ecut=    60.00 Ry     beta= 0.15
     Davidson diagonalization with overlap

---- Real-time Memory Report at c_bands before calling an iterative solver
             0 MiB given to the printing process from OS
             0 MiB allocation reported by mallinfo(arena+hblkhd)
         30896 MiB available memory on the node where the printing process lives
------------------
     ethr =  8.19E-11,  avg # of iterations =  4.9

     negative rho (up, down):  7.922E-01 0.000E+00

     total cpu time spent up to now is      739.6 secs

     total energy              =   -4482.97040762 Ry
     estimated scf accuracy    <       0.00000014 Ry

     iteration # 46     ecut=    60.00 Ry     beta= 0.15
     Davidson diagonalization with overlap

---- Real-time Memory Report at c_bands before calling an iterative solver
             0 MiB given to the printing process from OS
             0 MiB allocation reported by mallinfo(arena+hblkhd)
         30894 MiB available memory on the node where the printing process lives
------------------
     ethr =  3.26E-11,  avg # of iterations =  4.4

     negative rho (up, down):  7.923E-01 0.000E+00

     total cpu time spent up to now is      755.5 secs

     total energy              =   -4482.97040764 Ry
     estimated scf accuracy    <       0.00000010 Ry

     iteration # 47     ecut=    60.00 Ry     beta= 0.15
     Davidson diagonalization with overlap

---- Real-time Memory Report at c_bands before calling an iterative solver
             0 MiB given to the printing process from OS
             0 MiB allocation reported by mallinfo(arena+hblkhd)
         30896 MiB available memory on the node where the printing process lives
------------------
     ethr =  2.19E-11,  avg # of iterations =  3.5

     negative rho (up, down):  7.923E-01 0.000E+00

     total cpu time spent up to now is      771.0 secs

     total energy              =   -4482.97040770 Ry
     estimated scf accuracy    <       0.00000006 Ry

     iteration # 48     ecut=    60.00 Ry     beta= 0.15
     Davidson diagonalization with overlap

---- Real-time Memory Report at c_bands before calling an iterative solver
             0 MiB given to the printing process from OS
             0 MiB allocation reported by mallinfo(arena+hblkhd)
         30899 MiB available memory on the node where the printing process lives
------------------
     ethr =  1.29E-11,  avg # of iterations =  5.7

     negative rho (up, down):  7.923E-01 0.000E+00

     total cpu time spent up to now is      788.4 secs

     total energy              =   -4482.97040772 Ry
     estimated scf accuracy    <       0.00000002 Ry

     iteration # 49     ecut=    60.00 Ry     beta= 0.15
     Davidson diagonalization with overlap

---- Real-time Memory Report at c_bands before calling an iterative solver
             0 MiB given to the printing process from OS
             0 MiB allocation reported by mallinfo(arena+hblkhd)
         30863 MiB available memory on the node where the printing process lives
------------------
     ethr =  4.90E-12,  avg # of iterations =  4.1

     negative rho (up, down):  7.923E-01 0.000E+00

     total cpu time spent up to now is      804.0 secs

     total energy              =   -4482.97040773 Ry
     estimated scf accuracy    <       0.00000001 Ry

     iteration # 50     ecut=    60.00 Ry     beta= 0.15
     Davidson diagonalization with overlap

---- Real-time Memory Report at c_bands before calling an iterative solver
             0 MiB given to the printing process from OS
             0 MiB allocation reported by mallinfo(arena+hblkhd)
         30903 MiB available memory on the node where the printing process lives
------------------
     ethr =  3.29E-12,  avg # of iterations =  4.2

     negative rho (up, down):  7.923E-01 0.000E+00

     total cpu time spent up to now is      819.9 secs

     total energy              =   -4482.97040773 Ry
     estimated scf accuracy    <       0.00000001 Ry

     iteration # 51     ecut=    60.00 Ry     beta= 0.15
     Davidson diagonalization with overlap

---- Real-time Memory Report at c_bands before calling an iterative solver
             0 MiB given to the printing process from OS
             0 MiB allocation reported by mallinfo(arena+hblkhd)
         30880 MiB available memory on the node where the printing process lives
------------------
     ethr =  2.50E-12,  avg # of iterations =  3.8

     negative rho (up, down):  7.923E-01 0.000E+00

     total cpu time spent up to now is      835.3 secs

     End of self-consistent calculation

          k = 0.0000 0.0000 0.0000 ( 65197 PWs)   bands (ev):

   -92.3310 -92.2743 -92.1845 -92.1361 -92.0776 -92.0371 -92.0197 -91.8951
   -55.6842 -55.6604 -55.5424 -55.5321 -55.5232 -55.5188 -55.4797 -55.4542
   -55.4377 -55.4361 -55.4260 -55.3859 -55.3676 -55.3292 -55.3103 -55.2773
   -55.2715 -55.2259 -55.2229 -55.2224 -55.2144 -55.1694 -55.1505 -55.0625
   -30.9172 -30.8982 -30.7574 -30.7213 -30.6804 -30.6708 -30.5718 -30.5100
   -29.4820 -29.4385 -29.4130 -29.3049 -22.2483 -14.7160 -14.6815 -14.5943
   -14.4641 -14.2823 -14.1587 -13.8568 -13.8384 -13.8065 -13.7723 -13.7625
   -13.7254 -13.7186 -13.7012 -13.6837 -13.6607 -13.6262 -13.5650 -13.4177
   -13.2511 -13.2068 -13.1749 -13.1505 -13.1296 -13.0841 -13.0439 -12.9642
   -12.8915 -12.7882 -12.7573 -12.7494 -12.7396 -12.7146 -12.6974 -12.6761
   -12.6458 -12.6353 -12.6037 -12.5676 -12.5615 -12.5513 -12.5426 -12.5358
   -12.4972 -12.4783 -12.4455 -12.4319 -12.3869 -12.3699 -11.9826 -11.8377
   -11.7173 -11.6551 -11.4961 -11.4213 -11.4101 -11.3882 -11.3705 -11.3065
   -11.2893 -11.2544 -11.2255 -11.1149 -11.0339 -11.0304  -5.8500  -3.1535
    -3.1479  -2.5768  -2.3430  -2.1136  -1.9680  -1.9034  -1.7603  -1.4548
    -1.4406  -1.4188  -1.3383  -1.3187  -1.2507  -1.2349  -1.1925  -1.1483
    -0.9673  -0.7462  -0.7161  -0.5641  -0.5507  -0.5076  -0.4897  -0.4452
    -0.4294  -0.3677  -0.3416  -0.2734  -0.2616  -0.1803  -0.0543  -0.0396
    -0.0110   0.0589   0.0719   0.0871   0.1561   0.2356   0.2735   0.3276
     0.3544   0.4064   0.4861   0.5448   0.5610   0.5735   0.8283   0.8420
     1.0151   1.0851   1.1510   1.1814   1.2819   1.2977   1.3092   1.3830
     1.4108   1.4452   1.5049   1.6397   1.6939   1.7124   1.7265   1.7398
     1.8118   1.8899   1.9832   1.9929   2.0590   2.0782   2.1146   2.1332
     2.1389   2.1964   2.2465   2.2704   2.2871   2.3257   2.3869   2.5163
     2.5977   2.6456   2.6535   2.8125   2.8260   2.8732   2.8815   2.9792
     3.0212   3.0451   3.0588   3.0657   3.0785   3.0852   3.1572   3.2714
     3.3029   3.3185   3.3256   3.3927   3.3959   3.4205   3.4290   3.4361
     3.4478   3.4550   3.4674   3.4729   3.4870   3.4955   3.5038   3.5242
     3.5453   3.5505   3.5623   3.5876   3.7038   3.7479   4.4270   4.7414
     4.8160   5.1438   5.3948   5.5014   5.6882   6.2800   6.3265   6.3558
     6.6222   6.6280   6.6824   6.7299   6.9641   7.1468   7.3226   7.3403
     7.4488   7.6576   7.8408   7.9275   7.9396   7.9661   8.0155   8.0524
     8.3147   8.3476   8.3861   8.4206   8.5155   8.5518   8.6157

     occupation numbers 
     1.0000   1.0000   1.0000   1.0000   1.0000   1.0000   1.0000   1.0000
     1.0000   1.0000   1.0000   1.0000   1.0000   1.0000   1.0000   1.0000
     1.0000   1.0000   1.0000   1.0000   1.0000   1.0000   1.0000   1.0000
     1.0000   1.0000   1.0000   1.0000   1.0000   1.0000   1.0000   1.0000
     1.0000   1.0000   1.0000   1.0000   1.0000   1.0000   1.0000   1.0000
     1.0000   1.0000   1.0000   1.0000   1.0000   1.0000   1.0000   1.0000
     1.0000   1.0000   1.0000   1.0000   1.0000   1.0000   1.0000   1.0000
     1.0000   1.0000   1.0000   1.0000   1.0000   1.0000   1.0000   1.0000
     1.0000   1.0000   1.0000   1.0000   1.0000   1.0000   1.0000   1.0000
     1.0000   1.0000   1.0000   1.0000   1.0000   1.0000   1.0000   1.0000
     1.0000   1.0000   1.0000   1.0000   1.0000   1.0000   1.0000   1.0000
     1.0000   1.0000   1.0000   1.0000   1.0000   1.0000   1.0000   1.0000
     1.0000   1.0000   1.0000   1.0000   1.0000   1.0000   1.0000   1.0000
     1.0000   1.0000   1.0000   1.0000   1.0000   1.0000   1.0000   1.0000
     1.0000   1.0000   1.0000   1.0000   1.0000   1.0000   1.0000   1.0000
     1.0000   1.0000   1.0000   1.0000   1.0000   1.0000   1.0000   1.0000
     1.0000   1.0000   1.0000   1.0000   1.0000   1.0000   1.0000   1.0000
     1.0000   1.0000   1.0000   1.0000   1.0000   1.0000   1.0000   1.0000
     1.0000   1.0000   1.0000   1.0000   1.0000   1.0000   1.0000   1.0000
     1.0000   1.0000   1.0000   1.0000   1.0000   1.0000   1.0000   1.0000
     1.0000   0.9999   0.9999   0.9999   0.9998   0.9998   0.9998   0.9997
     0.9997   0.9996   0.9994   0.9989   0.9985   0.9984   0.9983   0.9982
     0.9974   0.9963   0.9945   0.9943   0.9925   0.9918   0.9906   0.9898
     0.9896   0.9870   0.9843   0.9828   0.9818   0.9790   0.9740   0.9600
     0.9485   0.9405   0.9391   0.9051   0.9017   0.8890   0.8866   0.8563
     0.8417   0.8330   0.8278   0.8252   0.8203   0.8176   0.7880   0.7356
     0.7201   0.7122   0.7086   0.6736   0.6719   0.6585   0.6539   0.6500
     0.6435   0.6395   0.6326   0.6296   0.6216   0.6168   0.6121   0.6004
     0.5883   0.5853   0.5784   0.5637   0.4951   0.4690   0.1387   0.0602
     0.0481   0.0158   0.0058   0.0037   0.0015   0.0001   0.0000   0.0000
     0.0000   0.0000   0.0000   0.0000   0.0000   0.0000   0.0000   0.0000
     0.0000   0.0000   0.0000   0.0000   0.0000   0.0000   0.0000   0.0000
     0.0000   0.0000   0.0000   0.0000   0.0000   0.0000   0.0000

          k = 0.0000 0.2500 0.0000 ( 65257 PWs)   bands (ev):

   -92.3310 -92.2743 -92.1845 -92.1361 -92.0776 -92.0371 -92.0197 -91.8951
   -55.6842 -55.6604 -55.5424 -55.5321 -55.5232 -55.5188 -55.4797 -55.4542
   -55.4377 -55.4361 -55.4260 -55.3859 -55.3676 -55.3292 -55.3103 -55.2773
   -55.2715 -55.2259 -55.2229 -55.2224 -55.2144 -55.1694 -55.1505 -55.0625
   -30.9170 -30.8980 -30.7576 -30.7205 -30.6811 -30.6710 -30.5713 -30.5105
   -29.4814 -29.4382 -29.4136 -29.3052 -22.2483 -14.6788 -14.6559 -14.5693
   -14.4348 -14.3202 -14.1486 -14.0024 -13.8222 -13.7933 -13.7741 -13.7649
   -13.7411 -13.6848 -13.6798 -13.6658 -13.6462 -13.6097 -13.4857 -13.4481
   -13.2871 -13.2740 -13.2161 -13.1838 -13.1432 -13.0984 -13.0619 -12.9824
   -12.9497 -12.9055 -12.8510 -12.7880 -12.7483 -12.7390 -12.7316 -12.6404
   -12.6201 -12.5968 -12.5741 -12.5435 -12.5174 -12.5073 -12.4871 -12.4820
   -12.4647 -12.4499 -12.4363 -12.4148 -12.2767 -12.2000 -12.0440 -11.8889
   -11.7735 -11.7232 -11.4616 -11.4181 -11.3908 -11.3623 -11.3456 -11.2985
   -11.2870 -11.2645 -11.2303 -11.1292 -11.0757 -11.0650  -5.8500  -3.1535
    -3.1481  -2.4416  -2.2186  -2.0818  -1.8996  -1.8560  -1.6912  -1.4749
    -1.3868  -1.3737  -1.3195  -1.2151  -1.2002  -1.1665  -1.1405  -1.0971
    -0.8985  -0.7706  -0.7582  -0.6841  -0.6711  -0.5663  -0.5355  -0.4812
    -0.4567  -0.4121  -0.3511  -0.3254  -0.2919  -0.2610  -0.2449  -0.2108
    -0.1381  -0.0856  -0.0332   0.0833   0.0993   0.1464   0.2702   0.3019
     0.3619   0.4142   0.4613   0.4896   0.5232   0.5814   0.8752   0.9629
     0.9951   1.0818   1.1217   1.1410   1.2705   1.2889   1.3851   1.4093
     1.4398   1.5538   1.6384   1.6699   1.6903   1.7044   1.7380   1.7991
     1.8239   1.8518   1.9010   1.9300   1.9605   2.0399   2.0671   2.1088
     2.1596   2.2162   2.2561   2.2785   2.3069   2.3334   2.4203   2.5544
     2.6218   2.6384   2.7241   2.7703   2.8080   2.8147   2.8772   2.9210
     2.9975   3.0357   3.0522   3.0605   3.0820   3.2320   3.2543   3.2859
     3.3059   3.3250   3.3338   3.3417   3.3501   3.3792   3.3809   3.3977
     3.4026   3.4153   3.4323   3.4418   3.4526   3.4750   3.4857   3.4902
     3.5256   3.5428   3.6033   3.9661   3.9769   4.2410   4.6115   4.7530
     4.9153   5.0859   5.4153   5.5529   5.8123   5.9108   6.1627   6.3153
     6.3388   6.4642   6.5333   6.7420   6.8949   7.0473   7.3051   7.4744
     7.5544   7.7038   7.8040   7.8804   7.9352   8.0010   8.0782   8.1985
     8.2390   8.4122   8.5361   8.5873   8.6216   8.6896   8.9589

     occupation numbers 
     1.0000   1.0000   1.0000   1.0000   1.0000   1.0000   1.0000   1.0000
     1.0000   1.0000   1.0000   1.0000   1.0000   1.0000   1.0000   1.0000
     1.0000   1.0000   1.0000   1.0000   1.0000   1.0000   1.0000   1.0000
     1.0000   1.0000   1.0000   1.0000   1.0000   1.0000   1.0000   1.0000
     1.0000   1.0000   1.0000   1.0000   1.0000   1.0000   1.0000   1.0000
     1.0000   1.0000   1.0000   1.0000   1.0000   1.0000   1.0000   1.0000
     1.0000   1.0000   1.0000   1.0000   1.0000   1.0000   1.0000   1.0000
     1.0000   1.0000   1.0000   1.0000   1.0000   1.0000   1.0000   1.0000
     1.0000   1.0000   1.0000   1.0000   1.0000   1.0000   1.0000   1.0000
     1.0000   1.0000   1.0000   1.0000   1.0000   1.0000   1.0000   1.0000
     1.0000   1.0000   1.0000   1.0000   1.0000   1.0000   1.0000   1.0000
     1.0000   1.0000   1.0000   1.0000   1.0000   1.0000   1.0000   1.0000
     1.0000   1.0000   1.0000   1.0000   1.0000   1.0000   1.0000   1.0000
     1.0000   1.0000   1.0000   1.0000   1.0000   1.0000   1.0000   1.0000
     1.0000   1.0000   1.0000   1.0000   1.0000   1.0000   1.0000   1.0000
     1.0000   1.0000   1.0000   1.0000   1.0000   1.0000   1.0000   1.0000
     1.0000   1.0000   1.0000   1.0000   1.0000   1.0000   1.0000   1.0000
     1.0000   1.0000   1.0000   1.0000   1.0000   1.0000   1.0000   1.0000
     1.0000   1.0000   1.0000   1.0000   1.0000   1.0000   1.0000   1.0000
     1.0000   1.0000   1.0000   1.0000   1.0000   1.0000   1.0000   1.0000
     1.0000   0.9999   0.9999   0.9999   0.9998   0.9998   0.9997   0.9997
     0.9996   0.9993   0.9989   0.9987   0.9985   0.9984   0.9982   0.9976
     0.9973   0.9969   0.9961   0.9956   0.9950   0.9930   0.9922   0.9908
     0.9887   0.9860   0.9837   0.9823   0.9804   0.9784   0.9709   0.9549
     0.9446   0.9418   0.9254   0.9153   0.9062   0.9046   0.8879   0.8750
     0.8500   0.8364   0.8303   0.8272   0.8189   0.7544   0.7438   0.7285
     0.7186   0.7090   0.7044   0.7004   0.6960   0.6807   0.6798   0.6709
     0.6682   0.6614   0.6521   0.6469   0.6409   0.6283   0.6223   0.6198
     0.5996   0.5897   0.5545   0.3439   0.3381   0.2090   0.0869   0.0582
     0.0351   0.0195   0.0053   0.0029   0.0008   0.0005   0.0001   0.0001
     0.0000   0.0000   0.0000   0.0000   0.0000   0.0000   0.0000   0.0000
     0.0000   0.0000   0.0000   0.0000   0.0000   0.0000   0.0000   0.0000
     0.0000   0.0000   0.0000   0.0000   0.0000   0.0000   0.0000

          k = 0.0000-0.5000 0.0000 ( 65180 PWs)   bands (ev):

   -92.3310 -92.2743 -92.1845 -92.1361 -92.0776 -92.0371 -92.0197 -91.8951
   -55.6842 -55.6604 -55.5424 -55.5321 -55.5232 -55.5188 -55.4797 -55.4542
   -55.4377 -55.4361 -55.4260 -55.3859 -55.3676 -55.3292 -55.3103 -55.2773
   -55.2715 -55.2259 -55.2229 -55.2224 -55.2144 -55.1694 -55.1505 -55.0625
   -30.9168 -30.8979 -30.7578 -30.7197 -30.6819 -30.6711 -30.5708 -30.5110
   -29.4808 -29.4379 -29.4142 -29.3056 -22.2483 -14.6481 -14.5985 -14.5482
   -14.4213 -14.3341 -14.1953 -14.0540 -13.9249 -13.7921 -13.7710 -13.7303
   -13.6855 -13.6728 -13.6291 -13.6082 -13.5635 -13.5479 -13.5188 -13.4819
   -13.4552 -13.4208 -13.2191 -13.1657 -13.1520 -13.0927 -13.0691 -12.9965
   -12.9817 -12.9260 -12.9241 -12.8590 -12.7491 -12.7330 -12.7165 -12.6824
   -12.6133 -12.5971 -12.5696 -12.5218 -12.5177 -12.4846 -12.4773 -12.4594
   -12.4281 -12.4222 -12.3449 -12.2916 -12.1551 -12.1310 -11.9697 -11.9642
   -11.8923 -11.8476 -11.4150 -11.4132 -11.3860 -11.3480 -11.3138 -11.3027
   -11.2599 -11.2562 -11.2118 -11.1508 -11.1366 -11.1221  -5.8500  -3.1535
    -3.1483  -2.2272  -2.1672  -2.0157  -1.9428  -1.6641  -1.5796  -1.4519
    -1.3127  -1.2799  -1.2573  -1.1787  -1.1468  -1.0665  -1.0305  -0.9554
    -0.9133  -0.8733  -0.8466  -0.7937  -0.7534  -0.7080  -0.6709  -0.6374
    -0.6031  -0.4931  -0.4475  -0.4166  -0.4151  -0.3288  -0.2958  -0.2722
    -0.2260  -0.1430  -0.0709   0.0052   0.0335   0.1442   0.1892   0.3358
     0.3546   0.3964   0.4384   0.5685   0.6187   0.7581   0.8227   0.8298
     0.9596   0.9969   1.0895   1.2382   1.3433   1.3748   1.4076   1.4158
     1.4494   1.4733   1.5115   1.5322   1.5387   1.6479   1.7056   1.7291
     1.7552   2.0138   2.0503   2.0769   2.1641   2.1854   2.2246   2.2418
     2.2750   2.2840   2.2856   2.3243   2.3639   2.3879   2.4134   2.4298
     2.4605   2.5154   2.5929   2.6213   2.8017   2.9688   2.9769   2.9898
     3.0298   3.0336   3.0482   3.0633   3.0763   3.1029   3.1125   3.1662
     3.1860   3.2624   3.2740   3.3426   3.3532   3.3765   3.3771   3.3979
     3.4012   3.4033   3.4087   3.4121   3.4251   3.4455   3.4464   3.5108
     3.5170   3.5325   3.5870   4.4745   4.5060   4.5427   4.5926   4.9601
     5.1080   5.2397   5.4374   5.5150   5.6221   5.8243   5.9320   6.0000
     6.2305   6.3718   6.4044   6.4360   7.0067   7.1003   7.1431   7.3967
     7.5999   7.6047   7.7103   8.0041   8.0591   8.0807   8.2197   8.3443
     8.5442   8.5927   8.6617   8.7091   8.7701   8.8558   8.9834

     occupation numbers 
     1.0000   1.0000   1.0000   1.0000   1.0000   1.0000   1.0000   1.0000
     1.0000   1.0000   1.0000   1.0000   1.0000   1.0000   1.0000   1.0000
     1.0000   1.0000   1.0000   1.0000   1.0000   1.0000   1.0000   1.0000
     1.0000   1.0000   1.0000   1.0000   1.0000   1.0000   1.0000   1.0000
     1.0000   1.0000   1.0000   1.0000   1.0000   1.0000   1.0000   1.0000
     1.0000   1.0000   1.0000   1.0000   1.0000   1.0000   1.0000   1.0000
     1.0000   1.0000   1.0000   1.0000   1.0000   1.0000   1.0000   1.0000
     1.0000   1.0000   1.0000   1.0000   1.0000   1.0000   1.0000   1.0000
     1.0000   1.0000   1.0000   1.0000   1.0000   1.0000   1.0000   1.0000
     1.0000   1.0000   1.0000   1.0000   1.0000   1.0000   1.0000   1.0000
     1.0000   1.0000   1.0000   1.0000   1.0000   1.0000   1.0000   1.0000
     1.0000   1.0000   1.0000   1.0000   1.0000   1.0000   1.0000   1.0000
     1.0000   1.0000   1.0000   1.0000   1.0000   1.0000   1.0000   1.0000
     1.0000   1.0000   1.0000   1.0000   1.0000   1.0000   1.0000   1.0000
     1.0000   1.0000   1.0000   1.0000   1.0000   1.0000   1.0000   1.0000
     1.0000   1.0000   1.0000   1.0000   1.0000   1.0000   1.0000   1.0000
     1.0000   1.0000   1.0000   1.0000   1.0000   1.0000   1.0000   1.0000
     1.0000   1.0000   1.0000   1.0000   1.0000   1.0000   1.0000   1.0000
     1.0000   1.0000   1.0000   1.0000   1.0000   1.0000   1.0000   1.0000
     1.0000   1.0000   1.0000   1.0000   1.0000   1.0000   1.0000   1.0000
     1.0000   1.0000   0.9999   0.9999   0.9998   0.9997   0.9997   0.9996
     0.9996   0.9995   0.9994   0.9993   0.9993   0.9988   0.9984   0.9983
     0.9980   0.9937   0.9927   0.9919   0.9885   0.9875   0.9855   0.9846
     0.9825   0.9820   0.9819   0.9791   0.9760   0.9739   0.9715   0.9699
     0.9667   0.9602   0.9492   0.9447   0.9078   0.8598   0.8571   0.8527
     0.8386   0.8372   0.8318   0.8261   0.8211   0.8106   0.8067   0.7841
     0.7754   0.7399   0.7343   0.6999   0.6944   0.6822   0.6819   0.6707
     0.6690   0.6678   0.6649   0.6631   0.6560   0.6448   0.6443   0.6081
     0.6046   0.5957   0.5641   0.1237   0.1144   0.1042   0.0914   0.0302
     0.0180   0.0109   0.0048   0.0035   0.0021   0.0008   0.0004   0.0003
     0.0001   0.0000   0.0000   0.0000   0.0000   0.0000   0.0000   0.0000
     0.0000   0.0000   0.0000   0.0000   0.0000   0.0000   0.0000   0.0000
     0.0000   0.0000   0.0000   0.0000   0.0000   0.0000   0.0000

          k = 0.2500 0.2500 0.0000 ( 65198 PWs)   bands (ev):

   -92.3310 -92.2743 -92.1845 -92.1361 -92.0776 -92.0371 -92.0197 -91.8951
   -55.6842 -55.6604 -55.5424 -55.5321 -55.5232 -55.5188 -55.4797 -55.4542
   -55.4377 -55.4361 -55.4260 -55.3859 -55.3676 -55.3292 -55.3103 -55.2773
   -55.2715 -55.2259 -55.2229 -55.2224 -55.2144 -55.1694 -55.1505 -55.0625
   -30.9152 -30.8998 -30.7572 -30.7204 -30.6809 -30.6714 -30.5716 -30.5106
   -29.4805 -29.4392 -29.4132 -29.3057 -22.2483 -14.6511 -14.6202 -14.5416
   -14.4242 -14.3118 -14.1871 -14.1072 -13.9072 -13.7709 -13.7453 -13.7340
   -13.7005 -13.6687 -13.6495 -13.6287 -13.5937 -13.5694 -13.4783 -13.4630
   -13.3022 -13.2894 -13.2591 -13.2387 -13.2045 -13.1499 -13.1056 -13.0654
   -12.9702 -12.9371 -12.8709 -12.7825 -12.7420 -12.6947 -12.6890 -12.6594
   -12.6322 -12.5994 -12.5883 -12.5643 -12.5455 -12.5123 -12.4775 -12.4640
   -12.4163 -12.4023 -12.3828 -12.3538 -12.2167 -12.0945 -12.0924 -11.9181
   -11.8028 -11.7740 -11.4337 -11.4017 -11.3913 -11.3838 -11.3215 -11.2864
   -11.2799 -11.2447 -11.2367 -11.1457 -11.1039 -11.0864  -5.8500  -3.1536
    -3.1481  -2.3036  -2.0930  -1.9761  -1.8827  -1.7602  -1.6944  -1.5001
    -1.3523  -1.3318  -1.3059  -1.2100  -1.1762  -1.0827  -1.0564  -1.0062
    -0.8731  -0.8265  -0.7553  -0.7086  -0.6655  -0.6398  -0.6145  -0.5731
    -0.5569  -0.4677  -0.4174  -0.3566  -0.3061  -0.2758  -0.2230  -0.2127
    -0.1496  -0.0997  -0.0500  -0.0093   0.0715   0.1283   0.1554   0.1980
     0.2511   0.3226   0.3619   0.3831   0.4543   0.4894   0.7689   0.9138
     0.9547   1.0058   1.0515   1.0912   1.1618   1.2177   1.2552   1.5278
     1.6014   1.6755   1.7028   1.7436   1.7821   1.8162   1.8534   1.8707
     1.8995   1.9374   1.9468   1.9666   2.0038   2.0451   2.0877   2.1397
     2.1765   2.1861   2.2157   2.2545   2.3075   2.3340   2.4632   2.5321
     2.5731   2.6010   2.6531   2.7285   2.7597   2.7965   2.8214   2.8321
     2.9415   2.9782   3.0575   3.0669   3.0828   3.2429   3.2601   3.2671
     3.2823   3.2963   3.3089   3.3227   3.3300   3.3393   3.3529   3.3642
     3.3843   3.3902   3.4018   3.4217   3.4363   3.4463   3.4767   3.7790
     3.8710   3.9054   3.9741   3.9937   4.2091   4.3207   4.6529   4.7965
     4.9919   5.1309   5.3357   5.6089   5.9119   5.9403   5.9894   6.1289
     6.2100   6.2509   6.3480   6.4294   6.9019   7.0251   7.1133   7.1861
     7.7226   7.7798   7.8299   7.9015   8.0317   8.1492   8.2087   8.3054
     8.3542   8.4848   8.5340   8.6836   8.7319   8.7939   8.9263

     occupation numbers 
     1.0000   1.0000   1.0000   1.0000   1.0000   1.0000   1.0000   1.0000
     1.0000   1.0000   1.0000   1.0000   1.0000   1.0000   1.0000   1.0000
     1.0000   1.0000   1.0000   1.0000   1.0000   1.0000   1.0000   1.0000
     1.0000   1.0000   1.0000   1.0000   1.0000   1.0000   1.0000   1.0000
     1.0000   1.0000   1.0000   1.0000   1.0000   1.0000   1.0000   1.0000
     1.0000   1.0000   1.0000   1.0000   1.0000   1.0000   1.0000   1.0000
     1.0000   1.0000   1.0000   1.0000   1.0000   1.0000   1.0000   1.0000
     1.0000   1.0000   1.0000   1.0000   1.0000   1.0000   1.0000   1.0000
     1.0000   1.0000   1.0000   1.0000   1.0000   1.0000   1.0000   1.0000
     1.0000   1.0000   1.0000   1.0000   1.0000   1.0000   1.0000   1.0000
     1.0000   1.0000   1.0000   1.0000   1.0000   1.0000   1.0000   1.0000
     1.0000   1.0000   1.0000   1.0000   1.0000   1.0000   1.0000   1.0000
     1.0000   1.0000   1.0000   1.0000   1.0000   1.0000   1.0000   1.0000
     1.0000   1.0000   1.0000   1.0000   1.0000   1.0000   1.0000   1.0000
     1.0000   1.0000   1.0000   1.0000   1.0000   1.0000   1.0000   1.0000
     1.0000   1.0000   1.0000   1.0000   1.0000   1.0000   1.0000   1.0000
     1.0000   1.0000   1.0000   1.0000   1.0000   1.0000   1.0000   1.0000
     1.0000   1.0000   1.0000   1.0000   1.0000   1.0000   1.0000   1.0000
     1.0000   1.0000   1.0000   1.0000   1.0000   1.0000   1.0000   1.0000
     1.0000   1.0000   1.0000   1.0000   1.0000   1.0000   1.0000   1.0000
     1.0000   1.0000   1.0000   0.9999   0.9999   0.9999   0.9999   0.9994
     0.9991   0.9986   0.9985   0.9981   0.9978   0.9974   0.9969   0.9966
     0.9962   0.9955   0.9953   0.9949   0.9940   0.9929   0.9915   0.9896
     0.9880   0.9875   0.9860   0.9838   0.9804   0.9784   0.9664   0.9580
     0.9522   0.9480   0.9392   0.9245   0.9177   0.9091   0.9029   0.9001
     0.8686   0.8566   0.8283   0.8247   0.8186   0.7492   0.7411   0.7377
     0.7303   0.7234   0.7171   0.7101   0.7064   0.7016   0.6946   0.6887
     0.6781   0.6749   0.6687   0.6579   0.6499   0.6444   0.6274   0.4507
     0.3972   0.3777   0.3396   0.3290   0.2229   0.1767   0.0776   0.0511
     0.0271   0.0165   0.0074   0.0022   0.0005   0.0004   0.0003   0.0002
     0.0001   0.0001   0.0000   0.0000   0.0000   0.0000   0.0000   0.0000
     0.0000   0.0000   0.0000   0.0000   0.0000   0.0000   0.0000   0.0000
     0.0000   0.0000   0.0000   0.0000   0.0000   0.0000   0.0000

          k = 0.2500-0.5000 0.0000 ( 65138 PWs)   bands (ev):

   -92.3310 -92.2743 -92.1845 -92.1361 -92.0776 -92.0371 -92.0197 -91.8951
   -55.6842 -55.6604 -55.5424 -55.5321 -55.5232 -55.5188 -55.4797 -55.4542
   -55.4377 -55.4361 -55.4260 -55.3859 -55.3676 -55.3292 -55.3103 -55.2773
   -55.2715 -55.2259 -55.2229 -55.2224 -55.2144 -55.1694 -55.1505 -55.0625
   -30.9151 -30.8996 -30.7574 -30.7196 -30.6816 -30.6715 -30.5711 -30.5112
   -29.4798 -29.4389 -29.4138 -29.3060 -22.2483 -14.6180 -14.5715 -14.5053
   -14.3897 -14.3581 -14.2357 -14.1539 -14.0217 -13.7706 -13.7090 -13.6628
   -13.6315 -13.6141 -13.5948 -13.5803 -13.5493 -13.5355 -13.4986 -13.4573
   -13.4389 -13.4116 -13.3029 -13.2544 -13.2226 -13.1753 -13.1255 -13.1053
   -13.0240 -12.9941 -12.8467 -12.7826 -12.7599 -12.6854 -12.6732 -12.6362
   -12.6269 -12.6113 -12.5840 -12.5525 -12.5311 -12.4964 -12.4879 -12.4570
   -12.4315 -12.4244 -12.2955 -12.2641 -12.1618 -12.1133 -11.9619 -11.9505
   -11.8830 -11.8452 -11.4091 -11.3973 -11.3863 -11.3591 -11.3275 -11.2993
   -11.2578 -11.2305 -11.2080 -11.1639 -11.1376 -11.1262  -5.8500  -3.1536
    -3.1483  -2.0859  -2.0195  -1.8898  -1.8118  -1.6847  -1.6001  -1.4765
    -1.3248  -1.2735  -1.2500  -1.1865  -1.1731  -1.0772  -1.0093  -0.9235
    -0.8771  -0.8670  -0.8021  -0.7629  -0.7255  -0.6787  -0.6419  -0.6068
    -0.5661  -0.5564  -0.5098  -0.4817  -0.4410  -0.4102  -0.3424  -0.2442
    -0.2035  -0.1264  -0.0627  -0.0162   0.0298   0.0529   0.1005   0.2649
     0.2759   0.3675   0.4140   0.4228   0.4670   0.4992   0.5397   0.5665
     0.6404   0.9004   0.9928   1.0537   1.1265   1.3856   1.4132   1.5024
     1.5270   1.6979   1.7279   1.7731   1.7984   1.8156   1.8350   1.8938
     1.9361   1.9764   2.0493   2.1395   2.1811   2.2015   2.2109   2.2526
     2.2647   2.2680   2.3120   2.3283   2.3471   2.3658   2.3964   2.4223
     2.4516   2.5132   2.5483   2.6253   2.7697   2.9221   2.9362   2.9547
     2.9806   3.0070   3.0338   3.0531   3.0592   3.0706   3.0777   3.1062
     3.1921   3.2412   3.2602   3.2622   3.2800   3.3004   3.3142   3.3327
     3.3403   3.3697   3.3816   3.3981   3.4066   3.4141   3.4271   3.9407
     3.9511   4.1105   4.1603   4.4936   4.5418   4.5485   4.6639   5.0257
     5.1314   5.2693   5.4608   5.5001   5.6601   5.6843   5.8688   5.9489
     6.0816   6.1041   6.3032   6.4886   6.6064   6.6400   7.1115   7.2634
     7.5465   7.6190   7.9638   8.0778   8.1877   8.2177   8.3607   8.3956
     8.5339   8.5763   8.6872   8.7953   8.8810   8.9150   8.9796

     occupation numbers 
     1.0000   1.0000   1.0000   1.0000   1.0000   1.0000   1.0000   1.0000
     1.0000   1.0000   1.0000   1.0000   1.0000   1.0000   1.0000   1.0000
     1.0000   1.0000   1.0000   1.0000   1.0000   1.0000   1.0000   1.0000
     1.0000   1.0000   1.0000   1.0000   1.0000   1.0000   1.0000   1.0000
     1.0000   1.0000   1.0000   1.0000   1.0000   1.0000   1.0000   1.0000
     1.0000   1.0000   1.0000   1.0000   1.0000   1.0000   1.0000   1.0000
     1.0000   1.0000   1.0000   1.0000   1.0000   1.0000   1.0000   1.0000
     1.0000   1.0000   1.0000   1.0000   1.0000   1.0000   1.0000   1.0000
     1.0000   1.0000   1.0000   1.0000   1.0000   1.0000   1.0000   1.0000
     1.0000   1.0000   1.0000   1.0000   1.0000   1.0000   1.0000   1.0000
     1.0000   1.0000   1.0000   1.0000   1.0000   1.0000   1.0000   1.0000
     1.0000   1.0000   1.0000   1.0000   1.0000   1.0000   1.0000   1.0000
     1.0000   1.0000   1.0000   1.0000   1.0000   1.0000   1.0000   1.0000
     1.0000   1.0000   1.0000   1.0000   1.0000   1.0000   1.0000   1.0000
     1.0000   1.0000   1.0000   1.0000   1.0000   1.0000   1.0000   1.0000
     1.0000   1.0000   1.0000   1.0000   1.0000   1.0000   1.0000   1.0000
     1.0000   1.0000   1.0000   1.0000   1.0000   1.0000   1.0000   1.0000
     1.0000   1.0000   1.0000   1.0000   1.0000   1.0000   1.0000   1.0000
     1.0000   1.0000   1.0000   1.0000   1.0000   1.0000   1.0000   1.0000
     1.0000   1.0000   1.0000   1.0000   1.0000   1.0000   1.0000   1.0000
     1.0000   1.0000   1.0000   1.0000   0.9999   0.9997   0.9996   0.9994
     0.9994   0.9985   0.9983   0.9978   0.9976   0.9974   0.9971   0.9963
     0.9955   0.9947   0.9927   0.9896   0.9877   0.9867   0.9863   0.9839
     0.9832   0.9830   0.9800   0.9788   0.9774   0.9758   0.9731   0.9707
     0.9676   0.9604   0.9558   0.9440   0.9154   0.8746   0.8702   0.8644
     0.8558   0.8467   0.8371   0.8300   0.8277   0.8233   0.8205   0.8093
     0.7726   0.7501   0.7410   0.7401   0.7314   0.7213   0.7144   0.7050
     0.7011   0.6858   0.6795   0.6707   0.6661   0.6620   0.6549   0.3579
     0.3522   0.2689   0.2451   0.1180   0.1045   0.1027   0.0752   0.0241
     0.0165   0.0097   0.0044   0.0037   0.0018   0.0016   0.0006   0.0004
     0.0002   0.0002   0.0001   0.0000   0.0000   0.0000   0.0000   0.0000
     0.0000   0.0000   0.0000   0.0000   0.0000   0.0000   0.0000   0.0000
     0.0000   0.0000   0.0000   0.0000   0.0000   0.0000   0.0000

          k =-0.5000-0.5000 0.0000 ( 65132 PWs)   bands (ev):

   -92.3310 -92.2743 -92.1845 -92.1361 -92.0776 -92.0371 -92.0197 -91.8951
   -55.6842 -55.6604 -55.5424 -55.5321 -55.5232 -55.5188 -55.4797 -55.4542
   -55.4377 -55.4361 -55.4260 -55.3859 -55.3676 -55.3292 -55.3103 -55.2773
   -55.2715 -55.2259 -55.2229 -55.2224 -55.2144 -55.1694 -55.1505 -55.0625
   -30.9128 -30.9019 -30.7571 -30.7195 -30.6814 -30.6719 -30.5713 -30.5113
   -29.4788 -29.4399 -29.4134 -29.3064 -22.2483 -14.5732 -14.5439 -14.4268
   -14.4166 -14.3244 -14.2837 -14.2543 -14.1213 -13.7705 -13.6221 -13.6113
   -13.5744 -13.5568 -13.5393 -13.5356 -13.4957 -13.4891 -13.4764 -13.4651
   -13.4483 -13.3715 -13.3652 -13.3417 -13.3230 -13.3018 -13.2022 -13.1897
   -13.0669 -13.0523 -12.7983 -12.7564 -12.6932 -12.6664 -12.6573 -12.6254
   -12.6223 -12.6134 -12.5950 -12.5935 -12.5223 -12.5080 -12.4847 -12.4750
   -12.4450 -12.4291 -12.2453 -12.2377 -12.1782 -12.0968 -11.9584 -11.9304
   -11.8752 -11.8420 -11.4056 -11.3934 -11.3755 -11.3587 -11.3240 -11.3060
   -11.2716 -11.2110 -11.1903 -11.1858 -11.1353 -11.1322  -5.8500  -3.1538
    -3.1483  -1.8633  -1.7861  -1.7748  -1.7043  -1.6645  -1.5858  -1.5182
    -1.3933  -1.2750  -1.2450  -1.2075  -1.1486  -1.0764  -1.0632  -0.9909
    -0.9488  -0.8331  -0.8066  -0.7574  -0.7245  -0.6607  -0.6182  -0.5976
    -0.5866  -0.5359  -0.4858  -0.4746  -0.3597  -0.3031  -0.2568  -0.2060
    -0.1848  -0.1733  -0.1345  -0.0939  -0.0619  -0.0449   0.0394   0.1075
     0.1560   0.1773   0.2531   0.3022   0.3225   0.3741   0.3856   0.4094
     0.4176   0.8668   0.9105   0.9976   1.0400   1.4217   1.4316   1.4638
     1.5024   1.7791   1.7989   1.8058   1.8419   1.9798   2.0768   2.1030
     2.1388   2.1497   2.1785   2.1865   2.2197   2.2271   2.2401   2.2475
     2.3057   2.3132   2.3369   2.3609   2.3664   2.3831   2.4228   2.4495
     2.4575   2.4954   2.5163   2.5960   2.6618   2.9372   2.9665   2.9813
     3.0047   3.0066   3.0427   3.0452   3.0559   3.0655   3.0765   3.0925
     3.0984   3.1173   3.1295   3.1929   3.1977   3.2177   3.2321   3.2430
     3.2614   3.2669   3.2764   3.3773   3.3823   3.4102   3.4197   4.3500
     4.3819   4.4248   4.4377   4.6865   4.7563   4.7870   5.0273   5.1339
     5.1491   5.2327   5.3643   5.4158   5.4273   5.5686   5.6950   5.7115
     5.9895   6.0057   6.1330   6.2577   6.5698   6.6691   6.7236   7.1896
     7.5007   7.5362   7.7263   8.2857   8.3030   8.3853   8.4225   8.5661
     8.6799   8.8243   8.8807   8.9181   8.9301   8.9659   9.0477

     occupation numbers 
     1.0000   1.0000   1.0000   1.0000   1.0000   1.0000   1.0000   1.0000
     1.0000   1.0000   1.0000   1.0000   1.0000   1.0000   1.0000   1.0000
     1.0000   1.0000   1.0000   1.0000   1.0000   1.0000   1.0000   1.0000
     1.0000   1.0000   1.0000   1.0000   1.0000   1.0000   1.0000   1.0000
     1.0000   1.0000   1.0000   1.0000   1.0000   1.0000   1.0000   1.0000
     1.0000   1.0000   1.0000   1.0000   1.0000   1.0000   1.0000   1.0000
[...]
     0.0000   0.0000   0.0000   0.0000   0.0000   0.0000   0.0000   0.0000
     0.0000   0.0000   0.0000   0.0000   0.0000   0.0000   0.0000

          k =-0.5000 0.0000 0.0000 ( 65180 PWs)   bands (ev):

   -92.3310 -92.2743 -92.1845 -92.1361 -92.0776 -92.0371 -92.0197 -91.8951
   -55.6842 -55.6604 -55.5424 -55.5321 -55.5232 -55.5188 -55.4797 -55.4542
   -55.4377 -55.4361 -55.4260 -55.3859 -55.3676 -55.3292 -55.3103 -55.2773
   -55.2715 -55.2259 -55.2229 -55.2224 -55.2144 -55.1694 -55.1505 -55.0625
   -30.9132 -30.9022 -30.7567 -30.7209 -30.6799 -30.6716 -30.5724 -30.5103
   -29.4800 -29.4405 -29.4122 -29.3057 -22.2483 -14.6509 -14.6041 -14.5404
   -14.4343 -14.3259 -14.1825 -14.0447 -13.9030 -13.7710 -13.7698 -13.7635
   -13.7425 -13.6902 -13.6311 -13.5986 -13.5560 -13.5463 -13.5320 -13.4766
   -13.4665 -13.3733 -13.1906 -13.1793 -13.1316 -13.1226 -13.0786 -13.0019
   -12.9859 -12.9095 -12.8895 -12.8859 -12.7350 -12.6941 -12.6834 -12.6676
   -12.6578 -12.6502 -12.5881 -12.5692 -12.5458 -12.5252 -12.4708 -12.4525
   -12.3945 -12.3654 -12.2800 -12.2710 -12.1811 -12.1558 -12.0052 -11.9681
   -11.8756 -11.8391 -11.4124 -11.3916 -11.3843 -11.3697 -11.3517 -11.3103
   -11.2474 -11.2297 -11.1972 -11.1530 -11.1436 -11.1275  -5.8500  -3.1538
    -3.1479  -2.2169  -2.1777  -2.0131  -1.9738  -1.6628  -1.5884  -1.4379
    -1.3197  -1.2816  -1.2368  -1.1875  -1.1609  -1.0398  -0.9939  -0.9813
    -0.8979  -0.8614  -0.8501  -0.8145  -0.7594  -0.6898  -0.6590  -0.6340
    -0.5376  -0.4889  -0.4414  -0.4086  -0.3863  -0.3591  -0.3093  -0.2844
    -0.2465  -0.1567  -0.0797  -0.0220   0.0432   0.2108   0.2398   0.3088
     0.3266   0.3979   0.4151   0.5498   0.5818   0.6156   0.8066   0.9045
     0.9513   1.0134   1.0962   1.2166   1.2341   1.3648   1.3927   1.4442
     1.4635   1.5093   1.5248   1.5688   1.5940   1.6578   1.7038   1.7515
     1.7588   2.0552   2.0629   2.0807   2.0994   2.2174   2.2232   2.2340
     2.2530   2.2764   2.2895   2.3270   2.3593   2.3785   2.4435   2.4477
     2.5037   2.5189   2.5829   2.6778   2.7930   2.8688   2.8810   2.9646
     2.9946   3.0174   3.0560   3.0800   3.0872   3.0971   3.1058   3.1331
     3.2016   3.2483   3.2879   3.3231   3.3650   3.3707   3.3715   3.3844
     3.3968   3.4102   3.4253   3.4269   3.4491   3.4540   3.4776   3.4973
     3.5018   3.6304   3.6352   4.4137   4.4722   4.5390   4.6758   4.9627
     5.1479   5.2344   5.3544   5.5313   5.6184   5.8914   5.9197   6.0081
     6.1856   6.3787   6.3950   6.4148   6.9687   7.1095   7.1910   7.4423
     7.5473   7.6536   7.6845   7.9924   8.0957   8.1222   8.2007   8.3465
     8.4668   8.6191   8.6206   8.7278   8.7647   8.8670   8.9796

     occupation numbers 
     1.0000   1.0000   1.0000   1.0000   1.0000   1.0000   1.0000   1.0000
     1.0000   1.0000   1.0000   1.0000   1.0000   1.0000   1.0000   1.0000
     1.0000   1.0000   1.0000   1.0000   1.0000   1.0000   1.0000   1.0000
     1.0000   1.0000   1.0000   1.0000   1.0000   1.0000   1.0000   1.0000
     1.0000   1.0000   1.0000   1.0000   1.0000   1.0000   1.0000   1.0000
     1.0000   1.0000   1.0000   1.0000   1.0000   1.0000   1.0000   1.0000
     1.0000   1.0000   1.0000   1.0000   1.0000   1.0000   1.0000   1.0000
     1.0000   1.0000   1.0000   1.0000   1.0000   1.0000   1.0000   1.0000
     1.0000   1.0000   1.0000   1.0000   1.0000   1.0000   1.0000   1.0000
     1.0000   1.0000   1.0000   1.0000   1.0000   1.0000   1.0000   1.0000
     1.0000   1.0000   1.0000   1.0000   1.0000   1.0000   1.0000   1.0000
     1.0000   1.0000   1.0000   1.0000   1.0000   1.0000   1.0000   1.0000
     1.0000   1.0000   1.0000   1.0000   1.0000   1.0000   1.0000   1.0000
     1.0000   1.0000   1.0000   1.0000   1.0000   1.0000   1.0000   1.0000
     1.0000   1.0000   1.0000   1.0000   1.0000   1.0000   1.0000   1.0000
     1.0000   1.0000   1.0000   1.0000   1.0000   1.0000   1.0000   1.0000
     1.0000   1.0000   1.0000   1.0000   1.0000   1.0000   1.0000   1.0000
     1.0000   1.0000   1.0000   1.0000   1.0000   1.0000   1.0000   1.0000
     1.0000   1.0000   1.0000   1.0000   1.0000   1.0000   1.0000   1.0000
     1.0000   1.0000   1.0000   1.0000   1.0000   1.0000   1.0000   1.0000
     1.0000   1.0000   0.9999   0.9999   0.9999   0.9997   0.9997   0.9996
     0.9995   0.9994   0.9994   0.9992   0.9991   0.9988   0.9984   0.9981
     0.9980   0.9926   0.9923   0.9918   0.9911   0.9859   0.9856   0.9850
     0.9839   0.9825   0.9816   0.9789   0.9764   0.9748   0.9685   0.9681
     0.9616   0.9597   0.9507   0.9346   0.9099   0.8902   0.8868   0.8611
     0.8510   0.8431   0.8289   0.8197   0.8168   0.8129   0.8094   0.7982
     0.7684   0.7467   0.7275   0.7099   0.6882   0.6852   0.6848   0.6780
     0.6714   0.6641   0.6559   0.6550   0.6428   0.6401   0.6269   0.6158
     0.6132   0.5386   0.5357   0.1431   0.1244   0.1052   0.0728   0.0300
     0.0155   0.0112   0.0069   0.0032   0.0022   0.0006   0.0005   0.0003
     0.0001   0.0000   0.0000   0.0000   0.0000   0.0000   0.0000   0.0000
     0.0000   0.0000   0.0000   0.0000   0.0000   0.0000   0.0000   0.0000
     0.0000   0.0000   0.0000   0.0000   0.0000   0.0000   0.0000

          k =-0.2500 0.2500 0.0000 ( 65198 PWs)   bands (ev):

   -92.3310 -92.2743 -92.1845 -92.1361 -92.0776 -92.0371 -92.0197 -91.8951
   -55.6842 -55.6604 -55.5424 -55.5321 -55.5232 -55.5188 -55.4797 -55.4542
   -55.4377 -55.4361 -55.4260 -55.3859 -55.3676 -55.3292 -55.3103 -55.2773
   -55.2715 -55.2259 -55.2229 -55.2224 -55.2144 -55.1694 -55.1505 -55.0625
   -30.9152 -30.8998 -30.7572 -30.7204 -30.6809 -30.6714 -30.5716 -30.5106
   -29.4805 -29.4392 -29.4132 -29.3057 -22.2483 -14.6526 -14.6190 -14.5400
   -14.4224 -14.3181 -14.1919 -14.0991 -13.8985 -13.7710 -13.7532 -13.7229
   -13.7123 -13.6659 -13.6398 -13.6272 -13.6167 -13.5683 -13.4749 -13.4630
   -13.3112 -13.2845 -13.2589 -13.2368 -13.2077 -13.1348 -13.0942 -13.0749
   -12.9729 -12.9461 -12.8644 -12.7865 -12.7434 -12.6975 -12.6792 -12.6510
   -12.6286 -12.6048 -12.5810 -12.5719 -12.5611 -12.5123 -12.4818 -12.4538
   -12.4173 -12.4106 -12.4004 -12.3318 -12.1980 -12.1156 -12.0822 -11.9239
   -11.8071 -11.7673 -11.4330 -11.4111 -11.3842 -11.3718 -11.3311 -11.2962
   -11.2732 -11.2517 -11.2292 -11.1455 -11.0992 -11.0898  -5.8500  -3.1537
    -3.1481  -2.3020  -2.0920  -1.9717  -1.8846  -1.7644  -1.6971  -1.4978
    -1.3490  -1.3296  -1.3038  -1.2106  -1.1751  -1.0826  -1.0498  -1.0236
    -0.8791  -0.8241  -0.7581  -0.7286  -0.6695  -0.6449  -0.6049  -0.5757
    -0.5360  -0.4738  -0.4267  -0.3680  -0.2975  -0.2720  -0.2189  -0.1905
    -0.1462  -0.0913  -0.0515  -0.0039   0.0900   0.1279   0.1361   0.1840
     0.2493   0.3225   0.3645   0.3886   0.4557   0.4881   0.7509   0.9146
     0.9636   0.9999   1.0533   1.0923   1.1635   1.2267   1.2521   1.5350
     1.6533   1.6915   1.7210   1.7315   1.7733   1.7920   1.8353   1.8661
     1.8826   1.9091   1.9477   1.9600   2.0065   2.0213   2.0660   2.1502
     2.1679   2.1862   2.2234   2.2519   2.2886   2.3376   2.4532   2.5620
     2.5964   2.6361   2.6600   2.7280   2.7715   2.7987   2.8220   2.8422
     2.9417   2.9772   3.0572   3.0675   3.0837   3.2495   3.2583   3.2718
     3.2826   3.2924   3.3058   3.3119   3.3301   3.3372   3.3544   3.3637
     3.3767   3.3856   3.3908   3.4233   3.4358   3.4452   3.4786   3.7719
     3.8531   3.9098   3.9813   3.9981   4.1936   4.3292   4.6512   4.7981
     4.9871   5.1358   5.3440   5.6067   5.9154   5.9295   5.9993   6.1345
     6.2069   6.2499   6.3577   6.4179   6.9283   7.0093   7.0966   7.1746
     7.7143   7.8142   7.8464   7.8978   7.9894   8.1774   8.2021   8.2849
     8.3935   8.4625   8.5753   8.6923   8.7289   8.7764   8.8720

     occupation numbers 
     1.0000   1.0000   1.0000   1.0000   1.0000   1.0000   1.0000   1.0000
     1.0000   1.0000   1.0000   1.0000   1.0000   1.0000   1.0000   1.0000
     1.0000   1.0000   1.0000   1.0000   1.0000   1.0000   1.0000   1.0000
     1.0000   1.0000   1.0000   1.0000   1.0000   1.0000   1.0000   1.0000
     1.0000   1.0000   1.0000   1.0000   1.0000   1.0000   1.0000   1.0000
     1.0000   1.0000   1.0000   1.0000   1.0000   1.0000   1.0000   1.0000
     1.0000   1.0000   1.0000   1.0000   1.0000   1.0000   1.0000   1.0000
     1.0000   1.0000   1.0000   1.0000   1.0000   1.0000   1.0000   1.0000
     1.0000   1.0000   1.0000   1.0000   1.0000   1.0000   1.0000   1.0000
     1.0000   1.0000   1.0000   1.0000   1.0000   1.0000   1.0000   1.0000
     1.0000   1.0000   1.0000   1.0000   1.0000   1.0000   1.0000   1.0000
     1.0000   1.0000   1.0000   1.0000   1.0000   1.0000   1.0000   1.0000
     1.0000   1.0000   1.0000   1.0000   1.0000   1.0000   1.0000   1.0000
     1.0000   1.0000   1.0000   1.0000   1.0000   1.0000   1.0000   1.0000
     1.0000   1.0000   1.0000   1.0000   1.0000   1.0000   1.0000   1.0000
     1.0000   1.0000   1.0000   1.0000   1.0000   1.0000   1.0000   1.0000
     1.0000   1.0000   1.0000   1.0000   1.0000   1.0000   1.0000   1.0000
     1.0000   1.0000   1.0000   1.0000   1.0000   1.0000   1.0000   1.0000
     1.0000   1.0000   1.0000   1.0000   1.0000   1.0000   1.0000   1.0000
     1.0000   1.0000   1.0000   1.0000   1.0000   1.0000   1.0000   1.0000
     1.0000   1.0000   1.0000   0.9999   0.9999   0.9999   0.9999   0.9993
     0.9988   0.9985   0.9983   0.9982   0.9978   0.9976   0.9971   0.9967
     0.9964   0.9960   0.9953   0.9950   0.9939   0.9935   0.9922   0.9891
     0.9883   0.9875   0.9856   0.9840   0.9817   0.9781   0.9675   0.9538
     0.9487   0.9422   0.9379   0.9246   0.9150   0.9085   0.9027   0.8975
     0.8685   0.8570   0.8284   0.8245   0.8182   0.7461   0.7419   0.7354
     0.7301   0.7253   0.7186   0.7156   0.7063   0.7027   0.6938   0.6889
     0.6821   0.6773   0.6746   0.6570   0.6502   0.6450   0.6263   0.4549
     0.4075   0.3752   0.3357   0.3266   0.2298   0.1734   0.0779   0.0508
     0.0276   0.0162   0.0072   0.0023   0.0005   0.0005   0.0003   0.0001
     0.0001   0.0001   0.0000   0.0000   0.0000   0.0000   0.0000   0.0000
     0.0000   0.0000   0.0000   0.0000   0.0000   0.0000   0.0000   0.0000
     0.0000   0.0000   0.0000   0.0000   0.0000   0.0000   0.0000

          k =-0.5000 0.2500 0.0000 ( 65138 PWs)   bands (ev):

   -92.3310 -92.2743 -92.1845 -92.1361 -92.0776 -92.0371 -92.0197 -91.8951
   -55.6842 -55.6604 -55.5424 -55.5321 -55.5232 -55.5188 -55.4797 -55.4542
   -55.4377 -55.4361 -55.4260 -55.3859 -55.3676 -55.3292 -55.3103 -55.2773
   -55.2715 -55.2259 -55.2229 -55.2224 -55.2144 -55.1694 -55.1505 -55.0625
   -30.9130 -30.9021 -30.7569 -30.7202 -30.6806 -30.6718 -30.5719 -30.5108
   -29.4794 -29.4402 -29.4128 -29.3061 -22.2483 -14.6189 -14.5771 -14.4977
   -14.3995 -14.3557 -14.2287 -14.1470 -14.0173 -13.7706 -13.7037 -13.6735
   -13.6614 -13.6188 -13.6000 -13.5713 -13.5411 -13.5307 -13.5100 -13.4687
   -13.4553 -13.3608 -13.2751 -13.2401 -13.2241 -13.2144 -13.1360 -13.1080
   -13.0278 -12.9720 -12.8408 -12.8037 -12.7094 -12.6867 -12.6671 -12.6554
   -12.6312 -12.6114 -12.5957 -12.5805 -12.5654 -12.4923 -12.4800 -12.4713
   -12.4149 -12.3952 -12.2623 -12.2548 -12.1794 -12.1239 -11.9699 -11.9634
   -11.8713 -11.8418 -11.4054 -11.3928 -11.3786 -11.3667 -11.3455 -11.3151
   -11.2345 -11.2261 -11.2024 -11.1675 -11.1391 -11.1300  -5.8500  -3.1538
    -3.1481  -2.0750  -2.0325  -1.8831  -1.8408  -1.6820  -1.6073  -1.4622
    -1.3262  -1.2708  -1.2430  -1.2035  -1.1635  -1.0840  -0.9691  -0.9126
    -0.8889  -0.8643  -0.7906  -0.7580  -0.7221  -0.7021  -0.6420  -0.6152
    -0.5737  -0.5384  -0.5098  -0.4532  -0.4266  -0.3842  -0.3514  -0.2482
    -0.2201  -0.1399  -0.0727  -0.0429   0.0120   0.1015   0.1341   0.2349
     0.2719   0.3258   0.3778   0.3948   0.4811   0.5037   0.5347   0.5964
     0.6348   0.9317   0.9952   1.0518   1.0854   1.3735   1.4224   1.5037
     1.5260   1.7085   1.7467   1.7835   1.7991   1.8172   1.8351   1.9034
     1.9444   1.9839   2.0084   2.1334   2.1640   2.1965   2.2109   2.2479
     2.2756   2.2865   2.3027   2.3249   2.3482   2.3929   2.4154   2.4449
     2.4670   2.4946   2.5597   2.6737   2.7846   2.8134   2.8818   2.9212
     2.9784   3.0169   3.0248   3.0524   3.0635   3.0816   3.0976   3.1176
     3.2010   3.2443   3.2564   3.2638   3.2848   3.3079   3.3206   3.3351
     3.3485   3.3673   3.3798   3.3918   3.3994   3.4088   3.4203   3.9410
     3.9901   4.1398   4.1638   4.4245   4.5005   4.5508   4.7611   5.0317
     5.1505   5.2504   5.3613   5.5267   5.6924   5.7817   5.8040   5.9395
     6.0612   6.1056   6.3133   6.4611   6.6044   6.6379   7.1346   7.3064
     7.5171   7.6033   7.9741   8.0776   8.1900   8.2310   8.3391   8.3995
     8.5244   8.6062   8.6892   8.8018   8.8725   8.9169   8.9473

     occupation numbers 
     1.0000   1.0000   1.0000   1.0000   1.0000   1.0000   1.0000   1.0000
     1.0000   1.0000   1.0000   1.0000   1.0000   1.0000   1.0000   1.0000
     1.0000   1.0000   1.0000   1.0000   1.0000   1.0000   1.0000   1.0000
     1.0000   1.0000   1.0000   1.0000   1.0000   1.0000   1.0000   1.0000
     1.0000   1.0000   1.0000   1.0000   1.0000   1.0000   1.0000   1.0000
     1.0000   1.0000   1.0000   1.0000   1.0000   1.0000   1.0000   1.0000
     1.0000   1.0000   1.0000   1.0000   1.0000   1.0000   1.0000   1.0000
     1.0000   1.0000   1.0000   1.0000   1.0000   1.0000   1.0000   1.0000
     1.0000   1.0000   1.0000   1.0000   1.0000   1.0000   1.0000   1.0000
     1.0000   1.0000   1.0000   1.0000   1.0000   1.0000   1.0000   1.0000
     1.0000   1.0000   1.0000   1.0000   1.0000   1.0000   1.0000   1.0000
     1.0000   1.0000   1.0000   1.0000   1.0000   1.0000   1.0000   1.0000
     1.0000   1.0000   1.0000   1.0000   1.0000   1.0000   1.0000   1.0000
     1.0000   1.0000   1.0000   1.0000   1.0000   1.0000   1.0000   1.0000
     1.0000   1.0000   1.0000   1.0000   1.0000   1.0000   1.0000   1.0000
     1.0000   1.0000   1.0000   1.0000   1.0000   1.0000   1.0000   1.0000
     1.0000   1.0000   1.0000   1.0000   1.0000   1.0000   1.0000   1.0000
     1.0000   1.0000   1.0000   1.0000   1.0000   1.0000   1.0000   1.0000
     1.0000   1.0000   1.0000   1.0000   1.0000   1.0000   1.0000   1.0000
     1.0000   1.0000   1.0000   1.0000   1.0000   1.0000   1.0000   1.0000
     1.0000   1.0000   1.0000   1.0000   0.9999   0.9997   0.9996   0.9994
     0.9994   0.9984   0.9981   0.9977   0.9976   0.9974   0.9971   0.9961
     0.9953   0.9945   0.9939   0.9898   0.9885   0.9870   0.9863   0.9842
     0.9825   0.9818   0.9807   0.9791   0.9773   0.9735   0.9713   0.9684
     0.9659   0.9627   0.9542   0.9354   0.9119   0.9049   0.8865   0.8749
     0.8566   0.8432   0.8404   0.8302   0.8260   0.8190   0.8127   0.8046
     0.7686   0.7486   0.7428   0.7393   0.7291   0.7176   0.7111   0.7038
     0.6969   0.6870   0.6804   0.6740   0.6700   0.6649   0.6586   0.3578
     0.3309   0.2547   0.2435   0.1396   0.1160   0.1021   0.0568   0.0236
     0.0154   0.0105   0.0067   0.0033   0.0015   0.0010   0.0009   0.0004
     0.0002   0.0002   0.0001   0.0000   0.0000   0.0000   0.0000   0.0000
     0.0000   0.0000   0.0000   0.0000   0.0000   0.0000   0.0000   0.0000
     0.0000   0.0000   0.0000   0.0000   0.0000   0.0000   0.0000

     the Fermi energy is     3.6956 ev

!    total energy              =   -4482.97040773 Ry
     estimated scf accuracy    <          8.0E-09 Ry
     smearing contrib. (-TS)   =      -1.17284717 Ry
     internal energy E=F+TS    =   -4481.79756056 Ry

     The total energy is F=E-TS. E is the sum of the following terms:
     one-electron contribution =  -20253.12611476 Ry
     hartree contribution      =   10266.33170191 Ry
     xc contribution           =    -701.58004344 Ry
     ewald contribution        =    6492.23386945 Ry
     one-center paw contrib.   =    -285.65697372 Ry
      -> PAW hartree energy AE =      25.17289836 Ry
      -> PAW hartree energy PS =     -25.05672544 Ry
      -> PAW xc energy AE      =     -16.51884604 Ry
      -> PAW xc energy PS      =       6.87839828 Ry
      -> total E_H with PAW    =   10266.44787484 Ry
      -> total E_XC with PAW   =    -711.22049120 Ry

     convergence has been achieved in  51 iterations

     Writing all to output data dir /bsuhome/zayahcortright/scratch/pwscf.save/
 
     init_run     :      8.53s CPU      9.10s WALL (       1 calls)
     electrons    :    800.41s CPU    825.78s WALL (       1 calls)

     Called by init_run:
     wfcinit      :      6.86s CPU      7.07s WALL (       1 calls)
     wfcinit:atom :      0.06s CPU      0.07s WALL (       5 calls)
     wfcinit:wfcr :      6.51s CPU      6.67s WALL (       5 calls)
     potinit      :      0.16s CPU      0.20s WALL (       1 calls)
     hinit0       :      0.60s CPU      0.85s WALL (       1 calls)

     Called by electrons:
     c_bands      :    642.40s CPU    649.20s WALL (      51 calls)
     sum_band     :    119.72s CPU    129.76s WALL (      51 calls)
     v_of_rho     :      5.56s CPU      5.91s WALL (      52 calls)
     v_h          :      0.50s CPU      0.51s WALL (      52 calls)
     v_xc         :      5.06s CPU      5.40s WALL (      52 calls)
     newd         :     16.88s CPU     24.58s WALL (      52 calls)
     PAW_pot      :      1.67s CPU      1.69s WALL (      52 calls)
     mix_rho      :     13.82s CPU     14.12s WALL (      51 calls)

     Called by c_bands:
     init_us_2    :      7.11s CPU      7.17s WALL (     515 calls)
     init_us_2:cp :      7.10s CPU      7.16s WALL (     515 calls)
     cegterg      :    606.80s CPU    613.34s WALL (     255 calls)

     Called by sum_band:
     sum_band:wei :      0.35s CPU      0.36s WALL (      51 calls)
     sum_band:loo :    102.16s CPU    102.97s WALL (      51 calls)
     sum_band:buf :      1.62s CPU      1.66s WALL (     255 calls)
     sum_band:ini :      3.41s CPU      3.42s WALL (     255 calls)
     sum_band:cal :     21.08s CPU     21.14s WALL (     255 calls)
     sum_band:bec :      0.58s CPU      0.59s WALL (     255 calls)
     addusdens    :     15.98s CPU     25.11s WALL (      51 calls)
                                        0.00s GPU  (      51 calls)
     addusd:skk   :      0.35s CPU      0.85s WALL (     204 calls)
                                        0.00s GPU  (     204 calls)

     Called by *egterg:
     cdiaghg      :     65.54s CPU     65.81s WALL (    1521 calls)
     cegterg:over :     44.90s CPU     45.10s WALL (    1266 calls)
     cegterg:upda :     33.76s CPU     34.33s WALL (    1266 calls)
     cegterg:last :     66.71s CPU     66.99s WALL (     471 calls)
     cdiaghg:chol :      3.71s CPU      3.74s WALL (    1521 calls)
     cdiaghg:inve :      3.99s CPU      4.01s WALL (    1521 calls)
     cdiaghg:para :      8.11s CPU      8.14s WALL (    3042 calls)
     h_psi        :    333.06s CPU    336.45s WALL (    1526 calls)
     s_psi        :     45.40s CPU     45.53s WALL (    1526 calls)
     g_psi        :      1.24s CPU      1.25s WALL (    1266 calls)

     Called by h_psi:
     h_psi:calbec :     49.63s CPU     49.86s WALL (    1526 calls)
     vloc_psi     :    234.84s CPU    237.15s WALL (    1526 calls)
     add_vuspsi   :     45.30s CPU     45.55s WALL (    1526 calls)

     General routines
     calbec       :     70.70s CPU     70.99s WALL (    1781 calls)
     fft          :      3.85s CPU      3.91s WALL (     674 calls)
     ffts         :      4.83s CPU      4.87s WALL (    5351 calls)
     fftw         :    195.18s CPU    196.79s WALL (  352471 calls)
     interpolate  :      0.42s CPU      0.43s WALL (      52 calls)
 
     Parallel routines

     PAW routines
     PAW_pot      :      1.67s CPU      1.69s WALL (      52 calls)
 
     PWSCF        :  13m30.97s CPU  14m 0.28s WALL

 
   This run was terminated on:  15:16:34  20Jun2024            

=------------------------------------------------------------------------------=
   JOB DONE.
=------------------------------------------------------------------------------=
