
     Program PWSCF v.7.2 starts on 21Jun2024 at 15:46:46 

     This program is part of the open-source Quantum ESPRESSO suite
     for quantum simulation of materials; please cite
         "P. Giannozzi et al., J. Phys.:Condens. Matter 21 395502 (2009);
         "P. Giannozzi et al., J. Phys.:Condens. Matter 29 465901 (2017);
         "P. Giannozzi et al., J. Chem. Phys. 152 154105 (2020);
          URL http://www.quantum-espresso.org", 
     in publications or presentations arising from this work. More details at
     http://www.quantum-espresso.org/quote

     Parallel version (MPI & OpenMP), running on      48 processor cores
     Number of MPI processes:                48
     Threads/MPI process:                     1

     MPI processes distributed on     1 nodes
     60582 MiB available memory on the printing compute node when the environment starts
 
     Reading input from espresso.pwi
Warning: card &CELL ignored
Warning: card / ignored
Warning: card &FCP ignored
Warning: card / ignored
Warning: card &RISM ignored
Warning: card / ignored

     Current dimensions of program PWSCF are:
     Max number of different atomic species (ntypx) = 10
     Max number of k-points (npk) =  40000
     Max angular momentum in pseudopotentials (lmaxx) =  4
     file O.pbe-n-kjpaw_psl.0.1.UPF: wavefunction(s)  2P renormalized
     signal trapping enabled: kill the code with -SIGUSR1 to stop cleanly the simulation 
 
     K-points division:     npool     =       2
     R & G space division:  proc/nbgrp/npool/nimage =      24
     Subspace diagonalization in iterative solution of the eigenvalue problem:
     one sub-group per band group will be used
     scalapack distributed-memory algorithm (size of sub-group:  3*  3 procs)

 
     Parallelization info
     --------------------
     sticks:   dense  smooth     PW     G-vecs:    dense   smooth      PW
     Min         350     175     47                61430    21716    3036
     Max         351     177     48                61449    21727    3041
     Sum        8421    4205   1137              1474595   521381   72913
 
     Using Slab Decomposition
 


     bravais-lattice index     =            0
     lattice parameter (alat)  =      14.8599  a.u.
     unit-cell volume          =    8305.1283 (a.u.)^3
     number of atoms/cell      =           49
     number of atomic types    =            3
     number of electrons       =       430.00
     number of Kohn-Sham states=          258
     kinetic-energy cutoff     =      60.0000  Ry
     charge density cutoff     =     480.0000  Ry
     scf convergence threshold =      1.0E-08
     mixing beta               =       0.1500
     number of iterations used =            8  local-TF  mixing
     Exchange-correlation= SLA  PW   PBE  PBE
                           (   1   4   3   4   0   0   0)

     celldm(1)=  14.859904  celldm(2)=   0.000000  celldm(3)=   0.000000
     celldm(4)=   0.000000  celldm(5)=   0.000000  celldm(6)=   0.000000

     crystal axes: (cart. coord. in units of alat)
               a(1) = (   1.000000   0.000000   0.000000 )  
               a(2) = (   0.000000   1.000000   0.000000 )  
               a(3) = (   0.000000   0.000000   2.531036 )  

     reciprocal axes: (cart. coord. in units 2 pi/alat)
               b(1) = (  1.000000  0.000000  0.000000 )  
               b(2) = (  0.000000  1.000000  0.000000 )  
               b(3) = (  0.000000  0.000000  0.395095 )  


     PseudoPot. # 1 for Sr read from file:
     /bsuhome/zayahcortright/q-e/pseudo/Sr_pbe_v1.uspp.F.UPF
     MD5 check sum: 6b418c05fbe9db5448babca5e47b7a5b
     Pseudo is Ultrasoft + core correction, Zval = 10.0
     Generated by new atomic code, or converted to UPF format
     Using radial grid of  883 points,  6 beta functions with: 
                l(1) =   0
                l(2) =   0
                l(3) =   1
                l(4) =   1
                l(5) =   2
                l(6) =   2
     Q(r) pseudized with  6 coefficients,  rinner =    1.400   1.400   1.400
                                                       1.400   1.400

     PseudoPot. # 2 for O  read from file:
     /bsuhome/zayahcortright/q-e/pseudo/O.pbe-n-kjpaw_psl.0.1.UPF
     MD5 check sum: 0234752ac141de4415c5fc33072bef88
     Pseudo is Projector augmented-wave + core cor, Zval =  6.0
     Generated using "atomic" code by A. Dal Corso  v.5.0.99 svn rev. 10869
     Shape of augmentation charge: BESSEL
     Using radial grid of 1095 points,  4 beta functions with: 
                l(1) =   0
                l(2) =   0
                l(3) =   1
                l(4) =   1
     Q(r) pseudized with 0 coefficients 


     PseudoPot. # 3 for Co read from file:
     /bsuhome/zayahcortright/q-e/pseudo/Co_pbe_v1.2.uspp.F.UPF
     MD5 check sum: 5f91765df6ddd3222702df6e7b74a16d
     Pseudo is Ultrasoft + core correction, Zval = 17.0
     Generated by new atomic code, or converted to UPF format
     Using radial grid of  863 points,  6 beta functions with: 
                l(1) =   0
                l(2) =   0
                l(3) =   1
                l(4) =   1
                l(5) =   2
                l(6) =   2
     Q(r) pseudized with  8 coefficients,  rinner =    1.200   1.200   1.200
                                                       1.200   1.200

     atomic species   valence    mass     pseudopotential
        Sr            10.00    87.62000     Sr( 1.00)
        O              6.00    15.99900     O ( 1.00)
        Co            17.00    58.93319     Co( 1.00)

     No symmetry found


                                    s                        frac. trans.

      isym =  1     identity                                     

 cryst.   s( 1) = (     1          0          0      )
                  (     0          1          0      )
                  (     0          0          1      )

 cart.    s( 1) = (  1.0000000  0.0000000  0.0000000 )
                  (  0.0000000  1.0000000  0.0000000 )
                  (  0.0000000  0.0000000  1.0000000 )


   Cartesian axes

     site n.     atom                  positions (alat units)
         1           Sr  tau(   1) = (   0.2508693   0.7491307   1.7574407  )
         2           O   tau(   2) = (   0.4985141   0.5014859   1.7715967  )
         3           Sr  tau(   3) = (   0.7482398   0.7454518   1.7648669  )
         4           Sr  tau(   4) = (   0.7441748   0.2558252   1.7667843  )
         5           Sr  tau(   5) = (   0.2508693   0.7491307   1.2696799  )
         6           Sr  tau(   6) = (   0.2508693   0.7491307   0.7632319  )
         7           Co  tau(   7) = (   0.4998914   0.5001086   1.0164559  )
         8           Co  tau(   8) = (   0.4936915   0.5063085   1.5135603  )
         9           O   tau(   9) = (   0.4988895   0.7610401   1.0164559  )
        10           O   tau(  10) = (   0.2389599   0.5011105   1.0164559  )
        11           O   tau(  11) = (   0.0070918   0.7374880   1.0164559  )
        12           O   tau(  12) = (   0.0088340   0.7405089   1.5135603  )
        13           O   tau(  13) = (   0.5066944   0.7415376   1.5135603  )
        14           O   tau(  14) = (   0.2584624   0.4933056   1.5135603  )
        15           O   tau(  15) = (   0.4985141   0.5014859   0.7773880  )
        16           O   tau(  16) = (   0.4985141   0.5014859   1.2555238  )
        17           Sr  tau(  17) = (   0.7482398   0.7454518   0.7706582  )
        18           Sr  tau(  18) = (   0.7482398   0.7454518   1.2622536  )
        19           Sr  tau(  19) = (   0.7441748   0.2558252   0.7725755  )
        20           Sr  tau(  20) = (   0.7441748   0.2558252   1.2603363  )
        21           O   tau(  21) = (   0.7322655   0.0078049   1.5135603  )
        22           O   tau(  22) = (   0.7558175   0.4996027   1.5135603  )
        23           O   tau(  23) = (   0.5003973   0.2441825   1.5135603  )
        24           O   tau(  24) = (   0.7527966   0.4978604   1.0164559  )
        25           O   tau(  25) = (   0.5021396   0.2472034   1.0164559  )
        26           O   tau(  26) = (   0.7517679   0.0000000   1.0164559  )
        27           O   tau(  27) = (   0.0114961   0.4948124   1.7455321  )
        28           O   tau(  28) = (   0.0048226   0.0077944   1.7715967  )
        29           Sr  tau(  29) = (   0.2545482   0.2517602   1.7648669  )
        30           O   tau(  30) = (   0.5048017   0.0015068   1.7786929  )
        31           Co  tau(  31) = (   0.0056869   0.5006215   1.0164559  )
        32           Co  tau(  32) = (   0.0065315   0.4997770   1.5135603  )
        33           Co  tau(  33) = (   0.0061999   0.0064171   1.0164559  )
        34           Co  tau(  34) = (   0.0000000   0.0126169   1.5135603  )
        35           O   tau(  35) = (   0.0114961   0.4948124   1.2815885  )
        36           O   tau(  36) = (   0.0114961   0.4948124   0.7513233  )
        37           O   tau(  37) = (   0.0051979   0.2673486   1.0164559  )
        38           O   tau(  38) = (   0.0130029   0.2478461   1.5135603  )
        39           O   tau(  39) = (   0.0048226   0.0077944   0.7773880  )
        40           O   tau(  40) = (   0.0048226   0.0077944   1.2555238  )
        41           Sr  tau(  41) = (   0.2545482   0.2517602   0.7706582  )
        42           Sr  tau(  42) = (   0.2545482   0.2517602   1.2622536  )
        43           Co  tau(  43) = (   0.4989925   0.0073160   1.5135603  )
        44           Co  tau(  44) = (   0.4998370   0.0064714   1.0164559  )
        45           O   tau(  45) = (   0.5048017   0.0015068   0.7844841  )
        46           O   tau(  46) = (   0.5048017   0.0015068   1.2484277  )
        47           O   tau(  47) = (   0.2621260   0.0059111   1.5135603  )
        48           O   tau(  48) = (   0.2591051   0.0041689   1.0164559  )
        49           O   tau(  49) = (   0.0000000   0.9951520   2.1602013  )

   Crystallographic axes

     site n.     atom                  positions (cryst. coord.)
         1           Sr  tau(   1) = (  0.2508693  0.7491307  0.6943562  )
         2           O   tau(   2) = (  0.4985141  0.5014859  0.6999492  )
         3           Sr  tau(   3) = (  0.7482398  0.7454518  0.6972903  )
         4           Sr  tau(   4) = (  0.7441748  0.2558252  0.6980478  )
         5           Sr  tau(   5) = (  0.2508693  0.7491307  0.5016443  )
         6           Sr  tau(   6) = (  0.2508693  0.7491307  0.3015492  )
         7           Co  tau(   7) = (  0.4998914  0.5001086  0.4015968  )
         8           Co  tau(   8) = (  0.4936915  0.5063085  0.5980003  )
         9           O   tau(   9) = (  0.4988895  0.7610401  0.4015968  )
        10           O   tau(  10) = (  0.2389599  0.5011105  0.4015968  )
        11           O   tau(  11) = (  0.0070918  0.7374880  0.4015968  )
        12           O   tau(  12) = (  0.0088340  0.7405089  0.5980003  )
        13           O   tau(  13) = (  0.5066944  0.7415376  0.5980003  )
        14           O   tau(  14) = (  0.2584624  0.4933056  0.5980003  )
        15           O   tau(  15) = (  0.4985141  0.5014859  0.3071422  )
        16           O   tau(  16) = (  0.4985141  0.5014859  0.4960513  )
        17           Sr  tau(  17) = (  0.7482398  0.7454518  0.3044833  )
        18           Sr  tau(  18) = (  0.7482398  0.7454518  0.4987103  )
        19           Sr  tau(  19) = (  0.7441748  0.2558252  0.3052408  )
        20           Sr  tau(  20) = (  0.7441748  0.2558252  0.4979527  )
        21           O   tau(  21) = (  0.7322655  0.0078049  0.5980003  )
        22           O   tau(  22) = (  0.7558175  0.4996027  0.5980003  )
        23           O   tau(  23) = (  0.5003973  0.2441825  0.5980003  )
        24           O   tau(  24) = (  0.7527966  0.4978604  0.4015968  )
        25           O   tau(  25) = (  0.5021396  0.2472034  0.4015968  )
        26           O   tau(  26) = (  0.7517679  0.0000000  0.4015968  )
        27           O   tau(  27) = (  0.0114961  0.4948124  0.6896512  )
        28           O   tau(  28) = (  0.0048226  0.0077944  0.6999492  )
        29           Sr  tau(  29) = (  0.2545482  0.2517602  0.6972903  )
        30           O   tau(  30) = (  0.5048017  0.0015068  0.7027529  )
        31           Co  tau(  31) = (  0.0056869  0.5006215  0.4015968  )
        32           Co  tau(  32) = (  0.0065315  0.4997770  0.5980003  )
        33           Co  tau(  33) = (  0.0061999  0.0064171  0.4015968  )
        34           Co  tau(  34) = (  0.0000000  0.0126169  0.5980003  )
        35           O   tau(  35) = (  0.0114961  0.4948124  0.5063494  )
        36           O   tau(  36) = (  0.0114961  0.4948124  0.2968442  )
        37           O   tau(  37) = (  0.0051979  0.2673486  0.4015968  )
        38           O   tau(  38) = (  0.0130029  0.2478461  0.5980003  )
        39           O   tau(  39) = (  0.0048226  0.0077944  0.3071422  )
        40           O   tau(  40) = (  0.0048226  0.0077944  0.4960513  )
        41           Sr  tau(  41) = (  0.2545482  0.2517602  0.3044833  )
        42           Sr  tau(  42) = (  0.2545482  0.2517602  0.4987103  )
        43           Co  tau(  43) = (  0.4989925  0.0073160  0.5980003  )
        44           Co  tau(  44) = (  0.4998370  0.0064714  0.4015968  )
        45           O   tau(  45) = (  0.5048017  0.0015068  0.3099459  )
        46           O   tau(  46) = (  0.5048017  0.0015068  0.4932477  )
        47           O   tau(  47) = (  0.2621260  0.0059111  0.5980003  )
        48           O   tau(  48) = (  0.2591051  0.0041689  0.4015968  )
        49           O   tau(  49) = (  0.0000000  0.9951520  0.8534850  )

     number of k points=    10  Gaussian smearing, width (Ry)=  0.0700
                       cart. coord. in units 2pi/alat
        k(    1) = (   0.0000000   0.0000000   0.0000000), wk =   0.1250000
        k(    2) = (   0.0000000   0.2500000   0.0000000), wk =   0.2500000
        k(    3) = (   0.0000000  -0.5000000   0.0000000), wk =   0.1250000
        k(    4) = (   0.2500000   0.2500000   0.0000000), wk =   0.2500000
        k(    5) = (   0.2500000  -0.5000000   0.0000000), wk =   0.2500000
        k(    6) = (  -0.5000000  -0.5000000   0.0000000), wk =   0.1250000
        k(    7) = (   0.2500000   0.0000000   0.0000000), wk =   0.2500000
        k(    8) = (  -0.5000000   0.0000000   0.0000000), wk =   0.1250000
        k(    9) = (  -0.2500000   0.2500000   0.0000000), wk =   0.2500000
        k(   10) = (  -0.5000000   0.2500000   0.0000000), wk =   0.2500000

                       cryst. coord.
        k(    1) = (   0.0000000   0.0000000   0.0000000), wk =   0.1250000
        k(    2) = (   0.0000000   0.2500000   0.0000000), wk =   0.2500000
        k(    3) = (   0.0000000  -0.5000000   0.0000000), wk =   0.1250000
        k(    4) = (   0.2500000   0.2500000   0.0000000), wk =   0.2500000
        k(    5) = (   0.2500000  -0.5000000   0.0000000), wk =   0.2500000
        k(    6) = (  -0.5000000  -0.5000000   0.0000000), wk =   0.1250000
        k(    7) = (   0.2500000   0.0000000   0.0000000), wk =   0.2500000
        k(    8) = (  -0.5000000   0.0000000   0.0000000), wk =   0.1250000
        k(    9) = (  -0.2500000   0.2500000   0.0000000), wk =   0.2500000
        k(   10) = (  -0.5000000   0.2500000   0.0000000), wk =   0.2500000

     Dense  grid:  1474595 G-vectors     FFT dimensions: ( 108, 108, 270)

     Smooth grid:   521381 G-vectors     FFT dimensions: (  75,  75, 192)

     Dynamical RAM for                 wfc:      10.69 MB

     Dynamical RAM for     wfc (w. buffer):      64.13 MB

     Dynamical RAM for           str. fact:       2.81 MB

     Dynamical RAM for           local pot:       0.00 MB

     Dynamical RAM for          nlocal pot:      24.53 MB

     Dynamical RAM for                qrad:       5.27 MB

     Dynamical RAM for          rho,v,vnew:       6.02 MB

     Dynamical RAM for               rhoin:       2.01 MB

     Dynamical RAM for            rho*nmix:      15.00 MB

     Dynamical RAM for           G-vectors:       3.68 MB

     Dynamical RAM for          h,s,v(r/c):       1.35 MB

     Dynamical RAM for          <psi|beta>:       2.33 MB

     Dynamical RAM for                 psi:      21.38 MB

     Dynamical RAM for                hpsi:      21.38 MB

     Dynamical RAM for                spsi:      21.38 MB

     Dynamical RAM for      wfcinit/wfcrot:      34.39 MB

     Dynamical RAM for           addusdens:     101.26 MB

     Estimated static dynamical RAM per process >     117.53 MB

     Estimated max dynamical RAM per process >     233.79 MB

     Estimated total dynamical RAM >      10.61 GB

     Check: negative core charge=   -0.000004

     Initial potential from superposition of free atoms

     starting charge     421.5961, renormalised to     430.0000

     negative rho (up, down):  7.826E-01 0.000E+00
     Starting wfcs are  376 randomized atomic wfcs
     Checking if some PAW data can be deallocated... 
       PAW data deallocated on   19 nodes for type:  2

     total cpu time spent up to now is        8.6 secs

     Self-consistent Calculation

     iteration #  1     ecut=    60.00 Ry     beta= 0.15
     Davidson diagonalization with overlap

---- Real-time Memory Report at c_bands before calling an iterative solver
             0 MiB given to the printing process from OS
             0 MiB allocation reported by mallinfo(arena+hblkhd)
         51482 MiB available memory on the node where the printing process lives
------------------
     ethr =  1.00E-02,  avg # of iterations =  2.0

     negative rho (up, down):  7.715E-01 0.000E+00

     total cpu time spent up to now is       23.6 secs

     total energy              =   -4445.17600588 Ry
     estimated scf accuracy    <      53.98286841 Ry

     iteration #  2     ecut=    60.00 Ry     beta= 0.15
     Davidson diagonalization with overlap

---- Real-time Memory Report at c_bands before calling an iterative solver
             0 MiB given to the printing process from OS
             0 MiB allocation reported by mallinfo(arena+hblkhd)
         51834 MiB available memory on the node where the printing process lives
------------------
     ethr =  1.00E-02,  avg # of iterations =  1.0

     negative rho (up, down):  7.588E-01 0.000E+00

     total cpu time spent up to now is       36.2 secs

     total energy              =   -4441.88585818 Ry
     estimated scf accuracy    <      28.16560846 Ry

     iteration #  3     ecut=    60.00 Ry     beta= 0.15
     Davidson diagonalization with overlap

---- Real-time Memory Report at c_bands before calling an iterative solver
             0 MiB given to the printing process from OS
             0 MiB allocation reported by mallinfo(arena+hblkhd)
         51052 MiB available memory on the node where the printing process lives
------------------
     ethr =  6.55E-03,  avg # of iterations =  1.0

     negative rho (up, down):  7.532E-01 0.000E+00

     total cpu time spent up to now is       49.1 secs

     total energy              =   -4442.61936460 Ry
     estimated scf accuracy    <      29.05436392 Ry

     iteration #  4     ecut=    60.00 Ry     beta= 0.15
     Davidson diagonalization with overlap

---- Real-time Memory Report at c_bands before calling an iterative solver
             0 MiB given to the printing process from OS
             0 MiB allocation reported by mallinfo(arena+hblkhd)
         51034 MiB available memory on the node where the printing process lives
------------------
     ethr =  6.55E-03,  avg # of iterations =  1.0

     negative rho (up, down):  7.541E-01 0.000E+00

     total cpu time spent up to now is       61.6 secs

     total energy              =   -4442.48798451 Ry
     estimated scf accuracy    <      26.74603722 Ry

     iteration #  5     ecut=    60.00 Ry     beta= 0.15
     Davidson diagonalization with overlap

---- Real-time Memory Report at c_bands before calling an iterative solver
             0 MiB given to the printing process from OS
             0 MiB allocation reported by mallinfo(arena+hblkhd)
         51022 MiB available memory on the node where the printing process lives
------------------
     ethr =  6.22E-03,  avg # of iterations =  1.0

     negative rho (up, down):  7.379E-01 0.000E+00

     total cpu time spent up to now is       74.2 secs

     total energy              =   -4441.32557224 Ry
     estimated scf accuracy    <      19.57531623 Ry

     iteration #  6     ecut=    60.00 Ry     beta= 0.15
     Davidson diagonalization with overlap

---- Real-time Memory Report at c_bands before calling an iterative solver
             0 MiB given to the printing process from OS
             0 MiB allocation reported by mallinfo(arena+hblkhd)
         50996 MiB available memory on the node where the printing process lives
------------------
     ethr =  4.55E-03,  avg # of iterations =  2.0

     negative rho (up, down):  7.418E-01 0.000E+00

     total cpu time spent up to now is       88.4 secs

     total energy              =   -4443.50679509 Ry
     estimated scf accuracy    <      62.19883321 Ry

     iteration #  7     ecut=    60.00 Ry     beta= 0.15
     Davidson diagonalization with overlap

---- Real-time Memory Report at c_bands before calling an iterative solver
             0 MiB given to the printing process from OS
             0 MiB allocation reported by mallinfo(arena+hblkhd)
         50982 MiB available memory on the node where the printing process lives
------------------
     ethr =  4.55E-03,  avg # of iterations =  1.0

     negative rho (up, down):  7.490E-01 0.000E+00

     total cpu time spent up to now is      101.0 secs

     total energy              =   -4439.43580071 Ry
     estimated scf accuracy    <      55.05715214 Ry

     iteration #  8     ecut=    60.00 Ry     beta= 0.15
     Davidson diagonalization with overlap

---- Real-time Memory Report at c_bands before calling an iterative solver
             0 MiB given to the printing process from OS
             0 MiB allocation reported by mallinfo(arena+hblkhd)
         50964 MiB available memory on the node where the printing process lives
------------------
     ethr =  4.55E-03,  avg # of iterations =  1.0

     negative rho (up, down):  7.469E-01 0.000E+00

     total cpu time spent up to now is      113.6 secs

     total energy              =   -4441.35365889 Ry
     estimated scf accuracy    <       8.74006558 Ry

     iteration #  9     ecut=    60.00 Ry     beta= 0.15
     Davidson diagonalization with overlap

---- Real-time Memory Report at c_bands before calling an iterative solver
             0 MiB given to the printing process from OS
             0 MiB allocation reported by mallinfo(arena+hblkhd)
         50943 MiB available memory on the node where the printing process lives
------------------
     ethr =  2.03E-03,  avg # of iterations =  1.1

     negative rho (up, down):  7.566E-01 0.000E+00

     total cpu time spent up to now is      126.4 secs

     total energy              =   -4440.90485440 Ry
     estimated scf accuracy    <       6.71028255 Ry

     iteration # 10     ecut=    60.00 Ry     beta= 0.15
     Davidson diagonalization with overlap

---- Real-time Memory Report at c_bands before calling an iterative solver
             0 MiB given to the printing process from OS
             0 MiB allocation reported by mallinfo(arena+hblkhd)
         50925 MiB available memory on the node where the printing process lives
------------------
     ethr =  1.56E-03,  avg # of iterations =  2.0

     negative rho (up, down):  7.692E-01 0.000E+00

     total cpu time spent up to now is      140.4 secs

     total energy              =   -4440.54402027 Ry
     estimated scf accuracy    <       6.69491638 Ry

     iteration # 11     ecut=    60.00 Ry     beta= 0.15
     Davidson diagonalization with overlap

---- Real-time Memory Report at c_bands before calling an iterative solver
             0 MiB given to the printing process from OS
             0 MiB allocation reported by mallinfo(arena+hblkhd)
         50911 MiB available memory on the node where the printing process lives
------------------
     ethr =  1.56E-03,  avg # of iterations =  5.7

     negative rho (up, down):  7.785E-01 0.000E+00

     total cpu time spent up to now is      155.9 secs

     total energy              =   -4439.76164893 Ry
     estimated scf accuracy    <      24.73119659 Ry

     iteration # 12     ecut=    60.00 Ry     beta= 0.15
     Davidson diagonalization with overlap

---- Real-time Memory Report at c_bands before calling an iterative solver
             0 MiB given to the printing process from OS
             0 MiB allocation reported by mallinfo(arena+hblkhd)
         50810 MiB available memory on the node where the printing process lives
------------------
     ethr =  1.56E-03,  avg # of iterations =  4.5

     negative rho (up, down):  7.804E-01 0.000E+00

     total cpu time spent up to now is      170.6 secs

     total energy              =   -4440.59279455 Ry
     estimated scf accuracy    <       3.01221748 Ry

     iteration # 13     ecut=    60.00 Ry     beta= 0.15
     Davidson diagonalization with overlap

---- Real-time Memory Report at c_bands before calling an iterative solver
             0 MiB given to the printing process from OS
             0 MiB allocation reported by mallinfo(arena+hblkhd)
         50800 MiB available memory on the node where the printing process lives
------------------
     ethr =  7.01E-04,  avg # of iterations = 10.6

     negative rho (up, down):  7.899E-01 0.000E+00

     total cpu time spent up to now is      188.6 secs

     total energy              =   -4440.43949530 Ry
     estimated scf accuracy    <       2.42009083 Ry

     iteration # 14     ecut=    60.00 Ry     beta= 0.15
     Davidson diagonalization with overlap

---- Real-time Memory Report at c_bands before calling an iterative solver
             0 MiB given to the printing process from OS
             0 MiB allocation reported by mallinfo(arena+hblkhd)
         50534 MiB available memory on the node where the printing process lives
------------------
     ethr =  5.63E-04,  avg # of iterations =  1.2

     negative rho (up, down):  8.029E-01 0.000E+00

     total cpu time spent up to now is      201.9 secs

     total energy              =   -4440.43323105 Ry
     estimated scf accuracy    <       0.83101962 Ry

     iteration # 15     ecut=    60.00 Ry     beta= 0.15
     Davidson diagonalization with overlap

---- Real-time Memory Report at c_bands before calling an iterative solver
             0 MiB given to the printing process from OS
             0 MiB allocation reported by mallinfo(arena+hblkhd)
         50552 MiB available memory on the node where the printing process lives
------------------
     ethr =  1.93E-04,  avg # of iterations =  7.1

     negative rho (up, down):  8.165E-01 0.000E+00

     total cpu time spent up to now is      218.5 secs

     total energy              =   -4440.37661708 Ry
     estimated scf accuracy    <       1.02964544 Ry

     iteration # 16     ecut=    60.00 Ry     beta= 0.15
     Davidson diagonalization with overlap

---- Real-time Memory Report at c_bands before calling an iterative solver
             0 MiB given to the printing process from OS
             0 MiB allocation reported by mallinfo(arena+hblkhd)
         50469 MiB available memory on the node where the printing process lives
------------------
     ethr =  1.93E-04,  avg # of iterations =  6.7

     negative rho (up, down):  8.282E-01 0.000E+00

     total cpu time spent up to now is      234.3 secs

     total energy              =   -4440.36058079 Ry
     estimated scf accuracy    <       0.50120613 Ry

     iteration # 17     ecut=    60.00 Ry     beta= 0.15
     Davidson diagonalization with overlap

---- Real-time Memory Report at c_bands before calling an iterative solver
             0 MiB given to the printing process from OS
             0 MiB allocation reported by mallinfo(arena+hblkhd)
         50568 MiB available memory on the node where the printing process lives
------------------
     ethr =  1.17E-04,  avg # of iterations = 10.9

     negative rho (up, down):  8.277E-01 0.000E+00

     total cpu time spent up to now is      252.3 secs

     total energy              =   -4440.31367377 Ry
     estimated scf accuracy    <       0.54778455 Ry

     iteration # 18     ecut=    60.00 Ry     beta= 0.15
     Davidson diagonalization with overlap

---- Real-time Memory Report at c_bands before calling an iterative solver
             0 MiB given to the printing process from OS
             0 MiB allocation reported by mallinfo(arena+hblkhd)
         50509 MiB available memory on the node where the printing process lives
------------------
     ethr =  1.17E-04,  avg # of iterations =  2.0

     negative rho (up, down):  8.231E-01 0.000E+00

     total cpu time spent up to now is      266.4 secs

     total energy              =   -4440.32491604 Ry
     estimated scf accuracy    <       1.30341648 Ry

     iteration # 19     ecut=    60.00 Ry     beta= 0.15
     Davidson diagonalization with overlap

---- Real-time Memory Report at c_bands before calling an iterative solver
             0 MiB given to the printing process from OS
             0 MiB allocation reported by mallinfo(arena+hblkhd)
         50465 MiB available memory on the node where the printing process lives
------------------
     ethr =  1.17E-04,  avg # of iterations =  1.0

     negative rho (up, down):  8.061E-01 0.000E+00

     total cpu time spent up to now is      279.0 secs

     total energy              =   -4440.31845429 Ry
     estimated scf accuracy    <       0.12793808 Ry

     iteration # 20     ecut=    60.00 Ry     beta= 0.15
     Davidson diagonalization with overlap

---- Real-time Memory Report at c_bands before calling an iterative solver
             0 MiB given to the printing process from OS
             0 MiB allocation reported by mallinfo(arena+hblkhd)
         50472 MiB available memory on the node where the printing process lives
------------------
     ethr =  2.98E-05,  avg # of iterations = 11.0

     negative rho (up, down):  8.317E-01 0.000E+00

     total cpu time spent up to now is      297.8 secs

     total energy              =   -4440.29913375 Ry
     estimated scf accuracy    <       0.13025903 Ry

     iteration # 21     ecut=    60.00 Ry     beta= 0.15
     Davidson diagonalization with overlap

---- Real-time Memory Report at c_bands before calling an iterative solver
             0 MiB given to the printing process from OS
             0 MiB allocation reported by mallinfo(arena+hblkhd)
         50351 MiB available memory on the node where the printing process lives
------------------
     ethr =  2.98E-05,  avg # of iterations =  9.0

     negative rho (up, down):  8.340E-01 0.000E+00

     total cpu time spent up to now is      314.7 secs

     total energy              =   -4440.28378046 Ry
     estimated scf accuracy    <       0.49267975 Ry

     iteration # 22     ecut=    60.00 Ry     beta= 0.15
     Davidson diagonalization with overlap

---- Real-time Memory Report at c_bands before calling an iterative solver
             0 MiB given to the printing process from OS
             0 MiB allocation reported by mallinfo(arena+hblkhd)
         50299 MiB available memory on the node where the printing process lives
------------------
     ethr =  2.98E-05,  avg # of iterations =  4.6

     negative rho (up, down):  8.433E-01 0.000E+00

     total cpu time spent up to now is      329.9 secs

     total energy              =   -4440.29110203 Ry
     estimated scf accuracy    <       0.14769213 Ry

     iteration # 23     ecut=    60.00 Ry     beta= 0.15
     Davidson diagonalization with overlap

---- Real-time Memory Report at c_bands before calling an iterative solver
             0 MiB given to the printing process from OS
             0 MiB allocation reported by mallinfo(arena+hblkhd)
         50377 MiB available memory on the node where the printing process lives
------------------
     ethr =  2.98E-05,  avg # of iterations =  7.5

     negative rho (up, down):  8.250E-01 0.000E+00

     total cpu time spent up to now is      346.3 secs

     total energy              =   -4440.29431676 Ry
     estimated scf accuracy    <       0.02741381 Ry

     iteration # 24     ecut=    60.00 Ry     beta= 0.15
     Davidson diagonalization with overlap

---- Real-time Memory Report at c_bands before calling an iterative solver
             0 MiB given to the printing process from OS
             0 MiB allocation reported by mallinfo(arena+hblkhd)
         50376 MiB available memory on the node where the printing process lives
------------------
     ethr =  6.38E-06,  avg # of iterations =  8.6

     negative rho (up, down):  8.097E-01 0.000E+00

     total cpu time spent up to now is      363.7 secs

     total energy              =   -4440.29306936 Ry
     estimated scf accuracy    <       0.01763756 Ry

     iteration # 25     ecut=    60.00 Ry     beta= 0.15
     Davidson diagonalization with overlap

---- Real-time Memory Report at c_bands before calling an iterative solver
             0 MiB given to the printing process from OS
             0 MiB allocation reported by mallinfo(arena+hblkhd)
         50341 MiB available memory on the node where the printing process lives
------------------
     ethr =  4.10E-06,  avg # of iterations =  2.2

     negative rho (up, down):  7.902E-01 0.000E+00

     total cpu time spent up to now is      377.9 secs

     total energy              =   -4440.29105148 Ry
     estimated scf accuracy    <       0.01264385 Ry

     iteration # 26     ecut=    60.00 Ry     beta= 0.15
     Davidson diagonalization with overlap

---- Real-time Memory Report at c_bands before calling an iterative solver
             0 MiB given to the printing process from OS
             0 MiB allocation reported by mallinfo(arena+hblkhd)
         50366 MiB available memory on the node where the printing process lives
------------------
     ethr =  2.94E-06,  avg # of iterations =  7.3

     negative rho (up, down):  7.962E-01 0.000E+00

     total cpu time spent up to now is      394.6 secs

     total energy              =   -4440.28901636 Ry
     estimated scf accuracy    <       0.00800245 Ry

     iteration # 27     ecut=    60.00 Ry     beta= 0.15
     Davidson diagonalization with overlap

---- Real-time Memory Report at c_bands before calling an iterative solver
             0 MiB given to the printing process from OS
             0 MiB allocation reported by mallinfo(arena+hblkhd)
         50367 MiB available memory on the node where the printing process lives
------------------
     c_bands:  2 eigenvalues not converged
     ethr =  1.86E-06,  avg # of iterations = 12.2

     negative rho (up, down):  8.002E-01 0.000E+00

     total cpu time spent up to now is      414.4 secs

     total energy              =   -4440.28971785 Ry
     estimated scf accuracy    <       0.00207175 Ry

     iteration # 28     ecut=    60.00 Ry     beta= 0.15
     Davidson diagonalization with overlap

---- Real-time Memory Report at c_bands before calling an iterative solver
             0 MiB given to the printing process from OS
             0 MiB allocation reported by mallinfo(arena+hblkhd)
         50217 MiB available memory on the node where the printing process lives
------------------
     c_bands:  2 eigenvalues not converged
     ethr =  4.82E-07,  avg # of iterations =  7.2

     negative rho (up, down):  7.968E-01 0.000E+00

     total cpu time spent up to now is      431.2 secs

     total energy              =   -4440.28961510 Ry
     estimated scf accuracy    <       0.00099944 Ry

     iteration # 29     ecut=    60.00 Ry     beta= 0.15
     Davidson diagonalization with overlap

---- Real-time Memory Report at c_bands before calling an iterative solver
             0 MiB given to the printing process from OS
             0 MiB allocation reported by mallinfo(arena+hblkhd)
         50227 MiB available memory on the node where the printing process lives
------------------
     ethr =  2.32E-07,  avg # of iterations =  7.7

     negative rho (up, down):  7.954E-01 0.000E+00

     total cpu time spent up to now is      447.9 secs

     total energy              =   -4440.28961019 Ry
     estimated scf accuracy    <       0.00051808 Ry

     iteration # 30     ecut=    60.00 Ry     beta= 0.15
     Davidson diagonalization with overlap

---- Real-time Memory Report at c_bands before calling an iterative solver
             0 MiB given to the printing process from OS
             0 MiB allocation reported by mallinfo(arena+hblkhd)
         50265 MiB available memory on the node where the printing process lives
------------------
     ethr =  1.20E-07,  avg # of iterations =  2.5

     negative rho (up, down):  7.941E-01 0.000E+00

     total cpu time spent up to now is      462.3 secs

     total energy              =   -4440.28959814 Ry
     estimated scf accuracy    <       0.00025335 Ry

     iteration # 31     ecut=    60.00 Ry     beta= 0.15
     Davidson diagonalization with overlap

---- Real-time Memory Report at c_bands before calling an iterative solver
             0 MiB given to the printing process from OS
             0 MiB allocation reported by mallinfo(arena+hblkhd)
         50310 MiB available memory on the node where the printing process lives
------------------
     ethr =  5.89E-08,  avg # of iterations =  6.1

     negative rho (up, down):  7.946E-01 0.000E+00

     total cpu time spent up to now is      478.3 secs

     total energy              =   -4440.28961937 Ry
     estimated scf accuracy    <       0.00013507 Ry

     iteration # 32     ecut=    60.00 Ry     beta= 0.15
     Davidson diagonalization with overlap

---- Real-time Memory Report at c_bands before calling an iterative solver
             0 MiB given to the printing process from OS
             0 MiB allocation reported by mallinfo(arena+hblkhd)
         50361 MiB available memory on the node where the printing process lives
------------------
     ethr =  3.14E-08,  avg # of iterations =  3.1

     negative rho (up, down):  7.941E-01 0.000E+00

     total cpu time spent up to now is      493.2 secs

     total energy              =   -4440.28963296 Ry
     estimated scf accuracy    <       0.00006290 Ry

     iteration # 33     ecut=    60.00 Ry     beta= 0.15
     Davidson diagonalization with overlap

---- Real-time Memory Report at c_bands before calling an iterative solver
             0 MiB given to the printing process from OS
             0 MiB allocation reported by mallinfo(arena+hblkhd)
         50346 MiB available memory on the node where the printing process lives
------------------
     ethr =  1.46E-08,  avg # of iterations =  2.0

     negative rho (up, down):  7.940E-01 0.000E+00

     total cpu time spent up to now is      507.5 secs

     total energy              =   -4440.28963328 Ry
     estimated scf accuracy    <       0.00002322 Ry

     iteration # 34     ecut=    60.00 Ry     beta= 0.15
     Davidson diagonalization with overlap

---- Real-time Memory Report at c_bands before calling an iterative solver
             0 MiB given to the printing process from OS
             0 MiB allocation reported by mallinfo(arena+hblkhd)
         50363 MiB available memory on the node where the printing process lives
------------------
     ethr =  5.40E-09,  avg # of iterations =  2.0

     negative rho (up, down):  7.930E-01 0.000E+00

     total cpu time spent up to now is      521.6 secs

     total energy              =   -4440.28962815 Ry
     estimated scf accuracy    <       0.00001596 Ry

     iteration # 35     ecut=    60.00 Ry     beta= 0.15
     Davidson diagonalization with overlap

---- Real-time Memory Report at c_bands before calling an iterative solver
             0 MiB given to the printing process from OS
             0 MiB allocation reported by mallinfo(arena+hblkhd)
         50362 MiB available memory on the node where the printing process lives
------------------
     ethr =  3.71E-09,  avg # of iterations =  2.7

     negative rho (up, down):  7.928E-01 0.000E+00

     total cpu time spent up to now is      536.0 secs

     total energy              =   -4440.28962905 Ry
     estimated scf accuracy    <       0.00001209 Ry

     iteration # 36     ecut=    60.00 Ry     beta= 0.15
     Davidson diagonalization with overlap

---- Real-time Memory Report at c_bands before calling an iterative solver
             0 MiB given to the printing process from OS
             0 MiB allocation reported by mallinfo(arena+hblkhd)
         50367 MiB available memory on the node where the printing process lives
------------------
     ethr =  2.81E-09,  avg # of iterations =  2.8

     negative rho (up, down):  7.926E-01 0.000E+00

     total cpu time spent up to now is      550.3 secs

     total energy              =   -4440.28963024 Ry
     estimated scf accuracy    <       0.00000746 Ry

     iteration # 37     ecut=    60.00 Ry     beta= 0.15
     Davidson diagonalization with overlap

---- Real-time Memory Report at c_bands before calling an iterative solver
             0 MiB given to the printing process from OS
             0 MiB allocation reported by mallinfo(arena+hblkhd)
         50376 MiB available memory on the node where the printing process lives
------------------
     ethr =  1.73E-09,  avg # of iterations =  2.0

     negative rho (up, down):  7.926E-01 0.000E+00

     total cpu time spent up to now is      564.3 secs

     total energy              =   -4440.28963065 Ry
     estimated scf accuracy    <       0.00000565 Ry

     iteration # 38     ecut=    60.00 Ry     beta= 0.15
     Davidson diagonalization with overlap

---- Real-time Memory Report at c_bands before calling an iterative solver
             0 MiB given to the printing process from OS
             0 MiB allocation reported by mallinfo(arena+hblkhd)
         50381 MiB available memory on the node where the printing process lives
------------------
     ethr =  1.32E-09,  avg # of iterations =  1.4

     negative rho (up, down):  7.926E-01 0.000E+00

     total cpu time spent up to now is      577.6 secs

     total energy              =   -4440.28963095 Ry
     estimated scf accuracy    <       0.00000497 Ry

     iteration # 39     ecut=    60.00 Ry     beta= 0.15
     Davidson diagonalization with overlap

---- Real-time Memory Report at c_bands before calling an iterative solver
             0 MiB given to the printing process from OS
             0 MiB allocation reported by mallinfo(arena+hblkhd)
         50380 MiB available memory on the node where the printing process lives
------------------
     ethr =  1.16E-09,  avg # of iterations =  1.0

     negative rho (up, down):  7.926E-01 0.000E+00

     total cpu time spent up to now is      590.2 secs

     total energy              =   -4440.28963114 Ry
     estimated scf accuracy    <       0.00000406 Ry

     iteration # 40     ecut=    60.00 Ry     beta= 0.15
     Davidson diagonalization with overlap

---- Real-time Memory Report at c_bands before calling an iterative solver
             0 MiB given to the printing process from OS
             0 MiB allocation reported by mallinfo(arena+hblkhd)
         50379 MiB available memory on the node where the printing process lives
------------------
     ethr =  9.45E-10,  avg # of iterations =  1.7

     negative rho (up, down):  7.926E-01 0.000E+00

     total cpu time spent up to now is      603.7 secs

     total energy              =   -4440.28963154 Ry
     estimated scf accuracy    <       0.00000406 Ry

     iteration # 41     ecut=    60.00 Ry     beta= 0.15
     Davidson diagonalization with overlap

---- Real-time Memory Report at c_bands before calling an iterative solver
             0 MiB given to the printing process from OS
             0 MiB allocation reported by mallinfo(arena+hblkhd)
         50385 MiB available memory on the node where the printing process lives
------------------
     ethr =  9.44E-10,  avg # of iterations =  1.5

     negative rho (up, down):  7.926E-01 0.000E+00

     total cpu time spent up to now is      617.2 secs

     total energy              =   -4440.28963190 Ry
     estimated scf accuracy    <       0.00000338 Ry

     iteration # 42     ecut=    60.00 Ry     beta= 0.15
     Davidson diagonalization with overlap

---- Real-time Memory Report at c_bands before calling an iterative solver
             0 MiB given to the printing process from OS
             0 MiB allocation reported by mallinfo(arena+hblkhd)
         50391 MiB available memory on the node where the printing process lives
------------------
     ethr =  7.85E-10,  avg # of iterations =  1.1

     negative rho (up, down):  7.926E-01 0.000E+00

     total cpu time spent up to now is      630.0 secs

     total energy              =   -4440.28963219 Ry
     estimated scf accuracy    <       0.00000238 Ry

     iteration # 43     ecut=    60.00 Ry     beta= 0.15
     Davidson diagonalization with overlap

---- Real-time Memory Report at c_bands before calling an iterative solver
             0 MiB given to the printing process from OS
             0 MiB allocation reported by mallinfo(arena+hblkhd)
         50395 MiB available memory on the node where the printing process lives
------------------
     ethr =  5.52E-10,  avg # of iterations =  2.1

     negative rho (up, down):  7.926E-01 0.000E+00

     total cpu time spent up to now is      644.1 secs

     total energy              =   -4440.28963212 Ry
     estimated scf accuracy    <       0.00000152 Ry

     iteration # 44     ecut=    60.00 Ry     beta= 0.15
     Davidson diagonalization with overlap

---- Real-time Memory Report at c_bands before calling an iterative solver
             0 MiB given to the printing process from OS
             0 MiB allocation reported by mallinfo(arena+hblkhd)
         50397 MiB available memory on the node where the printing process lives
------------------
     ethr =  3.54E-10,  avg # of iterations =  2.4

     negative rho (up, down):  7.926E-01 0.000E+00

     total cpu time spent up to now is      658.3 secs

     total energy              =   -4440.28963198 Ry
     estimated scf accuracy    <       0.00000088 Ry

     iteration # 45     ecut=    60.00 Ry     beta= 0.15
     Davidson diagonalization with overlap

---- Real-time Memory Report at c_bands before calling an iterative solver
             0 MiB given to the printing process from OS
             0 MiB allocation reported by mallinfo(arena+hblkhd)
         50399 MiB available memory on the node where the printing process lives
------------------
     ethr =  2.05E-10,  avg # of iterations =  1.9

     negative rho (up, down):  7.926E-01 0.000E+00

     total cpu time spent up to now is      672.2 secs

     total energy              =   -4440.28963195 Ry
     estimated scf accuracy    <       0.00000068 Ry

     iteration # 46     ecut=    60.00 Ry     beta= 0.15
     Davidson diagonalization with overlap

---- Real-time Memory Report at c_bands before calling an iterative solver
             0 MiB given to the printing process from OS
             0 MiB allocation reported by mallinfo(arena+hblkhd)
         50397 MiB available memory on the node where the printing process lives
------------------
     ethr =  1.58E-10,  avg # of iterations =  1.6

     negative rho (up, down):  7.926E-01 0.000E+00

     total cpu time spent up to now is      686.1 secs

     total energy              =   -4440.28963199 Ry
     estimated scf accuracy    <       0.00000049 Ry

     iteration # 47     ecut=    60.00 Ry     beta= 0.15
     Davidson diagonalization with overlap

---- Real-time Memory Report at c_bands before calling an iterative solver
             0 MiB given to the printing process from OS
             0 MiB allocation reported by mallinfo(arena+hblkhd)
         50407 MiB available memory on the node where the printing process lives
------------------
     ethr =  1.15E-10,  avg # of iterations =  2.0

     negative rho (up, down):  7.926E-01 0.000E+00

     total cpu time spent up to now is      700.2 secs

     total energy              =   -4440.28963219 Ry
     estimated scf accuracy    <       0.00000027 Ry

     iteration # 48     ecut=    60.00 Ry     beta= 0.15
     Davidson diagonalization with overlap

---- Real-time Memory Report at c_bands before calling an iterative solver
             0 MiB given to the printing process from OS
             0 MiB allocation reported by mallinfo(arena+hblkhd)
         50411 MiB available memory on the node where the printing process lives
------------------
     ethr =  6.22E-11,  avg # of iterations =  2.8

     negative rho (up, down):  7.926E-01 0.000E+00

     total cpu time spent up to now is      714.6 secs

     total energy              =   -4440.28963223 Ry
     estimated scf accuracy    <       0.00000018 Ry

     iteration # 49     ecut=    60.00 Ry     beta= 0.15
     Davidson diagonalization with overlap

---- Real-time Memory Report at c_bands before calling an iterative solver
             0 MiB given to the printing process from OS
             0 MiB allocation reported by mallinfo(arena+hblkhd)
         50409 MiB available memory on the node where the printing process lives
------------------
     ethr =  4.25E-11,  avg # of iterations =  2.0

     negative rho (up, down):  7.926E-01 0.000E+00

     total cpu time spent up to now is      728.6 secs

     total energy              =   -4440.28963227 Ry
     estimated scf accuracy    <       0.00000007 Ry

     iteration # 50     ecut=    60.00 Ry     beta= 0.15
     Davidson diagonalization with overlap

---- Real-time Memory Report at c_bands before calling an iterative solver
             0 MiB given to the printing process from OS
             0 MiB allocation reported by mallinfo(arena+hblkhd)
         50410 MiB available memory on the node where the printing process lives
------------------
     ethr =  1.58E-11,  avg # of iterations =  3.8

     negative rho (up, down):  7.926E-01 0.000E+00

     total cpu time spent up to now is      743.6 secs

     total energy              =   -4440.28963228 Ry
     estimated scf accuracy    <       0.00000002 Ry

     iteration # 51     ecut=    60.00 Ry     beta= 0.15
     Davidson diagonalization with overlap

---- Real-time Memory Report at c_bands before calling an iterative solver
             0 MiB given to the printing process from OS
             0 MiB allocation reported by mallinfo(arena+hblkhd)
         50408 MiB available memory on the node where the printing process lives
------------------
     ethr =  4.26E-12,  avg # of iterations =  2.0

     negative rho (up, down):  7.926E-01 0.000E+00

     total cpu time spent up to now is      757.6 secs

     End of self-consistent calculation

          k = 0.0000 0.0000 0.0000 ( 65197 PWs)   bands (ev):

   -92.8505 -92.7984 -92.7044 -92.6573 -92.5981 -92.5568 -92.5400 -92.4135
   -56.2040 -56.1853 -56.0614 -56.0509 -56.0447 -56.0378 -56.0032 -55.9734
   -55.9590 -55.9565 -55.9479 -55.9057 -55.8875 -55.8492 -55.8311 -55.7980
   -55.7931 -55.7451 -55.7418 -55.7400 -55.7334 -55.6844 -55.6700 -55.5832
   -31.4153 -31.3955 -31.2541 -31.1814 -31.1671 -31.1044 -30.9907 -30.8802
   -29.9964 -29.9531 -29.9274 -29.8192 -15.2276 -15.1847 -15.1035 -14.9728
   -14.7791 -14.6556 -14.3647 -14.3436 -14.3159 -14.2693 -14.2230 -14.2128
   -14.2023 -14.1855 -14.1643 -14.1249 -14.0769 -13.9252 -13.7458 -13.7130
   -13.6831 -13.6506 -13.6343 -13.5766 -13.5452 -13.4581 -13.3904 -13.2701
   -13.2481 -13.2379 -13.2134 -13.1958 -13.1889 -13.1409 -13.1387 -13.1195
   -13.0924 -13.0610 -13.0415 -13.0208 -12.9937 -12.9811 -12.9193 -12.9088
   -12.8915 -12.8211 -12.7880 -12.7737 -12.4814 -12.3357 -12.1706 -12.0981
   -12.0097 -11.9705 -11.9357 -11.9246 -11.9018 -11.8842 -11.8206 -11.8033
   -11.7686 -11.7394 -11.6279 -11.5482 -11.5444  -3.0893  -2.8573  -2.6272
    -2.4809  -2.4179  -2.2759  -1.9686  -1.9544  -1.9348  -1.8501  -1.8307
    -1.7620  -1.7456  -1.7051  -1.6576  -1.4794  -1.2538  -1.2251  -1.0783
    -1.0639  -1.0181  -0.9995  -0.9529  -0.9362  -0.8816  -0.8549  -0.7823
    -0.7688  -0.6948  -0.5607  -0.5466  -0.5202  -0.4400  -0.4173  -0.4074
    -0.3404  -0.2757  -0.2325  -0.1762  -0.1514  -0.0850  -0.0039   0.0329
     0.0598   0.0746   0.3265   0.3413   0.5148   0.5779   0.6431   0.6984
     0.7813   0.7939   0.8137   0.8763   0.9029   0.9370   0.9945   1.1254
     1.1847   1.2067   1.2318   1.2406   1.3032   1.3728   1.4810   1.4958
     1.5570   1.5684   1.6134   1.6334   1.6398   1.6932   1.7535   1.7668
     1.8024   1.8423   1.8803   2.0126   2.0951   2.1374   2.1661   2.3068
     2.3245   2.3631   2.3649   2.4736   2.5093   2.5352   2.5544   2.5683
     2.6359   2.6458   2.6616   2.6834   2.7605   2.7920   2.8039   2.8106
     2.8770   2.8814   2.9061   2.9132   2.9233   2.9414   2.9425   2.9583
     2.9622   2.9780   2.9843   2.9996   3.0090   3.0294   3.0358   3.0471
     3.0727   3.1879   3.3058   3.9786   4.2844   4.6373   4.8448   4.9082
     5.7718   5.7914   5.8484   5.9080   6.1668   6.2135   6.4524   6.4631
     6.9642   6.9833   7.0884   7.1883   7.3922   7.5101   7.5419   7.5714
     7.5910   7.7970   7.8943   8.0537   8.1253   8.1790   8.2903   8.3886
     8.7345   8.8418

     occupation numbers 
     1.0000   1.0000   1.0000   1.0000   1.0000   1.0000   1.0000   1.0000
     1.0000   1.0000   1.0000   1.0000   1.0000   1.0000   1.0000   1.0000
     1.0000   1.0000   1.0000   1.0000   1.0000   1.0000   1.0000   1.0000
     1.0000   1.0000   1.0000   1.0000   1.0000   1.0000   1.0000   1.0000
     1.0000   1.0000   1.0000   1.0000   1.0000   1.0000   1.0000   1.0000
     1.0000   1.0000   1.0000   1.0000   1.0000   1.0000   1.0000   1.0000
     1.0000   1.0000   1.0000   1.0000   1.0000   1.0000   1.0000   1.0000
     1.0000   1.0000   1.0000   1.0000   1.0000   1.0000   1.0000   1.0000
     1.0000   1.0000   1.0000   1.0000   1.0000   1.0000   1.0000   1.0000
     1.0000   1.0000   1.0000   1.0000   1.0000   1.0000   1.0000   1.0000
     1.0000   1.0000   1.0000   1.0000   1.0000   1.0000   1.0000   1.0000
     1.0000   1.0000   1.0000   1.0000   1.0000   1.0000   1.0000   1.0000
     1.0000   1.0000   1.0000   1.0000   1.0000   1.0000   1.0000   1.0000
     1.0000   1.0000   1.0000   1.0000   1.0000   1.0000   1.0000   1.0000
     1.0000   1.0000   1.0000   1.0000   1.0000   1.0000   1.0000   1.0000
     1.0000   1.0000   1.0000   1.0000   1.0000   1.0000   1.0000   1.0000
     1.0000   1.0000   1.0000   1.0000   1.0000   1.0000   1.0000   1.0000
     1.0000   1.0000   1.0000   1.0000   1.0000   1.0000   1.0000   1.0000
     1.0000   1.0000   1.0000   1.0000   1.0000   1.0000   1.0000   1.0000
     1.0000   1.0000   1.0000   1.0000   1.0000   0.9999   0.9999   0.9999
     0.9998   0.9998   0.9998   0.9997   0.9996   0.9996   0.9994   0.9988
     0.9985   0.9983   0.9981   0.9980   0.9973   0.9963   0.9941   0.9938
     0.9920   0.9916   0.9899   0.9891   0.9888   0.9863   0.9828   0.9819
     0.9795   0.9763   0.9730   0.9582   0.9461   0.9389   0.9335   0.9021
     0.8975   0.8869   0.8864   0.8522   0.8397   0.8301   0.8228   0.8174
     0.7896   0.7854   0.7785   0.7687   0.7324   0.7168   0.7108   0.7074
     0.6726   0.6702   0.6568   0.6530   0.6474   0.6374   0.6368   0.6279
     0.6257   0.6168   0.6133   0.6045   0.5991   0.5874   0.5837   0.5771
     0.5622   0.4942   0.4248   0.1173   0.0502   0.0151   0.0067   0.0051
     0.0001   0.0001   0.0000   0.0000   0.0000   0.0000   0.0000   0.0000
     0.0000   0.0000   0.0000   0.0000   0.0000   0.0000   0.0000   0.0000
     0.0000   0.0000   0.0000   0.0000   0.0000   0.0000   0.0000   0.0000
     0.0000   0.0000

          k = 0.0000 0.2500 0.0000 ( 65257 PWs)   bands (ev):

   -92.8505 -92.7984 -92.7044 -92.6573 -92.5981 -92.5568 -92.5400 -92.4135
   -56.2040 -56.1853 -56.0614 -56.0509 -56.0447 -56.0378 -56.0032 -55.9734
   -55.9590 -55.9565 -55.9479 -55.9057 -55.8875 -55.8492 -55.8311 -55.7980
   -55.7931 -55.7451 -55.7418 -55.7400 -55.7334 -55.6844 -55.6700 -55.5832
   -31.4151 -31.3953 -31.2543 -31.1810 -31.1672 -31.1048 -30.9904 -30.8805
   -29.9958 -29.9528 -29.9281 -29.8195 -15.1910 -15.1584 -15.0784 -14.9435
   -14.8209 -14.6462 -14.5106 -14.3304 -14.2945 -14.2732 -14.2451 -14.1878
   -14.1814 -14.1668 -14.1471 -14.0970 -13.9955 -13.9560 -13.7905 -13.7721
   -13.7233 -13.6870 -13.6414 -13.5971 -13.5547 -13.4839 -13.4443 -13.3781
   -13.3073 -13.2850 -13.2465 -13.2300 -13.1706 -13.1269 -13.1014 -13.0735
   -13.0503 -13.0385 -13.0055 -12.9594 -12.9443 -12.9383 -12.9140 -12.8768
   -12.8543 -12.8147 -12.7042 -12.6309 -12.5427 -12.3869 -12.2273 -12.1640
   -11.9753 -11.9712 -11.9325 -11.9044 -11.8763 -11.8598 -11.8124 -11.8011
   -11.7784 -11.7443 -11.6422 -11.5897 -11.5792  -2.9539  -2.7329  -2.5949
    -2.4133  -2.3697  -2.2062  -1.9859  -1.9027  -1.8897  -1.8311  -1.7288
    -1.7126  -1.6765  -1.6514  -1.6073  -1.4106  -1.2817  -1.2702  -1.1925
    -1.1835  -1.0793  -1.0491  -0.9912  -0.9656  -0.9257  -0.8608  -0.8338
    -0.8028  -0.7704  -0.7536  -0.7215  -0.6460  -0.5963  -0.5259  -0.4156
    -0.3941  -0.3531  -0.2389  -0.2040  -0.1336  -0.0917  -0.0208  -0.0010
     0.0160   0.0722   0.3742   0.4613   0.4906   0.5832   0.6301   0.6562
     0.7657   0.7848   0.8791   0.9046   0.9287   1.0447   1.1398   1.1601
     1.1835   1.2063   1.2288   1.2873   1.3158   1.3422   1.3903   1.4278
     1.4571   1.5403   1.5744   1.6125   1.6652   1.7162   1.7617   1.7915
     1.8189   1.8312   1.9250   2.0450   2.1200   2.1477   2.2122   2.2601
     2.2993   2.3112   2.3699   2.4069   2.4895   2.5299   2.5472   2.6347
     2.6569   2.6628   2.7207   2.7456   2.7726   2.7960   2.8132   2.8216
     2.8267   2.8393   2.8660   2.8715   2.8882   2.8940   2.9031   2.9214
     2.9363   2.9424   2.9607   2.9714   2.9769   3.0102   3.0273   3.0928
     3.4554   3.5170   3.7427   4.1742   4.2803   4.5719   4.9267   5.0091
     5.5372   5.6651   5.8404   5.9242   5.9737   6.0186   6.0896   6.5680
     7.0431   7.0542   7.2109   7.2649   7.3735   7.4294   7.4668   7.5705
     7.7107   7.9182   8.0929   8.2423   8.2732   8.3002   8.3241   8.3630
     8.4429   8.8317

     occupation numbers 
     1.0000   1.0000   1.0000   1.0000   1.0000   1.0000   1.0000   1.0000
     1.0000   1.0000   1.0000   1.0000   1.0000   1.0000   1.0000   1.0000
     1.0000   1.0000   1.0000   1.0000   1.0000   1.0000   1.0000   1.0000
     1.0000   1.0000   1.0000   1.0000   1.0000   1.0000   1.0000   1.0000
     1.0000   1.0000   1.0000   1.0000   1.0000   1.0000   1.0000   1.0000
     1.0000   1.0000   1.0000   1.0000   1.0000   1.0000   1.0000   1.0000
     1.0000   1.0000   1.0000   1.0000   1.0000   1.0000   1.0000   1.0000
     1.0000   1.0000   1.0000   1.0000   1.0000   1.0000   1.0000   1.0000
     1.0000   1.0000   1.0000   1.0000   1.0000   1.0000   1.0000   1.0000
     1.0000   1.0000   1.0000   1.0000   1.0000   1.0000   1.0000   1.0000
     1.0000   1.0000   1.0000   1.0000   1.0000   1.0000   1.0000   1.0000
     1.0000   1.0000   1.0000   1.0000   1.0000   1.0000   1.0000   1.0000
     1.0000   1.0000   1.0000   1.0000   1.0000   1.0000   1.0000   1.0000
     1.0000   1.0000   1.0000   1.0000   1.0000   1.0000   1.0000   1.0000
     1.0000   1.0000   1.0000   1.0000   1.0000   1.0000   1.0000   1.0000
     1.0000   1.0000   1.0000   1.0000   1.0000   1.0000   1.0000   1.0000
     1.0000   1.0000   1.0000   1.0000   1.0000   1.0000   1.0000   1.0000
     1.0000   1.0000   1.0000   1.0000   1.0000   1.0000   1.0000   1.0000
     1.0000   1.0000   1.0000   1.0000   1.0000   1.0000   1.0000   1.0000
     1.0000   1.0000   1.0000   1.0000   1.0000   0.9999   0.9999   0.9999
     0.9998   0.9998   0.9997   0.9996   0.9996   0.9992   0.9988   0.9986
     0.9985   0.9983   0.9981   0.9975   0.9972   0.9968   0.9960   0.9953
     0.9947   0.9925   0.9914   0.9900   0.9877   0.9850   0.9823   0.9803
     0.9782   0.9773   0.9686   0.9538   0.9419   0.9370   0.9242   0.9136
     0.9040   0.9010   0.8850   0.8739   0.8467   0.8321   0.8256   0.7901
     0.7805   0.7779   0.7515   0.7396   0.7265   0.7148   0.7060   0.7017
     0.6991   0.6926   0.6785   0.6755   0.6666   0.6634   0.6585   0.6485
     0.6403   0.6369   0.6266   0.6205   0.6174   0.5984   0.5886   0.5504
     0.3403   0.3074   0.2009   0.0696   0.0509   0.0192   0.0047   0.0033
     0.0002   0.0001   0.0000   0.0000   0.0000   0.0000   0.0000   0.0000
     0.0000   0.0000   0.0000   0.0000   0.0000   0.0000   0.0000   0.0000
     0.0000   0.0000   0.0000   0.0000   0.0000   0.0000   0.0000   0.0000
     0.0000   0.0000

          k = 0.0000-0.5000 0.0000 ( 65180 PWs)   bands (ev):

   -92.8505 -92.7984 -92.7044 -92.6573 -92.5981 -92.5568 -92.5400 -92.4135
   -56.2040 -56.1853 -56.0614 -56.0509 -56.0447 -56.0378 -56.0032 -55.9734
   -55.9590 -55.9565 -55.9479 -55.9057 -55.8875 -55.8492 -55.8311 -55.7980
   -55.7931 -55.7451 -55.7418 -55.7400 -55.7334 -55.6844 -55.6700 -55.5832
   -31.4149 -31.3952 -31.2545 -31.1806 -31.1674 -31.1052 -30.9901 -30.8808
   -29.9951 -29.9525 -29.9287 -29.8199 -15.1563 -15.1076 -15.0542 -14.9260
   -14.8422 -14.7041 -14.5502 -14.4257 -14.3026 -14.2296 -14.1886 -14.1830
   -14.1306 -14.1153 -14.0674 -14.0448 -14.0213 -13.9845 -13.9466 -13.9091
   -13.7287 -13.6700 -13.6471 -13.6003 -13.5530 -13.5015 -13.4481 -13.4198
   -13.3963 -13.3545 -13.2474 -13.2312 -13.1539 -13.1144 -13.1037 -13.0829
   -13.0664 -13.0210 -12.9559 -12.9381 -12.9142 -12.8629 -12.8446 -12.8361
   -12.8205 -12.7908 -12.6536 -12.5652 -12.4619 -12.4189 -12.3346 -12.2910
   -11.9717 -11.9294 -11.9268 -11.8993 -11.8623 -11.8278 -11.8166 -11.7741
   -11.7702 -11.7258 -11.6640 -11.6505 -11.6363  -2.7396  -2.6795  -2.5299
    -2.4579  -2.1757  -2.0913  -1.9656  -1.8282  -1.7902  -1.7714  -1.6907
    -1.6609  -1.5795  -1.5438  -1.4663  -1.4262  -1.3883  -1.3609  -1.3015
    -1.2654  -1.2185  -1.1824  -1.1498  -1.1156  -1.0060  -0.9612  -0.9252
    -0.9241  -0.8382  -0.8044  -0.7842  -0.7328  -0.6472  -0.5761  -0.4904
    -0.4628  -0.3574  -0.3119  -0.1757  -0.1301  -0.1127  -0.0401   0.0789
     0.1179   0.2449   0.3142   0.3207   0.4484   0.5007   0.6239   0.7269
     0.8381   0.8680   0.9069   0.9128   0.9586   0.9679   1.0024   1.0207
     1.0293   1.1399   1.2026   1.2350   1.2600   1.5209   1.5506   1.5712
     1.6735   1.7010   1.7224   1.7368   1.7646   1.7780   1.7979   1.8232
     1.8563   1.8889   1.9215   1.9229   1.9528   2.0066   2.0896   2.1195
     2.3067   2.4550   2.4652   2.4820   2.5204   2.5257   2.5334   2.5819
     2.5956   2.6250   2.6353   2.6537   2.6605   2.6976   2.7591   2.7680
     2.8316   2.8495   2.8616   2.8661   2.8828   2.8942   2.8959   2.9002
     2.9034   2.9240   2.9323   2.9408   2.9952   3.0046   3.0168   3.0702
     3.9947   4.0302   4.0325   4.1219   4.6192   4.7597   4.9370   5.0286
     5.3171   5.3823   5.5183   5.6078   5.8854   5.9100   6.2642   6.6351
     6.8157   6.9100   7.1662   7.3293   7.5193   7.5870   7.6838   7.6979
     7.8033   7.9318   8.1169   8.1811   8.2290   8.3070   8.3753   8.5487
     8.7162   8.7663

     occupation numbers 
     1.0000   1.0000   1.0000   1.0000   1.0000   1.0000   1.0000   1.0000
     1.0000   1.0000   1.0000   1.0000   1.0000   1.0000   1.0000   1.0000
     1.0000   1.0000   1.0000   1.0000   1.0000   1.0000   1.0000   1.0000
     1.0000   1.0000   1.0000   1.0000   1.0000   1.0000   1.0000   1.0000
     1.0000   1.0000   1.0000   1.0000   1.0000   1.0000   1.0000   1.0000
     1.0000   1.0000   1.0000   1.0000   1.0000   1.0000   1.0000   1.0000
     1.0000   1.0000   1.0000   1.0000   1.0000   1.0000   1.0000   1.0000
     1.0000   1.0000   1.0000   1.0000   1.0000   1.0000   1.0000   1.0000
     1.0000   1.0000   1.0000   1.0000   1.0000   1.0000   1.0000   1.0000
     1.0000   1.0000   1.0000   1.0000   1.0000   1.0000   1.0000   1.0000
     1.0000   1.0000   1.0000   1.0000   1.0000   1.0000   1.0000   1.0000
     1.0000   1.0000   1.0000   1.0000   1.0000   1.0000   1.0000   1.0000
     1.0000   1.0000   1.0000   1.0000   1.0000   1.0000   1.0000   1.0000
     1.0000   1.0000   1.0000   1.0000   1.0000   1.0000   1.0000   1.0000
     1.0000   1.0000   1.0000   1.0000   1.0000   1.0000   1.0000   1.0000
     1.0000   1.0000   1.0000   1.0000   1.0000   1.0000   1.0000   1.0000
     1.0000   1.0000   1.0000   1.0000   1.0000   1.0000   1.0000   1.0000
     1.0000   1.0000   1.0000   1.0000   1.0000   1.0000   1.0000   1.0000
     1.0000   1.0000   1.0000   1.0000   1.0000   1.0000   1.0000   1.0000
     1.0000   1.0000   1.0000   1.0000   1.0000   1.0000   0.9999   0.9999
     0.9997   0.9997   0.9996   0.9996   0.9995   0.9995   0.9994   0.9993
     0.9993   0.9988   0.9983   0.9980   0.9978   0.9931   0.9922   0.9915
     0.9873   0.9859   0.9847   0.9838   0.9821   0.9812   0.9798   0.9779
     0.9752   0.9722   0.9690   0.9688   0.9656   0.9590   0.9470   0.9420
     0.9022   0.8585   0.8551   0.8494   0.8356   0.8337   0.8308   0.8120
     0.8065   0.7943   0.7899   0.7819   0.7790   0.7622   0.7331   0.7287
     0.6966   0.6872   0.6808   0.6784   0.6695   0.6633   0.6624   0.6601
     0.6584   0.6470   0.6424   0.6377   0.6070   0.6017   0.5946   0.5636
     0.1127   0.1029   0.1023   0.0806   0.0162   0.0094   0.0045   0.0030
     0.0007   0.0005   0.0003   0.0002   0.0000   0.0000   0.0000   0.0000
     0.0000   0.0000   0.0000   0.0000   0.0000   0.0000   0.0000   0.0000
     0.0000   0.0000   0.0000   0.0000   0.0000   0.0000   0.0000   0.0000
     0.0000   0.0000

          k = 0.2500 0.2500 0.0000 ( 65198 PWs)   bands (ev):

   -92.8505 -92.7984 -92.7044 -92.6573 -92.5981 -92.5568 -92.5400 -92.4135
   -56.2040 -56.1853 -56.0614 -56.0509 -56.0447 -56.0378 -56.0032 -55.9734
   -55.9590 -55.9565 -55.9479 -55.9057 -55.8875 -55.8492 -55.8311 -55.7980
   -55.7931 -55.7451 -55.7418 -55.7400 -55.7334 -55.6844 -55.6700 -55.5832
   -31.4135 -31.3970 -31.2539 -31.1809 -31.1676 -31.1046 -30.9906 -30.8806
   -29.9948 -29.9538 -29.9277 -29.8200 -15.1624 -15.1235 -15.0504 -14.9332
   -14.8132 -14.6877 -14.6163 -14.4086 -14.2535 -14.2391 -14.2038 -14.1748
   -14.1534 -14.1251 -14.0929 -14.0598 -13.9860 -13.9694 -13.8070 -13.7931
   -13.7653 -13.7435 -13.6902 -13.6540 -13.5900 -13.5672 -13.4337 -13.3899
   -13.3661 -13.2800 -13.2396 -13.1889 -13.1572 -13.1369 -13.1165 -13.0848
   -13.0603 -13.0470 -12.9846 -12.9355 -12.9144 -12.8834 -12.8800 -12.8527
   -12.8291 -12.8143 -12.6489 -12.5911 -12.5291 -12.4159 -12.2576 -12.2124
   -11.9715 -11.9475 -11.9160 -11.9049 -11.8978 -11.8354 -11.8005 -11.7940
   -11.7586 -11.7505 -11.6589 -11.6180 -11.6007  -2.8156  -2.6071  -2.4886
    -2.3949  -2.2743  -2.2095  -2.0105  -1.8676  -1.8480  -1.8180  -1.7238
    -1.6869  -1.5949  -1.5673  -1.5170  -1.3862  -1.3381  -1.2646  -1.2205
    -1.1757  -1.1524  -1.1283  -1.0856  -1.0707  -0.9795  -0.9297  -0.8633
    -0.8138  -0.7843  -0.7353  -0.7201  -0.6571  -0.6083  -0.5489  -0.5152
    -0.4285  -0.3779  -0.3479  -0.3105  -0.2539  -0.1813  -0.1433  -0.1127
    -0.0366   0.0104   0.2628   0.4105   0.4452   0.5048   0.5456   0.6211
     0.6677   0.7231   0.7581   1.0303   1.0939   1.1677   1.1919   1.2438
     1.2729   1.3077   1.3444   1.3623   1.3892   1.4347   1.4436   1.4578
     1.5055   1.5477   1.5823   1.6378   1.6822   1.6869   1.7273   1.7572
     1.8177   1.8459   1.9656   2.0289   2.0626   2.0877   2.1607   2.2244
     2.2492   2.2845   2.3099   2.3228   2.4346   2.4712   2.5590   2.6358
     2.6487   2.6850   2.7305   2.7468   2.7516   2.7678   2.7826   2.7964
     2.8081   2.8152   2.8273   2.8402   2.8535   2.8723   2.8799   2.8914
     2.9119   2.9236   2.9307   2.9649   3.2634   3.3582   3.4024   3.4753
     3.5183   3.7271   3.8083   4.1710   4.3760   4.5846   4.8447   5.1475
     5.5286   5.5868   5.6304   5.6907   5.7536   6.0959   6.1356   6.1792
     6.8564   7.0395   7.1705   7.3533   7.4786   7.5083   7.6179   7.7849
     7.8319   7.9397   8.1809   8.2296   8.3504   8.4038   8.4456   8.4879
     8.5264   8.5636

     occupation numbers 
     1.0000   1.0000   1.0000   1.0000   1.0000   1.0000   1.0000   1.0000
     1.0000   1.0000   1.0000   1.0000   1.0000   1.0000   1.0000   1.0000
     1.0000   1.0000   1.0000   1.0000   1.0000   1.0000   1.0000   1.0000
     1.0000   1.0000   1.0000   1.0000   1.0000   1.0000   1.0000   1.0000
     1.0000   1.0000   1.0000   1.0000   1.0000   1.0000   1.0000   1.0000
     1.0000   1.0000   1.0000   1.0000   1.0000   1.0000   1.0000   1.0000
     1.0000   1.0000   1.0000   1.0000   1.0000   1.0000   1.0000   1.0000
     1.0000   1.0000   1.0000   1.0000   1.0000   1.0000   1.0000   1.0000
     1.0000   1.0000   1.0000   1.0000   1.0000   1.0000   1.0000   1.0000
     1.0000   1.0000   1.0000   1.0000   1.0000   1.0000   1.0000   1.0000
     1.0000   1.0000   1.0000   1.0000   1.0000   1.0000   1.0000   1.0000
     1.0000   1.0000   1.0000   1.0000   1.0000   1.0000   1.0000   1.0000
     1.0000   1.0000   1.0000   1.0000   1.0000   1.0000   1.0000   1.0000
     1.0000   1.0000   1.0000   1.0000   1.0000   1.0000   1.0000   1.0000
     1.0000   1.0000   1.0000   1.0000   1.0000   1.0000   1.0000   1.0000
     1.0000   1.0000   1.0000   1.0000   1.0000   1.0000   1.0000   1.0000
     1.0000   1.0000   1.0000   1.0000   1.0000   1.0000   1.0000   1.0000
     1.0000   1.0000   1.0000   1.0000   1.0000   1.0000   1.0000   1.0000
     1.0000   1.0000   1.0000   1.0000   1.0000   1.0000   1.0000   1.0000
     1.0000   1.0000   1.0000   1.0000   1.0000   1.0000   1.0000   0.9999
     0.9999   0.9999   0.9998   0.9993   0.9990   0.9986   0.9984   0.9980
     0.9977   0.9973   0.9968   0.9965   0.9961   0.9952   0.9950   0.9947
     0.9935   0.9923   0.9911   0.9889   0.9868   0.9866   0.9844   0.9826
     0.9783   0.9760   0.9641   0.9560   0.9512   0.9473   0.9346   0.9216
     0.9161   0.9077   0.9013   0.8980   0.8652   0.8531   0.8210   0.7897
     0.7841   0.7680   0.7468   0.7391   0.7367   0.7288   0.7215   0.7146
     0.7086   0.7050   0.6988   0.6921   0.6851   0.6751   0.6710   0.6648
     0.6537   0.6473   0.6433   0.6242   0.4496   0.3946   0.3696   0.3295
     0.3067   0.2075   0.1747   0.0702   0.0376   0.0184   0.0067   0.0017
     0.0002   0.0002   0.0001   0.0001   0.0001   0.0000   0.0000   0.0000
     0.0000   0.0000   0.0000   0.0000   0.0000   0.0000   0.0000   0.0000
     0.0000   0.0000   0.0000   0.0000   0.0000   0.0000   0.0000   0.0000
     0.0000   0.0000

          k = 0.2500-0.5000 0.0000 ( 65138 PWs)   bands (ev):

   -92.8505 -92.7984 -92.7044 -92.6573 -92.5981 -92.5568 -92.5400 -92.4135
   -56.2040 -56.1853 -56.0614 -56.0509 -56.0447 -56.0378 -56.0032 -55.9734
   -55.9590 -55.9565 -55.9479 -55.9057 -55.8875 -55.8492 -55.8311 -55.7980
   -55.7931 -55.7451 -55.7418 -55.7400 -55.7334 -55.6844 -55.6700 -55.5832
   -31.4133 -31.3969 -31.2541 -31.1805 -31.1678 -31.1050 -30.9903 -30.8809
   -29.9942 -29.9535 -29.9283 -29.8203 -15.1257 -15.0807 -15.0112 -14.8961
   -14.8647 -14.7448 -14.6535 -14.5242 -14.2182 -14.1644 -14.1392 -14.1162
   -14.1006 -14.0877 -14.0521 -14.0334 -14.0010 -13.9618 -13.9369 -13.8997
   -13.8103 -13.7607 -13.7068 -13.6811 -13.6126 -13.6002 -13.4865 -13.4443
   -13.3450 -13.2800 -13.2586 -13.1735 -13.1292 -13.1178 -13.1133 -13.0840
   -13.0678 -13.0502 -12.9617 -12.9343 -12.9165 -12.8819 -12.8521 -12.8270
   -12.7939 -12.7626 -12.6602 -12.5422 -12.4594 -12.3918 -12.3248 -12.2948
   -11.9717 -11.9231 -11.9111 -11.9002 -11.8730 -11.8415 -11.8131 -11.7717
   -11.7445 -11.7222 -11.6771 -11.6516 -11.6404  -2.5977  -2.5310  -2.4037
    -2.3265  -2.1962  -2.1109  -1.9900  -1.8393  -1.7854  -1.7634  -1.6997
    -1.6867  -1.5902  -1.5231  -1.4384  -1.3879  -1.3786  -1.3157  -1.2722
    -1.2386  -1.1911  -1.1538  -1.1194  -1.0796  -1.0678  -1.0225  -0.9930
    -0.9510  -0.9201  -0.8526  -0.7502  -0.7091  -0.6319  -0.5669  -0.5176
    -0.4754  -0.4548  -0.4022  -0.2400  -0.2294  -0.1189  -0.0887  -0.0762
    -0.0305  -0.0048   0.0380   0.0599   0.1280   0.4035   0.4975   0.5891
     0.6404   0.8896   0.9169   1.0026   1.0278   1.1911   1.2271   1.2680
     1.2884   1.3040   1.3248   1.3881   1.4365   1.4703   1.5564   1.6403
     1.6811   1.7034   1.7137   1.7476   1.7626   1.7648   1.8128   1.8237
     1.8411   1.8871   1.8950   1.9133   1.9502   2.0066   2.0428   2.1249
     2.2659   2.4073   2.4248   2.4432   2.4718   2.4947   2.5219   2.5426
     2.5535   2.5772   2.6357   2.6416   2.6532   2.7110   2.7332   2.7477
     2.7619   2.7704   2.7856   2.8004   2.8186   2.8263   2.8588   2.8714
     2.8844   2.8961   2.9078   2.9165   3.4470   3.4641   3.5950   3.6449
     4.0046   4.0383   4.0659   4.1752   4.6355   4.7812   4.9581   4.9934
     5.1665   5.3298   5.5338   5.5502   5.6580   5.6929   6.3611   6.3664
     6.4634   6.7584   7.1648   7.6112   7.6763   7.6970   7.7387   7.8097
     7.8381   7.9506   8.1185   8.3488   8.4249   8.4502   8.5710   8.5829
     8.6162   8.6610

     occupation numbers 
     1.0000   1.0000   1.0000   1.0000   1.0000   1.0000   1.0000   1.0000
     1.0000   1.0000   1.0000   1.0000   1.0000   1.0000   1.0000   1.0000
     1.0000   1.0000   1.0000   1.0000   1.0000   1.0000   1.0000   1.0000
     1.0000   1.0000   1.0000   1.0000   1.0000   1.0000   1.0000   1.0000
     1.0000   1.0000   1.0000   1.0000   1.0000   1.0000   1.0000   1.0000
     1.0000   1.0000   1.0000   1.0000   1.0000   1.0000   1.0000   1.0000
     1.0000   1.0000   1.0000   1.0000   1.0000   1.0000   1.0000   1.0000
     1.0000   1.0000   1.0000   1.0000   1.0000   1.0000   1.0000   1.0000
     1.0000   1.0000   1.0000   1.0000   1.0000   1.0000   1.0000   1.0000
     1.0000   1.0000   1.0000   1.0000   1.0000   1.0000   1.0000   1.0000
     1.0000   1.0000   1.0000   1.0000   1.0000   1.0000   1.0000   1.0000
     1.0000   1.0000   1.0000   1.0000   1.0000   1.0000   1.0000   1.0000
     1.0000   1.0000   1.0000   1.0000   1.0000   1.0000   1.0000   1.0000
     1.0000   1.0000   1.0000   1.0000   1.0000   1.0000   1.0000   1.0000
     1.0000   1.0000   1.0000   1.0000   1.0000   1.0000   1.0000   1.0000
     1.0000   1.0000   1.0000   1.0000   1.0000   1.0000   1.0000   1.0000
     1.0000   1.0000   1.0000   1.0000   1.0000   1.0000   1.0000   1.0000
     1.0000   1.0000   1.0000   1.0000   1.0000   1.0000   1.0000   1.0000
     1.0000   1.0000   1.0000   1.0000   1.0000   1.0000   1.0000   1.0000
     1.0000   1.0000   1.0000   1.0000   1.0000   1.0000   1.0000   0.9999
     0.9999   0.9997   0.9996   0.9994   0.9993   0.9984   0.9981   0.9977
     0.9975   0.9973   0.9970   0.9961   0.9951   0.9944   0.9920   0.9888
     0.9869   0.9857   0.9852   0.9832   0.9822   0.9821   0.9787   0.9778
     0.9764   0.9724   0.9716   0.9698   0.9659   0.9590   0.9541   0.9411
     0.9122   0.8738   0.8684   0.8624   0.8529   0.8449   0.8351   0.8273
     0.8232   0.8139   0.7897   0.7872   0.7821   0.7560   0.7456   0.7386
     0.7317   0.7275   0.7200   0.7125   0.7033   0.6993   0.6823   0.6756
     0.6686   0.6623   0.6560   0.6512   0.3448   0.3355   0.2679   0.2441
     0.1099   0.1008   0.0937   0.0694   0.0152   0.0086   0.0041   0.0035
     0.0016   0.0007   0.0002   0.0002   0.0001   0.0001   0.0000   0.0000
     0.0000   0.0000   0.0000   0.0000   0.0000   0.0000   0.0000   0.0000
     0.0000   0.0000   0.0000   0.0000   0.0000   0.0000   0.0000   0.0000
     0.0000   0.0000

          k =-0.5000-0.5000 0.0000 ( 65132 PWs)   bands (ev):

   -92.8505 -92.7984 -92.7044 -92.6573 -92.5981 -92.5568 -92.5400 -92.4135
   -56.2040 -56.1853 -56.0614 -56.0509 -56.0447 -56.0378 -56.0032 -55.9734
   -55.9590 -55.9565 -55.9479 -55.9057 -55.8875 -55.8492 -55.8311 -55.7980
   -55.7931 -55.7451 -55.7418 -55.7400 -55.7334 -55.6844 -55.6700 -55.5832
   -31.4112 -31.3989 -31.2537 -31.1803 -31.1681 -31.1049 -30.9904 -30.8811
   -29.9931 -29.9545 -29.9279 -29.8207 -15.0793 -15.0537 -14.9359 -14.9234
   -14.8275 -14.7923 -14.7568 -14.6247 -14.1303 -14.1167 -14.0839 -14.0645
   -14.0473 -14.0319 -14.0059 -13.9930 -13.9788 -13.9700 -13.9542 -13.8773
   -13.8686 -13.8380 -13.8036 -13.7955 -13.6975 -13.6677 -13.5266 -13.4831
   -13.2954 -13.2565 -13.1884 -13.1642 -13.1299 -13.1230 -13.1136 -13.0970
   -13.0906 -13.0431 -12.9520 -12.9295 -12.9233 -12.9010 -12.8673 -12.8405
   -12.7439 -12.7357 -12.6765 -12.5212 -12.4557 -12.3612 -12.3166 -12.3008
   -11.9717 -11.9197 -11.9073 -11.8894 -11.8727 -11.8376 -11.8200 -11.7852
   -11.7247 -11.7046 -11.6995 -11.6493 -11.6463  -2.3732  -2.2980  -2.2878
    -2.2129  -2.1769  -2.0990  -2.0313  -1.9046  -1.7899  -1.7600  -1.7200
    -1.6631  -1.5911  -1.5767  -1.5060  -1.4622  -1.3455  -1.3160  -1.2678
    -1.2403  -1.1761  -1.1290  -1.1108  -1.0980  -1.0441  -1.0005  -0.9840
    -0.8720  -0.8144  -0.7683  -0.7178  -0.6882  -0.6771  -0.6431  -0.5994
    -0.5645  -0.5555  -0.4690  -0.4039  -0.3575  -0.3320  -0.2579  -0.2008
    -0.1834  -0.1289  -0.0959  -0.0905  -0.0627   0.3775   0.4148   0.5332
     0.5659   0.9228   0.9360   0.9671   1.0069   1.2782   1.2983   1.3050
     1.3440   1.4695   1.5648   1.5921   1.6277   1.6493   1.6769   1.6829
     1.7134   1.7242   1.7401   1.7525   1.8030   1.8046   1.8349   1.8547
     1.8710   1.8864   1.9228   1.9471   1.9650   1.9932   2.0269   2.0852
     2.1509   2.4197   2.4511   2.4705   2.4892   2.4997   2.5276   2.5335
     2.5536   2.5626   2.5789   2.5956   2.6116   2.6362   2.6402   2.6462
     2.6822   2.6897   2.7095   2.7271   2.7427   2.7566   2.7607   2.7863
     2.8680   2.8722   2.9046   2.9146   3.8888   3.9202   3.9238   3.9337
     4.1748   4.2566   4.2701   4.5109   4.6331   4.7159   4.8484   4.9483
     4.9766   5.0595   5.1952   5.2774   5.8210   5.8725   5.9139   6.0274
     6.5800   6.7935   6.9995   7.3202   7.8670   7.8771   7.9557   8.0906
     8.1272   8.1569   8.1926   8.2725   8.3067   8.4845   8.5243   8.5533
     8.5678   8.6827

     occupation numbers 
     1.0000   1.0000   1.0000   1.0000   1.0000   1.0000   1.0000   1.0000
     1.0000   1.0000   1.0000   1.0000   1.0000   1.0000   1.0000   1.0000
     1.0000   1.0000   1.0000   1.0000   1.0000   1.0000   1.0000   1.0000
     1.0000   1.0000   1.0000   1.0000   1.0000   1.0000   1.0000   1.0000
     1.0000   1.0000   1.0000   1.0000   1.0000   1.0000   1.0000   1.0000
     1.0000   1.0000   1.0000   1.0000   1.0000   1.0000   1.0000   1.0000
     1.0000   1.0000   1.0000   1.0000   1.0000   1.0000   1.0000   1.0000
     1.0000   1.0000   1.0000   1.0000   1.0000   1.0000   1.0000   1.0000
     1.0000   1.0000   1.0000   1.0000   1.0000   1.0000   1.0000   1.0000
     1.0000   1.0000   1.0000   1.0000   1.0000   1.0000   1.0000   1.0000
     1.0000   1.0000   1.0000   1.0000   1.0000   1.0000   1.0000   1.0000
     1.0000   1.0000   1.0000   1.0000   1.0000   1.0000   1.0000   1.0000
     1.0000   1.0000   1.0000   1.0000   1.0000   1.0000   1.0000   1.0000
     1.0000   1.0000   1.0000   1.0000   1.0000   1.0000   1.0000   1.0000
     1.0000   1.0000   1.0000   1.0000   1.0000   1.0000   1.0000   1.0000
     1.0000   1.0000   1.0000   1.0000   1.0000   1.0000   1.0000   1.0000
     1.0000   1.0000   1.0000   1.0000   1.0000   1.0000   1.0000   1.0000
     1.0000   1.0000   1.0000   1.0000   1.0000   1.0000   1.0000   1.0000
     1.0000   1.0000   1.0000   1.0000   1.0000   1.0000   1.0000   1.0000
     1.0000   1.0000   1.0000   1.0000   1.0000   1.0000   1.0000   1.0000
     0.9999   0.9996   0.9996   0.9995   0.9994   0.9976   0.9974   0.9973
     0.9968   0.9944   0.9917   0.9907   0.9893   0.9884   0.9871   0.9868
[...]
     0.6338   0.6199   0.6185   0.6146   0.6095   0.6050   0.5987   0.5257
     0.3446   0.3084   0.2043   0.0750   0.0450   0.0206   0.0049   0.0032
     0.0002   0.0001   0.0000   0.0000   0.0000   0.0000   0.0000   0.0000
     0.0000   0.0000   0.0000   0.0000   0.0000   0.0000   0.0000   0.0000
     0.0000   0.0000   0.0000   0.0000   0.0000   0.0000   0.0000   0.0000
     0.0000   0.0000

          k =-0.5000 0.0000 0.0000 ( 65180 PWs)   bands (ev):

   -92.8505 -92.7984 -92.7044 -92.6573 -92.5981 -92.5568 -92.5400 -92.4135
   -56.2040 -56.1853 -56.0614 -56.0509 -56.0447 -56.0378 -56.0032 -55.9734
   -55.9590 -55.9565 -55.9479 -55.9057 -55.8875 -55.8492 -55.8311 -55.7980
   -55.7931 -55.7451 -55.7418 -55.7400 -55.7334 -55.6844 -55.6700 -55.5832
   -31.4116 -31.3992 -31.2533 -31.1811 -31.1679 -31.1041 -30.9910 -30.8805
   -29.9944 -29.9552 -29.9266 -29.8200 -15.1613 -15.1098 -15.0475 -14.9381
   -14.8352 -14.6903 -14.5448 -14.3998 -14.2774 -14.2648 -14.2537 -14.1935
   -14.1349 -14.1043 -14.0548 -14.0478 -14.0305 -13.9809 -13.9614 -13.8564
   -13.6997 -13.6722 -13.6391 -13.6321 -13.5702 -13.5075 -13.4418 -13.4046
   -13.3807 -13.3632 -13.1923 -13.1803 -13.1719 -13.1550 -13.1456 -13.0913
   -13.0794 -13.0632 -12.9955 -12.9789 -12.8992 -12.8276 -12.8016 -12.7896
   -12.7796 -12.7698 -12.6798 -12.5959 -12.4659 -12.4546 -12.3197 -12.2812
   -11.9717 -11.9266 -11.9049 -11.8983 -11.8838 -11.8657 -11.8244 -11.7615
   -11.7439 -11.7109 -11.6665 -11.6573 -11.6417  -2.7293  -2.6907  -2.5274
    -2.4883  -2.1744  -2.0988  -1.9515  -1.8342  -1.7949  -1.7471  -1.7009
    -1.6764  -1.5528  -1.5088  -1.4926  -1.4104  -1.3751  -1.3592  -1.3284
    -1.2700  -1.2020  -1.1728  -1.1433  -1.0488  -1.0018  -0.9528  -0.9195
    -0.8986  -0.8675  -0.8198  -0.7952  -0.7572  -0.6571  -0.5834  -0.5170
    -0.4555  -0.2942  -0.2449  -0.2028  -0.1658  -0.1077  -0.0898   0.0514
     0.0816   0.1382   0.2929   0.3924   0.4390   0.5389   0.5972   0.7174
     0.7306   0.8597   0.8848   0.9393   0.9724   1.0093   1.0156   1.0629
     1.0860   1.1529   1.2044   1.2513   1.2591   1.5591   1.5651   1.5842
     1.6029   1.7089   1.7262   1.7392   1.7484   1.7790   1.7921   1.8298
     1.8536   1.8767   1.9305   1.9481   1.9972   2.0240   2.0747   2.1949
     2.2835   2.3551   2.3687   2.4506   2.4783   2.5068   2.5645   2.5811
     2.5907   2.6209   2.6415   2.6468   2.6548   2.7185   2.7447   2.7845
     2.8078   2.8540   2.8569   2.8653   2.8730   2.8883   2.8970   2.9099
     2.9175   2.9364   2.9453   2.9614   2.9814   2.9858   3.1153   3.1308
     3.9742   3.9919   4.0423   4.1849   4.6491   4.7264   4.9214   4.9497
     5.4025   5.4315   5.5110   5.5393   5.8907   5.8955   6.3346   6.5038
     6.7516   6.9710   7.2213   7.2798   7.5934   7.6488   7.6845   7.6909
     7.7982   7.9159   8.0318   8.2434   8.2654   8.3166   8.3988   8.5137
     8.6631   8.7631

     occupation numbers 
     1.0000   1.0000   1.0000   1.0000   1.0000   1.0000   1.0000   1.0000
     1.0000   1.0000   1.0000   1.0000   1.0000   1.0000   1.0000   1.0000
     1.0000   1.0000   1.0000   1.0000   1.0000   1.0000   1.0000   1.0000
     1.0000   1.0000   1.0000   1.0000   1.0000   1.0000   1.0000   1.0000
     1.0000   1.0000   1.0000   1.0000   1.0000   1.0000   1.0000   1.0000
     1.0000   1.0000   1.0000   1.0000   1.0000   1.0000   1.0000   1.0000
     1.0000   1.0000   1.0000   1.0000   1.0000   1.0000   1.0000   1.0000
     1.0000   1.0000   1.0000   1.0000   1.0000   1.0000   1.0000   1.0000
     1.0000   1.0000   1.0000   1.0000   1.0000   1.0000   1.0000   1.0000
     1.0000   1.0000   1.0000   1.0000   1.0000   1.0000   1.0000   1.0000
     1.0000   1.0000   1.0000   1.0000   1.0000   1.0000   1.0000   1.0000
     1.0000   1.0000   1.0000   1.0000   1.0000   1.0000   1.0000   1.0000
     1.0000   1.0000   1.0000   1.0000   1.0000   1.0000   1.0000   1.0000
     1.0000   1.0000   1.0000   1.0000   1.0000   1.0000   1.0000   1.0000
     1.0000   1.0000   1.0000   1.0000   1.0000   1.0000   1.0000   1.0000
     1.0000   1.0000   1.0000   1.0000   1.0000   1.0000   1.0000   1.0000
     1.0000   1.0000   1.0000   1.0000   1.0000   1.0000   1.0000   1.0000
     1.0000   1.0000   1.0000   1.0000   1.0000   1.0000   1.0000   1.0000
     1.0000   1.0000   1.0000   1.0000   1.0000   1.0000   1.0000   1.0000
     1.0000   1.0000   1.0000   1.0000   1.0000   1.0000   0.9999   0.9999
     0.9999   0.9997   0.9997   0.9996   0.9995   0.9994   0.9993   0.9992
     0.9991   0.9987   0.9983   0.9979   0.9978   0.9919   0.9917   0.9910
     0.9903   0.9854   0.9845   0.9837   0.9831   0.9811   0.9802   0.9774
     0.9754   0.9734   0.9680   0.9661   0.9602   0.9567   0.9493   0.9278
     0.9080   0.8892   0.8853   0.8600   0.8506   0.8406   0.8189   0.8123
     0.8085   0.7960   0.7872   0.7849   0.7814   0.7525   0.7401   0.7205
     0.7088   0.6848   0.6833   0.6788   0.6748   0.6665   0.6618   0.6548
     0.6506   0.6402   0.6352   0.6262   0.6149   0.6124   0.5372   0.5280
     0.1186   0.1135   0.0997   0.0675   0.0145   0.0108   0.0048   0.0043
     0.0005   0.0004   0.0003   0.0002   0.0000   0.0000   0.0000   0.0000
     0.0000   0.0000   0.0000   0.0000   0.0000   0.0000   0.0000   0.0000
     0.0000   0.0000   0.0000   0.0000   0.0000   0.0000   0.0000   0.0000
     0.0000   0.0000

          k =-0.2500 0.2500 0.0000 ( 65198 PWs)   bands (ev):

   -92.8505 -92.7984 -92.7044 -92.6573 -92.5981 -92.5568 -92.5400 -92.4135
   -56.2040 -56.1853 -56.0614 -56.0509 -56.0447 -56.0378 -56.0032 -55.9734
   -55.9590 -55.9565 -55.9479 -55.9057 -55.8875 -55.8492 -55.8311 -55.7980
   -55.7931 -55.7451 -55.7418 -55.7400 -55.7334 -55.6844 -55.6700 -55.5832
   -31.4135 -31.3970 -31.2539 -31.1809 -31.1676 -31.1046 -30.9906 -30.8806
   -29.9948 -29.9538 -29.9277 -29.8200 -15.1638 -15.1224 -15.0490 -14.9315
   -14.8192 -14.6926 -14.6081 -14.3996 -14.2601 -14.2303 -14.2159 -14.1706
   -14.1464 -14.1260 -14.1085 -14.0628 -13.9813 -13.9700 -13.8146 -13.7905
   -13.7622 -13.7400 -13.6938 -13.6412 -13.5832 -13.5750 -13.4405 -13.3889
   -13.3605 -13.2841 -13.2411 -13.1782 -13.1497 -13.1325 -13.1240 -13.0876
   -13.0651 -13.0359 -13.0019 -12.9435 -12.9252 -12.9088 -12.8753 -12.8340
   -12.8229 -12.8050 -12.6290 -12.5809 -12.5493 -12.4216 -12.2609 -12.2078
   -11.9715 -11.9467 -11.9252 -11.8981 -11.8859 -11.8449 -11.8102 -11.7872
   -11.7656 -11.7432 -11.6587 -11.6135 -11.6038  -2.8140  -2.6061  -2.4844
    -2.3966  -2.2785  -2.2122  -2.0081  -1.8645  -1.8457  -1.8160  -1.7244
    -1.6856  -1.5949  -1.5604  -1.5344  -1.3921  -1.3362  -1.2675  -1.2398
    -1.1791  -1.1582  -1.1181  -1.0894  -1.0495  -0.9858  -0.9383  -0.8742
    -0.8055  -0.7802  -0.7295  -0.7002  -0.6548  -0.5977  -0.5523  -0.5101
    -0.4100  -0.3784  -0.3659  -0.3230  -0.2564  -0.1857  -0.1395  -0.1054
    -0.0338   0.0091   0.2438   0.4140   0.4530   0.4930   0.5524   0.6209
     0.6714   0.7291   0.7565   1.0383   1.1440   1.1843   1.2173   1.2247
     1.2658   1.2822   1.3269   1.3575   1.3719   1.3974   1.4431   1.4589
     1.5030   1.5227   1.5677   1.6500   1.6731   1.6873   1.7334   1.7539
     1.7964   1.8555   1.9549   2.0573   2.0865   2.1360   2.1569   2.2225
     2.2615   2.2864   2.3101   2.3336   2.4352   2.4697   2.5591   2.6356
     2.6484   2.6852   2.7359   2.7455   2.7578   2.7673   2.7780   2.7921
     2.7985   2.8172   2.8280   2.8396   2.8509   2.8621   2.8735   2.8849
     2.9133   2.9235   2.9308   2.9665   3.2570   3.3397   3.4045   3.4863
     3.5180   3.7142   3.8173   4.1705   4.3733   4.5860   4.8543   5.1477
     5.5300   5.5831   5.6338   5.6874   5.7547   6.1038   6.1422   6.1638
     6.8574   7.0546   7.1524   7.3531   7.4877   7.5148   7.5915   7.7948
     7.8544   7.9092   8.2111   8.2290   8.3513   8.3996   8.4360   8.4770
     8.5410   8.5626

     occupation numbers 
     1.0000   1.0000   1.0000   1.0000   1.0000   1.0000   1.0000   1.0000
     1.0000   1.0000   1.0000   1.0000   1.0000   1.0000   1.0000   1.0000
     1.0000   1.0000   1.0000   1.0000   1.0000   1.0000   1.0000   1.0000
     1.0000   1.0000   1.0000   1.0000   1.0000   1.0000   1.0000   1.0000
     1.0000   1.0000   1.0000   1.0000   1.0000   1.0000   1.0000   1.0000
     1.0000   1.0000   1.0000   1.0000   1.0000   1.0000   1.0000   1.0000
     1.0000   1.0000   1.0000   1.0000   1.0000   1.0000   1.0000   1.0000
     1.0000   1.0000   1.0000   1.0000   1.0000   1.0000   1.0000   1.0000
     1.0000   1.0000   1.0000   1.0000   1.0000   1.0000   1.0000   1.0000
     1.0000   1.0000   1.0000   1.0000   1.0000   1.0000   1.0000   1.0000
     1.0000   1.0000   1.0000   1.0000   1.0000   1.0000   1.0000   1.0000
     1.0000   1.0000   1.0000   1.0000   1.0000   1.0000   1.0000   1.0000
     1.0000   1.0000   1.0000   1.0000   1.0000   1.0000   1.0000   1.0000
     1.0000   1.0000   1.0000   1.0000   1.0000   1.0000   1.0000   1.0000
     1.0000   1.0000   1.0000   1.0000   1.0000   1.0000   1.0000   1.0000
     1.0000   1.0000   1.0000   1.0000   1.0000   1.0000   1.0000   1.0000
     1.0000   1.0000   1.0000   1.0000   1.0000   1.0000   1.0000   1.0000
     1.0000   1.0000   1.0000   1.0000   1.0000   1.0000   1.0000   1.0000
     1.0000   1.0000   1.0000   1.0000   1.0000   1.0000   1.0000   1.0000
     1.0000   1.0000   1.0000   1.0000   1.0000   1.0000   1.0000   0.9999
     0.9999   0.9999   0.9998   0.9993   0.9987   0.9985   0.9982   0.9981
     0.9977   0.9976   0.9970   0.9966   0.9963   0.9959   0.9950   0.9947
     0.9936   0.9930   0.9916   0.9884   0.9873   0.9866   0.9840   0.9828
     0.9799   0.9752   0.9653   0.9520   0.9475   0.9391   0.9353   0.9220
     0.9133   0.9073   0.9013   0.8951   0.8650   0.8536   0.8210   0.7898
     0.7842   0.7679   0.7443   0.7397   0.7337   0.7291   0.7238   0.7168
     0.7135   0.7040   0.6984   0.6924   0.6865   0.6806   0.6745   0.6684
     0.6529   0.6473   0.6433   0.6233   0.4534   0.4052   0.3684   0.3236
     0.3069   0.2130   0.1713   0.0703   0.0380   0.0183   0.0064   0.0017
     0.0002   0.0002   0.0001   0.0001   0.0001   0.0000   0.0000   0.0000
     0.0000   0.0000   0.0000   0.0000   0.0000   0.0000   0.0000   0.0000
     0.0000   0.0000   0.0000   0.0000   0.0000   0.0000   0.0000   0.0000
     0.0000   0.0000

          k =-0.5000 0.2500 0.0000 ( 65138 PWs)   bands (ev):

   -92.8505 -92.7984 -92.7044 -92.6573 -92.5981 -92.5568 -92.5400 -92.4135
   -56.2040 -56.1853 -56.0614 -56.0509 -56.0447 -56.0378 -56.0032 -55.9734
   -55.9590 -55.9565 -55.9479 -55.9057 -55.8875 -55.8492 -55.8311 -55.7980
   -55.7931 -55.7451 -55.7418 -55.7400 -55.7334 -55.6844 -55.6700 -55.5832
   -31.4114 -31.3991 -31.2535 -31.1807 -31.1680 -31.1045 -30.9907 -30.8808
   -29.9938 -29.9548 -29.9273 -29.8204 -15.1285 -15.0835 -15.0046 -14.9045
   -14.8636 -14.7373 -14.6488 -14.5182 -14.2111 -14.1801 -14.1682 -14.1232
   -14.1016 -14.0768 -14.0411 -14.0331 -14.0094 -13.9691 -13.9588 -13.8495
   -13.7809 -13.7325 -13.7289 -13.7143 -13.6206 -13.6091 -13.4809 -13.4286
   -13.3378 -13.3028 -13.2054 -13.1653 -13.1542 -13.1328 -13.1204 -13.0909
   -13.0778 -13.0436 -13.0153 -12.9385 -12.9117 -12.8598 -12.8342 -12.8156
   -12.7611 -12.7530 -12.6779 -12.5548 -12.4610 -12.4110 -12.3142 -12.2900
   -11.9717 -11.9194 -11.9067 -11.8925 -11.8805 -11.8593 -11.8292 -11.7484
   -11.7400 -11.7166 -11.6809 -11.6530 -11.6442  -2.5868  -2.5447  -2.3970
    -2.3548  -2.1935  -2.1171  -1.9757  -1.8401  -1.7833  -1.7552  -1.7174
    -1.6787  -1.5981  -1.4826  -1.4252  -1.4021  -1.3764  -1.2990  -1.2715
    -1.2326  -1.2156  -1.1550  -1.1254  -1.0869  -1.0515  -1.0228  -0.9643
    -0.9374  -0.8960  -0.8604  -0.7558  -0.7300  -0.6394  -0.5773  -0.5464
    -0.4896  -0.4042  -0.3719  -0.2717  -0.2337  -0.1707  -0.1235  -0.0979
    -0.0267   0.0071   0.0447   0.0859   0.1232   0.4433   0.4930   0.5782
     0.6044   0.8706   0.9337   1.0034   1.0297   1.2057   1.2414   1.2788
     1.2898   1.3081   1.3259   1.3951   1.4394   1.4806   1.5102   1.6285
     1.6660   1.7006   1.7166   1.7503   1.7719   1.7886   1.8064   1.8227
     1.8448   1.8922   1.9058   1.9433   1.9658   1.9991   2.0555   2.1796
     2.2739   2.3009   2.3673   2.4050   2.4668   2.5045   2.5098   2.5474
     2.5810   2.6014   2.6378   2.6422   2.6483   2.7195   2.7436   2.7468
     2.7551   2.7711   2.7950   2.8067   2.8216   2.8336   2.8555   2.8694
     2.8784   2.8877   2.9007   2.9145   3.4509   3.4783   3.6316   3.6479
     3.9740   4.0099   4.0564   4.2653   4.6419   4.7393   4.9182   4.9665
     5.2666   5.2962   5.5130   5.5960   5.6368   5.6728   6.3489   6.4249
     6.4754   6.6149   7.3158   7.6131   7.6276   7.6993   7.7313   7.7842
     7.8461   7.9512   8.1024   8.3854   8.4495   8.4870   8.5306   8.5613
     8.5880   8.7231

     occupation numbers 
     1.0000   1.0000   1.0000   1.0000   1.0000   1.0000   1.0000   1.0000
     1.0000   1.0000   1.0000   1.0000   1.0000   1.0000   1.0000   1.0000
     1.0000   1.0000   1.0000   1.0000   1.0000   1.0000   1.0000   1.0000
     1.0000   1.0000   1.0000   1.0000   1.0000   1.0000   1.0000   1.0000
     1.0000   1.0000   1.0000   1.0000   1.0000   1.0000   1.0000   1.0000
     1.0000   1.0000   1.0000   1.0000   1.0000   1.0000   1.0000   1.0000
     1.0000   1.0000   1.0000   1.0000   1.0000   1.0000   1.0000   1.0000
     1.0000   1.0000   1.0000   1.0000   1.0000   1.0000   1.0000   1.0000
     1.0000   1.0000   1.0000   1.0000   1.0000   1.0000   1.0000   1.0000
     1.0000   1.0000   1.0000   1.0000   1.0000   1.0000   1.0000   1.0000
     1.0000   1.0000   1.0000   1.0000   1.0000   1.0000   1.0000   1.0000
     1.0000   1.0000   1.0000   1.0000   1.0000   1.0000   1.0000   1.0000
     1.0000   1.0000   1.0000   1.0000   1.0000   1.0000   1.0000   1.0000
     1.0000   1.0000   1.0000   1.0000   1.0000   1.0000   1.0000   1.0000
     1.0000   1.0000   1.0000   1.0000   1.0000   1.0000   1.0000   1.0000
     1.0000   1.0000   1.0000   1.0000   1.0000   1.0000   1.0000   1.0000
     1.0000   1.0000   1.0000   1.0000   1.0000   1.0000   1.0000   1.0000
     1.0000   1.0000   1.0000   1.0000   1.0000   1.0000   1.0000   1.0000
     1.0000   1.0000   1.0000   1.0000   1.0000   1.0000   1.0000   1.0000
     1.0000   1.0000   1.0000   1.0000   1.0000   1.0000   1.0000   0.9999
     0.9999   0.9997   0.9996   0.9994   0.9993   0.9983   0.9980   0.9976
     0.9975   0.9973   0.9970   0.9959   0.9951   0.9941   0.9934   0.9893
     0.9876   0.9859   0.9850   0.9830   0.9816   0.9805   0.9792   0.9779
     0.9761   0.9719   0.9706   0.9666   0.9641   0.9600   0.9522   0.9309
     0.9103   0.9036   0.8857   0.8745   0.8546   0.8414   0.8395   0.8255
     0.8124   0.8041   0.7888   0.7869   0.7843   0.7521   0.7406   0.7391
     0.7351   0.7272   0.7153   0.7094   0.7018   0.6955   0.6840   0.6767
     0.6719   0.6669   0.6598   0.6523   0.3427   0.3279   0.2504   0.2427
     0.1187   0.1084   0.0961   0.0532   0.0149   0.0102   0.0049   0.0040
     0.0010   0.0008   0.0003   0.0002   0.0001   0.0001   0.0000   0.0000
     0.0000   0.0000   0.0000   0.0000   0.0000   0.0000   0.0000   0.0000
     0.0000   0.0000   0.0000   0.0000   0.0000   0.0000   0.0000   0.0000
     0.0000   0.0000

     the Fermi energy is     3.1781 ev

!    total energy              =   -4440.28963226 Ry
     estimated scf accuracy    <          9.4E-09 Ry
     smearing contrib. (-TS)   =      -1.20572190 Ry
     internal energy E=F+TS    =   -4439.08391037 Ry

     The total energy is F=E-TS. E is the sum of the following terms:
     one-electron contribution =  -20890.08180870 Ry
     hartree contribution      =   10574.47163770 Ry
     xc contribution           =    -693.24304426 Ry
     ewald contribution        =    6845.96161836 Ry
     one-center paw contrib.   =    -276.19231347 Ry
      -> PAW hartree energy AE =      25.17471939 Ry
      -> PAW hartree energy PS =     -25.05849407 Ry
      -> PAW xc energy AE      =     -16.51917420 Ry
      -> PAW xc energy PS      =       6.87871766 Ry
      -> total E_H with PAW    =   10574.58786303 Ry
      -> total E_XC with PAW   =    -702.88350080 Ry

     convergence has been achieved in  51 iterations

     Writing all to output data dir /bsuhome/zayahcortright/scratch/pwscf.save/
 
     init_run     :      7.54s CPU      8.23s WALL (       1 calls)
     electrons    :    714.68s CPU    749.20s WALL (       1 calls)

     Called by init_run:
     wfcinit      :      5.98s CPU      6.20s WALL (       1 calls)
     wfcinit:atom :      0.04s CPU      0.06s WALL (       5 calls)
     wfcinit:wfcr :      5.66s CPU      5.78s WALL (       5 calls)
     potinit      :      0.15s CPU      0.18s WALL (       1 calls)
     hinit0       :      0.54s CPU      0.70s WALL (       1 calls)

     Called by electrons:
     c_bands      :    564.25s CPU    571.23s WALL (      51 calls)
     sum_band     :    112.65s CPU    127.70s WALL (      51 calls)
     v_of_rho     :      5.44s CPU      5.88s WALL (      52 calls)
     v_h          :      0.47s CPU      0.48s WALL (      52 calls)
     v_xc         :      4.97s CPU      5.40s WALL (      52 calls)
     newd         :     16.97s CPU     28.64s WALL (      52 calls)
     PAW_pot      :      1.68s CPU      1.72s WALL (      52 calls)
     mix_rho      :     13.29s CPU     13.70s WALL (      51 calls)

     Called by c_bands:
     init_us_2    :      7.10s CPU      7.21s WALL (     515 calls)
     init_us_2:cp :      7.10s CPU      7.21s WALL (     515 calls)
     cegterg      :    530.86s CPU    537.50s WALL (     255 calls)

     Called by sum_band:
     sum_band:wei :      0.36s CPU      0.37s WALL (      51 calls)
     sum_band:loo :     93.59s CPU     94.37s WALL (      51 calls)
     sum_band:buf :      1.48s CPU      1.56s WALL (     255 calls)
     sum_band:ini :      3.28s CPU      3.30s WALL (     255 calls)
     sum_band:cal :     20.15s CPU     20.22s WALL (     255 calls)
     sum_band:bec :      0.57s CPU      0.58s WALL (     255 calls)
     addusdens    :     16.63s CPU     30.82s WALL (      51 calls)
                                        0.00s GPU  (      51 calls)
     addusd:skk   :      0.32s CPU      1.03s WALL (     153 calls)
                                        0.00s GPU  (     153 calls)

     Called by *egterg:
     cdiaghg      :     52.99s CPU     53.26s WALL (    1197 calls)
     cegterg:over :     38.70s CPU     38.89s WALL (     942 calls)
     cegterg:upda :     28.14s CPU     28.69s WALL (     942 calls)
     cegterg:last :     57.75s CPU     57.97s WALL (     446 calls)
     cdiaghg:chol :      2.97s CPU      3.00s WALL (    1197 calls)
     cdiaghg:inve :      2.82s CPU      2.84s WALL (    1197 calls)
     cdiaghg:para :      6.85s CPU      6.91s WALL (    2394 calls)
     h_psi        :    296.81s CPU    299.90s WALL (    1202 calls)
     s_psi        :     40.08s CPU     40.21s WALL (    1202 calls)
     g_psi        :      1.08s CPU      1.08s WALL (     942 calls)

     Called by h_psi:
     h_psi:calbec :     45.35s CPU     45.54s WALL (    1202 calls)
     vloc_psi     :    208.57s CPU    210.55s WALL (    1202 calls)
     add_vuspsi   :     40.02s CPU     40.24s WALL (    1202 calls)

     General routines
     calbec       :     65.49s CPU     65.75s WALL (    1457 calls)
     fft          :      3.93s CPU      3.97s WALL (     674 calls)
     ffts         :      4.96s CPU      5.02s WALL (    5545 calls)
     fftw         :    179.47s CPU    180.99s WALL (  341286 calls)
     interpolate  :      0.43s CPU      0.44s WALL (      52 calls)
 
     Parallel routines

     PAW routines
     PAW_pot      :      1.68s CPU      1.72s WALL (      52 calls)
 
     PWSCF        :  12m 3.77s CPU  12m41.88s WALL

 
   This run was terminated on:  15:59:28  21Jun2024            

=------------------------------------------------------------------------------=
   JOB DONE.
=------------------------------------------------------------------------------=
