
     Program PWSCF v.7.2 starts on 21Jun2024 at 14:41:52 

     This program is part of the open-source Quantum ESPRESSO suite
     for quantum simulation of materials; please cite
         "P. Giannozzi et al., J. Phys.:Condens. Matter 21 395502 (2009);
         "P. Giannozzi et al., J. Phys.:Condens. Matter 29 465901 (2017);
         "P. Giannozzi et al., J. Chem. Phys. 152 154105 (2020);
          URL http://www.quantum-espresso.org", 
     in publications or presentations arising from this work. More details at
     http://www.quantum-espresso.org/quote

     Parallel version (MPI & OpenMP), running on      48 processor cores
     Number of MPI processes:                48
     Threads/MPI process:                     1

     MPI processes distributed on     1 nodes
     60575 MiB available memory on the printing compute node when the environment starts
 
     Reading input from espresso.pwi
Warning: card &CELL ignored
Warning: card / ignored
Warning: card &FCP ignored
Warning: card / ignored
Warning: card &RISM ignored
Warning: card / ignored

     Current dimensions of program PWSCF are:
     Max number of different atomic species (ntypx) = 10
     Max number of k-points (npk) =  40000
     Max angular momentum in pseudopotentials (lmaxx) =  4
     file O.pbe-n-kjpaw_psl.0.1.UPF: wavefunction(s)  2P renormalized
     signal trapping enabled: kill the code with -SIGUSR1 to stop cleanly the simulation 
 
     K-points division:     npool     =       2
     R & G space division:  proc/nbgrp/npool/nimage =      24
     Subspace diagonalization in iterative solution of the eigenvalue problem:
     one sub-group per band group will be used
     scalapack distributed-memory algorithm (size of sub-group:  3*  3 procs)

 
     Parallelization info
     --------------------
     sticks:   dense  smooth     PW     G-vecs:    dense   smooth      PW
     Min         350     175     47                61430    21716    3036
     Max         351     177     48                61449    21727    3041
     Sum        8421    4205   1137              1474595   521381   72913
 
     Using Slab Decomposition
 


     bravais-lattice index     =            0
     lattice parameter (alat)  =      14.8599  a.u.
     unit-cell volume          =    8305.1283 (a.u.)^3
     number of atoms/cell      =           49
     number of atomic types    =            3
     number of electrons       =       430.00
     number of Kohn-Sham states=          258
     kinetic-energy cutoff     =      60.0000  Ry
     charge density cutoff     =     480.0000  Ry
     scf convergence threshold =      1.0E-08
     mixing beta               =       0.1500
     number of iterations used =            8  local-TF  mixing
     Exchange-correlation= SLA  PW   PBE  PBE
                           (   1   4   3   4   0   0   0)

     celldm(1)=  14.859904  celldm(2)=   0.000000  celldm(3)=   0.000000
     celldm(4)=   0.000000  celldm(5)=   0.000000  celldm(6)=   0.000000

     crystal axes: (cart. coord. in units of alat)
               a(1) = (   1.000000   0.000000   0.000000 )  
               a(2) = (   0.000000   1.000000   0.000000 )  
               a(3) = (   0.000000   0.000000   2.531036 )  

     reciprocal axes: (cart. coord. in units 2 pi/alat)
               b(1) = (  1.000000  0.000000  0.000000 )  
               b(2) = (  0.000000  1.000000  0.000000 )  
               b(3) = (  0.000000  0.000000  0.395095 )  


     PseudoPot. # 1 for Sr read from file:
     /bsuhome/zayahcortright/q-e/pseudo/Sr_pbe_v1.uspp.F.UPF
     MD5 check sum: 6b418c05fbe9db5448babca5e47b7a5b
     Pseudo is Ultrasoft + core correction, Zval = 10.0
     Generated by new atomic code, or converted to UPF format
     Using radial grid of  883 points,  6 beta functions with: 
                l(1) =   0
                l(2) =   0
                l(3) =   1
                l(4) =   1
                l(5) =   2
                l(6) =   2
     Q(r) pseudized with  6 coefficients,  rinner =    1.400   1.400   1.400
                                                       1.400   1.400

     PseudoPot. # 2 for O  read from file:
     /bsuhome/zayahcortright/q-e/pseudo/O.pbe-n-kjpaw_psl.0.1.UPF
     MD5 check sum: 0234752ac141de4415c5fc33072bef88
     Pseudo is Projector augmented-wave + core cor, Zval =  6.0
     Generated using "atomic" code by A. Dal Corso  v.5.0.99 svn rev. 10869
     Shape of augmentation charge: BESSEL
     Using radial grid of 1095 points,  4 beta functions with: 
                l(1) =   0
                l(2) =   0
                l(3) =   1
                l(4) =   1
     Q(r) pseudized with 0 coefficients 


     PseudoPot. # 3 for Co read from file:
     /bsuhome/zayahcortright/q-e/pseudo/Co_pbe_v1.2.uspp.F.UPF
     MD5 check sum: 5f91765df6ddd3222702df6e7b74a16d
     Pseudo is Ultrasoft + core correction, Zval = 17.0
     Generated by new atomic code, or converted to UPF format
     Using radial grid of  863 points,  6 beta functions with: 
                l(1) =   0
                l(2) =   0
                l(3) =   1
                l(4) =   1
                l(5) =   2
                l(6) =   2
     Q(r) pseudized with  8 coefficients,  rinner =    1.200   1.200   1.200
                                                       1.200   1.200

     atomic species   valence    mass     pseudopotential
        Sr            10.00    87.62000     Sr( 1.00)
        O              6.00    15.99900     O ( 1.00)
        Co            17.00    58.93319     Co( 1.00)

     No symmetry found


                                    s                        frac. trans.

      isym =  1     identity                                     

 cryst.   s( 1) = (     1          0          0      )
                  (     0          1          0      )
                  (     0          0          1      )

 cart.    s( 1) = (  1.0000000  0.0000000  0.0000000 )
                  (  0.0000000  1.0000000  0.0000000 )
                  (  0.0000000  0.0000000  1.0000000 )


   Cartesian axes

     site n.     atom                  positions (alat units)
         1           Sr  tau(   1) = (   0.2508693   0.7491307   1.7574407  )
         2           O   tau(   2) = (   0.4985141   0.5014859   1.7715967  )
         3           Sr  tau(   3) = (   0.7482398   0.7454518   1.7648669  )
         4           Sr  tau(   4) = (   0.7441748   0.2558252   1.7667843  )
         5           Sr  tau(   5) = (   0.2508693   0.7491307   1.2696799  )
         6           Sr  tau(   6) = (   0.2508693   0.7491307   0.7632319  )
         7           Co  tau(   7) = (   0.4998914   0.5001086   1.0164559  )
         8           Co  tau(   8) = (   0.4936915   0.5063085   1.5135603  )
         9           O   tau(   9) = (   0.4988895   0.7610401   1.0164559  )
        10           O   tau(  10) = (   0.2389599   0.5011105   1.0164559  )
        11           O   tau(  11) = (   0.0070918   0.7374880   1.0164559  )
        12           O   tau(  12) = (   0.0088340   0.7405089   1.5135603  )
        13           O   tau(  13) = (   0.5066944   0.7415376   1.5135603  )
        14           O   tau(  14) = (   0.2584624   0.4933056   1.5135603  )
        15           O   tau(  15) = (   0.4985141   0.5014859   0.7773880  )
        16           O   tau(  16) = (   0.4985141   0.5014859   1.2555238  )
        17           Sr  tau(  17) = (   0.7482398   0.7454518   0.7706582  )
        18           Sr  tau(  18) = (   0.7482398   0.7454518   1.2622536  )
        19           Sr  tau(  19) = (   0.7441748   0.2558252   0.7725755  )
        20           Sr  tau(  20) = (   0.7441748   0.2558252   1.2603363  )
        21           O   tau(  21) = (   0.7322655   0.0078049   1.5135603  )
        22           O   tau(  22) = (   0.7558175   0.4996027   1.5135603  )
        23           O   tau(  23) = (   0.5003973   0.2441825   1.5135603  )
        24           O   tau(  24) = (   0.7527966   0.4978604   1.0164559  )
        25           O   tau(  25) = (   0.5021396   0.2472034   1.0164559  )
        26           O   tau(  26) = (   0.7517679   0.0000000   1.0164559  )
        27           O   tau(  27) = (   0.0114961   0.4948124   1.7455321  )
        28           O   tau(  28) = (   0.0048226   0.0077944   1.7715967  )
        29           Sr  tau(  29) = (   0.2545482   0.2517602   1.7648669  )
        30           O   tau(  30) = (   0.5048017   0.0015068   1.7786929  )
        31           Co  tau(  31) = (   0.0056869   0.5006215   1.0164559  )
        32           Co  tau(  32) = (   0.0065315   0.4997770   1.5135603  )
        33           Co  tau(  33) = (   0.0061999   0.0064171   1.0164559  )
        34           Co  tau(  34) = (   0.0000000   0.0126169   1.5135603  )
        35           O   tau(  35) = (   0.0114961   0.4948124   1.2815885  )
        36           O   tau(  36) = (   0.0114961   0.4948124   0.7513233  )
        37           O   tau(  37) = (   0.0051979   0.2673486   1.0164559  )
        38           O   tau(  38) = (   0.0130029   0.2478461   1.5135603  )
        39           O   tau(  39) = (   0.0048226   0.0077944   0.7773880  )
        40           O   tau(  40) = (   0.0048226   0.0077944   1.2555238  )
        41           Sr  tau(  41) = (   0.2545482   0.2517602   0.7706582  )
        42           Sr  tau(  42) = (   0.2545482   0.2517602   1.2622536  )
        43           Co  tau(  43) = (   0.4989925   0.0073160   1.5135603  )
        44           Co  tau(  44) = (   0.4998370   0.0064714   1.0164559  )
        45           O   tau(  45) = (   0.5048017   0.0015068   0.7844841  )
        46           O   tau(  46) = (   0.5048017   0.0015068   1.2484277  )
        47           O   tau(  47) = (   0.2621260   0.0059111   1.5135603  )
        48           O   tau(  48) = (   0.2591051   0.0041689   1.0164559  )
        49           O   tau(  49) = (   0.0000000   0.2843291   2.1602013  )

   Crystallographic axes

     site n.     atom                  positions (cryst. coord.)
         1           Sr  tau(   1) = (  0.2508693  0.7491307  0.6943562  )
         2           O   tau(   2) = (  0.4985141  0.5014859  0.6999492  )
         3           Sr  tau(   3) = (  0.7482398  0.7454518  0.6972903  )
         4           Sr  tau(   4) = (  0.7441748  0.2558252  0.6980478  )
         5           Sr  tau(   5) = (  0.2508693  0.7491307  0.5016443  )
         6           Sr  tau(   6) = (  0.2508693  0.7491307  0.3015492  )
         7           Co  tau(   7) = (  0.4998914  0.5001086  0.4015968  )
         8           Co  tau(   8) = (  0.4936915  0.5063085  0.5980003  )
         9           O   tau(   9) = (  0.4988895  0.7610401  0.4015968  )
        10           O   tau(  10) = (  0.2389599  0.5011105  0.4015968  )
        11           O   tau(  11) = (  0.0070918  0.7374880  0.4015968  )
        12           O   tau(  12) = (  0.0088340  0.7405089  0.5980003  )
        13           O   tau(  13) = (  0.5066944  0.7415376  0.5980003  )
        14           O   tau(  14) = (  0.2584624  0.4933056  0.5980003  )
        15           O   tau(  15) = (  0.4985141  0.5014859  0.3071422  )
        16           O   tau(  16) = (  0.4985141  0.5014859  0.4960513  )
        17           Sr  tau(  17) = (  0.7482398  0.7454518  0.3044833  )
        18           Sr  tau(  18) = (  0.7482398  0.7454518  0.4987103  )
        19           Sr  tau(  19) = (  0.7441748  0.2558252  0.3052408  )
        20           Sr  tau(  20) = (  0.7441748  0.2558252  0.4979527  )
        21           O   tau(  21) = (  0.7322655  0.0078049  0.5980003  )
        22           O   tau(  22) = (  0.7558175  0.4996027  0.5980003  )
        23           O   tau(  23) = (  0.5003973  0.2441825  0.5980003  )
        24           O   tau(  24) = (  0.7527966  0.4978604  0.4015968  )
        25           O   tau(  25) = (  0.5021396  0.2472034  0.4015968  )
        26           O   tau(  26) = (  0.7517679  0.0000000  0.4015968  )
        27           O   tau(  27) = (  0.0114961  0.4948124  0.6896512  )
        28           O   tau(  28) = (  0.0048226  0.0077944  0.6999492  )
        29           Sr  tau(  29) = (  0.2545482  0.2517602  0.6972903  )
        30           O   tau(  30) = (  0.5048017  0.0015068  0.7027529  )
        31           Co  tau(  31) = (  0.0056869  0.5006215  0.4015968  )
        32           Co  tau(  32) = (  0.0065315  0.4997770  0.5980003  )
        33           Co  tau(  33) = (  0.0061999  0.0064171  0.4015968  )
        34           Co  tau(  34) = (  0.0000000  0.0126169  0.5980003  )
        35           O   tau(  35) = (  0.0114961  0.4948124  0.5063494  )
        36           O   tau(  36) = (  0.0114961  0.4948124  0.2968442  )
        37           O   tau(  37) = (  0.0051979  0.2673486  0.4015968  )
        38           O   tau(  38) = (  0.0130029  0.2478461  0.5980003  )
        39           O   tau(  39) = (  0.0048226  0.0077944  0.3071422  )
        40           O   tau(  40) = (  0.0048226  0.0077944  0.4960513  )
        41           Sr  tau(  41) = (  0.2545482  0.2517602  0.3044833  )
        42           Sr  tau(  42) = (  0.2545482  0.2517602  0.4987103  )
        43           Co  tau(  43) = (  0.4989925  0.0073160  0.5980003  )
        44           Co  tau(  44) = (  0.4998370  0.0064714  0.4015968  )
        45           O   tau(  45) = (  0.5048017  0.0015068  0.3099459  )
        46           O   tau(  46) = (  0.5048017  0.0015068  0.4932477  )
        47           O   tau(  47) = (  0.2621260  0.0059111  0.5980003  )
        48           O   tau(  48) = (  0.2591051  0.0041689  0.4015968  )
        49           O   tau(  49) = (  0.0000000  0.2843291  0.8534850  )

     number of k points=    10  Gaussian smearing, width (Ry)=  0.0700
                       cart. coord. in units 2pi/alat
        k(    1) = (   0.0000000   0.0000000   0.0000000), wk =   0.1250000
        k(    2) = (   0.0000000   0.2500000   0.0000000), wk =   0.2500000
        k(    3) = (   0.0000000  -0.5000000   0.0000000), wk =   0.1250000
        k(    4) = (   0.2500000   0.2500000   0.0000000), wk =   0.2500000
        k(    5) = (   0.2500000  -0.5000000   0.0000000), wk =   0.2500000
        k(    6) = (  -0.5000000  -0.5000000   0.0000000), wk =   0.1250000
        k(    7) = (   0.2500000   0.0000000   0.0000000), wk =   0.2500000
        k(    8) = (  -0.5000000   0.0000000   0.0000000), wk =   0.1250000
        k(    9) = (  -0.2500000   0.2500000   0.0000000), wk =   0.2500000
        k(   10) = (  -0.5000000   0.2500000   0.0000000), wk =   0.2500000

                       cryst. coord.
        k(    1) = (   0.0000000   0.0000000   0.0000000), wk =   0.1250000
        k(    2) = (   0.0000000   0.2500000   0.0000000), wk =   0.2500000
        k(    3) = (   0.0000000  -0.5000000   0.0000000), wk =   0.1250000
        k(    4) = (   0.2500000   0.2500000   0.0000000), wk =   0.2500000
        k(    5) = (   0.2500000  -0.5000000   0.0000000), wk =   0.2500000
        k(    6) = (  -0.5000000  -0.5000000   0.0000000), wk =   0.1250000
        k(    7) = (   0.2500000   0.0000000   0.0000000), wk =   0.2500000
        k(    8) = (  -0.5000000   0.0000000   0.0000000), wk =   0.1250000
        k(    9) = (  -0.2500000   0.2500000   0.0000000), wk =   0.2500000
        k(   10) = (  -0.5000000   0.2500000   0.0000000), wk =   0.2500000

     Dense  grid:  1474595 G-vectors     FFT dimensions: ( 108, 108, 270)

     Smooth grid:   521381 G-vectors     FFT dimensions: (  75,  75, 192)

     Dynamical RAM for                 wfc:      10.69 MB

     Dynamical RAM for     wfc (w. buffer):      64.13 MB

     Dynamical RAM for           str. fact:       2.81 MB

     Dynamical RAM for           local pot:       0.00 MB

     Dynamical RAM for          nlocal pot:      24.53 MB

     Dynamical RAM for                qrad:       5.27 MB

     Dynamical RAM for          rho,v,vnew:       6.02 MB

     Dynamical RAM for               rhoin:       2.01 MB

     Dynamical RAM for            rho*nmix:      15.00 MB

     Dynamical RAM for           G-vectors:       3.68 MB

     Dynamical RAM for          h,s,v(r/c):       1.35 MB

     Dynamical RAM for          <psi|beta>:       2.33 MB

     Dynamical RAM for                 psi:      21.38 MB

     Dynamical RAM for                hpsi:      21.38 MB

     Dynamical RAM for                spsi:      21.38 MB

     Dynamical RAM for      wfcinit/wfcrot:      34.39 MB

     Dynamical RAM for           addusdens:     101.26 MB

     Estimated static dynamical RAM per process >     117.53 MB

     Estimated max dynamical RAM per process >     233.79 MB

     Estimated total dynamical RAM >      10.61 GB

     Check: negative core charge=   -0.000004

     Initial potential from superposition of free atoms

     starting charge     421.5961, renormalised to     430.0000

     negative rho (up, down):  7.826E-01 0.000E+00
     Starting wfcs are  376 randomized atomic wfcs
     Checking if some PAW data can be deallocated... 
       PAW data deallocated on   19 nodes for type:  2

     total cpu time spent up to now is        9.0 secs

     Self-consistent Calculation

     iteration #  1     ecut=    60.00 Ry     beta= 0.15
     Davidson diagonalization with overlap

---- Real-time Memory Report at c_bands before calling an iterative solver
             0 MiB given to the printing process from OS
             0 MiB allocation reported by mallinfo(arena+hblkhd)
         51479 MiB available memory on the node where the printing process lives
------------------
     ethr =  1.00E-02,  avg # of iterations =  2.0

     negative rho (up, down):  7.717E-01 0.000E+00

     total cpu time spent up to now is       23.9 secs

     total energy              =   -4445.22701035 Ry
     estimated scf accuracy    <      53.97150056 Ry

     iteration #  2     ecut=    60.00 Ry     beta= 0.15
     Davidson diagonalization with overlap

---- Real-time Memory Report at c_bands before calling an iterative solver
             0 MiB given to the printing process from OS
             0 MiB allocation reported by mallinfo(arena+hblkhd)
         51838 MiB available memory on the node where the printing process lives
------------------
     ethr =  1.00E-02,  avg # of iterations =  1.0

     negative rho (up, down):  7.591E-01 0.000E+00

     total cpu time spent up to now is       36.4 secs

     total energy              =   -4441.93641507 Ry
     estimated scf accuracy    <      28.34039438 Ry

     iteration #  3     ecut=    60.00 Ry     beta= 0.15
     Davidson diagonalization with overlap

---- Real-time Memory Report at c_bands before calling an iterative solver
             0 MiB given to the printing process from OS
             0 MiB allocation reported by mallinfo(arena+hblkhd)
         51075 MiB available memory on the node where the printing process lives
------------------
     ethr =  6.59E-03,  avg # of iterations =  1.0

     negative rho (up, down):  7.530E-01 0.000E+00

     total cpu time spent up to now is       49.0 secs

     total energy              =   -4442.60207665 Ry
     estimated scf accuracy    <      29.54204896 Ry

     iteration #  4     ecut=    60.00 Ry     beta= 0.15
     Davidson diagonalization with overlap

---- Real-time Memory Report at c_bands before calling an iterative solver
             0 MiB given to the printing process from OS
             0 MiB allocation reported by mallinfo(arena+hblkhd)
         51027 MiB available memory on the node where the printing process lives
------------------
     ethr =  6.59E-03,  avg # of iterations =  1.0

     negative rho (up, down):  7.537E-01 0.000E+00

     total cpu time spent up to now is       61.7 secs

     total energy              =   -4442.65198171 Ry
     estimated scf accuracy    <      27.60816107 Ry

     iteration #  5     ecut=    60.00 Ry     beta= 0.15
     Davidson diagonalization with overlap

---- Real-time Memory Report at c_bands before calling an iterative solver
             0 MiB given to the printing process from OS
             0 MiB allocation reported by mallinfo(arena+hblkhd)
         51014 MiB available memory on the node where the printing process lives
------------------
     ethr =  6.42E-03,  avg # of iterations =  1.0

     negative rho (up, down):  7.390E-01 0.000E+00

     total cpu time spent up to now is       74.1 secs

     total energy              =   -4441.95548545 Ry
     estimated scf accuracy    <      21.97491859 Ry

     iteration #  6     ecut=    60.00 Ry     beta= 0.15
     Davidson diagonalization with overlap

---- Real-time Memory Report at c_bands before calling an iterative solver
             0 MiB given to the printing process from OS
             0 MiB allocation reported by mallinfo(arena+hblkhd)
         50988 MiB available memory on the node where the printing process lives
------------------
     ethr =  5.11E-03,  avg # of iterations =  1.0

     negative rho (up, down):  7.435E-01 0.000E+00

     total cpu time spent up to now is       86.6 secs

     total energy              =   -4443.03236272 Ry
     estimated scf accuracy    <      57.84324256 Ry

     iteration #  7     ecut=    60.00 Ry     beta= 0.15
     Davidson diagonalization with overlap

---- Real-time Memory Report at c_bands before calling an iterative solver
             0 MiB given to the printing process from OS
             0 MiB allocation reported by mallinfo(arena+hblkhd)
         50972 MiB available memory on the node where the printing process lives
------------------
     ethr =  5.11E-03,  avg # of iterations =  1.0

     negative rho (up, down):  7.506E-01 0.000E+00

     total cpu time spent up to now is       99.5 secs

     total energy              =   -4439.02057251 Ry
     estimated scf accuracy    <      46.65609265 Ry

     iteration #  8     ecut=    60.00 Ry     beta= 0.15
     Davidson diagonalization with overlap

---- Real-time Memory Report at c_bands before calling an iterative solver
             0 MiB given to the printing process from OS
             0 MiB allocation reported by mallinfo(arena+hblkhd)
         50958 MiB available memory on the node where the printing process lives
------------------
     ethr =  5.11E-03,  avg # of iterations =  1.0

     negative rho (up, down):  7.465E-01 0.000E+00

     total cpu time spent up to now is      112.4 secs

     total energy              =   -4440.94522910 Ry
     estimated scf accuracy    <       9.62938982 Ry

     iteration #  9     ecut=    60.00 Ry     beta= 0.15
     Davidson diagonalization with overlap

---- Real-time Memory Report at c_bands before calling an iterative solver
             0 MiB given to the printing process from OS
             0 MiB allocation reported by mallinfo(arena+hblkhd)
         50938 MiB available memory on the node where the printing process lives
------------------
     ethr =  2.24E-03,  avg # of iterations =  1.1

     negative rho (up, down):  7.539E-01 0.000E+00

     total cpu time spent up to now is      125.5 secs

     total energy              =   -4441.20409274 Ry
     estimated scf accuracy    <       5.95169605 Ry

     iteration # 10     ecut=    60.00 Ry     beta= 0.15
     Davidson diagonalization with overlap

---- Real-time Memory Report at c_bands before calling an iterative solver
             0 MiB given to the printing process from OS
             0 MiB allocation reported by mallinfo(arena+hblkhd)
         50918 MiB available memory on the node where the printing process lives
------------------
     ethr =  1.38E-03,  avg # of iterations =  2.0

     negative rho (up, down):  7.725E-01 0.000E+00

     total cpu time spent up to now is      140.1 secs

     total energy              =   -4440.04102645 Ry
     estimated scf accuracy    <      16.60595779 Ry

     iteration # 11     ecut=    60.00 Ry     beta= 0.15
     Davidson diagonalization with overlap

---- Real-time Memory Report at c_bands before calling an iterative solver
             0 MiB given to the printing process from OS
             0 MiB allocation reported by mallinfo(arena+hblkhd)
         50910 MiB available memory on the node where the printing process lives
------------------
     ethr =  1.38E-03,  avg # of iterations =  6.6

     negative rho (up, down):  7.729E-01 0.000E+00

     total cpu time spent up to now is      156.6 secs

     total energy              =   -4440.03777706 Ry
     estimated scf accuracy    <      16.92321977 Ry

     iteration # 12     ecut=    60.00 Ry     beta= 0.15
     Davidson diagonalization with overlap

---- Real-time Memory Report at c_bands before calling an iterative solver
             0 MiB given to the printing process from OS
             0 MiB allocation reported by mallinfo(arena+hblkhd)
         50741 MiB available memory on the node where the printing process lives
------------------
     ethr =  1.38E-03,  avg # of iterations =  2.0

     negative rho (up, down):  7.790E-01 0.000E+00

     total cpu time spent up to now is      171.0 secs

     total energy              =   -4440.56580544 Ry
     estimated scf accuracy    <       2.18943895 Ry

     iteration # 13     ecut=    60.00 Ry     beta= 0.15
     Davidson diagonalization with overlap

---- Real-time Memory Report at c_bands before calling an iterative solver
             0 MiB given to the printing process from OS
             0 MiB allocation reported by mallinfo(arena+hblkhd)
         50747 MiB available memory on the node where the printing process lives
------------------
     ethr =  5.09E-04,  avg # of iterations = 11.8

     negative rho (up, down):  7.876E-01 0.000E+00

     total cpu time spent up to now is      189.7 secs

     total energy              =   -4440.39650549 Ry
     estimated scf accuracy    <       2.09509714 Ry

     iteration # 14     ecut=    60.00 Ry     beta= 0.15
     Davidson diagonalization with overlap

---- Real-time Memory Report at c_bands before calling an iterative solver
             0 MiB given to the printing process from OS
             0 MiB allocation reported by mallinfo(arena+hblkhd)
         50497 MiB available memory on the node where the printing process lives
------------------
     ethr =  4.87E-04,  avg # of iterations =  2.0

     negative rho (up, down):  8.029E-01 0.000E+00

     total cpu time spent up to now is      203.8 secs

     total energy              =   -4440.47100753 Ry
     estimated scf accuracy    <       3.78513673 Ry

     iteration # 15     ecut=    60.00 Ry     beta= 0.15
     Davidson diagonalization with overlap

---- Real-time Memory Report at c_bands before calling an iterative solver
             0 MiB given to the printing process from OS
             0 MiB allocation reported by mallinfo(arena+hblkhd)
         50507 MiB available memory on the node where the printing process lives
------------------
     ethr =  4.87E-04,  avg # of iterations =  1.0

     negative rho (up, down):  8.200E-01 0.000E+00

     total cpu time spent up to now is      216.3 secs

     total energy              =   -4440.39886958 Ry
     estimated scf accuracy    <       1.55924636 Ry

     iteration # 16     ecut=    60.00 Ry     beta= 0.15
     Davidson diagonalization with overlap

---- Real-time Memory Report at c_bands before calling an iterative solver
             0 MiB given to the printing process from OS
             0 MiB allocation reported by mallinfo(arena+hblkhd)
         50513 MiB available memory on the node where the printing process lives
------------------
     ethr =  3.63E-04,  avg # of iterations =  2.4

     negative rho (up, down):  8.252E-01 0.000E+00

     total cpu time spent up to now is      230.2 secs

     total energy              =   -4440.40516911 Ry
     estimated scf accuracy    <       1.40014547 Ry

     iteration # 17     ecut=    60.00 Ry     beta= 0.15
     Davidson diagonalization with overlap

---- Real-time Memory Report at c_bands before calling an iterative solver
             0 MiB given to the printing process from OS
             0 MiB allocation reported by mallinfo(arena+hblkhd)
         50519 MiB available memory on the node where the printing process lives
------------------
     ethr =  3.26E-04,  avg # of iterations =  6.1

     negative rho (up, down):  8.235E-01 0.000E+00

     total cpu time spent up to now is      245.6 secs

     total energy              =   -4440.32363727 Ry
     estimated scf accuracy    <       1.03574928 Ry

     iteration # 18     ecut=    60.00 Ry     beta= 0.15
     Davidson diagonalization with overlap

---- Real-time Memory Report at c_bands before calling an iterative solver
             0 MiB given to the printing process from OS
             0 MiB allocation reported by mallinfo(arena+hblkhd)
         50525 MiB available memory on the node where the printing process lives
------------------
     ethr =  2.41E-04,  avg # of iterations =  7.5

     negative rho (up, down):  8.286E-01 0.000E+00

     total cpu time spent up to now is      262.1 secs

     total energy              =   -4440.34754047 Ry
     estimated scf accuracy    <       0.21146642 Ry

     iteration # 19     ecut=    60.00 Ry     beta= 0.15
     Davidson diagonalization with overlap

---- Real-time Memory Report at c_bands before calling an iterative solver
             0 MiB given to the printing process from OS
             0 MiB allocation reported by mallinfo(arena+hblkhd)
         50502 MiB available memory on the node where the printing process lives
------------------
     c_bands:  1 eigenvalues not converged
     ethr =  4.92E-05,  avg # of iterations = 15.4

     negative rho (up, down):  8.184E-01 0.000E+00

     total cpu time spent up to now is      282.0 secs

     total energy              =   -4440.32785701 Ry
     estimated scf accuracy    <       0.19840499 Ry

     iteration # 20     ecut=    60.00 Ry     beta= 0.15
     Davidson diagonalization with overlap

---- Real-time Memory Report at c_bands before calling an iterative solver
             0 MiB given to the printing process from OS
             0 MiB allocation reported by mallinfo(arena+hblkhd)
         50414 MiB available memory on the node where the printing process lives
------------------
     ethr =  4.61E-05,  avg # of iterations =  3.0

     negative rho (up, down):  8.100E-01 0.000E+00

     total cpu time spent up to now is      296.4 secs

     total energy              =   -4440.31506131 Ry
     estimated scf accuracy    <       0.25668433 Ry

     iteration # 21     ecut=    60.00 Ry     beta= 0.15
     Davidson diagonalization with overlap

---- Real-time Memory Report at c_bands before calling an iterative solver
             0 MiB given to the printing process from OS
             0 MiB allocation reported by mallinfo(arena+hblkhd)
         50406 MiB available memory on the node where the printing process lives
------------------
     ethr =  4.61E-05,  avg # of iterations =  5.3

     negative rho (up, down):  8.331E-01 0.000E+00

     total cpu time spent up to now is      312.4 secs

     total energy              =   -4440.31319160 Ry
     estimated scf accuracy    <       0.06258913 Ry

     iteration # 22     ecut=    60.00 Ry     beta= 0.15
     Davidson diagonalization with overlap

---- Real-time Memory Report at c_bands before calling an iterative solver
             0 MiB given to the printing process from OS
             0 MiB allocation reported by mallinfo(arena+hblkhd)
         50393 MiB available memory on the node where the printing process lives
------------------
     ethr =  1.46E-05,  avg # of iterations = 10.6

     negative rho (up, down):  8.250E-01 0.000E+00

     total cpu time spent up to now is      331.0 secs

     total energy              =   -4440.30928694 Ry
     estimated scf accuracy    <       0.05985461 Ry

     iteration # 23     ecut=    60.00 Ry     beta= 0.15
     Davidson diagonalization with overlap

---- Real-time Memory Report at c_bands before calling an iterative solver
             0 MiB given to the printing process from OS
             0 MiB allocation reported by mallinfo(arena+hblkhd)
         50373 MiB available memory on the node where the printing process lives
------------------
     ethr =  1.39E-05,  avg # of iterations =  5.4

     negative rho (up, down):  8.088E-01 0.000E+00

     total cpu time spent up to now is      346.5 secs

     total energy              =   -4440.30970649 Ry
     estimated scf accuracy    <       0.03105986 Ry

     iteration # 24     ecut=    60.00 Ry     beta= 0.15
     Davidson diagonalization with overlap

---- Real-time Memory Report at c_bands before calling an iterative solver
             0 MiB given to the printing process from OS
             0 MiB allocation reported by mallinfo(arena+hblkhd)
         50408 MiB available memory on the node where the printing process lives
------------------
     ethr =  7.22E-06,  avg # of iterations =  1.9

     negative rho (up, down):  7.961E-01 0.000E+00

     total cpu time spent up to now is      360.3 secs

     total energy              =   -4440.30691026 Ry
     estimated scf accuracy    <       0.02100389 Ry

     iteration # 25     ecut=    60.00 Ry     beta= 0.15
     Davidson diagonalization with overlap

---- Real-time Memory Report at c_bands before calling an iterative solver
             0 MiB given to the printing process from OS
             0 MiB allocation reported by mallinfo(arena+hblkhd)
         50379 MiB available memory on the node where the printing process lives
------------------
     ethr =  4.88E-06,  avg # of iterations =  5.3

     negative rho (up, down):  7.908E-01 0.000E+00

     total cpu time spent up to now is      376.4 secs

     total energy              =   -4440.30573205 Ry
     estimated scf accuracy    <       0.02087407 Ry

     iteration # 26     ecut=    60.00 Ry     beta= 0.15
     Davidson diagonalization with overlap

---- Real-time Memory Report at c_bands before calling an iterative solver
             0 MiB given to the printing process from OS
             0 MiB allocation reported by mallinfo(arena+hblkhd)
         50377 MiB available memory on the node where the printing process lives
------------------
     ethr =  4.85E-06,  avg # of iterations =  7.3

     negative rho (up, down):  7.978E-01 0.000E+00

     total cpu time spent up to now is      392.9 secs

     total energy              =   -4440.30401870 Ry
     estimated scf accuracy    <       0.00749742 Ry

     iteration # 27     ecut=    60.00 Ry     beta= 0.15
     Davidson diagonalization with overlap

---- Real-time Memory Report at c_bands before calling an iterative solver
             0 MiB given to the printing process from OS
             0 MiB allocation reported by mallinfo(arena+hblkhd)
         50378 MiB available memory on the node where the printing process lives
------------------
     ethr =  1.74E-06,  avg # of iterations = 10.9

     negative rho (up, down):  7.985E-01 0.000E+00

     total cpu time spent up to now is      412.0 secs

     total energy              =   -4440.30455946 Ry
     estimated scf accuracy    <       0.00204311 Ry

     iteration # 28     ecut=    60.00 Ry     beta= 0.15
     Davidson diagonalization with overlap

---- Real-time Memory Report at c_bands before calling an iterative solver
             0 MiB given to the printing process from OS
             0 MiB allocation reported by mallinfo(arena+hblkhd)
         50285 MiB available memory on the node where the printing process lives
------------------
     ethr =  4.75E-07,  avg # of iterations =  2.8

     negative rho (up, down):  7.972E-01 0.000E+00

     total cpu time spent up to now is      426.3 secs

     total energy              =   -4440.30456146 Ry
     estimated scf accuracy    <       0.00111677 Ry

     iteration # 29     ecut=    60.00 Ry     beta= 0.15
     Davidson diagonalization with overlap

---- Real-time Memory Report at c_bands before calling an iterative solver
             0 MiB given to the printing process from OS
             0 MiB allocation reported by mallinfo(arena+hblkhd)
         50303 MiB available memory on the node where the printing process lives
------------------
     ethr =  2.60E-07,  avg # of iterations =  8.2

     negative rho (up, down):  7.971E-01 0.000E+00

     total cpu time spent up to now is      442.9 secs

     total energy              =   -4440.30460688 Ry
     estimated scf accuracy    <       0.00057307 Ry

     iteration # 30     ecut=    60.00 Ry     beta= 0.15
     Davidson diagonalization with overlap

---- Real-time Memory Report at c_bands before calling an iterative solver
             0 MiB given to the printing process from OS
             0 MiB allocation reported by mallinfo(arena+hblkhd)
         50348 MiB available memory on the node where the printing process lives
------------------
     ethr =  1.33E-07,  avg # of iterations =  5.1

     negative rho (up, down):  7.972E-01 0.000E+00

     total cpu time spent up to now is      458.5 secs

     total energy              =   -4440.30464460 Ry
     estimated scf accuracy    <       0.00023561 Ry

     iteration # 31     ecut=    60.00 Ry     beta= 0.15
     Davidson diagonalization with overlap

---- Real-time Memory Report at c_bands before calling an iterative solver
             0 MiB given to the printing process from OS
             0 MiB allocation reported by mallinfo(arena+hblkhd)
         50439 MiB available memory on the node where the printing process lives
------------------
     ethr =  5.48E-08,  avg # of iterations =  2.9

     negative rho (up, down):  7.964E-01 0.000E+00

     total cpu time spent up to now is      472.9 secs

     total energy              =   -4440.30463304 Ry
     estimated scf accuracy    <       0.00017223 Ry

     iteration # 32     ecut=    60.00 Ry     beta= 0.15
     Davidson diagonalization with overlap

---- Real-time Memory Report at c_bands before calling an iterative solver
             0 MiB given to the printing process from OS
             0 MiB allocation reported by mallinfo(arena+hblkhd)
         50394 MiB available memory on the node where the printing process lives
------------------
     ethr =  4.01E-08,  avg # of iterations =  2.0

     negative rho (up, down):  7.934E-01 0.000E+00

     total cpu time spent up to now is      487.0 secs

     total energy              =   -4440.30459647 Ry
     estimated scf accuracy    <       0.00010264 Ry

     iteration # 33     ecut=    60.00 Ry     beta= 0.15
     Davidson diagonalization with overlap

---- Real-time Memory Report at c_bands before calling an iterative solver
             0 MiB given to the printing process from OS
             0 MiB allocation reported by mallinfo(arena+hblkhd)
         50417 MiB available memory on the node where the printing process lives
------------------
     c_bands:  1 eigenvalues not converged
     ethr =  2.39E-08,  avg # of iterations =  7.0

     negative rho (up, down):  7.931E-01 0.000E+00

     total cpu time spent up to now is      503.6 secs

     total energy              =   -4440.30459928 Ry
     estimated scf accuracy    <       0.00004396 Ry

     iteration # 34     ecut=    60.00 Ry     beta= 0.15
     Davidson diagonalization with overlap

---- Real-time Memory Report at c_bands before calling an iterative solver
             0 MiB given to the printing process from OS
             0 MiB allocation reported by mallinfo(arena+hblkhd)
         50423 MiB available memory on the node where the printing process lives
------------------
     ethr =  1.02E-08,  avg # of iterations =  2.3

     negative rho (up, down):  7.923E-01 0.000E+00

     total cpu time spent up to now is      518.0 secs

     total energy              =   -4440.30459699 Ry
     estimated scf accuracy    <       0.00002143 Ry

     iteration # 35     ecut=    60.00 Ry     beta= 0.15
     Davidson diagonalization with overlap

---- Real-time Memory Report at c_bands before calling an iterative solver
             0 MiB given to the printing process from OS
             0 MiB allocation reported by mallinfo(arena+hblkhd)
         50408 MiB available memory on the node where the printing process lives
------------------
     ethr =  4.98E-09,  avg # of iterations =  2.9

     negative rho (up, down):  7.923E-01 0.000E+00

     total cpu time spent up to now is      532.4 secs

     total energy              =   -4440.30459698 Ry
     estimated scf accuracy    <       0.00001652 Ry

     iteration # 36     ecut=    60.00 Ry     beta= 0.15
     Davidson diagonalization with overlap

---- Real-time Memory Report at c_bands before calling an iterative solver
             0 MiB given to the printing process from OS
             0 MiB allocation reported by mallinfo(arena+hblkhd)
         50405 MiB available memory on the node where the printing process lives
------------------
     ethr =  3.84E-09,  avg # of iterations =  2.0

     negative rho (up, down):  7.923E-01 0.000E+00

     total cpu time spent up to now is      546.5 secs

     total energy              =   -4440.30460368 Ry
     estimated scf accuracy    <       0.00001024 Ry

     iteration # 37     ecut=    60.00 Ry     beta= 0.15
     Davidson diagonalization with overlap

---- Real-time Memory Report at c_bands before calling an iterative solver
             0 MiB given to the printing process from OS
             0 MiB allocation reported by mallinfo(arena+hblkhd)
         50406 MiB available memory on the node where the printing process lives
------------------
     ethr =  2.38E-09,  avg # of iterations =  2.1

     negative rho (up, down):  7.924E-01 0.000E+00

     total cpu time spent up to now is      560.7 secs

     total energy              =   -4440.30460658 Ry
     estimated scf accuracy    <       0.00000728 Ry

     iteration # 38     ecut=    60.00 Ry     beta= 0.15
     Davidson diagonalization with overlap

---- Real-time Memory Report at c_bands before calling an iterative solver
             0 MiB given to the printing process from OS
             0 MiB allocation reported by mallinfo(arena+hblkhd)
         50406 MiB available memory on the node where the printing process lives
------------------
     ethr =  1.69E-09,  avg # of iterations =  3.3

     negative rho (up, down):  7.925E-01 0.000E+00

     total cpu time spent up to now is      575.2 secs

     total energy              =   -4440.30460646 Ry
     estimated scf accuracy    <       0.00000360 Ry

     iteration # 39     ecut=    60.00 Ry     beta= 0.15
     Davidson diagonalization with overlap

---- Real-time Memory Report at c_bands before calling an iterative solver
             0 MiB given to the printing process from OS
             0 MiB allocation reported by mallinfo(arena+hblkhd)
         50402 MiB available memory on the node where the printing process lives
------------------
     ethr =  8.36E-10,  avg # of iterations =  2.0

     negative rho (up, down):  7.927E-01 0.000E+00

     total cpu time spent up to now is      589.2 secs

     total energy              =   -4440.30460630 Ry
     estimated scf accuracy    <       0.00000249 Ry

     iteration # 40     ecut=    60.00 Ry     beta= 0.15
     Davidson diagonalization with overlap

---- Real-time Memory Report at c_bands before calling an iterative solver
             0 MiB given to the printing process from OS
             0 MiB allocation reported by mallinfo(arena+hblkhd)
         50421 MiB available memory on the node where the printing process lives
------------------
     ethr =  5.79E-10,  avg # of iterations =  2.0

     negative rho (up, down):  7.927E-01 0.000E+00

     total cpu time spent up to now is      603.3 secs

     total energy              =   -4440.30460654 Ry
     estimated scf accuracy    <       0.00000162 Ry

     iteration # 41     ecut=    60.00 Ry     beta= 0.15
     Davidson diagonalization with overlap

---- Real-time Memory Report at c_bands before calling an iterative solver
             0 MiB given to the printing process from OS
             0 MiB allocation reported by mallinfo(arena+hblkhd)
         50426 MiB available memory on the node where the printing process lives
------------------
     ethr =  3.76E-10,  avg # of iterations =  2.0

     negative rho (up, down):  7.928E-01 0.000E+00

     total cpu time spent up to now is      617.9 secs

     total energy              =   -4440.30460678 Ry
     estimated scf accuracy    <       0.00000109 Ry

     iteration # 42     ecut=    60.00 Ry     beta= 0.15
     Davidson diagonalization with overlap

---- Real-time Memory Report at c_bands before calling an iterative solver
             0 MiB given to the printing process from OS
             0 MiB allocation reported by mallinfo(arena+hblkhd)
         50426 MiB available memory on the node where the printing process lives
------------------
     ethr =  2.54E-10,  avg # of iterations =  2.3

     negative rho (up, down):  7.927E-01 0.000E+00

     total cpu time spent up to now is      632.5 secs

     total energy              =   -4440.30460675 Ry
     estimated scf accuracy    <       0.00000047 Ry

     iteration # 43     ecut=    60.00 Ry     beta= 0.15
     Davidson diagonalization with overlap

---- Real-time Memory Report at c_bands before calling an iterative solver
             0 MiB given to the printing process from OS
             0 MiB allocation reported by mallinfo(arena+hblkhd)
         50427 MiB available memory on the node where the printing process lives
------------------
     ethr =  1.09E-10,  avg # of iterations =  2.1

     negative rho (up, down):  7.927E-01 0.000E+00

     total cpu time spent up to now is      647.1 secs

     total energy              =   -4440.30460668 Ry
     estimated scf accuracy    <       0.00000027 Ry

     iteration # 44     ecut=    60.00 Ry     beta= 0.15
     Davidson diagonalization with overlap

---- Real-time Memory Report at c_bands before calling an iterative solver
             0 MiB given to the printing process from OS
             0 MiB allocation reported by mallinfo(arena+hblkhd)
         50426 MiB available memory on the node where the printing process lives
------------------
     ethr =  6.35E-11,  avg # of iterations =  2.5

     negative rho (up, down):  7.927E-01 0.000E+00

     total cpu time spent up to now is      661.4 secs

     total energy              =   -4440.30460664 Ry
     estimated scf accuracy    <       0.00000015 Ry

     iteration # 45     ecut=    60.00 Ry     beta= 0.15
     Davidson diagonalization with overlap

---- Real-time Memory Report at c_bands before calling an iterative solver
             0 MiB given to the printing process from OS
             0 MiB allocation reported by mallinfo(arena+hblkhd)
         50427 MiB available memory on the node where the printing process lives
------------------
     ethr =  3.46E-11,  avg # of iterations =  2.0

     negative rho (up, down):  7.926E-01 0.000E+00

     total cpu time spent up to now is      675.7 secs

     total energy              =   -4440.30460668 Ry
     estimated scf accuracy    <       0.00000007 Ry

     iteration # 46     ecut=    60.00 Ry     beta= 0.15
     Davidson diagonalization with overlap

---- Real-time Memory Report at c_bands before calling an iterative solver
             0 MiB given to the printing process from OS
             0 MiB allocation reported by mallinfo(arena+hblkhd)
         50434 MiB available memory on the node where the printing process lives
------------------
     ethr =  1.58E-11,  avg # of iterations =  1.8

     negative rho (up, down):  7.926E-01 0.000E+00

     total cpu time spent up to now is      689.8 secs

     total energy              =   -4440.30460670 Ry
     estimated scf accuracy    <       0.00000005 Ry

     iteration # 47     ecut=    60.00 Ry     beta= 0.15
     Davidson diagonalization with overlap

---- Real-time Memory Report at c_bands before calling an iterative solver
             0 MiB given to the printing process from OS
             0 MiB allocation reported by mallinfo(arena+hblkhd)
         50428 MiB available memory on the node where the printing process lives
------------------
     ethr =  1.17E-11,  avg # of iterations =  2.0

     negative rho (up, down):  7.926E-01 0.000E+00

     total cpu time spent up to now is      703.9 secs

     total energy              =   -4440.30460674 Ry
     estimated scf accuracy    <       0.00000003 Ry

     iteration # 48     ecut=    60.00 Ry     beta= 0.15
     Davidson diagonalization with overlap

---- Real-time Memory Report at c_bands before calling an iterative solver
             0 MiB given to the printing process from OS
             0 MiB allocation reported by mallinfo(arena+hblkhd)
         50431 MiB available memory on the node where the printing process lives
------------------
     ethr =  6.79E-12,  avg # of iterations =  2.5

     negative rho (up, down):  7.926E-01 0.000E+00

     total cpu time spent up to now is      718.1 secs

     total energy              =   -4440.30460675 Ry
     estimated scf accuracy    <       0.00000001 Ry

     iteration # 49     ecut=    60.00 Ry     beta= 0.15
     Davidson diagonalization with overlap

---- Real-time Memory Report at c_bands before calling an iterative solver
             0 MiB given to the printing process from OS
             0 MiB allocation reported by mallinfo(arena+hblkhd)
         50432 MiB available memory on the node where the printing process lives
------------------
     ethr =  2.72E-12,  avg # of iterations =  2.1

     negative rho (up, down):  7.926E-01 0.000E+00

     total cpu time spent up to now is      732.3 secs

     End of self-consistent calculation

          k = 0.0000 0.0000 0.0000 ( 65197 PWs)   bands (ev):

   -92.8859 -92.8362 -92.7407 -92.6937 -92.6354 -92.5926 -92.5753 -92.4559
   -56.2395 -56.2223 -56.0973 -56.0864 -56.0808 -56.0733 -56.0395 -56.0094
   -55.9942 -55.9924 -55.9865 -55.9423 -55.9243 -55.8862 -55.8677 -55.8357
   -55.8292 -55.7820 -55.7805 -55.7774 -55.7691 -55.7307 -55.7053 -55.6208
   -31.4498 -31.4299 -31.2875 -31.2754 -31.2005 -31.0804 -30.9780 -30.7641
   -30.0311 -29.9879 -29.9611 -29.8526 -15.2622 -15.2134 -15.1358 -15.0062
   -14.8047 -14.6851 -14.3983 -14.3771 -14.3503 -14.3022 -14.2533 -14.2354
   -14.2321 -14.2133 -14.1995 -14.1523 -14.1127 -13.9577 -13.7689 -13.7458
   -13.7157 -13.6759 -13.6618 -13.6054 -13.5744 -13.4921 -13.4240 -13.2997
   -13.2824 -13.2771 -13.2481 -13.2448 -13.2282 -13.1738 -13.1642 -13.1487
   -13.1223 -13.0949 -13.0754 -13.0599 -13.0390 -12.9903 -12.9252 -12.9101
   -12.8755 -12.7320 -12.7196 -12.6922 -12.5156 -12.3693 -12.1591 -12.0855
   -12.0435 -11.9870 -11.9704 -11.9588 -11.9356 -11.9176 -11.8545 -11.8370
   -11.8029 -11.7735 -11.6604 -11.5819 -11.5784  -3.1228  -2.8916  -2.6621
    -2.5134  -2.4523  -2.3107  -2.0022  -1.9872  -1.9695  -1.8807  -1.8634
    -1.7948  -1.7786  -1.7389  -1.6939  -1.5127  -1.2850  -1.2557  -1.1132
    -1.0982  -1.0507  -1.0298  -0.9844  -0.9681  -0.9165  -0.8888  -0.8129
    -0.8016  -0.7293  -0.5941  -0.5811  -0.5529  -0.4734  -0.4464  -0.4007
    -0.3713  -0.3087  -0.2588  -0.2080  -0.1841  -0.1147  -0.0416  -0.0013
     0.0268   0.0391   0.2956   0.3113   0.4856   0.5461   0.6110   0.6705
     0.7499   0.7601   0.7793   0.8438   0.8709   0.9043   0.9611   1.0910
     1.1510   1.1731   1.2036   1.2123   1.2700   1.3375   1.4522   1.4718
     1.5284   1.5346   1.5813   1.6023   1.6120   1.6658   1.7315   1.7363
     1.7750   1.8073   1.8479   1.9806   2.0664   2.1056   2.1309   2.2722
     2.2887   2.3284   2.3317   2.4484   2.4755   2.5001   2.5225   2.5361
     2.5923   2.6109   2.6218   2.6552   2.7289   2.7615   2.7687   2.7749
     2.8425   2.8506   2.8707   2.8779   2.8872   2.9004   2.9080   2.9218
     2.9287   2.9410   2.9472   2.9547   2.9737   2.9949   3.0004   3.0119
     3.0362   3.1520   3.2536   3.9350   4.2500   4.6072   4.8259   4.8659
     5.7646   5.8116   5.8328   5.8811   6.1321   6.1779   6.4319   6.4416
     6.9396   6.9850   7.0773   7.1572   7.4680   7.5359   7.5452   7.5580
     7.5888   7.8546   7.8787   7.9796   8.0299   8.1411   8.2670   8.6831
     8.8276   8.9293

     occupation numbers 
     1.0000   1.0000   1.0000   1.0000   1.0000   1.0000   1.0000   1.0000
     1.0000   1.0000   1.0000   1.0000   1.0000   1.0000   1.0000   1.0000
     1.0000   1.0000   1.0000   1.0000   1.0000   1.0000   1.0000   1.0000
     1.0000   1.0000   1.0000   1.0000   1.0000   1.0000   1.0000   1.0000
     1.0000   1.0000   1.0000   1.0000   1.0000   1.0000   1.0000   1.0000
     1.0000   1.0000   1.0000   1.0000   1.0000   1.0000   1.0000   1.0000
     1.0000   1.0000   1.0000   1.0000   1.0000   1.0000   1.0000   1.0000
     1.0000   1.0000   1.0000   1.0000   1.0000   1.0000   1.0000   1.0000
     1.0000   1.0000   1.0000   1.0000   1.0000   1.0000   1.0000   1.0000
     1.0000   1.0000   1.0000   1.0000   1.0000   1.0000   1.0000   1.0000
     1.0000   1.0000   1.0000   1.0000   1.0000   1.0000   1.0000   1.0000
     1.0000   1.0000   1.0000   1.0000   1.0000   1.0000   1.0000   1.0000
     1.0000   1.0000   1.0000   1.0000   1.0000   1.0000   1.0000   1.0000
     1.0000   1.0000   1.0000   1.0000   1.0000   1.0000   1.0000   1.0000
     1.0000   1.0000   1.0000   1.0000   1.0000   1.0000   1.0000   1.0000
     1.0000   1.0000   1.0000   1.0000   1.0000   1.0000   1.0000   1.0000
     1.0000   1.0000   1.0000   1.0000   1.0000   1.0000   1.0000   1.0000
     1.0000   1.0000   1.0000   1.0000   1.0000   1.0000   1.0000   1.0000
     1.0000   1.0000   1.0000   1.0000   1.0000   1.0000   1.0000   1.0000
     1.0000   1.0000   1.0000   1.0000   1.0000   0.9999   0.9999   0.9999
     0.9998   0.9998   0.9998   0.9997   0.9996   0.9996   0.9994   0.9988
     0.9984   0.9983   0.9980   0.9979   0.9973   0.9963   0.9940   0.9935
     0.9917   0.9915   0.9898   0.9889   0.9885   0.9858   0.9819   0.9816
     0.9789   0.9763   0.9727   0.9578   0.9450   0.9382   0.9335   0.9019
     0.8976   0.8867   0.8858   0.8487   0.8391   0.8300   0.8215   0.8161
     0.7931   0.7851   0.7804   0.7654   0.7305   0.7143   0.7107   0.7075
     0.6721   0.6678   0.6568   0.6529   0.6478   0.6405   0.6363   0.6286
     0.6247   0.6177   0.6142   0.6099   0.5990   0.5868   0.5837   0.5770
     0.5628   0.4945   0.4346   0.1197   0.0501   0.0148   0.0062   0.0053
     0.0000   0.0000   0.0000   0.0000   0.0000   0.0000   0.0000   0.0000
     0.0000   0.0000   0.0000   0.0000   0.0000   0.0000   0.0000   0.0000
     0.0000   0.0000   0.0000   0.0000   0.0000   0.0000   0.0000   0.0000
     0.0000   0.0000

          k = 0.0000 0.2500 0.0000 ( 65257 PWs)   bands (ev):

   -92.8859 -92.8362 -92.7407 -92.6937 -92.6354 -92.5926 -92.5753 -92.4559
   -56.2395 -56.2223 -56.0973 -56.0864 -56.0808 -56.0733 -56.0395 -56.0094
   -55.9942 -55.9924 -55.9865 -55.9423 -55.9243 -55.8862 -55.8677 -55.8357
   -55.8292 -55.7820 -55.7805 -55.7774 -55.7691 -55.7307 -55.7053 -55.6208
   -31.4496 -31.4298 -31.2877 -31.2753 -31.2006 -31.0803 -30.9782 -30.7642
   -30.0304 -29.9875 -29.9617 -29.8529 -15.2259 -15.1867 -15.1107 -14.9768
   -14.8493 -14.6744 -14.5434 -14.3642 -14.3261 -14.3073 -14.2771 -14.2203
   -14.2109 -14.1953 -14.1758 -14.1200 -14.0299 -13.9891 -13.8245 -13.7958
   -13.7569 -13.7181 -13.6598 -13.6291 -13.5752 -13.5179 -13.4782 -13.4035
   -13.3310 -13.3187 -13.2817 -13.2700 -13.2290 -13.1572 -13.1304 -13.1057
   -13.0775 -13.0546 -13.0383 -13.0370 -13.0016 -12.9706 -12.8969 -12.8202
   -12.7691 -12.7131 -12.6790 -12.6376 -12.5768 -12.4204 -12.2119 -12.1471
   -12.0090 -11.9871 -11.9672 -11.9383 -11.9101 -11.8937 -11.8464 -11.8350
   -11.8123 -11.7790 -11.6746 -11.6234 -11.6131  -2.9873  -2.7673  -2.6291
    -2.4469  -2.4034  -2.2407  -2.0179  -1.9373  -1.9242  -1.8608  -1.7624
    -1.7463  -1.7121  -1.6846  -1.6404  -1.4438  -1.3143  -1.3031  -1.2249
    -1.2162  -1.1134  -1.0836  -1.0229  -0.9969  -0.9595  -0.8937  -0.8664
    -0.8350  -0.8036  -0.7860  -0.7545  -0.6793  -0.6298  -0.5488  -0.4449
    -0.4140  -0.3737  -0.2704  -0.2313  -0.1638  -0.1208  -0.0541  -0.0391
    -0.0192   0.0391   0.3438   0.4304   0.4643   0.5521   0.5993   0.6279
     0.7308   0.7504   0.8465   0.8721   0.8960   1.0108   1.1101   1.1269
     1.1531   1.1770   1.1950   1.2537   1.2824   1.3104   1.3563   1.3957
     1.4279   1.5162   1.5538   1.5827   1.6365   1.6889   1.7310   1.7605
     1.7862   1.7960   1.8994   2.0155   2.0895   2.1131   2.1785   2.2255
     2.2673   2.2753   2.3376   2.3724   2.4629   2.4995   2.5167   2.5926
     2.5982   2.6473   2.6857   2.7072   2.7399   2.7627   2.7771   2.7853
     2.7913   2.8014   2.8315   2.8342   2.8514   2.8626   2.8670   2.8860
     2.8981   2.9049   2.9250   2.9357   2.9419   2.9763   2.9922   3.0527
     3.4217   3.4718   3.7023   4.1265   4.2470   4.5468   4.8836   4.9883
     5.5108   5.6496   5.8081   5.9102   5.9566   6.0268   6.0640   6.5457
     7.0258   7.0986   7.2335   7.2525   7.3441   7.4048   7.5453   7.5738
     7.7128   7.8410   8.0658   8.1649   8.2758   8.2985   8.3548   8.3802
     8.7410   8.8186

     occupation numbers 
     1.0000   1.0000   1.0000   1.0000   1.0000   1.0000   1.0000   1.0000
     1.0000   1.0000   1.0000   1.0000   1.0000   1.0000   1.0000   1.0000
     1.0000   1.0000   1.0000   1.0000   1.0000   1.0000   1.0000   1.0000
     1.0000   1.0000   1.0000   1.0000   1.0000   1.0000   1.0000   1.0000
     1.0000   1.0000   1.0000   1.0000   1.0000   1.0000   1.0000   1.0000
     1.0000   1.0000   1.0000   1.0000   1.0000   1.0000   1.0000   1.0000
     1.0000   1.0000   1.0000   1.0000   1.0000   1.0000   1.0000   1.0000
     1.0000   1.0000   1.0000   1.0000   1.0000   1.0000   1.0000   1.0000
     1.0000   1.0000   1.0000   1.0000   1.0000   1.0000   1.0000   1.0000
     1.0000   1.0000   1.0000   1.0000   1.0000   1.0000   1.0000   1.0000
     1.0000   1.0000   1.0000   1.0000   1.0000   1.0000   1.0000   1.0000
     1.0000   1.0000   1.0000   1.0000   1.0000   1.0000   1.0000   1.0000
     1.0000   1.0000   1.0000   1.0000   1.0000   1.0000   1.0000   1.0000
     1.0000   1.0000   1.0000   1.0000   1.0000   1.0000   1.0000   1.0000
     1.0000   1.0000   1.0000   1.0000   1.0000   1.0000   1.0000   1.0000
     1.0000   1.0000   1.0000   1.0000   1.0000   1.0000   1.0000   1.0000
     1.0000   1.0000   1.0000   1.0000   1.0000   1.0000   1.0000   1.0000
     1.0000   1.0000   1.0000   1.0000   1.0000   1.0000   1.0000   1.0000
     1.0000   1.0000   1.0000   1.0000   1.0000   1.0000   1.0000   1.0000
     1.0000   1.0000   1.0000   1.0000   1.0000   0.9999   0.9999   0.9999
     0.9998   0.9998   0.9997   0.9996   0.9996   0.9992   0.9987   0.9986
     0.9984   0.9982   0.9981   0.9975   0.9971   0.9967   0.9960   0.9953
     0.9946   0.9921   0.9908   0.9897   0.9873   0.9846   0.9820   0.9799
     0.9780   0.9772   0.9676   0.9529   0.9411   0.9368   0.9239   0.9134
     0.9032   0.9011   0.8840   0.8737   0.8436   0.8302   0.8237   0.7930
     0.7906   0.7690   0.7513   0.7411   0.7251   0.7137   0.7064   0.7022
     0.6991   0.6939   0.6780   0.6766   0.6673   0.6612   0.6589   0.6485
     0.6418   0.6380   0.6267   0.6207   0.6172   0.5975   0.5884   0.5532
     0.3393   0.3125   0.2030   0.0720   0.0505   0.0185   0.0049   0.0031
     0.0002   0.0001   0.0000   0.0000   0.0000   0.0000   0.0000   0.0000
     0.0000   0.0000   0.0000   0.0000   0.0000   0.0000   0.0000   0.0000
     0.0000   0.0000   0.0000   0.0000   0.0000   0.0000   0.0000   0.0000
     0.0000   0.0000

          k = 0.0000-0.5000 0.0000 ( 65180 PWs)   bands (ev):

   -92.8859 -92.8362 -92.7407 -92.6937 -92.6354 -92.5926 -92.5753 -92.4559
   -56.2395 -56.2223 -56.0973 -56.0864 -56.0808 -56.0733 -56.0395 -56.0094
   -55.9942 -55.9924 -55.9865 -55.9423 -55.9243 -55.8862 -55.8677 -55.8357
   -55.8292 -55.7820 -55.7805 -55.7774 -55.7691 -55.7307 -55.7053 -55.6208
   -31.4494 -31.4297 -31.2879 -31.2752 -31.2007 -31.0802 -30.9783 -30.7643
   -30.0298 -29.9872 -29.9623 -29.8533 -15.1885 -15.1409 -15.0831 -14.9583
   -14.8726 -14.7403 -14.5710 -14.4620 -14.3373 -14.2594 -14.2206 -14.2139
   -14.1631 -14.1498 -14.0966 -14.0710 -14.0523 -14.0201 -13.9770 -13.9264
   -13.7631 -13.7036 -13.6600 -13.6353 -13.5657 -13.5357 -13.4722 -13.4542
   -13.4265 -13.3883 -13.2831 -13.2721 -13.2247 -13.1399 -13.1275 -13.1003
   -13.0817 -13.0553 -13.0356 -13.0006 -12.8916 -12.8791 -12.8255 -12.7864
   -12.7444 -12.7074 -12.6874 -12.5816 -12.4953 -12.4700 -12.2994 -12.2489
   -11.9871 -11.9642 -11.9607 -11.9330 -11.8959 -11.8614 -11.8503 -11.8090
   -11.8050 -11.7609 -11.6960 -11.6836 -11.6699  -2.7722  -2.7141  -2.5640
    -2.4928  -2.2074  -2.1256  -1.9980  -1.8635  -1.8178  -1.8052  -1.7267
    -1.6966  -1.6118  -1.5780  -1.4980  -1.4602  -1.4237  -1.3961  -1.3317
    -1.2988  -1.2521  -1.2160  -1.1827  -1.1511  -1.0394  -0.9961  -0.9574
    -0.9530  -0.8691  -0.8385  -0.8181  -0.7672  -0.6774  -0.6082  -0.5158
    -0.4715  -0.3846  -0.3485  -0.2110  -0.1493  -0.1405  -0.0798   0.0405
     0.0929   0.2099   0.2814   0.2906   0.4148   0.4797   0.5881   0.6955
     0.8025   0.8343   0.8753   0.8896   0.9238   0.9359   0.9689   0.9856
     0.9994   1.1076   1.1708   1.2090   1.2316   1.5035   1.5221   1.5438
     1.6410   1.6649   1.6932   1.7079   1.7307   1.7526   1.7640   1.7861
     1.8243   1.8581   1.8890   1.8922   1.9200   1.9721   2.0641   2.0956
     2.2679   2.4198   2.4288   2.4548   2.4813   2.4928   2.4998   2.5508
     2.5621   2.5876   2.5938   2.6179   2.6376   2.6523   2.7161   2.7468
     2.8025   2.8070   2.8300   2.8344   2.8477   2.8526   2.8626   2.8628
     2.8668   2.8801   2.8949   2.8976   2.9620   2.9648   2.9816   3.0368
     3.9528   3.9741   4.0045   4.0948   4.5661   4.7301   4.9017   5.0118
     5.2822   5.3603   5.4906   5.5948   5.8605   5.8729   6.2709   6.7445
     6.7865   6.8944   7.1359   7.3134   7.5620   7.6345   7.6519   7.7512
     7.7823   7.8589   8.0426   8.1757   8.2175   8.3418   8.5173   8.6855
     8.7262   8.7631

     occupation numbers 
     1.0000   1.0000   1.0000   1.0000   1.0000   1.0000   1.0000   1.0000
     1.0000   1.0000   1.0000   1.0000   1.0000   1.0000   1.0000   1.0000
     1.0000   1.0000   1.0000   1.0000   1.0000   1.0000   1.0000   1.0000
     1.0000   1.0000   1.0000   1.0000   1.0000   1.0000   1.0000   1.0000
     1.0000   1.0000   1.0000   1.0000   1.0000   1.0000   1.0000   1.0000
     1.0000   1.0000   1.0000   1.0000   1.0000   1.0000   1.0000   1.0000
     1.0000   1.0000   1.0000   1.0000   1.0000   1.0000   1.0000   1.0000
     1.0000   1.0000   1.0000   1.0000   1.0000   1.0000   1.0000   1.0000
     1.0000   1.0000   1.0000   1.0000   1.0000   1.0000   1.0000   1.0000
     1.0000   1.0000   1.0000   1.0000   1.0000   1.0000   1.0000   1.0000
     1.0000   1.0000   1.0000   1.0000   1.0000   1.0000   1.0000   1.0000
     1.0000   1.0000   1.0000   1.0000   1.0000   1.0000   1.0000   1.0000
     1.0000   1.0000   1.0000   1.0000   1.0000   1.0000   1.0000   1.0000
     1.0000   1.0000   1.0000   1.0000   1.0000   1.0000   1.0000   1.0000
     1.0000   1.0000   1.0000   1.0000   1.0000   1.0000   1.0000   1.0000
     1.0000   1.0000   1.0000   1.0000   1.0000   1.0000   1.0000   1.0000
     1.0000   1.0000   1.0000   1.0000   1.0000   1.0000   1.0000   1.0000
     1.0000   1.0000   1.0000   1.0000   1.0000   1.0000   1.0000   1.0000
     1.0000   1.0000   1.0000   1.0000   1.0000   1.0000   1.0000   1.0000
     1.0000   1.0000   1.0000   1.0000   1.0000   1.0000   0.9999   0.9999
     0.9997   0.9997   0.9996   0.9996   0.9995   0.9995   0.9994   0.9993
     0.9993   0.9987   0.9983   0.9980   0.9977   0.9925   0.9919   0.9912
     0.9871   0.9859   0.9843   0.9834   0.9820   0.9805   0.9797   0.9780
     0.9749   0.9718   0.9687   0.9683   0.9653   0.9589   0.9454   0.9400
     0.9030   0.8585   0.8555   0.8465   0.8370   0.8327   0.8301   0.8103
     0.8057   0.7951   0.7925   0.7821   0.7734   0.7668   0.7368   0.7217
     0.6933   0.6909   0.6788   0.6765   0.6693   0.6667   0.6612   0.6611
     0.6590   0.6517   0.6436   0.6420   0.6058   0.6041   0.5945   0.5625
     0.1145   0.1085   0.1003   0.0787   0.0173   0.0092   0.0045   0.0028
     0.0007   0.0005   0.0002   0.0001   0.0000   0.0000   0.0000   0.0000
     0.0000   0.0000   0.0000   0.0000   0.0000   0.0000   0.0000   0.0000
     0.0000   0.0000   0.0000   0.0000   0.0000   0.0000   0.0000   0.0000
     0.0000   0.0000

          k = 0.2500 0.2500 0.0000 ( 65198 PWs)   bands (ev):

   -92.8859 -92.8362 -92.7407 -92.6937 -92.6354 -92.5926 -92.5753 -92.4559
   -56.2395 -56.2223 -56.0973 -56.0864 -56.0808 -56.0733 -56.0395 -56.0094
   -55.9942 -55.9924 -55.9865 -55.9423 -55.9243 -55.8862 -55.8677 -55.8357
   -55.8292 -55.7820 -55.7805 -55.7774 -55.7691 -55.7307 -55.7053 -55.6208
   -31.4480 -31.4315 -31.2873 -31.2751 -31.2010 -31.0804 -30.9780 -30.7644
   -30.0295 -29.9885 -29.9613 -29.8534 -15.1968 -15.1521 -15.0824 -14.9667
   -14.8415 -14.7167 -14.6499 -14.4394 -14.2872 -14.2732 -14.2362 -14.2088
   -14.1840 -14.1510 -14.1226 -14.0819 -14.0194 -14.0023 -13.8402 -13.8263
   -13.7955 -13.7778 -13.7033 -13.6866 -13.6059 -13.6002 -13.4606 -13.4201
   -13.3983 -13.3152 -13.2744 -13.2298 -13.2038 -13.1897 -13.1444 -13.1185
   -13.0892 -13.0541 -13.0050 -12.9453 -12.9252 -12.9162 -12.8866 -12.8651
   -12.7957 -12.7078 -12.6308 -12.6251 -12.5059 -12.4494 -12.2411 -12.1961
   -11.9878 -11.9811 -11.9504 -11.9387 -11.9319 -11.8697 -11.8342 -11.8281
   -11.7927 -11.7845 -11.6915 -11.6517 -11.6344  -2.8489  -2.6415  -2.5231
    -2.4271  -2.3083  -2.2440  -2.0423  -1.9015  -1.8831  -1.8486  -1.7570
    -1.7228  -1.6287  -1.6000  -1.5501  -1.4204  -1.3711  -1.2964  -1.2539
    -1.2077  -1.1857  -1.1625  -1.1187  -1.1046  -1.0133  -0.9632  -0.8922
    -0.8457  -0.8168  -0.7691  -0.7532  -0.6895  -0.6404  -0.5735  -0.5459
    -0.4535  -0.4089  -0.3754  -0.3417  -0.2857  -0.2076  -0.1741  -0.1408
    -0.0670  -0.0263   0.2313   0.3832   0.4129   0.4760   0.5152   0.5894
     0.6309   0.6940   0.7291   1.0010   1.0619   1.1355   1.1584   1.2149
     1.2386   1.2758   1.3130   1.3293   1.3563   1.4055   1.4127   1.4294
     1.4775   1.5140   1.5512   1.6117   1.6514   1.6616   1.6960   1.7285
     1.7869   1.8128   1.9373   1.9983   2.0317   2.0530   2.1274   2.1889
     2.2153   2.2505   2.2777   2.2884   2.4044   2.4415   2.5278   2.5865
     2.5996   2.6520   2.6954   2.7128   2.7169   2.7345   2.7493   2.7631
     2.7746   2.7804   2.7926   2.8063   2.8207   2.8367   2.8454   2.8541
     2.8798   2.8883   2.8966   2.9286   3.2278   3.3211   3.3725   3.4409
     3.4598   3.6881   3.7717   4.1297   4.3391   4.5554   4.8044   5.1272
     5.4979   5.5611   5.6159   5.6580   5.7202   6.0889   6.1498   6.1693
     6.8358   7.0768   7.2482   7.3872   7.4511   7.4799   7.5898   7.7586
     7.8190   8.0518   8.1694   8.2017   8.3231   8.3502   8.4386   8.4812
     8.5309   8.7965

     occupation numbers 
     1.0000   1.0000   1.0000   1.0000   1.0000   1.0000   1.0000   1.0000
     1.0000   1.0000   1.0000   1.0000   1.0000   1.0000   1.0000   1.0000
     1.0000   1.0000   1.0000   1.0000   1.0000   1.0000   1.0000   1.0000
     1.0000   1.0000   1.0000   1.0000   1.0000   1.0000   1.0000   1.0000
     1.0000   1.0000   1.0000   1.0000   1.0000   1.0000   1.0000   1.0000
     1.0000   1.0000   1.0000   1.0000   1.0000   1.0000   1.0000   1.0000
     1.0000   1.0000   1.0000   1.0000   1.0000   1.0000   1.0000   1.0000
     1.0000   1.0000   1.0000   1.0000   1.0000   1.0000   1.0000   1.0000
     1.0000   1.0000   1.0000   1.0000   1.0000   1.0000   1.0000   1.0000
     1.0000   1.0000   1.0000   1.0000   1.0000   1.0000   1.0000   1.0000
     1.0000   1.0000   1.0000   1.0000   1.0000   1.0000   1.0000   1.0000
     1.0000   1.0000   1.0000   1.0000   1.0000   1.0000   1.0000   1.0000
     1.0000   1.0000   1.0000   1.0000   1.0000   1.0000   1.0000   1.0000
     1.0000   1.0000   1.0000   1.0000   1.0000   1.0000   1.0000   1.0000
     1.0000   1.0000   1.0000   1.0000   1.0000   1.0000   1.0000   1.0000
     1.0000   1.0000   1.0000   1.0000   1.0000   1.0000   1.0000   1.0000
     1.0000   1.0000   1.0000   1.0000   1.0000   1.0000   1.0000   1.0000
     1.0000   1.0000   1.0000   1.0000   1.0000   1.0000   1.0000   1.0000
     1.0000   1.0000   1.0000   1.0000   1.0000   1.0000   1.0000   1.0000
     1.0000   1.0000   1.0000   1.0000   1.0000   1.0000   1.0000   0.9999
     0.9999   0.9999   0.9998   0.9993   0.9990   0.9986   0.9984   0.9979
     0.9977   0.9972   0.9967   0.9965   0.9960   0.9951   0.9949   0.9945
     0.9933   0.9922   0.9909   0.9885   0.9866   0.9861   0.9842   0.9821
     0.9780   0.9758   0.9633   0.9554   0.9505   0.9472   0.9342   0.9216
     0.9157   0.9074   0.9005   0.8977   0.8635   0.8511   0.8194   0.7956
     0.7900   0.7669   0.7467   0.7384   0.7364   0.7278   0.7205   0.7135
     0.7076   0.7047   0.6984   0.6913   0.6837   0.6752   0.6706   0.6658
     0.6519   0.6472   0.6426   0.6247   0.4497   0.3955   0.3665   0.3290
     0.3189   0.2090   0.1751   0.0714   0.0378   0.0180   0.0068   0.0016
     0.0002   0.0002   0.0001   0.0001   0.0001   0.0000   0.0000   0.0000
     0.0000   0.0000   0.0000   0.0000   0.0000   0.0000   0.0000   0.0000
     0.0000   0.0000   0.0000   0.0000   0.0000   0.0000   0.0000   0.0000
     0.0000   0.0000

          k = 0.2500-0.5000 0.0000 ( 65138 PWs)   bands (ev):

   -92.8859 -92.8362 -92.7407 -92.6937 -92.6354 -92.5926 -92.5753 -92.4559
   -56.2395 -56.2223 -56.0973 -56.0864 -56.0808 -56.0733 -56.0395 -56.0094
   -55.9942 -55.9924 -55.9865 -55.9423 -55.9243 -55.8862 -55.8677 -55.8357
   -55.8292 -55.7820 -55.7805 -55.7774 -55.7691 -55.7307 -55.7053 -55.6208
   -31.4478 -31.4313 -31.2875 -31.2750 -31.2011 -31.0804 -30.9781 -30.7645
   -30.0289 -29.9882 -29.9619 -29.8537 -15.1575 -15.1140 -15.0401 -14.9304
   -14.8942 -14.7803 -14.6780 -14.5577 -14.2524 -14.1957 -14.1730 -14.1471
   -14.1337 -14.1210 -14.0801 -14.0582 -14.0350 -13.9967 -13.9704 -13.9168
   -13.8438 -13.7955 -13.7194 -13.7136 -13.6433 -13.6146 -13.5146 -13.4717
   -13.3796 -13.3140 -13.2958 -13.2140 -13.1910 -13.1610 -13.1454 -13.1157
   -13.0844 -13.0375 -13.0270 -12.9808 -12.9019 -12.8363 -12.8290 -12.8080
   -12.7974 -12.7103 -12.6938 -12.5303 -12.4927 -12.4149 -12.2945 -12.2612
   -11.9875 -11.9574 -11.9451 -11.9341 -11.9067 -11.8759 -11.8465 -11.8065
   -11.7783 -11.7569 -11.7095 -11.6847 -11.6742  -2.6297  -2.5655  -2.4376
    -2.3613  -2.2279  -2.1451  -2.0223  -1.8739  -1.8154  -1.7961  -1.7351
    -1.7221  -1.6225  -1.5579  -1.4736  -1.4204  -1.4117  -1.3504  -1.3040
    -1.2731  -1.2244  -1.1874  -1.1528  -1.1141  -1.0987  -1.0566  -1.0269
    -0.9829  -0.9528  -0.8857  -0.7798  -0.7431  -0.6630  -0.5973  -0.5410
    -0.5036  -0.4882  -0.4238  -0.2707  -0.2630  -0.1394  -0.1230  -0.1125
    -0.0667  -0.0330   0.0026   0.0305   0.0949   0.3829   0.4764   0.5524
     0.6019   0.8672   0.8825   0.9717   0.9998   1.1597   1.1988   1.2352
     1.2571   1.2699   1.2921   1.3584   1.4100   1.4417   1.5208   1.6165
     1.6524   1.6711   1.6808   1.7157   1.7293   1.7359   1.7817   1.7919
     1.8104   1.8542   1.8621   1.8810   1.9179   1.9725   2.0173   2.0977
     2.2306   2.3723   2.3907   2.4095   2.4391   2.4590   2.4861   2.5079
     2.5204   2.5429   2.5894   2.5928   2.6424   2.6565   2.6956   2.7136
     2.7270   2.7367   2.7510   2.7648   2.7845   2.7909   2.8316   2.8439
     2.8510   2.8590   2.8714   2.8780   3.4051   3.4214   3.5593   3.6121
     3.9564   4.0120   4.0160   4.1455   4.5844   4.7510   4.9210   4.9702
     5.1314   5.3065   5.5056   5.5407   5.6249   5.6727   6.3354   6.3773
     6.4513   6.8642   7.1932   7.5815   7.6633   7.7149   7.7660   7.8068
     7.8961   7.9464   8.1724   8.2649   8.3709   8.3987   8.5506   8.5877
     8.6360   8.7737

     occupation numbers 
     1.0000   1.0000   1.0000   1.0000   1.0000   1.0000   1.0000   1.0000
     1.0000   1.0000   1.0000   1.0000   1.0000   1.0000   1.0000   1.0000
     1.0000   1.0000   1.0000   1.0000   1.0000   1.0000   1.0000   1.0000
     1.0000   1.0000   1.0000   1.0000   1.0000   1.0000   1.0000   1.0000
     1.0000   1.0000   1.0000   1.0000   1.0000   1.0000   1.0000   1.0000
     1.0000   1.0000   1.0000   1.0000   1.0000   1.0000   1.0000   1.0000
     1.0000   1.0000   1.0000   1.0000   1.0000   1.0000   1.0000   1.0000
     1.0000   1.0000   1.0000   1.0000   1.0000   1.0000   1.0000   1.0000
     1.0000   1.0000   1.0000   1.0000   1.0000   1.0000   1.0000   1.0000
     1.0000   1.0000   1.0000   1.0000   1.0000   1.0000   1.0000   1.0000
     1.0000   1.0000   1.0000   1.0000   1.0000   1.0000   1.0000   1.0000
     1.0000   1.0000   1.0000   1.0000   1.0000   1.0000   1.0000   1.0000
     1.0000   1.0000   1.0000   1.0000   1.0000   1.0000   1.0000   1.0000
     1.0000   1.0000   1.0000   1.0000   1.0000   1.0000   1.0000   1.0000
     1.0000   1.0000   1.0000   1.0000   1.0000   1.0000   1.0000   1.0000
     1.0000   1.0000   1.0000   1.0000   1.0000   1.0000   1.0000   1.0000
     1.0000   1.0000   1.0000   1.0000   1.0000   1.0000   1.0000   1.0000
     1.0000   1.0000   1.0000   1.0000   1.0000   1.0000   1.0000   1.0000
     1.0000   1.0000   1.0000   1.0000   1.0000   1.0000   1.0000   1.0000
     1.0000   1.0000   1.0000   1.0000   1.0000   1.0000   1.0000   0.9999
     0.9999   0.9996   0.9996   0.9994   0.9993   0.9984   0.9981   0.9977
     0.9974   0.9973   0.9970   0.9960   0.9950   0.9942   0.9920   0.9883
     0.9865   0.9856   0.9850   0.9830   0.9821   0.9816   0.9784   0.9776
     0.9761   0.9721   0.9714   0.9695   0.9655   0.9589   0.9526   0.9396
     0.9122   0.8737   0.8679   0.8618   0.8519   0.8450   0.8352   0.8271
     0.8223   0.8134   0.7944   0.7929   0.7712   0.7648   0.7466   0.7380
     0.7314   0.7267   0.7196   0.7126   0.7026   0.6993   0.6779   0.6714
     0.6675   0.6632   0.6565   0.6528   0.3484   0.3395   0.2681   0.2429
     0.1135   0.0984   0.0973   0.0682   0.0161   0.0085   0.0041   0.0033
     0.0016   0.0007   0.0002   0.0002   0.0001   0.0001   0.0000   0.0000
     0.0000   0.0000   0.0000   0.0000   0.0000   0.0000   0.0000   0.0000
     0.0000   0.0000   0.0000   0.0000   0.0000   0.0000   0.0000   0.0000
     0.0000   0.0000

          k =-0.5000-0.5000 0.0000 ( 65132 PWs)   bands (ev):

   -92.8859 -92.8362 -92.7407 -92.6937 -92.6354 -92.5926 -92.5753 -92.4559
   -56.2395 -56.2223 -56.0973 -56.0864 -56.0808 -56.0733 -56.0395 -56.0094
   -55.9942 -55.9924 -55.9865 -55.9423 -55.9243 -55.8862 -55.8677 -55.8357
   -55.8292 -55.7820 -55.7805 -55.7774 -55.7691 -55.7307 -55.7053 -55.6208
   -31.4457 -31.4334 -31.2871 -31.2749 -31.2015 -31.0805 -30.9780 -30.7646
   -30.0278 -29.9893 -29.9615 -29.8541 -15.1099 -15.0866 -14.9705 -14.9532
   -14.8555 -14.8265 -14.7868 -14.6561 -14.1631 -14.1512 -14.1183 -14.0983
   -14.0795 -14.0539 -14.0409 -14.0272 -14.0055 -14.0049 -13.9887 -13.9103
   -13.9029 -13.8661 -13.8386 -13.7985 -13.7294 -13.6795 -13.5512 -13.5101
   -13.3305 -13.2936 -13.2216 -13.1983 -13.1727 -13.1603 -13.1563 -13.1468
   -13.1290 -13.0198 -12.9716 -12.9467 -12.9366 -12.8883 -12.8594 -12.7794
   -12.7714 -12.7161 -12.7098 -12.4920 -12.4864 -12.3619 -12.2883 -12.2829
   -11.9877 -11.9536 -11.9416 -11.9238 -11.9067 -11.8719 -11.8548 -11.8184
   -11.7579 -11.7389 -11.7325 -11.6828 -11.6799  -2.4034  -2.3305  -2.3222
    -2.2476  -2.2106  -2.1324  -2.0644  -1.9373  -1.8239  -1.7945  -1.7506
    -1.6976  -1.6260  -1.6094  -1.5413  -1.4977  -1.3794  -1.3476  -1.3006
    -1.2754  -1.2108  -1.1619  -1.1449  -1.1317  -1.0745  -1.0353  -1.0153
    -0.9052  -0.8484  -0.8004  -0.7524  -0.7208  -0.7039  -0.6733  -0.6325
    -0.5913  -0.5859  -0.5006  -0.4359  -0.3922  -0.3622  -0.2918  -0.2270
    -0.2193  -0.1595  -0.1264  -0.1097  -0.0962   0.3598   0.3977   0.4929
     0.5278   0.8921   0.9073   0.9427   0.9798   1.2489   1.2670   1.2731
     1.3173   1.4381   1.5300   1.5588   1.5950   1.6246   1.6433   1.6515
     1.6814   1.6965   1.7139   1.7223   1.7701   1.7704   1.8007   1.8211
     1.8393   1.8541   1.8908   1.9168   1.9319   1.9606   1.9977   2.0524
     2.1205   2.3845   2.4163   2.4339   2.4539   2.4644   2.4884   2.4984
     2.5193   2.5262   2.5445   2.5604   2.5769   2.5887   2.6028   2.6416
     2.6477   2.6546   2.6732   2.6856   2.7010   2.7212   2.7258   2.7391
     2.8421   2.8452   2.8656   2.8783   3.8482   3.8710   3.8783   3.9060
     4.1367   4.2127   4.2348   4.4753   4.5980   4.6803   4.8137   4.9204
     4.9288   5.0264   5.1611   5.2854   5.8018   5.8437   5.8906   6.0194
     6.6391   6.7660   7.0712   7.5186   7.8355   7.8485   7.9282   8.0782
     8.1277   8.1712   8.1981   8.2994   8.3708   8.4488   8.4751   8.4963
     8.5280   8.5649

     occupation numbers 
     1.0000   1.0000   1.0000   1.0000   1.0000   1.0000   1.0000   1.0000
     1.0000   1.0000   1.0000   1.0000   1.0000   1.0000   1.0000   1.0000
     1.0000   1.0000   1.0000   1.0000   1.0000   1.0000   1.0000   1.0000
     1.0000   1.0000   1.0000   1.0000   1.0000   1.0000   1.0000   1.0000
     1.0000   1.0000   1.0000   1.0000   1.0000   1.0000   1.0000   1.0000
     1.0000   1.0000   1.0000   1.0000   1.0000   1.0000   1.0000   1.0000
     1.0000   1.0000   1.0000   1.0000   1.0000   1.0000   1.0000   1.0000
     1.0000   1.0000   1.0000   1.0000   1.0000   1.0000   1.0000   1.0000
     1.0000   1.0000   1.0000   1.0000   1.0000   1.0000   1.0000   1.0000
     1.0000   1.0000   1.0000   1.0000   1.0000   1.0000   1.0000   1.0000
     1.0000   1.0000   1.0000   1.0000   1.0000   1.0000   1.0000   1.0000
     1.0000   1.0000   1.0000   1.0000   1.0000   1.0000   1.0000   1.0000
     1.0000   1.0000   1.0000   1.0000   1.0000   1.0000   1.0000   1.0000
     1.0000   1.0000   1.0000   1.0000   1.0000   1.0000   1.0000   1.0000
     1.0000   1.0000   1.0000   1.0000   1.0000   1.0000   1.0000   1.0000
     1.0000   1.0000   1.0000   1.0000   1.0000   1.0000   1.0000   1.0000
     1.0000   1.0000   1.0000   1.0000   1.0000   1.0000   1.0000   1.0000
     1.0000   1.0000   1.0000   1.0000   1.0000   1.0000   1.0000   1.0000
     1.0000   1.0000   1.0000   1.0000   1.0000   1.0000   1.0000   1.0000
     1.0000   1.0000   1.0000   1.0000   1.0000   1.0000   1.0000   1.0000
     0.9999   0.9996   0.9995   0.9995   0.9993   0.9975   0.9973   0.9972
     0.9966   0.9943   0.9917   0.9907   0.9892   0.9879   0.9870   0.9866
     0.9850   0.9841   0.9831   0.9825   0.9792   0.9792   0.9769   0.9751
     0.9735   0.9722   0.9685   0.9656   0.9639   0.9604   0.9555   0.9473
     0.9355   0.8699   0.8596   0.8537   0.8468   0.8431   0.8344   0.8306
     0.8227   0.8200   0.8128   0.8064   0.7996   0.7946   0.7886   0.7716
     0.7688   0.7657   0.7572   0.7514   0.7441   0.7343   0.7321   0.7255
     0.6723   0.6707   0.6596   0.6527   0.1474   0.1397   0.1374   0.1285
     0.0700   0.0560   0.0524   0.0239   0.0153   0.0112   0.0065   0.0041
     0.0040   0.0026   0.0014   0.0007   0.0000   0.0000   0.0000   0.0000
     0.0000   0.0000   0.0000   0.0000   0.0000   0.0000   0.0000   0.0000
     0.0000   0.0000   0.0000   0.0000   0.0000   0.0000   0.0000   0.0000
     0.0000   0.0000

          k = 0.2500 0.0000 0.0000 ( 65257 PWs)   bands (ev):

   -92.8859 -92.8362 -92.7407 -92.6937 -92.6354 -92.5926 -92.5753 -92.4559
   -56.2395 -56.2223 -56.0973 -56.0864 -56.0808 -56.0733 -56.0395 -56.0094
   -55.9942 -55.9924 -55.9865 -55.9423 -55.9243 -55.8862 -55.8677 -55.8357
   -55.8292 -55.7820 -55.7805 -55.7774 -55.7691 -55.7307 -55.7053 -55.6208
   -31.4482 -31.4316 -31.2871 -31.2752 -31.2008 -31.0805 -30.9779 -30.7643
   -30.0301 -29.9888 -29.9607 -29.8530 -15.2296 -15.1821 -15.1164 -14.9698
   -14.8569 -14.6634 -14.5350 -14.3538 -14.3374 -14.3064 -14.2720 -14.2501
[...]
     0.6343   0.6204   0.6185   0.6144   0.6102   0.6047   0.5988   0.5263
     0.3489   0.3174   0.2033   0.0765   0.0447   0.0204   0.0050   0.0030
     0.0002   0.0001   0.0000   0.0000   0.0000   0.0000   0.0000   0.0000
     0.0000   0.0000   0.0000   0.0000   0.0000   0.0000   0.0000   0.0000
     0.0000   0.0000   0.0000   0.0000   0.0000   0.0000   0.0000   0.0000
     0.0000   0.0000

          k =-0.5000 0.0000 0.0000 ( 65180 PWs)   bands (ev):

   -92.8859 -92.8362 -92.7407 -92.6937 -92.6354 -92.5926 -92.5753 -92.4559
   -56.2395 -56.2223 -56.0973 -56.0864 -56.0808 -56.0733 -56.0395 -56.0094
   -55.9942 -55.9924 -55.9865 -55.9423 -55.9243 -55.8862 -55.8677 -55.8357
   -55.8292 -55.7820 -55.7805 -55.7774 -55.7691 -55.7307 -55.7053 -55.6208
   -31.4461 -31.4337 -31.2867 -31.2751 -31.2012 -31.0807 -30.9778 -30.7644
   -30.0290 -29.9899 -29.9603 -29.8534 -15.1952 -15.1400 -15.0794 -14.9665
   -14.8684 -14.7234 -14.5749 -14.4260 -14.3123 -14.2944 -14.2886 -14.2267
   -14.1686 -14.1374 -14.0866 -14.0725 -14.0585 -14.0136 -13.9867 -13.8833
   -13.7347 -13.6889 -13.6726 -13.6645 -13.5895 -13.5416 -13.4727 -13.4385
   -13.4148 -13.3935 -13.2329 -13.2262 -13.2090 -13.1862 -13.1705 -13.1226
   -13.1027 -13.0909 -12.9908 -12.9767 -12.9031 -12.8229 -12.8138 -12.8044
   -12.8002 -12.7138 -12.7084 -12.5529 -12.4992 -12.4363 -12.3058 -12.2608
   -11.9877 -11.9609 -11.9387 -11.9325 -11.9181 -11.8999 -11.8588 -11.7954
   -11.7775 -11.7446 -11.6995 -11.6908 -11.6753  -2.7627  -2.7246  -2.5617
    -2.5226  -2.2068  -2.1300  -1.9856  -1.8682  -1.8277  -1.7804  -1.7348
    -1.7114  -1.5866  -1.5436  -1.5254  -1.4444  -1.4100  -1.3907  -1.3626
    -1.3023  -1.2354  -1.2078  -1.1733  -1.0811  -1.0358  -0.9858  -0.9533
    -0.9327  -0.8985  -0.8530  -0.8286  -0.7891  -0.6819  -0.6177  -0.5397
    -0.4812  -0.3234  -0.2778  -0.2374  -0.1815  -0.1356  -0.1209   0.0210
     0.0497   0.1043   0.2582   0.3582   0.4064   0.5108   0.5656   0.6849
     0.6995   0.8277   0.8521   0.9069   0.9476   0.9747   0.9833   1.0310
     1.0532   1.1220   1.1728   1.2206   1.2305   1.5285   1.5375   1.5579
     1.5826   1.6785   1.6965   1.7094   1.7168   1.7515   1.7596   1.7975
     1.8187   1.8429   1.8959   1.9160   1.9661   1.9906   2.0439   2.1590
     2.2509   2.3206   2.3356   2.4175   2.4430   2.4715   2.5406   2.5474
     2.5576   2.5766   2.5853   2.6167   2.6529   2.6669   2.7020   2.7575
     2.7727   2.8182   2.8227   2.8296   2.8342   2.8517   2.8633   2.8747
     2.8818   2.9014   2.9085   2.9260   2.9459   2.9508   3.0799   3.0879
     3.9044   3.9575   4.0169   4.1460   4.6152   4.6953   4.8939   4.9196
     5.3745   5.4030   5.4844   5.5196   5.8581   5.8768   6.3948   6.5397
     6.7294   6.9498   7.1968   7.2564   7.6080   7.6265   7.6804   7.7767
     7.8219   7.9247   8.1057   8.1573   8.2099   8.3664   8.4792   8.6129
     8.6345   8.7334

     occupation numbers 
     1.0000   1.0000   1.0000   1.0000   1.0000   1.0000   1.0000   1.0000
     1.0000   1.0000   1.0000   1.0000   1.0000   1.0000   1.0000   1.0000
     1.0000   1.0000   1.0000   1.0000   1.0000   1.0000   1.0000   1.0000
     1.0000   1.0000   1.0000   1.0000   1.0000   1.0000   1.0000   1.0000
     1.0000   1.0000   1.0000   1.0000   1.0000   1.0000   1.0000   1.0000
     1.0000   1.0000   1.0000   1.0000   1.0000   1.0000   1.0000   1.0000
     1.0000   1.0000   1.0000   1.0000   1.0000   1.0000   1.0000   1.0000
     1.0000   1.0000   1.0000   1.0000   1.0000   1.0000   1.0000   1.0000
     1.0000   1.0000   1.0000   1.0000   1.0000   1.0000   1.0000   1.0000
     1.0000   1.0000   1.0000   1.0000   1.0000   1.0000   1.0000   1.0000
     1.0000   1.0000   1.0000   1.0000   1.0000   1.0000   1.0000   1.0000
     1.0000   1.0000   1.0000   1.0000   1.0000   1.0000   1.0000   1.0000
     1.0000   1.0000   1.0000   1.0000   1.0000   1.0000   1.0000   1.0000
     1.0000   1.0000   1.0000   1.0000   1.0000   1.0000   1.0000   1.0000
     1.0000   1.0000   1.0000   1.0000   1.0000   1.0000   1.0000   1.0000
     1.0000   1.0000   1.0000   1.0000   1.0000   1.0000   1.0000   1.0000
     1.0000   1.0000   1.0000   1.0000   1.0000   1.0000   1.0000   1.0000
     1.0000   1.0000   1.0000   1.0000   1.0000   1.0000   1.0000   1.0000
     1.0000   1.0000   1.0000   1.0000   1.0000   1.0000   1.0000   1.0000
     1.0000   1.0000   1.0000   1.0000   1.0000   1.0000   0.9999   0.9999
     0.9999   0.9997   0.9997   0.9995   0.9994   0.9994   0.9993   0.9991
     0.9990   0.9987   0.9983   0.9978   0.9977   0.9917   0.9914   0.9907
     0.9897   0.9852   0.9841   0.9833   0.9829   0.9806   0.9800   0.9771
     0.9754   0.9732   0.9679   0.9657   0.9597   0.9564   0.9486   0.9279
     0.9073   0.8889   0.8846   0.8592   0.8506   0.8405   0.8143   0.8116
     0.8075   0.7997   0.7961   0.7826   0.7665   0.7601   0.7436   0.7163
     0.7086   0.6851   0.6827   0.6790   0.6765   0.6672   0.6609   0.6547
     0.6508   0.6399   0.6360   0.6262   0.6149   0.6121   0.5371   0.5324
     0.1290   0.1131   0.0971   0.0681   0.0144   0.0106   0.0047   0.0042
     0.0005   0.0004   0.0003   0.0002   0.0000   0.0000   0.0000   0.0000
     0.0000   0.0000   0.0000   0.0000   0.0000   0.0000   0.0000   0.0000
     0.0000   0.0000   0.0000   0.0000   0.0000   0.0000   0.0000   0.0000
     0.0000   0.0000

          k =-0.2500 0.2500 0.0000 ( 65198 PWs)   bands (ev):

   -92.8859 -92.8362 -92.7407 -92.6937 -92.6354 -92.5926 -92.5753 -92.4559
   -56.2395 -56.2223 -56.0973 -56.0864 -56.0808 -56.0733 -56.0395 -56.0094
   -55.9942 -55.9924 -55.9865 -55.9423 -55.9243 -55.8862 -55.8677 -55.8357
   -55.8292 -55.7820 -55.7805 -55.7774 -55.7691 -55.7307 -55.7053 -55.6208
   -31.4480 -31.4315 -31.2873 -31.2751 -31.2010 -31.0804 -30.9780 -30.7644
   -30.0295 -29.9885 -29.9613 -29.8534 -15.1981 -15.1509 -15.0814 -14.9649
   -14.8470 -14.7227 -14.6413 -14.4297 -14.2937 -14.2651 -14.2488 -14.2032
   -14.1791 -14.1537 -14.1305 -14.0912 -14.0140 -14.0030 -13.8489 -13.8236
   -13.7926 -13.7724 -13.7035 -13.6755 -13.6096 -13.5999 -13.4697 -13.4143
   -13.3931 -13.3191 -13.2764 -13.2153 -13.2034 -13.1746 -13.1548 -13.1172
   -13.0989 -13.0531 -13.0117 -12.9754 -12.9438 -12.9036 -12.8878 -12.8650
   -12.7672 -12.7096 -12.6150 -12.5956 -12.5412 -12.4551 -12.2479 -12.1881
   -11.9877 -11.9803 -11.9594 -11.9320 -11.9200 -11.8791 -11.8440 -11.8215
   -11.7994 -11.7772 -11.6913 -11.6471 -11.6376  -2.8472  -2.6404  -2.5191
    -2.4286  -2.3127  -2.2468  -2.0398  -1.8985  -1.8806  -1.8467  -1.7576
    -1.7217  -1.6284  -1.5934  -1.5674  -1.4261  -1.3698  -1.2995  -1.2719
    -1.2107  -1.1924  -1.1519  -1.1236  -1.0831  -1.0197  -0.9712  -0.9037
    -0.8375  -0.8129  -0.7629  -0.7342  -0.6874  -0.6293  -0.5757  -0.5423
    -0.4353  -0.4108  -0.3922  -0.3511  -0.2886  -0.2137  -0.1722  -0.1314
    -0.0633  -0.0282   0.2121   0.3861   0.4203   0.4635   0.5237   0.5881
     0.6367   0.6981   0.7281   1.0093   1.1114   1.1523   1.1852   1.1957
     1.2338   1.2485   1.2945   1.3257   1.3384   1.3636   1.4136   1.4307
     1.4694   1.4952   1.5373   1.6253   1.6423   1.6620   1.6997   1.7260
     1.7680   1.8203   1.9259   2.0286   2.0537   2.1028   2.1237   2.1873
     2.2266   2.2528   2.2775   2.3001   2.4052   2.4403   2.5263   2.5867
     2.5994   2.6522   2.7027   2.7094   2.7250   2.7322   2.7449   2.7590
     2.7651   2.7836   2.7935   2.8051   2.8160   2.8272   2.8374   2.8489
     2.8805   2.8891   2.8965   2.9304   3.2213   3.3030   3.3742   3.4512
     3.4631   3.6730   3.7802   4.1290   4.3360   4.5573   4.8142   5.1274
     5.4994   5.5580   5.6198   5.6532   5.7210   6.1038   6.1377   6.1667
     6.8367   7.0980   7.2193   7.3793   7.4610   7.4850   7.5660   7.7687
     7.8531   7.9982   8.1990   8.2311   8.3223   8.3350   8.4524   8.4687
     8.5293   8.8026

     occupation numbers 
     1.0000   1.0000   1.0000   1.0000   1.0000   1.0000   1.0000   1.0000
     1.0000   1.0000   1.0000   1.0000   1.0000   1.0000   1.0000   1.0000
     1.0000   1.0000   1.0000   1.0000   1.0000   1.0000   1.0000   1.0000
     1.0000   1.0000   1.0000   1.0000   1.0000   1.0000   1.0000   1.0000
     1.0000   1.0000   1.0000   1.0000   1.0000   1.0000   1.0000   1.0000
     1.0000   1.0000   1.0000   1.0000   1.0000   1.0000   1.0000   1.0000
     1.0000   1.0000   1.0000   1.0000   1.0000   1.0000   1.0000   1.0000
     1.0000   1.0000   1.0000   1.0000   1.0000   1.0000   1.0000   1.0000
     1.0000   1.0000   1.0000   1.0000   1.0000   1.0000   1.0000   1.0000
     1.0000   1.0000   1.0000   1.0000   1.0000   1.0000   1.0000   1.0000
     1.0000   1.0000   1.0000   1.0000   1.0000   1.0000   1.0000   1.0000
     1.0000   1.0000   1.0000   1.0000   1.0000   1.0000   1.0000   1.0000
     1.0000   1.0000   1.0000   1.0000   1.0000   1.0000   1.0000   1.0000
     1.0000   1.0000   1.0000   1.0000   1.0000   1.0000   1.0000   1.0000
     1.0000   1.0000   1.0000   1.0000   1.0000   1.0000   1.0000   1.0000
     1.0000   1.0000   1.0000   1.0000   1.0000   1.0000   1.0000   1.0000
     1.0000   1.0000   1.0000   1.0000   1.0000   1.0000   1.0000   1.0000
     1.0000   1.0000   1.0000   1.0000   1.0000   1.0000   1.0000   1.0000
     1.0000   1.0000   1.0000   1.0000   1.0000   1.0000   1.0000   1.0000
     1.0000   1.0000   1.0000   1.0000   1.0000   1.0000   0.9999   0.9999
     0.9999   0.9999   0.9998   0.9992   0.9987   0.9984   0.9982   0.9981
     0.9977   0.9975   0.9970   0.9965   0.9963   0.9959   0.9949   0.9945
     0.9935   0.9928   0.9914   0.9879   0.9871   0.9861   0.9839   0.9823
     0.9794   0.9752   0.9646   0.9510   0.9471   0.9387   0.9349   0.9220
     0.9131   0.9068   0.9005   0.8946   0.8633   0.8515   0.8200   0.7955
     0.7901   0.7668   0.7432   0.7400   0.7324   0.7289   0.7226   0.7156
     0.7125   0.7031   0.6980   0.6919   0.6862   0.6803   0.6748   0.6687
     0.6515   0.6467   0.6427   0.6237   0.4536   0.4060   0.3655   0.3234
     0.3171   0.2155   0.1719   0.0715   0.0382   0.0178   0.0065   0.0016
     0.0002   0.0002   0.0001   0.0001   0.0001   0.0000   0.0000   0.0000
     0.0000   0.0000   0.0000   0.0000   0.0000   0.0000   0.0000   0.0000
     0.0000   0.0000   0.0000   0.0000   0.0000   0.0000   0.0000   0.0000
     0.0000   0.0000

          k =-0.5000 0.2500 0.0000 ( 65138 PWs)   bands (ev):

   -92.8859 -92.8362 -92.7407 -92.6937 -92.6354 -92.5926 -92.5753 -92.4559
   -56.2395 -56.2223 -56.0973 -56.0864 -56.0808 -56.0733 -56.0395 -56.0094
   -55.9942 -55.9924 -55.9865 -55.9423 -55.9243 -55.8862 -55.8677 -55.8357
   -55.8292 -55.7820 -55.7805 -55.7774 -55.7691 -55.7307 -55.7053 -55.6208
   -31.4459 -31.4336 -31.2869 -31.2750 -31.2014 -31.0806 -30.9779 -30.7645
   -30.0284 -29.9896 -29.9609 -29.8538 -15.1619 -15.1138 -15.0363 -14.9350
   -14.8944 -14.7711 -14.6794 -14.5472 -14.2445 -14.2141 -14.2018 -14.1563
   -14.1328 -14.1092 -14.0735 -14.0570 -14.0390 -14.0004 -13.9875 -13.8788
   -13.8151 -13.7666 -13.7579 -13.7293 -13.6441 -13.6345 -13.5093 -13.4566
   -13.3723 -13.3377 -13.2413 -13.2043 -13.1920 -13.1863 -13.1525 -13.1198
   -13.1106 -13.0605 -12.9892 -12.9673 -12.9066 -12.8592 -12.8306 -12.7954
   -12.7882 -12.7130 -12.7097 -12.5192 -12.4943 -12.3998 -12.2986 -12.2683
   -11.9877 -11.9535 -11.9407 -11.9268 -11.9146 -11.8934 -11.8636 -11.7820
   -11.7735 -11.7507 -11.7138 -11.6867 -11.6777  -2.6198  -2.5784  -2.4311
    -2.3890  -2.2264  -2.1485  -2.0098  -1.8737  -1.8155  -1.7888  -1.7510
    -1.7139  -1.6323  -1.5167  -1.4590  -1.4364  -1.4096  -1.3304  -1.3054
    -1.2656  -1.2497  -1.1890  -1.1562  -1.1209  -1.0859  -1.0569  -0.9976
    -0.9701  -0.9289  -0.8924  -0.7873  -0.7625  -0.6633  -0.6105  -0.5762
    -0.5132  -0.4381  -0.4040  -0.3034  -0.2637  -0.2005  -0.1544  -0.1134
    -0.0585  -0.0269   0.0088   0.0517   0.0900   0.4192   0.4715   0.5394
     0.5705   0.8400   0.9071   0.9740   1.0036   1.1748   1.2093   1.2468
     1.2558   1.2742   1.2921   1.3618   1.4095   1.4504   1.4856   1.6001
     1.6426   1.6703   1.6846   1.7180   1.7430   1.7608   1.7740   1.7899
     1.8130   1.8579   1.8718   1.9104   1.9350   1.9678   2.0219   2.1459
     2.2394   2.2677   2.3334   2.3700   2.4347   2.4680   2.4752   2.5167
     2.5459   2.5686   2.5851   2.5972   2.6488   2.6656   2.7012   2.7122
     2.7186   2.7381   2.7603   2.7711   2.7879   2.8003   2.8234   2.8383
     2.8443   2.8539   2.8630   2.8779   3.4109   3.4447   3.5941   3.6121
     3.9104   3.9704   4.0275   4.2280   4.6077   4.7078   4.8846   4.9346
     5.2403   5.2638   5.4865   5.5809   5.6084   5.6518   6.3287   6.4591
     6.4851   6.6336   7.3894   7.5992   7.6707   7.7025   7.7325   7.7819
     7.8648   7.9507   8.1635   8.3287   8.4107   8.4232   8.5007   8.5600
     8.6914   8.7419

     occupation numbers 
     1.0000   1.0000   1.0000   1.0000   1.0000   1.0000   1.0000   1.0000
     1.0000   1.0000   1.0000   1.0000   1.0000   1.0000   1.0000   1.0000
     1.0000   1.0000   1.0000   1.0000   1.0000   1.0000   1.0000   1.0000
     1.0000   1.0000   1.0000   1.0000   1.0000   1.0000   1.0000   1.0000
     1.0000   1.0000   1.0000   1.0000   1.0000   1.0000   1.0000   1.0000
     1.0000   1.0000   1.0000   1.0000   1.0000   1.0000   1.0000   1.0000
     1.0000   1.0000   1.0000   1.0000   1.0000   1.0000   1.0000   1.0000
     1.0000   1.0000   1.0000   1.0000   1.0000   1.0000   1.0000   1.0000
     1.0000   1.0000   1.0000   1.0000   1.0000   1.0000   1.0000   1.0000
     1.0000   1.0000   1.0000   1.0000   1.0000   1.0000   1.0000   1.0000
     1.0000   1.0000   1.0000   1.0000   1.0000   1.0000   1.0000   1.0000
     1.0000   1.0000   1.0000   1.0000   1.0000   1.0000   1.0000   1.0000
     1.0000   1.0000   1.0000   1.0000   1.0000   1.0000   1.0000   1.0000
     1.0000   1.0000   1.0000   1.0000   1.0000   1.0000   1.0000   1.0000
     1.0000   1.0000   1.0000   1.0000   1.0000   1.0000   1.0000   1.0000
     1.0000   1.0000   1.0000   1.0000   1.0000   1.0000   1.0000   1.0000
     1.0000   1.0000   1.0000   1.0000   1.0000   1.0000   1.0000   1.0000
     1.0000   1.0000   1.0000   1.0000   1.0000   1.0000   1.0000   1.0000
     1.0000   1.0000   1.0000   1.0000   1.0000   1.0000   1.0000   1.0000
     1.0000   1.0000   1.0000   1.0000   1.0000   1.0000   1.0000   0.9999
     0.9999   0.9997   0.9995   0.9994   0.9993   0.9983   0.9980   0.9976
     0.9975   0.9972   0.9970   0.9959   0.9950   0.9940   0.9931   0.9890
     0.9870   0.9856   0.9848   0.9828   0.9812   0.9799   0.9789   0.9777
     0.9758   0.9718   0.9704   0.9664   0.9635   0.9595   0.9520   0.9306
     0.9101   0.9031   0.8853   0.8744   0.8534   0.8418   0.8392   0.8237
     0.8122   0.8030   0.7962   0.7910   0.7684   0.7607   0.7440   0.7387
     0.7356   0.7260   0.7149   0.7095   0.7008   0.6944   0.6823   0.6744
     0.6712   0.6660   0.6610   0.6529   0.3452   0.3269   0.2514   0.2429
     0.1272   0.1095   0.0944   0.0535   0.0148   0.0101   0.0048   0.0039
     0.0009   0.0008   0.0003   0.0001   0.0001   0.0001   0.0000   0.0000
     0.0000   0.0000   0.0000   0.0000   0.0000   0.0000   0.0000   0.0000
     0.0000   0.0000   0.0000   0.0000   0.0000   0.0000   0.0000   0.0000
     0.0000   0.0000

     the Fermi energy is     3.1427 ev

!    total energy              =   -4440.30460675 Ry
     estimated scf accuracy    <          8.2E-09 Ry
     smearing contrib. (-TS)   =      -1.20815305 Ry
     internal energy E=F+TS    =   -4439.09645370 Ry

     The total energy is F=E-TS. E is the sum of the following terms:
     one-electron contribution =  -20889.37242415 Ry
     hartree contribution      =   10573.64332538 Ry
     xc contribution           =    -693.24612253 Ry
     ewald contribution        =    6846.06997875 Ry
     one-center paw contrib.   =    -276.19121116 Ry
      -> PAW hartree energy AE =      25.16087620 Ry
      -> PAW hartree energy PS =     -25.04477907 Ry
      -> PAW xc energy AE      =     -16.51724894 Ry
      -> PAW xc energy PS      =       6.87668404 Ry
      -> total E_H with PAW    =   10573.75942252 Ry
      -> total E_XC with PAW   =    -702.88668744 Ry

     convergence has been achieved in  49 iterations

     Writing all to output data dir /bsuhome/zayahcortright/scratch/pwscf.save/
 
     init_run     :      7.43s CPU      8.33s WALL (       1 calls)
     electrons    :    689.51s CPU    723.48s WALL (       1 calls)

     Called by init_run:
     wfcinit      :      6.08s CPU      6.28s WALL (       1 calls)
     wfcinit:atom :      0.04s CPU      0.06s WALL (       5 calls)
     wfcinit:wfcr :      5.77s CPU      5.89s WALL (       5 calls)
     potinit      :      0.21s CPU      0.25s WALL (       1 calls)
     hinit0       :      0.27s CPU      0.63s WALL (       1 calls)

     Called by electrons:
     c_bands      :    545.26s CPU    552.08s WALL (      49 calls)
     sum_band     :    108.16s CPU    123.28s WALL (      49 calls)
     v_of_rho     :      5.35s CPU      5.73s WALL (      50 calls)
     v_h          :      0.48s CPU      0.49s WALL (      50 calls)
     v_xc         :      4.87s CPU      5.25s WALL (      50 calls)
     newd         :     16.33s CPU     27.65s WALL (      50 calls)
     PAW_pot      :      1.60s CPU      1.64s WALL (      50 calls)
     mix_rho      :     12.48s CPU     12.87s WALL (      49 calls)

     Called by c_bands:
     init_us_2    :      6.85s CPU      6.91s WALL (     495 calls)
     init_us_2:cp :      6.85s CPU      6.91s WALL (     495 calls)
     cegterg      :    517.03s CPU    523.54s WALL (     245 calls)

     Called by sum_band:
     sum_band:wei :      0.35s CPU      0.36s WALL (      49 calls)
     sum_band:loo :     91.02s CPU     91.88s WALL (      49 calls)
     sum_band:buf :      1.54s CPU      1.63s WALL (     245 calls)
     sum_band:ini :      3.22s CPU      3.23s WALL (     245 calls)
     sum_band:cal :     19.59s CPU     19.67s WALL (     245 calls)
     sum_band:bec :      0.57s CPU      0.58s WALL (     245 calls)
     addusdens    :     15.50s CPU     29.71s WALL (      49 calls)
                                        0.00s GPU  (      49 calls)
     addusd:skk   :      0.33s CPU      0.99s WALL (     147 calls)
                                        0.00s GPU  (     147 calls)

     Called by *egterg:
     cdiaghg      :     49.56s CPU     49.78s WALL (    1136 calls)
     cegterg:over :     37.26s CPU     37.40s WALL (     891 calls)
     cegterg:upda :     27.11s CPU     27.65s WALL (     891 calls)
     cegterg:last :     59.35s CPU     59.59s WALL (     443 calls)
     cdiaghg:chol :      2.83s CPU      2.85s WALL (    1136 calls)
     cdiaghg:inve :      2.48s CPU      2.49s WALL (    1136 calls)
     cdiaghg:para :      6.47s CPU      6.51s WALL (    2272 calls)
     h_psi        :    289.33s CPU    292.52s WALL (    1141 calls)
     s_psi        :     38.72s CPU     38.83s WALL (    1141 calls)
     g_psi        :      1.08s CPU      1.08s WALL (     891 calls)

     Called by h_psi:
     h_psi:calbec :     43.81s CPU     44.10s WALL (    1141 calls)
     vloc_psi     :    204.01s CPU    206.02s WALL (    1141 calls)
     add_vuspsi   :     38.71s CPU     38.91s WALL (    1141 calls)

     General routines
     calbec       :     63.39s CPU     63.76s WALL (    1386 calls)
     fft          :      3.87s CPU      3.91s WALL (     648 calls)
     ffts         :      4.59s CPU      4.64s WALL (    5257 calls)
     fftw         :    172.57s CPU    174.11s WALL (  328106 calls)
     interpolate  :      0.41s CPU      0.42s WALL (      50 calls)
 
     Parallel routines

     PAW routines
     PAW_pot      :      1.60s CPU      1.64s WALL (      50 calls)
 
     PWSCF        :  11m38.78s CPU  12m16.50s WALL

 
   This run was terminated on:  14:54: 9  21Jun2024            

=------------------------------------------------------------------------------=
   JOB DONE.
=------------------------------------------------------------------------------=
