
     Program PWSCF v.7.2 starts on 21Jun2024 at 22:30:54 

     This program is part of the open-source Quantum ESPRESSO suite
     for quantum simulation of materials; please cite
         "P. Giannozzi et al., J. Phys.:Condens. Matter 21 395502 (2009);
         "P. Giannozzi et al., J. Phys.:Condens. Matter 29 465901 (2017);
         "P. Giannozzi et al., J. Chem. Phys. 152 154105 (2020);
          URL http://www.quantum-espresso.org", 
     in publications or presentations arising from this work. More details at
     http://www.quantum-espresso.org/quote

     Parallel version (MPI & OpenMP), running on      48 processor cores
     Number of MPI processes:                48
     Threads/MPI process:                     1

     MPI processes distributed on     1 nodes
     60579 MiB available memory on the printing compute node when the environment starts
 
     Reading input from espresso.pwi
Warning: card &CELL ignored
Warning: card / ignored
Warning: card &FCP ignored
Warning: card / ignored
Warning: card &RISM ignored
Warning: card / ignored

     Current dimensions of program PWSCF are:
     Max number of different atomic species (ntypx) = 10
     Max number of k-points (npk) =  40000
     Max angular momentum in pseudopotentials (lmaxx) =  4
     file O.pbe-n-kjpaw_psl.0.1.UPF: wavefunction(s)  2P renormalized
     signal trapping enabled: kill the code with -SIGUSR1 to stop cleanly the simulation 
 
     K-points division:     npool     =       2
     R & G space division:  proc/nbgrp/npool/nimage =      24
     Subspace diagonalization in iterative solution of the eigenvalue problem:
     one sub-group per band group will be used
     scalapack distributed-memory algorithm (size of sub-group:  3*  3 procs)

 
     Parallelization info
     --------------------
     sticks:   dense  smooth     PW     G-vecs:    dense   smooth      PW
     Min         350     175     47                61430    21716    3036
     Max         351     177     48                61449    21727    3041
     Sum        8421    4205   1137              1474595   521381   72913
 
     Using Slab Decomposition
 


     bravais-lattice index     =            0
     lattice parameter (alat)  =      14.8599  a.u.
     unit-cell volume          =    8305.1283 (a.u.)^3
     number of atoms/cell      =           49
     number of atomic types    =            3
     number of electrons       =       430.00
     number of Kohn-Sham states=          258
     kinetic-energy cutoff     =      60.0000  Ry
     charge density cutoff     =     480.0000  Ry
     scf convergence threshold =      1.0E-08
     mixing beta               =       0.1500
     number of iterations used =            8  local-TF  mixing
     Exchange-correlation= SLA  PW   PBE  PBE
                           (   1   4   3   4   0   0   0)

     celldm(1)=  14.859904  celldm(2)=   0.000000  celldm(3)=   0.000000
     celldm(4)=   0.000000  celldm(5)=   0.000000  celldm(6)=   0.000000

     crystal axes: (cart. coord. in units of alat)
               a(1) = (   1.000000   0.000000   0.000000 )  
               a(2) = (   0.000000   1.000000   0.000000 )  
               a(3) = (   0.000000   0.000000   2.531036 )  

     reciprocal axes: (cart. coord. in units 2 pi/alat)
               b(1) = (  1.000000  0.000000  0.000000 )  
               b(2) = (  0.000000  1.000000  0.000000 )  
               b(3) = (  0.000000  0.000000  0.395095 )  


     PseudoPot. # 1 for Sr read from file:
     /bsuhome/zayahcortright/q-e/pseudo/Sr_pbe_v1.uspp.F.UPF
     MD5 check sum: 6b418c05fbe9db5448babca5e47b7a5b
     Pseudo is Ultrasoft + core correction, Zval = 10.0
     Generated by new atomic code, or converted to UPF format
     Using radial grid of  883 points,  6 beta functions with: 
                l(1) =   0
                l(2) =   0
                l(3) =   1
                l(4) =   1
                l(5) =   2
                l(6) =   2
     Q(r) pseudized with  6 coefficients,  rinner =    1.400   1.400   1.400
                                                       1.400   1.400

     PseudoPot. # 2 for O  read from file:
     /bsuhome/zayahcortright/q-e/pseudo/O.pbe-n-kjpaw_psl.0.1.UPF
     MD5 check sum: 0234752ac141de4415c5fc33072bef88
     Pseudo is Projector augmented-wave + core cor, Zval =  6.0
     Generated using "atomic" code by A. Dal Corso  v.5.0.99 svn rev. 10869
     Shape of augmentation charge: BESSEL
     Using radial grid of 1095 points,  4 beta functions with: 
                l(1) =   0
                l(2) =   0
                l(3) =   1
                l(4) =   1
     Q(r) pseudized with 0 coefficients 


     PseudoPot. # 3 for Co read from file:
     /bsuhome/zayahcortright/q-e/pseudo/Co_pbe_v1.2.uspp.F.UPF
     MD5 check sum: 5f91765df6ddd3222702df6e7b74a16d
     Pseudo is Ultrasoft + core correction, Zval = 17.0
     Generated by new atomic code, or converted to UPF format
     Using radial grid of  863 points,  6 beta functions with: 
                l(1) =   0
                l(2) =   0
                l(3) =   1
                l(4) =   1
                l(5) =   2
                l(6) =   2
     Q(r) pseudized with  8 coefficients,  rinner =    1.200   1.200   1.200
                                                       1.200   1.200

     atomic species   valence    mass     pseudopotential
        Sr            10.00    87.62000     Sr( 1.00)
        O              6.00    15.99900     O ( 1.00)
        Co            17.00    58.93319     Co( 1.00)

     No symmetry found


                                    s                        frac. trans.

      isym =  1     identity                                     

 cryst.   s( 1) = (     1          0          0      )
                  (     0          1          0      )
                  (     0          0          1      )

 cart.    s( 1) = (  1.0000000  0.0000000  0.0000000 )
                  (  0.0000000  1.0000000  0.0000000 )
                  (  0.0000000  0.0000000  1.0000000 )


   Cartesian axes

     site n.     atom                  positions (alat units)
         1           Sr  tau(   1) = (   0.2508693   0.7491307   1.7574407  )
         2           O   tau(   2) = (   0.4985141   0.5014859   1.7715967  )
         3           Sr  tau(   3) = (   0.7482398   0.7454518   1.7648669  )
         4           Sr  tau(   4) = (   0.7441748   0.2558252   1.7667843  )
         5           Sr  tau(   5) = (   0.2508693   0.7491307   1.2696799  )
         6           Sr  tau(   6) = (   0.2508693   0.7491307   0.7632319  )
         7           Co  tau(   7) = (   0.4998914   0.5001086   1.0164559  )
         8           Co  tau(   8) = (   0.4936915   0.5063085   1.5135603  )
         9           O   tau(   9) = (   0.4988895   0.7610401   1.0164559  )
        10           O   tau(  10) = (   0.2389599   0.5011105   1.0164559  )
        11           O   tau(  11) = (   0.0070918   0.7374880   1.0164559  )
        12           O   tau(  12) = (   0.0088340   0.7405089   1.5135603  )
        13           O   tau(  13) = (   0.5066944   0.7415376   1.5135603  )
        14           O   tau(  14) = (   0.2584624   0.4933056   1.5135603  )
        15           O   tau(  15) = (   0.4985141   0.5014859   0.7773880  )
        16           O   tau(  16) = (   0.4985141   0.5014859   1.2555238  )
        17           Sr  tau(  17) = (   0.7482398   0.7454518   0.7706582  )
        18           Sr  tau(  18) = (   0.7482398   0.7454518   1.2622536  )
        19           Sr  tau(  19) = (   0.7441748   0.2558252   0.7725755  )
        20           Sr  tau(  20) = (   0.7441748   0.2558252   1.2603363  )
        21           O   tau(  21) = (   0.7322655   0.0078049   1.5135603  )
        22           O   tau(  22) = (   0.7558175   0.4996027   1.5135603  )
        23           O   tau(  23) = (   0.5003973   0.2441825   1.5135603  )
        24           O   tau(  24) = (   0.7527966   0.4978604   1.0164559  )
        25           O   tau(  25) = (   0.5021396   0.2472034   1.0164559  )
        26           O   tau(  26) = (   0.7517679   0.0000000   1.0164559  )
        27           O   tau(  27) = (   0.0114961   0.4948124   1.7455321  )
        28           O   tau(  28) = (   0.0048226   0.0077944   1.7715967  )
        29           Sr  tau(  29) = (   0.2545482   0.2517602   1.7648669  )
        30           O   tau(  30) = (   0.5048017   0.0015068   1.7786929  )
        31           Co  tau(  31) = (   0.0056869   0.5006215   1.0164559  )
        32           Co  tau(  32) = (   0.0065315   0.4997770   1.5135603  )
        33           Co  tau(  33) = (   0.0061999   0.0064171   1.0164559  )
        34           Co  tau(  34) = (   0.0000000   0.0126169   1.5135603  )
        35           O   tau(  35) = (   0.0114961   0.4948124   1.2815885  )
        36           O   tau(  36) = (   0.0114961   0.4948124   0.7513233  )
        37           O   tau(  37) = (   0.0051979   0.2673486   1.0164559  )
        38           O   tau(  38) = (   0.0130029   0.2478461   1.5135603  )
        39           O   tau(  39) = (   0.0048226   0.0077944   0.7773880  )
        40           O   tau(  40) = (   0.0048226   0.0077944   1.2555238  )
        41           Sr  tau(  41) = (   0.2545482   0.2517602   0.7706582  )
        42           Sr  tau(  42) = (   0.2545482   0.2517602   1.2622536  )
        43           Co  tau(  43) = (   0.4989925   0.0073160   1.5135603  )
        44           Co  tau(  44) = (   0.4998370   0.0064714   1.0164559  )
        45           O   tau(  45) = (   0.5048017   0.0015068   0.7844841  )
        46           O   tau(  46) = (   0.5048017   0.0015068   1.2484277  )
        47           O   tau(  47) = (   0.2621260   0.0059111   1.5135603  )
        48           O   tau(  48) = (   0.2591051   0.0041689   1.0164559  )
        49           O   tau(  49) = (   0.5686583   0.9951520   2.1602013  )

   Crystallographic axes

     site n.     atom                  positions (cryst. coord.)
         1           Sr  tau(   1) = (  0.2508693  0.7491307  0.6943562  )
         2           O   tau(   2) = (  0.4985141  0.5014859  0.6999492  )
         3           Sr  tau(   3) = (  0.7482398  0.7454518  0.6972903  )
         4           Sr  tau(   4) = (  0.7441748  0.2558252  0.6980478  )
         5           Sr  tau(   5) = (  0.2508693  0.7491307  0.5016443  )
         6           Sr  tau(   6) = (  0.2508693  0.7491307  0.3015492  )
         7           Co  tau(   7) = (  0.4998914  0.5001086  0.4015968  )
         8           Co  tau(   8) = (  0.4936915  0.5063085  0.5980003  )
         9           O   tau(   9) = (  0.4988895  0.7610401  0.4015968  )
        10           O   tau(  10) = (  0.2389599  0.5011105  0.4015968  )
        11           O   tau(  11) = (  0.0070918  0.7374880  0.4015968  )
        12           O   tau(  12) = (  0.0088340  0.7405089  0.5980003  )
        13           O   tau(  13) = (  0.5066944  0.7415376  0.5980003  )
        14           O   tau(  14) = (  0.2584624  0.4933056  0.5980003  )
        15           O   tau(  15) = (  0.4985141  0.5014859  0.3071422  )
        16           O   tau(  16) = (  0.4985141  0.5014859  0.4960513  )
        17           Sr  tau(  17) = (  0.7482398  0.7454518  0.3044833  )
        18           Sr  tau(  18) = (  0.7482398  0.7454518  0.4987103  )
        19           Sr  tau(  19) = (  0.7441748  0.2558252  0.3052408  )
        20           Sr  tau(  20) = (  0.7441748  0.2558252  0.4979527  )
        21           O   tau(  21) = (  0.7322655  0.0078049  0.5980003  )
        22           O   tau(  22) = (  0.7558175  0.4996027  0.5980003  )
        23           O   tau(  23) = (  0.5003973  0.2441825  0.5980003  )
        24           O   tau(  24) = (  0.7527966  0.4978604  0.4015968  )
        25           O   tau(  25) = (  0.5021396  0.2472034  0.4015968  )
        26           O   tau(  26) = (  0.7517679  0.0000000  0.4015968  )
        27           O   tau(  27) = (  0.0114961  0.4948124  0.6896512  )
        28           O   tau(  28) = (  0.0048226  0.0077944  0.6999492  )
        29           Sr  tau(  29) = (  0.2545482  0.2517602  0.6972903  )
        30           O   tau(  30) = (  0.5048017  0.0015068  0.7027529  )
        31           Co  tau(  31) = (  0.0056869  0.5006215  0.4015968  )
        32           Co  tau(  32) = (  0.0065315  0.4997770  0.5980003  )
        33           Co  tau(  33) = (  0.0061999  0.0064171  0.4015968  )
        34           Co  tau(  34) = (  0.0000000  0.0126169  0.5980003  )
        35           O   tau(  35) = (  0.0114961  0.4948124  0.5063494  )
        36           O   tau(  36) = (  0.0114961  0.4948124  0.2968442  )
        37           O   tau(  37) = (  0.0051979  0.2673486  0.4015968  )
        38           O   tau(  38) = (  0.0130029  0.2478461  0.5980003  )
        39           O   tau(  39) = (  0.0048226  0.0077944  0.3071422  )
        40           O   tau(  40) = (  0.0048226  0.0077944  0.4960513  )
        41           Sr  tau(  41) = (  0.2545482  0.2517602  0.3044833  )
        42           Sr  tau(  42) = (  0.2545482  0.2517602  0.4987103  )
        43           Co  tau(  43) = (  0.4989925  0.0073160  0.5980003  )
        44           Co  tau(  44) = (  0.4998370  0.0064714  0.4015968  )
        45           O   tau(  45) = (  0.5048017  0.0015068  0.3099459  )
        46           O   tau(  46) = (  0.5048017  0.0015068  0.4932477  )
        47           O   tau(  47) = (  0.2621260  0.0059111  0.5980003  )
        48           O   tau(  48) = (  0.2591051  0.0041689  0.4015968  )
        49           O   tau(  49) = (  0.5686583  0.9951520  0.8534850  )

     number of k points=    10  Gaussian smearing, width (Ry)=  0.0700
                       cart. coord. in units 2pi/alat
        k(    1) = (   0.0000000   0.0000000   0.0000000), wk =   0.1250000
        k(    2) = (   0.0000000   0.2500000   0.0000000), wk =   0.2500000
        k(    3) = (   0.0000000  -0.5000000   0.0000000), wk =   0.1250000
        k(    4) = (   0.2500000   0.2500000   0.0000000), wk =   0.2500000
        k(    5) = (   0.2500000  -0.5000000   0.0000000), wk =   0.2500000
        k(    6) = (  -0.5000000  -0.5000000   0.0000000), wk =   0.1250000
        k(    7) = (   0.2500000   0.0000000   0.0000000), wk =   0.2500000
        k(    8) = (  -0.5000000   0.0000000   0.0000000), wk =   0.1250000
        k(    9) = (  -0.2500000   0.2500000   0.0000000), wk =   0.2500000
        k(   10) = (  -0.5000000   0.2500000   0.0000000), wk =   0.2500000

                       cryst. coord.
        k(    1) = (   0.0000000   0.0000000   0.0000000), wk =   0.1250000
        k(    2) = (   0.0000000   0.2500000   0.0000000), wk =   0.2500000
        k(    3) = (   0.0000000  -0.5000000   0.0000000), wk =   0.1250000
        k(    4) = (   0.2500000   0.2500000   0.0000000), wk =   0.2500000
        k(    5) = (   0.2500000  -0.5000000   0.0000000), wk =   0.2500000
        k(    6) = (  -0.5000000  -0.5000000   0.0000000), wk =   0.1250000
        k(    7) = (   0.2500000   0.0000000   0.0000000), wk =   0.2500000
        k(    8) = (  -0.5000000   0.0000000   0.0000000), wk =   0.1250000
        k(    9) = (  -0.2500000   0.2500000   0.0000000), wk =   0.2500000
        k(   10) = (  -0.5000000   0.2500000   0.0000000), wk =   0.2500000

     Dense  grid:  1474595 G-vectors     FFT dimensions: ( 108, 108, 270)

     Smooth grid:   521381 G-vectors     FFT dimensions: (  75,  75, 192)

     Dynamical RAM for                 wfc:      10.69 MB

     Dynamical RAM for     wfc (w. buffer):      64.13 MB

     Dynamical RAM for           str. fact:       2.81 MB

     Dynamical RAM for           local pot:       0.00 MB

     Dynamical RAM for          nlocal pot:      24.53 MB

     Dynamical RAM for                qrad:       5.27 MB

     Dynamical RAM for          rho,v,vnew:       6.02 MB

     Dynamical RAM for               rhoin:       2.01 MB

     Dynamical RAM for            rho*nmix:      15.00 MB

     Dynamical RAM for           G-vectors:       3.68 MB

     Dynamical RAM for          h,s,v(r/c):       1.35 MB

     Dynamical RAM for          <psi|beta>:       2.33 MB

     Dynamical RAM for                 psi:      21.38 MB

     Dynamical RAM for                hpsi:      21.38 MB

     Dynamical RAM for                spsi:      21.38 MB

     Dynamical RAM for      wfcinit/wfcrot:      34.39 MB

     Dynamical RAM for           addusdens:     101.26 MB

     Estimated static dynamical RAM per process >     117.53 MB

     Estimated max dynamical RAM per process >     233.79 MB

     Estimated total dynamical RAM >      10.61 GB

     Check: negative core charge=   -0.000004

     Initial potential from superposition of free atoms

     starting charge     421.5961, renormalised to     430.0000

     negative rho (up, down):  7.826E-01 0.000E+00
     Starting wfcs are  376 randomized atomic wfcs
     Checking if some PAW data can be deallocated... 
       PAW data deallocated on   19 nodes for type:  2

     total cpu time spent up to now is        9.5 secs

     Self-consistent Calculation

     iteration #  1     ecut=    60.00 Ry     beta= 0.15
     Davidson diagonalization with overlap

---- Real-time Memory Report at c_bands before calling an iterative solver
             0 MiB given to the printing process from OS
             0 MiB allocation reported by mallinfo(arena+hblkhd)
         51480 MiB available memory on the node where the printing process lives
------------------
     ethr =  1.00E-02,  avg # of iterations =  2.0

     negative rho (up, down):  7.717E-01 0.000E+00

     total cpu time spent up to now is       25.1 secs

     total energy              =   -4445.25199715 Ry
     estimated scf accuracy    <      53.97143127 Ry

     iteration #  2     ecut=    60.00 Ry     beta= 0.15
     Davidson diagonalization with overlap

---- Real-time Memory Report at c_bands before calling an iterative solver
             0 MiB given to the printing process from OS
             0 MiB allocation reported by mallinfo(arena+hblkhd)
         51859 MiB available memory on the node where the printing process lives
------------------
     ethr =  1.00E-02,  avg # of iterations =  1.0

     negative rho (up, down):  7.584E-01 0.000E+00

     total cpu time spent up to now is       37.8 secs

     total energy              =   -4441.74326987 Ry
     estimated scf accuracy    <      28.77040772 Ry

     iteration #  3     ecut=    60.00 Ry     beta= 0.15
     Davidson diagonalization with overlap

---- Real-time Memory Report at c_bands before calling an iterative solver
             0 MiB given to the printing process from OS
             0 MiB allocation reported by mallinfo(arena+hblkhd)
         51055 MiB available memory on the node where the printing process lives
------------------
     ethr =  6.69E-03,  avg # of iterations =  1.0

     negative rho (up, down):  7.534E-01 0.000E+00

     total cpu time spent up to now is       50.6 secs

     total energy              =   -4442.67129302 Ry
     estimated scf accuracy    <      28.89689278 Ry

     iteration #  4     ecut=    60.00 Ry     beta= 0.15
     Davidson diagonalization with overlap

---- Real-time Memory Report at c_bands before calling an iterative solver
             0 MiB given to the printing process from OS
             0 MiB allocation reported by mallinfo(arena+hblkhd)
         51044 MiB available memory on the node where the printing process lives
------------------
     ethr =  6.69E-03,  avg # of iterations =  1.0

     negative rho (up, down):  7.534E-01 0.000E+00

     total cpu time spent up to now is       63.3 secs

     total energy              =   -4442.37496399 Ry
     estimated scf accuracy    <      25.92666640 Ry

     iteration #  5     ecut=    60.00 Ry     beta= 0.15
     Davidson diagonalization with overlap

---- Real-time Memory Report at c_bands before calling an iterative solver
             0 MiB given to the printing process from OS
             0 MiB allocation reported by mallinfo(arena+hblkhd)
         51024 MiB available memory on the node where the printing process lives
------------------
     ethr =  6.03E-03,  avg # of iterations =  1.0

     negative rho (up, down):  7.354E-01 0.000E+00

     total cpu time spent up to now is       76.1 secs

     total energy              =   -4440.96932256 Ry
     estimated scf accuracy    <      17.25499938 Ry

     iteration #  6     ecut=    60.00 Ry     beta= 0.15
     Davidson diagonalization with overlap

---- Real-time Memory Report at c_bands before calling an iterative solver
             0 MiB given to the printing process from OS
             0 MiB allocation reported by mallinfo(arena+hblkhd)
         51000 MiB available memory on the node where the printing process lives
------------------
     ethr =  4.01E-03,  avg # of iterations =  2.0

     negative rho (up, down):  7.409E-01 0.000E+00

     total cpu time spent up to now is       90.5 secs

     total energy              =   -4443.15517035 Ry
     estimated scf accuracy    <      59.31124049 Ry

     iteration #  7     ecut=    60.00 Ry     beta= 0.15
     Davidson diagonalization with overlap

---- Real-time Memory Report at c_bands before calling an iterative solver
             0 MiB given to the printing process from OS
             0 MiB allocation reported by mallinfo(arena+hblkhd)
         50975 MiB available memory on the node where the printing process lives
------------------
     ethr =  4.01E-03,  avg # of iterations =  1.0

     negative rho (up, down):  7.452E-01 0.000E+00

     total cpu time spent up to now is      103.5 secs

     total energy              =   -4440.66126912 Ry
     estimated scf accuracy    <      49.56363943 Ry

     iteration #  8     ecut=    60.00 Ry     beta= 0.15
     Davidson diagonalization with overlap

---- Real-time Memory Report at c_bands before calling an iterative solver
             0 MiB given to the printing process from OS
             0 MiB allocation reported by mallinfo(arena+hblkhd)
         50962 MiB available memory on the node where the printing process lives
------------------
     ethr =  4.01E-03,  avg # of iterations =  1.0

     negative rho (up, down):  7.499E-01 0.000E+00

     total cpu time spent up to now is      116.5 secs

     total energy              =   -4441.17453608 Ry
     estimated scf accuracy    <       6.48247329 Ry

     iteration #  9     ecut=    60.00 Ry     beta= 0.15
     Davidson diagonalization with overlap

---- Real-time Memory Report at c_bands before calling an iterative solver
             0 MiB given to the printing process from OS
             0 MiB allocation reported by mallinfo(arena+hblkhd)
         50945 MiB available memory on the node where the printing process lives
------------------
     ethr =  1.51E-03,  avg # of iterations =  1.4

     negative rho (up, down):  7.566E-01 0.000E+00

     total cpu time spent up to now is      129.7 secs

     total energy              =   -4440.42430664 Ry
     estimated scf accuracy    <       4.66045656 Ry

     iteration # 10     ecut=    60.00 Ry     beta= 0.15
     Davidson diagonalization with overlap

---- Real-time Memory Report at c_bands before calling an iterative solver
             0 MiB given to the printing process from OS
             0 MiB allocation reported by mallinfo(arena+hblkhd)
         50926 MiB available memory on the node where the printing process lives
------------------
     ethr =  1.08E-03,  avg # of iterations =  7.8

     negative rho (up, down):  7.670E-01 0.000E+00

     total cpu time spent up to now is      146.6 secs

     total energy              =   -4440.83744041 Ry
     estimated scf accuracy    <       3.37547738 Ry

     iteration # 11     ecut=    60.00 Ry     beta= 0.15
     Davidson diagonalization with overlap

---- Real-time Memory Report at c_bands before calling an iterative solver
             0 MiB given to the printing process from OS
             0 MiB allocation reported by mallinfo(arena+hblkhd)
         50707 MiB available memory on the node where the printing process lives
------------------
     ethr =  7.85E-04,  avg # of iterations =  7.6

     negative rho (up, down):  7.816E-01 0.000E+00

     total cpu time spent up to now is      163.5 secs

     total energy              =   -4440.19597855 Ry
     estimated scf accuracy    <      21.13548027 Ry

     iteration # 12     ecut=    60.00 Ry     beta= 0.15
     Davidson diagonalization with overlap

---- Real-time Memory Report at c_bands before calling an iterative solver
             0 MiB given to the printing process from OS
             0 MiB allocation reported by mallinfo(arena+hblkhd)
         50614 MiB available memory on the node where the printing process lives
------------------
     ethr =  7.85E-04,  avg # of iterations =  2.8

     negative rho (up, down):  7.823E-01 0.000E+00

     total cpu time spent up to now is      178.0 secs

     total energy              =   -4440.25122545 Ry
     estimated scf accuracy    <       5.82832739 Ry

     iteration # 13     ecut=    60.00 Ry     beta= 0.15
     Davidson diagonalization with overlap

---- Real-time Memory Report at c_bands before calling an iterative solver
             0 MiB given to the printing process from OS
             0 MiB allocation reported by mallinfo(arena+hblkhd)
         50612 MiB available memory on the node where the printing process lives
------------------
     ethr =  7.85E-04,  avg # of iterations =  2.4

     negative rho (up, down):  7.891E-01 0.000E+00

     total cpu time spent up to now is      192.4 secs

     total energy              =   -4440.43691120 Ry
     estimated scf accuracy    <       1.96786437 Ry

     iteration # 14     ecut=    60.00 Ry     beta= 0.15
     Davidson diagonalization with overlap

---- Real-time Memory Report at c_bands before calling an iterative solver
             0 MiB given to the printing process from OS
             0 MiB allocation reported by mallinfo(arena+hblkhd)
         50617 MiB available memory on the node where the printing process lives
------------------
     ethr =  4.58E-04,  avg # of iterations =  4.7

     negative rho (up, down):  8.050E-01 0.000E+00

     total cpu time spent up to now is      207.9 secs

     total energy              =   -4440.43541148 Ry
     estimated scf accuracy    <       0.75656577 Ry

     iteration # 15     ecut=    60.00 Ry     beta= 0.15
     Davidson diagonalization with overlap

---- Real-time Memory Report at c_bands before calling an iterative solver
             0 MiB given to the printing process from OS
             0 MiB allocation reported by mallinfo(arena+hblkhd)
         50622 MiB available memory on the node where the printing process lives
------------------
     c_bands:  1 eigenvalues not converged
     ethr =  1.76E-04,  avg # of iterations = 11.9

     negative rho (up, down):  8.151E-01 0.000E+00

     total cpu time spent up to now is      227.0 secs

     total energy              =   -4440.38867822 Ry
     estimated scf accuracy    <       0.84770886 Ry

     iteration # 16     ecut=    60.00 Ry     beta= 0.15
     Davidson diagonalization with overlap

---- Real-time Memory Report at c_bands before calling an iterative solver
             0 MiB given to the printing process from OS
             0 MiB allocation reported by mallinfo(arena+hblkhd)
         50492 MiB available memory on the node where the printing process lives
------------------
     ethr =  1.76E-04,  avg # of iterations =  3.6

     negative rho (up, down):  8.283E-01 0.000E+00

     total cpu time spent up to now is      242.0 secs

     total energy              =   -4440.34380092 Ry
     estimated scf accuracy    <       0.35040613 Ry

     iteration # 17     ecut=    60.00 Ry     beta= 0.15
     Davidson diagonalization with overlap

---- Real-time Memory Report at c_bands before calling an iterative solver
             0 MiB given to the printing process from OS
             0 MiB allocation reported by mallinfo(arena+hblkhd)
         50510 MiB available memory on the node where the printing process lives
------------------
     ethr =  8.15E-05,  avg # of iterations = 13.0

     negative rho (up, down):  8.244E-01 0.000E+00

     total cpu time spent up to now is      261.1 secs

     total energy              =   -4440.35126482 Ry
     estimated scf accuracy    <       0.25303997 Ry

     iteration # 18     ecut=    60.00 Ry     beta= 0.15
     Davidson diagonalization with overlap

---- Real-time Memory Report at c_bands before calling an iterative solver
             0 MiB given to the printing process from OS
             0 MiB allocation reported by mallinfo(arena+hblkhd)
         50445 MiB available memory on the node where the printing process lives
------------------
     ethr =  5.88E-05,  avg # of iterations =  1.1

     negative rho (up, down):  8.184E-01 0.000E+00

     total cpu time spent up to now is      274.1 secs

     total energy              =   -4440.34059715 Ry
     estimated scf accuracy    <       0.17730915 Ry

     iteration # 19     ecut=    60.00 Ry     beta= 0.15
     Davidson diagonalization with overlap

---- Real-time Memory Report at c_bands before calling an iterative solver
             0 MiB given to the printing process from OS
             0 MiB allocation reported by mallinfo(arena+hblkhd)
         50448 MiB available memory on the node where the printing process lives
------------------
     ethr =  4.12E-05,  avg # of iterations =  3.7

     negative rho (up, down):  8.109E-01 0.000E+00

     total cpu time spent up to now is      288.8 secs

     total energy              =   -4440.31900605 Ry
     estimated scf accuracy    <       0.12321985 Ry

     iteration # 20     ecut=    60.00 Ry     beta= 0.15
     Davidson diagonalization with overlap

---- Real-time Memory Report at c_bands before calling an iterative solver
             0 MiB given to the printing process from OS
             0 MiB allocation reported by mallinfo(arena+hblkhd)
         50457 MiB available memory on the node where the printing process lives
------------------
     ethr =  2.87E-05,  avg # of iterations =  7.6

     negative rho (up, down):  8.206E-01 0.000E+00

     total cpu time spent up to now is      306.0 secs

     total energy              =   -4440.30671734 Ry
     estimated scf accuracy    <       0.09121241 Ry

     iteration # 21     ecut=    60.00 Ry     beta= 0.15
     Davidson diagonalization with overlap

---- Real-time Memory Report at c_bands before calling an iterative solver
             0 MiB given to the printing process from OS
             0 MiB allocation reported by mallinfo(arena+hblkhd)
         50479 MiB available memory on the node where the printing process lives
------------------
     ethr =  2.12E-05,  avg # of iterations =  9.2

     negative rho (up, down):  8.279E-01 0.000E+00

     total cpu time spent up to now is      323.7 secs

     total energy              =   -4440.29786716 Ry
     estimated scf accuracy    <       0.06500625 Ry

     iteration # 22     ecut=    60.00 Ry     beta= 0.15
     Davidson diagonalization with overlap

---- Real-time Memory Report at c_bands before calling an iterative solver
             0 MiB given to the printing process from OS
             0 MiB allocation reported by mallinfo(arena+hblkhd)
         50302 MiB available memory on the node where the printing process lives
------------------
     c_bands:  1 eigenvalues not converged
     ethr =  1.51E-05,  avg # of iterations =  9.5

     negative rho (up, down):  8.354E-01 0.000E+00

     total cpu time spent up to now is      341.8 secs

     total energy              =   -4440.29600926 Ry
     estimated scf accuracy    <       0.05185075 Ry

     iteration # 23     ecut=    60.00 Ry     beta= 0.15
     Davidson diagonalization with overlap

---- Real-time Memory Report at c_bands before calling an iterative solver
             0 MiB given to the printing process from OS
             0 MiB allocation reported by mallinfo(arena+hblkhd)
         50273 MiB available memory on the node where the printing process lives
------------------
     ethr =  1.21E-05,  avg # of iterations =  5.1

     negative rho (up, down):  8.082E-01 0.000E+00

     total cpu time spent up to now is      357.8 secs

     total energy              =   -4440.29364653 Ry
     estimated scf accuracy    <       0.02660742 Ry

     iteration # 24     ecut=    60.00 Ry     beta= 0.15
     Davidson diagonalization with overlap

---- Real-time Memory Report at c_bands before calling an iterative solver
             0 MiB given to the printing process from OS
             0 MiB allocation reported by mallinfo(arena+hblkhd)
         50298 MiB available memory on the node where the printing process lives
------------------
     ethr =  6.19E-06,  avg # of iterations =  7.4

     negative rho (up, down):  7.981E-01 0.000E+00

     total cpu time spent up to now is      374.4 secs

     total energy              =   -4440.29271730 Ry
     estimated scf accuracy    <       0.01635120 Ry

     iteration # 25     ecut=    60.00 Ry     beta= 0.15
     Davidson diagonalization with overlap

---- Real-time Memory Report at c_bands before calling an iterative solver
             0 MiB given to the printing process from OS
             0 MiB allocation reported by mallinfo(arena+hblkhd)
         50302 MiB available memory on the node where the printing process lives
------------------
     ethr =  3.80E-06,  avg # of iterations =  4.7

     negative rho (up, down):  7.885E-01 0.000E+00

     total cpu time spent up to now is      389.9 secs

     total energy              =   -4440.29189450 Ry
     estimated scf accuracy    <       0.01114349 Ry

     iteration # 26     ecut=    60.00 Ry     beta= 0.15
     Davidson diagonalization with overlap

---- Real-time Memory Report at c_bands before calling an iterative solver
             0 MiB given to the printing process from OS
             0 MiB allocation reported by mallinfo(arena+hblkhd)
         50302 MiB available memory on the node where the printing process lives
------------------
     c_bands:  1 eigenvalues not converged
     ethr =  2.59E-06,  avg # of iterations =  7.5

     negative rho (up, down):  7.890E-01 0.000E+00

     total cpu time spent up to now is      406.9 secs

     total energy              =   -4440.29097675 Ry
     estimated scf accuracy    <       0.00837099 Ry

     iteration # 27     ecut=    60.00 Ry     beta= 0.15
     Davidson diagonalization with overlap

---- Real-time Memory Report at c_bands before calling an iterative solver
             0 MiB given to the printing process from OS
             0 MiB allocation reported by mallinfo(arena+hblkhd)
         50315 MiB available memory on the node where the printing process lives
------------------
     ethr =  1.95E-06,  avg # of iterations =  5.4

     negative rho (up, down):  7.915E-01 0.000E+00

     total cpu time spent up to now is      422.8 secs

     total energy              =   -4440.29030905 Ry
     estimated scf accuracy    <       0.00463585 Ry

     iteration # 28     ecut=    60.00 Ry     beta= 0.15
     Davidson diagonalization with overlap

---- Real-time Memory Report at c_bands before calling an iterative solver
             0 MiB given to the printing process from OS
             0 MiB allocation reported by mallinfo(arena+hblkhd)
         50317 MiB available memory on the node where the printing process lives
------------------
     ethr =  1.08E-06,  avg # of iterations =  4.4

     negative rho (up, down):  7.994E-01 0.000E+00

     total cpu time spent up to now is      438.6 secs

     total energy              =   -4440.29026074 Ry
     estimated scf accuracy    <       0.00267655 Ry

     iteration # 29     ecut=    60.00 Ry     beta= 0.15
     Davidson diagonalization with overlap

---- Real-time Memory Report at c_bands before calling an iterative solver
             0 MiB given to the printing process from OS
             0 MiB allocation reported by mallinfo(arena+hblkhd)
         50315 MiB available memory on the node where the printing process lives
------------------
     c_bands:  1 eigenvalues not converged
     ethr =  6.22E-07,  avg # of iterations = 11.6

     negative rho (up, down):  7.974E-01 0.000E+00

     total cpu time spent up to now is      457.6 secs

     total energy              =   -4440.29028453 Ry
     estimated scf accuracy    <       0.00112930 Ry

     iteration # 30     ecut=    60.00 Ry     beta= 0.15
     Davidson diagonalization with overlap

---- Real-time Memory Report at c_bands before calling an iterative solver
             0 MiB given to the printing process from OS
             0 MiB allocation reported by mallinfo(arena+hblkhd)
         50209 MiB available memory on the node where the printing process lives
------------------
     ethr =  2.63E-07,  avg # of iterations =  3.3

     negative rho (up, down):  7.940E-01 0.000E+00

     total cpu time spent up to now is      472.6 secs

     total energy              =   -4440.29020839 Ry
     estimated scf accuracy    <       0.00049236 Ry

     iteration # 31     ecut=    60.00 Ry     beta= 0.15
     Davidson diagonalization with overlap

---- Real-time Memory Report at c_bands before calling an iterative solver
             0 MiB given to the printing process from OS
             0 MiB allocation reported by mallinfo(arena+hblkhd)
         50205 MiB available memory on the node where the printing process lives
------------------
     ethr =  1.15E-07,  avg # of iterations =  7.2

     negative rho (up, down):  7.931E-01 0.000E+00

     total cpu time spent up to now is      489.0 secs

     total energy              =   -4440.29023072 Ry
     estimated scf accuracy    <       0.00010515 Ry

     iteration # 32     ecut=    60.00 Ry     beta= 0.15
     Davidson diagonalization with overlap

---- Real-time Memory Report at c_bands before calling an iterative solver
             0 MiB given to the printing process from OS
             0 MiB allocation reported by mallinfo(arena+hblkhd)
         50216 MiB available memory on the node where the printing process lives
------------------
     ethr =  2.45E-08,  avg # of iterations =  3.0

     negative rho (up, down):  7.920E-01 0.000E+00

     total cpu time spent up to now is      503.5 secs

     total energy              =   -4440.29023007 Ry
     estimated scf accuracy    <       0.00006181 Ry

     iteration # 33     ecut=    60.00 Ry     beta= 0.15
     Davidson diagonalization with overlap

---- Real-time Memory Report at c_bands before calling an iterative solver
             0 MiB given to the printing process from OS
             0 MiB allocation reported by mallinfo(arena+hblkhd)
         50216 MiB available memory on the node where the printing process lives
------------------
     ethr =  1.44E-08,  avg # of iterations =  2.0

     negative rho (up, down):  7.922E-01 0.000E+00

     total cpu time spent up to now is      517.6 secs

     total energy              =   -4440.29022855 Ry
     estimated scf accuracy    <       0.00003709 Ry

     iteration # 34     ecut=    60.00 Ry     beta= 0.15
     Davidson diagonalization with overlap

---- Real-time Memory Report at c_bands before calling an iterative solver
             0 MiB given to the printing process from OS
             0 MiB allocation reported by mallinfo(arena+hblkhd)
         50251 MiB available memory on the node where the printing process lives
------------------
     ethr =  8.63E-09,  avg # of iterations =  2.0

     negative rho (up, down):  7.922E-01 0.000E+00

     total cpu time spent up to now is      531.9 secs

     total energy              =   -4440.29022343 Ry
     estimated scf accuracy    <       0.00002437 Ry

     iteration # 35     ecut=    60.00 Ry     beta= 0.15
     Davidson diagonalization with overlap

---- Real-time Memory Report at c_bands before calling an iterative solver
             0 MiB given to the printing process from OS
             0 MiB allocation reported by mallinfo(arena+hblkhd)
         50245 MiB available memory on the node where the printing process lives
------------------
     ethr =  5.67E-09,  avg # of iterations =  3.6

     negative rho (up, down):  7.922E-01 0.000E+00

     total cpu time spent up to now is      547.5 secs

     total energy              =   -4440.29022477 Ry
     estimated scf accuracy    <       0.00001301 Ry

     iteration # 36     ecut=    60.00 Ry     beta= 0.15
     Davidson diagonalization with overlap

---- Real-time Memory Report at c_bands before calling an iterative solver
             0 MiB given to the printing process from OS
             0 MiB allocation reported by mallinfo(arena+hblkhd)
         50242 MiB available memory on the node where the printing process lives
------------------
     ethr =  3.03E-09,  avg # of iterations =  1.1

     negative rho (up, down):  7.924E-01 0.000E+00

     total cpu time spent up to now is      560.6 secs

     total energy              =   -4440.29022643 Ry
     estimated scf accuracy    <       0.00000946 Ry

     iteration # 37     ecut=    60.00 Ry     beta= 0.15
     Davidson diagonalization with overlap

---- Real-time Memory Report at c_bands before calling an iterative solver
             0 MiB given to the printing process from OS
             0 MiB allocation reported by mallinfo(arena+hblkhd)
         50247 MiB available memory on the node where the printing process lives
------------------
     ethr =  2.20E-09,  avg # of iterations =  2.0

     negative rho (up, down):  7.926E-01 0.000E+00

     total cpu time spent up to now is      574.6 secs

     total energy              =   -4440.29022800 Ry
     estimated scf accuracy    <       0.00000760 Ry

     iteration # 38     ecut=    60.00 Ry     beta= 0.15
     Davidson diagonalization with overlap

---- Real-time Memory Report at c_bands before calling an iterative solver
             0 MiB given to the printing process from OS
             0 MiB allocation reported by mallinfo(arena+hblkhd)
         50279 MiB available memory on the node where the printing process lives
------------------
     ethr =  1.77E-09,  avg # of iterations =  2.0

     negative rho (up, down):  7.927E-01 0.000E+00

     total cpu time spent up to now is      588.8 secs

     total energy              =   -4440.29022822 Ry
     estimated scf accuracy    <       0.00000594 Ry

     iteration # 39     ecut=    60.00 Ry     beta= 0.15
     Davidson diagonalization with overlap

---- Real-time Memory Report at c_bands before calling an iterative solver
             0 MiB given to the printing process from OS
             0 MiB allocation reported by mallinfo(arena+hblkhd)
         50285 MiB available memory on the node where the printing process lives
------------------
     ethr =  1.38E-09,  avg # of iterations =  1.8

     negative rho (up, down):  7.928E-01 0.000E+00

     total cpu time spent up to now is      602.9 secs

     total energy              =   -4440.29022831 Ry
     estimated scf accuracy    <       0.00000471 Ry

     iteration # 40     ecut=    60.00 Ry     beta= 0.15
     Davidson diagonalization with overlap

---- Real-time Memory Report at c_bands before calling an iterative solver
             0 MiB given to the printing process from OS
             0 MiB allocation reported by mallinfo(arena+hblkhd)
         50284 MiB available memory on the node where the printing process lives
------------------
     ethr =  1.10E-09,  avg # of iterations =  2.0

     negative rho (up, down):  7.927E-01 0.000E+00

     total cpu time spent up to now is      617.0 secs

     total energy              =   -4440.29022812 Ry
     estimated scf accuracy    <       0.00000351 Ry

     iteration # 41     ecut=    60.00 Ry     beta= 0.15
     Davidson diagonalization with overlap

---- Real-time Memory Report at c_bands before calling an iterative solver
             0 MiB given to the printing process from OS
             0 MiB allocation reported by mallinfo(arena+hblkhd)
         50296 MiB available memory on the node where the printing process lives
------------------
     ethr =  8.17E-10,  avg # of iterations =  2.3

     negative rho (up, down):  7.926E-01 0.000E+00

     total cpu time spent up to now is      631.3 secs

     total energy              =   -4440.29022858 Ry
     estimated scf accuracy    <       0.00000123 Ry

     iteration # 42     ecut=    60.00 Ry     beta= 0.15
     Davidson diagonalization with overlap

---- Real-time Memory Report at c_bands before calling an iterative solver
             0 MiB given to the printing process from OS
             0 MiB allocation reported by mallinfo(arena+hblkhd)
         50298 MiB available memory on the node where the printing process lives
------------------
     ethr =  2.86E-10,  avg # of iterations =  3.0

     negative rho (up, down):  7.925E-01 0.000E+00

     total cpu time spent up to now is      646.1 secs

     total energy              =   -4440.29022867 Ry
     estimated scf accuracy    <       0.00000058 Ry

     iteration # 43     ecut=    60.00 Ry     beta= 0.15
     Davidson diagonalization with overlap

---- Real-time Memory Report at c_bands before calling an iterative solver
             0 MiB given to the printing process from OS
             0 MiB allocation reported by mallinfo(arena+hblkhd)
         50292 MiB available memory on the node where the printing process lives
------------------
     ethr =  1.36E-10,  avg # of iterations =  1.9

     negative rho (up, down):  7.925E-01 0.000E+00

     total cpu time spent up to now is      660.1 secs

     total energy              =   -4440.29022865 Ry
     estimated scf accuracy    <       0.00000041 Ry

     iteration # 44     ecut=    60.00 Ry     beta= 0.15
     Davidson diagonalization with overlap

---- Real-time Memory Report at c_bands before calling an iterative solver
             0 MiB given to the printing process from OS
             0 MiB allocation reported by mallinfo(arena+hblkhd)
         50294 MiB available memory on the node where the printing process lives
------------------
     ethr =  9.62E-11,  avg # of iterations =  2.0

     negative rho (up, down):  7.925E-01 0.000E+00

     total cpu time spent up to now is      674.4 secs

     total energy              =   -4440.29022864 Ry
     estimated scf accuracy    <       0.00000021 Ry

     iteration # 45     ecut=    60.00 Ry     beta= 0.15
     Davidson diagonalization with overlap

---- Real-time Memory Report at c_bands before calling an iterative solver
             0 MiB given to the printing process from OS
             0 MiB allocation reported by mallinfo(arena+hblkhd)
         50288 MiB available memory on the node where the printing process lives
------------------
     ethr =  4.99E-11,  avg # of iterations =  2.4

     negative rho (up, down):  7.926E-01 0.000E+00

     total cpu time spent up to now is      688.9 secs

     total energy              =   -4440.29022862 Ry
     estimated scf accuracy    <       0.00000009 Ry

     iteration # 46     ecut=    60.00 Ry     beta= 0.15
     Davidson diagonalization with overlap

---- Real-time Memory Report at c_bands before calling an iterative solver
             0 MiB given to the printing process from OS
             0 MiB allocation reported by mallinfo(arena+hblkhd)
         50290 MiB available memory on the node where the printing process lives
------------------
     ethr =  2.13E-11,  avg # of iterations =  2.6

     negative rho (up, down):  7.926E-01 0.000E+00

     total cpu time spent up to now is      703.4 secs

     total energy              =   -4440.29022863 Ry
     estimated scf accuracy    <       0.00000004 Ry

     iteration # 47     ecut=    60.00 Ry     beta= 0.15
     Davidson diagonalization with overlap

---- Real-time Memory Report at c_bands before calling an iterative solver
             0 MiB given to the printing process from OS
             0 MiB allocation reported by mallinfo(arena+hblkhd)
         50291 MiB available memory on the node where the printing process lives
------------------
     ethr =  9.13E-12,  avg # of iterations =  2.0

     negative rho (up, down):  7.926E-01 0.000E+00

     total cpu time spent up to now is      717.5 secs

     total energy              =   -4440.29022864 Ry
     estimated scf accuracy    <       0.00000003 Ry

     iteration # 48     ecut=    60.00 Ry     beta= 0.15
     Davidson diagonalization with overlap

---- Real-time Memory Report at c_bands before calling an iterative solver
             0 MiB given to the printing process from OS
             0 MiB allocation reported by mallinfo(arena+hblkhd)
         50293 MiB available memory on the node where the printing process lives
------------------
     ethr =  5.93E-12,  avg # of iterations =  2.0

     negative rho (up, down):  7.926E-01 0.000E+00

     total cpu time spent up to now is      731.7 secs

     total energy              =   -4440.29022863 Ry
     estimated scf accuracy    <       0.00000002 Ry

     iteration # 49     ecut=    60.00 Ry     beta= 0.15
     Davidson diagonalization with overlap

---- Real-time Memory Report at c_bands before calling an iterative solver
             0 MiB given to the printing process from OS
             0 MiB allocation reported by mallinfo(arena+hblkhd)
         50295 MiB available memory on the node where the printing process lives
------------------
     ethr =  3.53E-12,  avg # of iterations =  2.9

     negative rho (up, down):  7.926E-01 0.000E+00

     total cpu time spent up to now is      746.3 secs

     End of self-consistent calculation

          k = 0.0000 0.0000 0.0000 ( 65197 PWs)   bands (ev):

   -92.8450 -92.7904 -92.6983 -92.6449 -92.5935 -92.5512 -92.5336 -92.4122
   -56.1985 -56.1770 -56.0555 -56.0453 -56.0328 -56.0323 -55.9948 -55.9674
   -55.9525 -55.9510 -55.9412 -55.9007 -55.8799 -55.8442 -55.8248 -55.7938
   -55.7754 -55.7390 -55.7372 -55.7361 -55.7277 -55.6874 -55.6638 -55.5790
   -31.4097 -31.3902 -31.2484 -31.1619 -31.1373 -31.0562 -31.0246 -30.9087
   -29.9905 -29.9475 -29.9215 -29.8135 -15.2218 -15.1803 -15.0977 -14.9676
   -14.7746 -14.6508 -14.3594 -14.3387 -14.3098 -14.2627 -14.2173 -14.2077
   -14.1982 -14.1795 -14.1580 -14.1140 -14.0715 -13.9186 -13.7430 -13.7070
   -13.6770 -13.6481 -13.6293 -13.5698 -13.5384 -13.4527 -13.3847 -13.2482
   -13.2404 -13.2311 -13.2077 -13.1898 -13.1566 -13.1370 -13.1331 -13.1217
   -13.0855 -13.0556 -13.0343 -12.9896 -12.9698 -12.9550 -12.9243 -12.9058
   -12.8777 -12.8456 -12.8028 -12.7942 -12.4761 -12.3303 -12.1646 -12.0959
   -12.0040 -11.9658 -11.9299 -11.9187 -11.8961 -11.8785 -11.8149 -11.7975
   -11.7628 -11.7334 -11.6223 -11.5423 -11.5388  -3.0838  -2.8515  -2.6220
    -2.4750  -2.4123  -2.2699  -1.9624  -1.9485  -1.9291  -1.8447  -1.8251
    -1.7567  -1.7399  -1.6992  -1.6556  -1.4738  -1.2500  -1.2200  -1.0725
    -1.0582  -1.0132  -0.9938  -0.9472  -0.9307  -0.8762  -0.8491  -0.7749
    -0.7625  -0.6888  -0.5542  -0.5392  -0.5148  -0.4339  -0.4229  -0.4055
    -0.3378  -0.2706  -0.2131  -0.1716  -0.1391  -0.0761  -0.0054   0.0393
     0.0623   0.0736   0.3321   0.3467   0.5210   0.5850   0.6553   0.6964
     0.7858   0.7995   0.8144   0.8828   0.9088   0.9422   1.0011   1.1312
     1.1920   1.2113   1.2317   1.2459   1.3100   1.3789   1.4882   1.4982
     1.5674   1.5809   1.6218   1.6367   1.6440   1.7031   1.7582   1.7713
     1.8132   1.8550   1.8860   2.0178   2.1049   2.1441   2.1626   2.3164
     2.3323   2.3693   2.3727   2.4798   2.5153   2.5419   2.5604   2.5723
     2.6338   2.6469   2.6626   2.6828   2.7786   2.7974   2.8087   2.8164
     2.8839   2.8938   2.9112   2.9185   2.9279   2.9449   2.9507   2.9605
     2.9664   2.9796   2.9873   2.9946   3.0143   3.0359   3.0407   3.0539
     3.1155   3.1952   3.2897   3.9739   4.3134   4.6571   4.8494   4.9021
     5.7290   5.8160   5.8705   5.8892   6.1724   6.2191   6.4575   6.4665
     6.9614   6.9809   7.0963   7.1930   7.3784   7.4736   7.5389   7.5761
     7.5948   7.8930   7.9065   8.0572   8.0740   8.1444   8.3111   8.4163
     8.7374   8.8648

     occupation numbers 
     1.0000   1.0000   1.0000   1.0000   1.0000   1.0000   1.0000   1.0000
     1.0000   1.0000   1.0000   1.0000   1.0000   1.0000   1.0000   1.0000
     1.0000   1.0000   1.0000   1.0000   1.0000   1.0000   1.0000   1.0000
     1.0000   1.0000   1.0000   1.0000   1.0000   1.0000   1.0000   1.0000
     1.0000   1.0000   1.0000   1.0000   1.0000   1.0000   1.0000   1.0000
     1.0000   1.0000   1.0000   1.0000   1.0000   1.0000   1.0000   1.0000
     1.0000   1.0000   1.0000   1.0000   1.0000   1.0000   1.0000   1.0000
     1.0000   1.0000   1.0000   1.0000   1.0000   1.0000   1.0000   1.0000
     1.0000   1.0000   1.0000   1.0000   1.0000   1.0000   1.0000   1.0000
     1.0000   1.0000   1.0000   1.0000   1.0000   1.0000   1.0000   1.0000
     1.0000   1.0000   1.0000   1.0000   1.0000   1.0000   1.0000   1.0000
     1.0000   1.0000   1.0000   1.0000   1.0000   1.0000   1.0000   1.0000
     1.0000   1.0000   1.0000   1.0000   1.0000   1.0000   1.0000   1.0000
     1.0000   1.0000   1.0000   1.0000   1.0000   1.0000   1.0000   1.0000
     1.0000   1.0000   1.0000   1.0000   1.0000   1.0000   1.0000   1.0000
     1.0000   1.0000   1.0000   1.0000   1.0000   1.0000   1.0000   1.0000
     1.0000   1.0000   1.0000   1.0000   1.0000   1.0000   1.0000   1.0000
     1.0000   1.0000   1.0000   1.0000   1.0000   1.0000   1.0000   1.0000
     1.0000   1.0000   1.0000   1.0000   1.0000   1.0000   1.0000   1.0000
     1.0000   1.0000   1.0000   1.0000   1.0000   0.9999   0.9999   0.9999
     0.9998   0.9998   0.9998   0.9997   0.9996   0.9996   0.9994   0.9988
     0.9985   0.9983   0.9981   0.9980   0.9973   0.9963   0.9941   0.9938
     0.9918   0.9914   0.9898   0.9892   0.9889   0.9861   0.9829   0.9820
     0.9791   0.9758   0.9730   0.9583   0.9455   0.9387   0.9353   0.9011
     0.8970   0.8868   0.8858   0.8521   0.8396   0.8298   0.8227   0.8181
     0.7930   0.7874   0.7806   0.7716   0.7264   0.7170   0.7113   0.7074
     0.6720   0.6667   0.6573   0.6532   0.6481   0.6387   0.6354   0.6300
     0.6267   0.6192   0.6149   0.6107   0.5994   0.5870   0.5842   0.5765
     0.5405   0.4933   0.4376   0.1204   0.0468   0.0144   0.0067   0.0054
     0.0001   0.0000   0.0000   0.0000   0.0000   0.0000   0.0000   0.0000
     0.0000   0.0000   0.0000   0.0000   0.0000   0.0000   0.0000   0.0000
     0.0000   0.0000   0.0000   0.0000   0.0000   0.0000   0.0000   0.0000
     0.0000   0.0000

          k = 0.0000 0.2500 0.0000 ( 65257 PWs)   bands (ev):

   -92.8450 -92.7904 -92.6983 -92.6449 -92.5935 -92.5512 -92.5336 -92.4122
   -56.1985 -56.1770 -56.0555 -56.0453 -56.0328 -56.0323 -55.9948 -55.9674
   -55.9525 -55.9510 -55.9412 -55.9007 -55.8799 -55.8442 -55.8248 -55.7938
   -55.7754 -55.7390 -55.7372 -55.7361 -55.7277 -55.6874 -55.6638 -55.5790
   -31.4095 -31.3901 -31.2486 -31.1621 -31.1369 -31.0566 -31.0244 -30.9089
   -29.9899 -29.9471 -29.9221 -29.8138 -15.1851 -15.1541 -15.0726 -14.9383
   -14.8163 -14.6413 -14.5054 -14.3248 -14.2901 -14.2666 -14.2386 -14.1830
   -14.1752 -14.1615 -14.1409 -14.0875 -13.9906 -13.9497 -13.7852 -13.7680
   -13.7170 -13.6822 -13.6404 -13.5905 -13.5434 -13.4781 -13.4386 -13.3539
   -13.3072 -13.2798 -13.2409 -13.2232 -13.1473 -13.1198 -13.0939 -13.0671
   -13.0358 -13.0207 -13.0001 -12.9582 -12.9346 -12.9256 -12.9072 -12.8587
   -12.8536 -12.8260 -12.7160 -12.6436 -12.5374 -12.3816 -12.2201 -12.1628
   -11.9698 -11.9660 -11.9267 -11.8986 -11.8706 -11.8540 -11.8068 -11.7953
   -11.7725 -11.7384 -11.6367 -11.5840 -11.5734  -2.9485  -2.7272  -2.5896
    -2.4075  -2.3639  -2.2004  -1.9800  -1.8968  -1.8838  -1.8262  -1.7229
    -1.7070  -1.6736  -1.6459  -1.6022  -1.4049  -1.2762  -1.2648  -1.1883
    -1.1784  -1.0738  -1.0433  -0.9853  -0.9602  -0.9201  -0.8562  -0.8288
    -0.7976  -0.7625  -0.7468  -0.7151  -0.6385  -0.5908  -0.5277  -0.4096
    -0.3935  -0.3469  -0.2293  -0.1910  -0.1271  -0.0831  -0.0196  -0.0082
     0.0211   0.0835   0.3800   0.4668   0.4990   0.5880   0.6360   0.6564
     0.7696   0.7877   0.8864   0.9106   0.9343   1.0489   1.1436   1.1671
     1.1890   1.2076   1.2341   1.2935   1.3209   1.3490   1.3962   1.4338
     1.4636   1.5475   1.5786   1.6234   1.6687   1.7275   1.7780   1.7998
     1.8199   1.8421   1.9307   2.0536   2.1267   2.1448   2.2178   2.2681
     2.3083   2.3187   2.3752   2.4126   2.4968   2.5348   2.5505   2.6391
     2.6516   2.6690   2.7255   2.7557   2.7813   2.8008   2.8188   2.8254
     2.8324   2.8492   2.8718   2.8735   2.8946   2.8973   2.9067   2.9285
     2.9398   2.9498   2.9668   2.9767   2.9813   3.0165   3.0346   3.0954
     3.4804   3.5213   3.7383   4.1607   4.3193   4.5838   4.9228   5.0128
     5.5448   5.6534   5.8355   5.9430   5.9692   6.0082   6.0947   6.5715
     7.0173   7.0540   7.2030   7.2689   7.3790   7.4335   7.4594   7.5726
     7.7142   7.9846   8.0980   8.2031   8.3018   8.3143   8.3278   8.3480
     8.4666   8.8330

     occupation numbers 
     1.0000   1.0000   1.0000   1.0000   1.0000   1.0000   1.0000   1.0000
     1.0000   1.0000   1.0000   1.0000   1.0000   1.0000   1.0000   1.0000
     1.0000   1.0000   1.0000   1.0000   1.0000   1.0000   1.0000   1.0000
     1.0000   1.0000   1.0000   1.0000   1.0000   1.0000   1.0000   1.0000
     1.0000   1.0000   1.0000   1.0000   1.0000   1.0000   1.0000   1.0000
     1.0000   1.0000   1.0000   1.0000   1.0000   1.0000   1.0000   1.0000
     1.0000   1.0000   1.0000   1.0000   1.0000   1.0000   1.0000   1.0000
     1.0000   1.0000   1.0000   1.0000   1.0000   1.0000   1.0000   1.0000
     1.0000   1.0000   1.0000   1.0000   1.0000   1.0000   1.0000   1.0000
     1.0000   1.0000   1.0000   1.0000   1.0000   1.0000   1.0000   1.0000
     1.0000   1.0000   1.0000   1.0000   1.0000   1.0000   1.0000   1.0000
     1.0000   1.0000   1.0000   1.0000   1.0000   1.0000   1.0000   1.0000
     1.0000   1.0000   1.0000   1.0000   1.0000   1.0000   1.0000   1.0000
     1.0000   1.0000   1.0000   1.0000   1.0000   1.0000   1.0000   1.0000
     1.0000   1.0000   1.0000   1.0000   1.0000   1.0000   1.0000   1.0000
     1.0000   1.0000   1.0000   1.0000   1.0000   1.0000   1.0000   1.0000
     1.0000   1.0000   1.0000   1.0000   1.0000   1.0000   1.0000   1.0000
     1.0000   1.0000   1.0000   1.0000   1.0000   1.0000   1.0000   1.0000
     1.0000   1.0000   1.0000   1.0000   1.0000   1.0000   1.0000   1.0000
     1.0000   1.0000   1.0000   1.0000   1.0000   0.9999   0.9999   0.9999
     0.9998   0.9998   0.9997   0.9996   0.9996   0.9992   0.9988   0.9986
     0.9985   0.9983   0.9981   0.9975   0.9972   0.9968   0.9960   0.9953
     0.9947   0.9924   0.9914   0.9898   0.9878   0.9847   0.9816   0.9801
     0.9786   0.9768   0.9686   0.9534   0.9418   0.9386   0.9243   0.9131
     0.9032   0.9006   0.8851   0.8740   0.8462   0.8324   0.8265   0.7908
     0.7853   0.7778   0.7520   0.7376   0.7250   0.7153   0.7061   0.7028
     0.6992   0.6904   0.6785   0.6776   0.6663   0.6648   0.6597   0.6478
     0.6415   0.6359   0.6264   0.6208   0.6183   0.5982   0.5877   0.5523
     0.3299   0.3082   0.2052   0.0735   0.0459   0.0188   0.0049   0.0033
     0.0002   0.0001   0.0000   0.0000   0.0000   0.0000   0.0000   0.0000
     0.0000   0.0000   0.0000   0.0000   0.0000   0.0000   0.0000   0.0000
     0.0000   0.0000   0.0000   0.0000   0.0000   0.0000   0.0000   0.0000
     0.0000   0.0000

          k = 0.0000-0.5000 0.0000 ( 65180 PWs)   bands (ev):

   -92.8450 -92.7904 -92.6983 -92.6449 -92.5935 -92.5512 -92.5336 -92.4122
   -56.1985 -56.1770 -56.0555 -56.0453 -56.0328 -56.0323 -55.9948 -55.9674
   -55.9525 -55.9510 -55.9412 -55.9007 -55.8799 -55.8442 -55.8248 -55.7938
   -55.7754 -55.7390 -55.7372 -55.7361 -55.7277 -55.6874 -55.6638 -55.5790
   -31.4093 -31.3899 -31.2488 -31.1622 -31.1365 -31.0569 -31.0241 -30.9092
   -29.9892 -29.9468 -29.9227 -29.8142 -15.1511 -15.1020 -15.0491 -14.9210
   -14.8368 -14.6994 -14.5451 -14.4208 -14.2969 -14.2215 -14.1826 -14.1769
   -14.1255 -14.1095 -14.0608 -14.0411 -14.0156 -13.9795 -13.9411 -13.9008
   -13.7225 -13.6649 -13.6476 -13.5952 -13.5304 -13.4964 -13.4389 -13.4144
   -13.3908 -13.3491 -13.2417 -13.2240 -13.1343 -13.1025 -13.0923 -13.0657
   -13.0601 -13.0151 -12.9578 -12.9217 -12.9049 -12.8484 -12.8417 -12.8389
   -12.8282 -12.7850 -12.6483 -12.5736 -12.4568 -12.4264 -12.3283 -12.2853
   -11.9666 -11.9236 -11.9211 -11.8934 -11.8565 -11.8220 -11.8106 -11.7684
   -11.7646 -11.7200 -11.6585 -11.6447 -11.6306  -2.7343  -2.6741  -2.5242
    -2.4520  -2.1708  -2.0844  -1.9600  -1.8222  -1.7866  -1.7651  -1.6873
    -1.6554  -1.5736  -1.5378  -1.4609  -1.4205  -1.3826  -1.3551  -1.2978
    -1.2590  -1.2136  -1.1769  -1.1441  -1.1099  -1.0002  -0.9553  -0.9200
    -0.9191  -0.8329  -0.8006  -0.7778  -0.7269  -0.6445  -0.5671  -0.4878
    -0.4604  -0.3454  -0.3003  -0.1703  -0.1353  -0.1050  -0.0448   0.0884
     0.1325   0.2507   0.3197   0.3262   0.4549   0.5065   0.6177   0.7349
     0.8435   0.8733   0.9134   0.9172   0.9589   0.9726   1.0090   1.0287
     1.0374   1.1479   1.2110   1.2342   1.2586   1.5230   1.5591   1.5832
     1.6790   1.7067   1.7328   1.7479   1.7716   1.7930   1.8070   1.8341
     1.8605   1.8921   1.9232   1.9258   1.9598   2.0118   2.0955   2.1292
     2.3124   2.4609   2.4712   2.4900   2.5154   2.5278   2.5382   2.5823
     2.6014   2.6360   2.6547   2.6588   2.6765   2.6877   2.7617   2.7763
     2.8363   2.8596   2.8673   2.8692   2.8883   2.8963   2.9015   2.9032
     2.9071   2.9288   2.9364   2.9463   3.0016   3.0095   3.0243   3.0765
     3.9924   4.0424   4.0813   4.1236   4.5985   4.7701   4.9444   5.0250
     5.3239   5.3885   5.5233   5.6026   5.8845   5.9177   6.2549   6.6011
     6.8194   6.9136   7.1689   7.3292   7.5176   7.5832   7.6786   7.6902
     7.8083   7.9977   8.1248   8.1374   8.2712   8.3352   8.3811   8.5539
     8.7206   8.7718

     occupation numbers 
     1.0000   1.0000   1.0000   1.0000   1.0000   1.0000   1.0000   1.0000
     1.0000   1.0000   1.0000   1.0000   1.0000   1.0000   1.0000   1.0000
     1.0000   1.0000   1.0000   1.0000   1.0000   1.0000   1.0000   1.0000
     1.0000   1.0000   1.0000   1.0000   1.0000   1.0000   1.0000   1.0000
     1.0000   1.0000   1.0000   1.0000   1.0000   1.0000   1.0000   1.0000
     1.0000   1.0000   1.0000   1.0000   1.0000   1.0000   1.0000   1.0000
     1.0000   1.0000   1.0000   1.0000   1.0000   1.0000   1.0000   1.0000
     1.0000   1.0000   1.0000   1.0000   1.0000   1.0000   1.0000   1.0000
     1.0000   1.0000   1.0000   1.0000   1.0000   1.0000   1.0000   1.0000
     1.0000   1.0000   1.0000   1.0000   1.0000   1.0000   1.0000   1.0000
     1.0000   1.0000   1.0000   1.0000   1.0000   1.0000   1.0000   1.0000
     1.0000   1.0000   1.0000   1.0000   1.0000   1.0000   1.0000   1.0000
     1.0000   1.0000   1.0000   1.0000   1.0000   1.0000   1.0000   1.0000
     1.0000   1.0000   1.0000   1.0000   1.0000   1.0000   1.0000   1.0000
     1.0000   1.0000   1.0000   1.0000   1.0000   1.0000   1.0000   1.0000
     1.0000   1.0000   1.0000   1.0000   1.0000   1.0000   1.0000   1.0000
     1.0000   1.0000   1.0000   1.0000   1.0000   1.0000   1.0000   1.0000
     1.0000   1.0000   1.0000   1.0000   1.0000   1.0000   1.0000   1.0000
     1.0000   1.0000   1.0000   1.0000   1.0000   1.0000   1.0000   1.0000
     1.0000   1.0000   1.0000   1.0000   1.0000   1.0000   0.9999   0.9999
     0.9997   0.9997   0.9996   0.9996   0.9995   0.9995   0.9994   0.9993
     0.9993   0.9987   0.9983   0.9981   0.9979   0.9932   0.9921   0.9913
     0.9873   0.9859   0.9844   0.9835   0.9820   0.9806   0.9796   0.9775
     0.9753   0.9725   0.9694   0.9691   0.9654   0.9591   0.9470   0.9413
     0.9022   0.8585   0.8550   0.8486   0.8396   0.8350   0.8312   0.8142
     0.8065   0.7921   0.7840   0.7822   0.7744   0.7694   0.7347   0.7275
     0.6971   0.6849   0.6809   0.6799   0.6696   0.6653   0.6625   0.6616
     0.6595   0.6476   0.6434   0.6379   0.6067   0.6022   0.5937   0.5634
     0.1150   0.1012   0.0914   0.0815   0.0178   0.0093   0.0045   0.0031
     0.0007   0.0005   0.0003   0.0002   0.0000   0.0000   0.0000   0.0000
     0.0000   0.0000   0.0000   0.0000   0.0000   0.0000   0.0000   0.0000
     0.0000   0.0000   0.0000   0.0000   0.0000   0.0000   0.0000   0.0000
     0.0000   0.0000

          k = 0.2500 0.2500 0.0000 ( 65198 PWs)   bands (ev):

   -92.8450 -92.7904 -92.6983 -92.6449 -92.5935 -92.5512 -92.5336 -92.4122
   -56.1985 -56.1770 -56.0555 -56.0453 -56.0328 -56.0323 -55.9948 -55.9674
   -55.9525 -55.9510 -55.9412 -55.9007 -55.8799 -55.8442 -55.8248 -55.7938
   -55.7754 -55.7390 -55.7372 -55.7361 -55.7277 -55.6874 -55.6638 -55.5790
   -31.4079 -31.3918 -31.2483 -31.1625 -31.1366 -31.0564 -31.0246 -30.9092
   -29.9889 -29.9481 -29.9217 -29.8143 -15.1566 -15.1193 -15.0447 -14.9278
   -14.8085 -14.6824 -14.6108 -14.4031 -14.2478 -14.2334 -14.1978 -14.1693
   -14.1476 -14.1209 -14.0875 -14.0498 -13.9804 -13.9639 -13.8008 -13.7874
   -13.7599 -13.7372 -13.6926 -13.6486 -13.5720 -13.5613 -13.4180 -13.3876
   -13.3599 -13.2743 -13.2338 -13.1827 -13.1513 -13.1130 -13.1021 -13.0789
   -13.0501 -13.0157 -12.9817 -12.9313 -12.8993 -12.8852 -12.8767 -12.8477
   -12.8359 -12.8255 -12.6477 -12.5858 -12.5340 -12.4107 -12.2507 -12.2124
   -11.9664 -11.9417 -11.9103 -11.8991 -11.8919 -11.8298 -11.7946 -11.7882
   -11.7529 -11.7445 -11.6534 -11.6124 -11.5948  -2.8102  -2.6014  -2.4835
    -2.3890  -2.2687  -2.2035  -2.0051  -1.8616  -1.8422  -1.8127  -1.7179
    -1.6839  -1.5894  -1.5619  -1.5114  -1.3804  -1.3327  -1.2601  -1.2151
    -1.1707  -1.1471  -1.1226  -1.0797  -1.0649  -0.9741  -0.9237  -0.8590
    -0.8087  -0.7771  -0.7292  -0.7129  -0.6507  -0.6030  -0.5476  -0.5107
    -0.4257  -0.3709  -0.3425  -0.3049  -0.2489  -0.1650  -0.1339  -0.1107
    -0.0273   0.0025   0.2682   0.4158   0.4516   0.5120   0.5549   0.6166
     0.6724   0.7295   0.7634   1.0337   1.0987   1.1727   1.1989   1.2467
     1.2786   1.3125   1.3504   1.3675   1.3950   1.4417   1.4489   1.4635
     1.5074   1.5498   1.5872   1.6523   1.6928   1.6956   1.7402   1.7686
     1.8199   1.8566   1.9713   2.0354   2.0696   2.0929   2.1598   2.2315
     2.2553   2.2899   2.3170   2.3311   2.4404   2.4753   2.5631   2.6403
     2.6485   2.6879   2.7399   2.7526   2.7593   2.7743   2.7896   2.8022
     2.8152   2.8226   2.8353   2.8447   2.8581   2.8760   2.8819   2.8952
     2.9184   2.9290   2.9367   2.9688   3.2688   3.3655   3.4073   3.4770
     3.5488   3.7147   3.8129   4.1725   4.4064   4.5917   4.8425   5.1524
     5.5328   5.5878   5.6245   5.6986   5.7593   6.0850   6.1224   6.1872
     6.8585   7.0263   7.1554   7.3456   7.4829   7.5135   7.6233   7.7869
     7.8433   7.9888   8.2091   8.2357   8.3547   8.3852   8.4210   8.4548
     8.5317   8.6257

     occupation numbers 
     1.0000   1.0000   1.0000   1.0000   1.0000   1.0000   1.0000   1.0000
     1.0000   1.0000   1.0000   1.0000   1.0000   1.0000   1.0000   1.0000
     1.0000   1.0000   1.0000   1.0000   1.0000   1.0000   1.0000   1.0000
     1.0000   1.0000   1.0000   1.0000   1.0000   1.0000   1.0000   1.0000
     1.0000   1.0000   1.0000   1.0000   1.0000   1.0000   1.0000   1.0000
     1.0000   1.0000   1.0000   1.0000   1.0000   1.0000   1.0000   1.0000
     1.0000   1.0000   1.0000   1.0000   1.0000   1.0000   1.0000   1.0000
     1.0000   1.0000   1.0000   1.0000   1.0000   1.0000   1.0000   1.0000
     1.0000   1.0000   1.0000   1.0000   1.0000   1.0000   1.0000   1.0000
     1.0000   1.0000   1.0000   1.0000   1.0000   1.0000   1.0000   1.0000
     1.0000   1.0000   1.0000   1.0000   1.0000   1.0000   1.0000   1.0000
     1.0000   1.0000   1.0000   1.0000   1.0000   1.0000   1.0000   1.0000
     1.0000   1.0000   1.0000   1.0000   1.0000   1.0000   1.0000   1.0000
     1.0000   1.0000   1.0000   1.0000   1.0000   1.0000   1.0000   1.0000
     1.0000   1.0000   1.0000   1.0000   1.0000   1.0000   1.0000   1.0000
     1.0000   1.0000   1.0000   1.0000   1.0000   1.0000   1.0000   1.0000
     1.0000   1.0000   1.0000   1.0000   1.0000   1.0000   1.0000   1.0000
     1.0000   1.0000   1.0000   1.0000   1.0000   1.0000   1.0000   1.0000
     1.0000   1.0000   1.0000   1.0000   1.0000   1.0000   1.0000   1.0000
     1.0000   1.0000   1.0000   1.0000   1.0000   1.0000   1.0000   0.9999
     0.9999   0.9999   0.9998   0.9993   0.9990   0.9986   0.9984   0.9980
     0.9977   0.9973   0.9968   0.9965   0.9961   0.9952   0.9950   0.9947
     0.9936   0.9924   0.9911   0.9885   0.9866   0.9864   0.9840   0.9822
     0.9786   0.9756   0.9641   0.9559   0.9510   0.9474   0.9358   0.9213
     0.9160   0.9078   0.9010   0.8973   0.8652   0.8537   0.8217   0.7902
     0.7867   0.7693   0.7451   0.7391   0.7358   0.7285   0.7209   0.7146
     0.7080   0.7042   0.6976   0.6928   0.6857   0.6762   0.6731   0.6659
     0.6533   0.6475   0.6432   0.6253   0.4498   0.3937   0.3701   0.3317
     0.2940   0.2153   0.1751   0.0711   0.0347   0.0183   0.0069   0.0017
     0.0002   0.0002   0.0001   0.0001   0.0001   0.0000   0.0000   0.0000
     0.0000   0.0000   0.0000   0.0000   0.0000   0.0000   0.0000   0.0000
     0.0000   0.0000   0.0000   0.0000   0.0000   0.0000   0.0000   0.0000
     0.0000   0.0000

          k = 0.2500-0.5000 0.0000 ( 65138 PWs)   bands (ev):

   -92.8450 -92.7904 -92.6983 -92.6449 -92.5935 -92.5512 -92.5336 -92.4122
   -56.1985 -56.1770 -56.0555 -56.0453 -56.0328 -56.0323 -55.9948 -55.9674
   -55.9525 -55.9510 -55.9412 -55.9007 -55.8799 -55.8442 -55.8248 -55.7938
   -55.7754 -55.7390 -55.7372 -55.7361 -55.7277 -55.6874 -55.6638 -55.5790
   -31.4077 -31.3916 -31.2485 -31.1626 -31.1363 -31.0567 -31.0244 -30.9094
   -29.9883 -29.9478 -29.9223 -29.8146 -15.1208 -15.0751 -15.0063 -14.8910
   -14.8592 -14.7399 -14.6478 -14.5187 -14.2121 -14.1582 -14.1334 -14.1105
   -14.0943 -14.0819 -14.0460 -14.0299 -13.9960 -13.9565 -13.9333 -13.8897
   -13.8044 -13.7545 -13.7087 -13.6761 -13.6046 -13.5793 -13.4726 -13.4418
   -13.3396 -13.2745 -13.2524 -13.1673 -13.1229 -13.1079 -13.0908 -13.0772
   -13.0459 -13.0337 -12.9759 -12.9185 -12.9020 -12.8779 -12.8456 -12.8442
   -12.7889 -12.7569 -12.6548 -12.5481 -12.4543 -12.3978 -12.3199 -12.2879
   -11.9666 -11.9174 -11.9054 -11.8944 -11.8671 -11.8357 -11.8072 -11.7659
   -11.7388 -11.7164 -11.6716 -11.6458 -11.6347  -2.5925  -2.5255  -2.3980
    -2.3206  -2.1911  -2.1048  -1.9843  -1.8338  -1.7805  -1.7578  -1.6947
    -1.6820  -1.5843  -1.5173  -1.4326  -1.3825  -1.3730  -1.3105  -1.2678
    -1.2326  -1.1857  -1.1483  -1.1137  -1.0739  -1.0619  -1.0168  -0.9873
    -0.9459  -0.9145  -0.8477  -0.7472  -0.7032  -0.6269  -0.5610  -0.5134
    -0.4692  -0.4482  -0.3949  -0.2307  -0.2179  -0.1232  -0.0826  -0.0725
    -0.0323   0.0020   0.0458   0.0697   0.1341   0.4109   0.5071   0.5844
     0.6429   0.8947   0.9231   1.0075   1.0336   1.1960   1.2297   1.2731
     1.2952   1.3095   1.3302   1.3921   1.4389   1.4745   1.5576   1.6525
     1.6936   1.7091   1.7197   1.7575   1.7695   1.7782   1.8229   1.8307
     1.8595   1.8815   1.9004   1.9188   1.9556   2.0112   2.0500   2.1307
     2.2718   2.4134   2.4304   2.4493   2.4761   2.5001   2.5213   2.5494
     2.5544   2.5766   2.6377   2.6518   2.6836   2.7115   2.7442   2.7544
     2.7579   2.7710   2.7925   2.8053   2.8262   2.8319   2.8654   2.8779
     2.8899   2.8997   2.9082   2.9209   3.4533   3.4642   3.6011   3.6524
     4.0184   4.0505   4.0942   4.1799   4.6180   4.7909   4.9626   4.9944
     5.1764   5.3319   5.5279   5.5522   5.6639   5.6994   6.3378   6.3726
     6.4672   6.7165   7.1798   7.6153   7.6782   7.6906   7.7451   7.8152
     7.8524   7.9586   8.1812   8.3469   8.4155   8.4428   8.5781   8.5940
     8.6249   8.6643

     occupation numbers 
     1.0000   1.0000   1.0000   1.0000   1.0000   1.0000   1.0000   1.0000
     1.0000   1.0000   1.0000   1.0000   1.0000   1.0000   1.0000   1.0000
     1.0000   1.0000   1.0000   1.0000   1.0000   1.0000   1.0000   1.0000
     1.0000   1.0000   1.0000   1.0000   1.0000   1.0000   1.0000   1.0000
     1.0000   1.0000   1.0000   1.0000   1.0000   1.0000   1.0000   1.0000
     1.0000   1.0000   1.0000   1.0000   1.0000   1.0000   1.0000   1.0000
     1.0000   1.0000   1.0000   1.0000   1.0000   1.0000   1.0000   1.0000
     1.0000   1.0000   1.0000   1.0000   1.0000   1.0000   1.0000   1.0000
     1.0000   1.0000   1.0000   1.0000   1.0000   1.0000   1.0000   1.0000
     1.0000   1.0000   1.0000   1.0000   1.0000   1.0000   1.0000   1.0000
     1.0000   1.0000   1.0000   1.0000   1.0000   1.0000   1.0000   1.0000
     1.0000   1.0000   1.0000   1.0000   1.0000   1.0000   1.0000   1.0000
     1.0000   1.0000   1.0000   1.0000   1.0000   1.0000   1.0000   1.0000
     1.0000   1.0000   1.0000   1.0000   1.0000   1.0000   1.0000   1.0000
     1.0000   1.0000   1.0000   1.0000   1.0000   1.0000   1.0000   1.0000
     1.0000   1.0000   1.0000   1.0000   1.0000   1.0000   1.0000   1.0000
     1.0000   1.0000   1.0000   1.0000   1.0000   1.0000   1.0000   1.0000
     1.0000   1.0000   1.0000   1.0000   1.0000   1.0000   1.0000   1.0000
     1.0000   1.0000   1.0000   1.0000   1.0000   1.0000   1.0000   1.0000
     1.0000   1.0000   1.0000   1.0000   1.0000   1.0000   1.0000   0.9999
     0.9999   0.9997   0.9996   0.9994   0.9993   0.9984   0.9981   0.9977
     0.9975   0.9973   0.9970   0.9961   0.9952   0.9944   0.9921   0.9885
     0.9865   0.9857   0.9852   0.9829   0.9821   0.9816   0.9784   0.9778
     0.9754   0.9734   0.9717   0.9698   0.9659   0.9592   0.9539   0.9411
     0.9122   0.8737   0.8684   0.8623   0.8534   0.8451   0.8374   0.8270
     0.8251   0.8164   0.7913   0.7853   0.7712   0.7585   0.7431   0.7382
     0.7365   0.7301   0.7194   0.7130   0.7023   0.6994   0.6819   0.6752
     0.6688   0.6635   0.6589   0.6519   0.3446   0.3386   0.2678   0.2433
     0.1076   0.0991   0.0882   0.0696   0.0166   0.0085   0.0041   0.0036
     0.0015   0.0007   0.0003   0.0002   0.0001   0.0001   0.0000   0.0000
     0.0000   0.0000   0.0000   0.0000   0.0000   0.0000   0.0000   0.0000
     0.0000   0.0000   0.0000   0.0000   0.0000   0.0000   0.0000   0.0000
     0.0000   0.0000

          k =-0.5000-0.5000 0.0000 ( 65132 PWs)   bands (ev):

   -92.8450 -92.7904 -92.6983 -92.6449 -92.5935 -92.5512 -92.5336 -92.4122
   -56.1985 -56.1770 -56.0555 -56.0453 -56.0328 -56.0323 -55.9948 -55.9674
   -55.9525 -55.9510 -55.9412 -55.9007 -55.8799 -55.8442 -55.8248 -55.7938
   -55.7754 -55.7390 -55.7372 -55.7361 -55.7277 -55.6874 -55.6638 -55.5790
   -31.4055 -31.3938 -31.2481 -31.1630 -31.1360 -31.0565 -31.0246 -30.9097
   -29.9872 -29.9489 -29.9219 -29.8150 -15.0749 -15.0479 -14.9308 -14.9184
   -14.8218 -14.7881 -14.7503 -14.6187 -14.1249 -14.1106 -14.0786 -14.0575
   -14.0402 -14.0285 -14.0007 -13.9903 -13.9728 -13.9645 -13.9473 -13.8714
   -13.8622 -13.8300 -13.8007 -13.7980 -13.6924 -13.6415 -13.5079 -13.4845
   -13.2905 -13.2496 -13.1825 -13.1586 -13.1235 -13.1174 -13.1081 -13.0898
   -13.0567 -13.0044 -12.9702 -12.9241 -12.9154 -12.8840 -12.8729 -12.8544
   -12.7379 -12.7308 -12.6710 -12.5254 -12.4506 -12.3661 -12.3157 -12.2902
   -11.9665 -11.9140 -11.9015 -11.8835 -11.8669 -11.8318 -11.8144 -11.7792
   -11.7192 -11.6987 -11.6939 -11.6436 -11.6406  -2.3687  -2.2925  -2.2790
    -2.2102  -2.1719  -2.0932  -2.0256  -1.9001  -1.7840  -1.7528  -1.7158
    -1.6577  -1.5856  -1.5705  -1.5004  -1.4575  -1.3397  -1.3108  -1.2627
    -1.2344  -1.1703  -1.1237  -1.1048  -1.0919  -1.0396  -0.9948  -0.9788
    -0.8664  -0.8096  -0.7631  -0.7118  -0.6846  -0.6750  -0.6377  -0.5922
    -0.5597  -0.5479  -0.4632  -0.3954  -0.3518  -0.3239  -0.2516  -0.1939
    -0.1666  -0.1191  -0.1010  -0.0835  -0.0718   0.3813   0.4315   0.5327
     0.5646   0.9295   0.9402   0.9735   1.0106   1.2818   1.3021   1.3087
     1.3452   1.4751   1.5700   1.5981   1.6339   1.6585   1.6813   1.6888
     1.7201   1.7355   1.7558   1.7595   1.8059   1.8096   1.8383   1.8706
     1.8808   1.8952   1.9332   1.9536   1.9688   1.9973   2.0245   2.0909
     2.1584   2.4217   2.4559   2.4740   2.4951   2.5011   2.5346   2.5375
     2.5538   2.5666   2.5851   2.6054   2.6172   2.6392   2.6454   2.6841
     2.6897   2.6964   2.7126   2.7384   2.7456   2.7596   2.7691   2.7721
     2.8768   2.8800   2.9043   2.9141   3.8677   3.8957   3.9438   4.0194
     4.1769   4.2504   4.2759   4.5173   4.6386   4.7215   4.8556   4.9568
     4.9644   5.0641   5.2175   5.2581   5.8346   5.8666   5.9261   6.0188
     6.5216   6.8518   6.9133   7.3874   7.8723   7.8826   7.9611   8.0876
     8.1229   8.1739   8.2251   8.2423   8.3673   8.4916   8.5241   8.5391
     8.5646   8.6339

     occupation numbers 
     1.0000   1.0000   1.0000   1.0000   1.0000   1.0000   1.0000   1.0000
     1.0000   1.0000   1.0000   1.0000   1.0000   1.0000   1.0000   1.0000
     1.0000   1.0000   1.0000   1.0000   1.0000   1.0000   1.0000   1.0000
     1.0000   1.0000   1.0000   1.0000   1.0000   1.0000   1.0000   1.0000
     1.0000   1.0000   1.0000   1.0000   1.0000   1.0000   1.0000   1.0000
     1.0000   1.0000   1.0000   1.0000   1.0000   1.0000   1.0000   1.0000
     1.0000   1.0000   1.0000   1.0000   1.0000   1.0000   1.0000   1.0000
     1.0000   1.0000   1.0000   1.0000   1.0000   1.0000   1.0000   1.0000
     1.0000   1.0000   1.0000   1.0000   1.0000   1.0000   1.0000   1.0000
     1.0000   1.0000   1.0000   1.0000   1.0000   1.0000   1.0000   1.0000
     1.0000   1.0000   1.0000   1.0000   1.0000   1.0000   1.0000   1.0000
     1.0000   1.0000   1.0000   1.0000   1.0000   1.0000   1.0000   1.0000
     1.0000   1.0000   1.0000   1.0000   1.0000   1.0000   1.0000   1.0000
     1.0000   1.0000   1.0000   1.0000   1.0000   1.0000   1.0000   1.0000
     1.0000   1.0000   1.0000   1.0000   1.0000   1.0000   1.0000   1.0000
     1.0000   1.0000   1.0000   1.0000   1.0000   1.0000   1.0000   1.0000
     1.0000   1.0000   1.0000   1.0000   1.0000   1.0000   1.0000   1.0000
     1.0000   1.0000   1.0000   1.0000   1.0000   1.0000   1.0000   1.0000
     1.0000   1.0000   1.0000   1.0000   1.0000   1.0000   1.0000   1.0000
     1.0000   1.0000   1.0000   1.0000   1.0000   1.0000   1.0000   1.0000
     0.9999   0.9996   0.9996   0.9995   0.9994   0.9976   0.9974   0.9973
     0.9968   0.9944   0.9917   0.9907   0.9893   0.9882   0.9872   0.9868
     0.9851   0.9843   0.9830   0.9828   0.9796   0.9794   0.9771   0.9744
     0.9735   0.9722   0.9684   0.9661   0.9644   0.9610   0.9574   0.9477
     0.9361   0.8712   0.8602   0.8541   0.8468   0.8447   0.8325   0.8314
     0.8253   0.8203   0.8131   0.8049   0.8000   0.7907   0.7881   0.7710
     0.7685   0.7655   0.7580   0.7459   0.7424   0.7357   0.7310   0.7295
     0.6758   0.6741   0.6610   0.6556   0.1550   0.1453   0.1296   0.1074
     0.0702   0.0566   0.0525   0.0239   0.0154   0.0112   0.0065   0.0042
     0.0041   0.0026   0.0013   0.0010   0.0000   0.0000   0.0000   0.0000
     0.0000   0.0000   0.0000   0.0000   0.0000   0.0000   0.0000   0.0000
     0.0000   0.0000   0.0000   0.0000   0.0000   0.0000   0.0000   0.0000
     0.0000   0.0000

          k = 0.2500 0.0000 0.0000 ( 65257 PWs)   bands (ev):

   -92.8450 -92.7904 -92.6983 -92.6449 -92.5935 -92.5512 -92.5336 -92.4122
   -56.1985 -56.1770 -56.0555 -56.0453 -56.0328 -56.0323 -55.9948 -55.9674
   -55.9525 -55.9510 -55.9412 -55.9007 -55.8799 -55.8442 -55.8248 -55.7938
   -55.7754 -55.7390 -55.7372 -55.7361 -55.7277 -55.6874 -55.6638 -55.5790
   -31.4080 -31.3919 -31.2481 -31.1623 -31.1370 -31.0560 -31.0249 -30.9089
   -29.9895 -29.9485 -29.9211 -29.8139 -15.1887 -15.1500 -15.0782 -14.9310
[...]
     0.6318   0.6211   0.6184   0.6136   0.6103   0.6045   0.5991   0.5161
     0.3458   0.3187   0.2042   0.0774   0.0407   0.0201   0.0050   0.0032
     0.0002   0.0001   0.0000   0.0000   0.0000   0.0000   0.0000   0.0000
     0.0000   0.0000   0.0000   0.0000   0.0000   0.0000   0.0000   0.0000
     0.0000   0.0000   0.0000   0.0000   0.0000   0.0000   0.0000   0.0000
     0.0000   0.0000

          k =-0.5000 0.0000 0.0000 ( 65180 PWs)   bands (ev):

   -92.8450 -92.7904 -92.6983 -92.6449 -92.5935 -92.5512 -92.5336 -92.4122
   -56.1985 -56.1770 -56.0555 -56.0453 -56.0328 -56.0323 -55.9948 -55.9674
   -55.9525 -55.9510 -55.9412 -55.9007 -55.8799 -55.8442 -55.8248 -55.7938
   -55.7754 -55.7390 -55.7372 -55.7361 -55.7277 -55.6874 -55.6638 -55.5790
   -31.4059 -31.3941 -31.2477 -31.1627 -31.1367 -31.0558 -31.0252 -30.9091
   -29.9885 -29.9495 -29.9207 -29.8143 -15.1555 -15.1054 -15.0432 -14.9316
   -14.8294 -14.6855 -14.5408 -14.3922 -14.2720 -14.2611 -14.2480 -14.1865
   -14.1288 -14.0989 -14.0501 -14.0408 -14.0258 -13.9757 -13.9532 -13.8478
   -13.6935 -13.6742 -13.6340 -13.6266 -13.5493 -13.5022 -13.4415 -13.3990
   -13.3755 -13.3560 -13.1867 -13.1740 -13.1487 -13.1411 -13.1281 -13.0850
   -13.0746 -13.0550 -12.9576 -12.9351 -12.9105 -12.8542 -12.8270 -12.8075
   -12.7738 -12.7643 -12.6744 -12.5793 -12.4608 -12.4363 -12.3217 -12.2869
   -11.9665 -11.9207 -11.8994 -11.8923 -11.8783 -11.8601 -11.8185 -11.7557
   -11.7377 -11.7045 -11.6611 -11.6519 -11.6360  -2.7239  -2.6852  -2.5219
    -2.4824  -2.1685  -2.0942  -1.9455  -1.8281  -1.7885  -1.7444  -1.6958
    -1.6706  -1.5469  -1.5028  -1.4877  -1.4053  -1.3693  -1.3553  -1.3227
    -1.2638  -1.1968  -1.1673  -1.1378  -1.0410  -0.9962  -0.9477  -0.9137
    -0.8928  -0.8633  -0.8138  -0.7895  -0.7493  -0.6551  -0.5769  -0.5153
    -0.4517  -0.2751  -0.2479  -0.1957  -0.1651  -0.0888  -0.0861   0.0599
     0.0851   0.1277   0.2996   0.3988   0.4469   0.5298   0.6157   0.7207
     0.7365   0.8722   0.8913   0.9437   0.9702   1.0103   1.0235   1.0677
     1.0904   1.1591   1.2091   1.2560   1.2616   1.5651   1.5733   1.5908
     1.6193   1.7190   1.7323   1.7502   1.7608   1.7846   1.7931   1.8352
     1.8570   1.8891   1.9362   1.9527   2.0012   2.0293   2.0802   2.1890
     2.2988   2.3578   2.3767   2.4505   2.4840   2.5123   2.5807   2.5874
     2.5961   2.6222   2.6390   2.6482   2.6788   2.7084   2.7535   2.7857
     2.8284   2.8592   2.8623   2.8644   2.8795   2.8895   2.9014   2.9158
     2.9205   2.9443   2.9525   2.9689   2.9868   2.9922   3.1228   3.1462
     3.9283   3.9874   4.0569   4.2490   4.6546   4.7344   4.9096   4.9707
     5.4026   5.4407   5.5119   5.5416   5.8885   5.9019   6.2647   6.5523
     6.7634   6.9664   7.2307   7.2777   7.5949   7.6229   7.6480   7.6823
     7.7945   7.9835   8.0900   8.1326   8.2549   8.4046   8.4204   8.5180
     8.6680   8.7791

     occupation numbers 
     1.0000   1.0000   1.0000   1.0000   1.0000   1.0000   1.0000   1.0000
     1.0000   1.0000   1.0000   1.0000   1.0000   1.0000   1.0000   1.0000
     1.0000   1.0000   1.0000   1.0000   1.0000   1.0000   1.0000   1.0000
     1.0000   1.0000   1.0000   1.0000   1.0000   1.0000   1.0000   1.0000
     1.0000   1.0000   1.0000   1.0000   1.0000   1.0000   1.0000   1.0000
     1.0000   1.0000   1.0000   1.0000   1.0000   1.0000   1.0000   1.0000
     1.0000   1.0000   1.0000   1.0000   1.0000   1.0000   1.0000   1.0000
     1.0000   1.0000   1.0000   1.0000   1.0000   1.0000   1.0000   1.0000
     1.0000   1.0000   1.0000   1.0000   1.0000   1.0000   1.0000   1.0000
     1.0000   1.0000   1.0000   1.0000   1.0000   1.0000   1.0000   1.0000
     1.0000   1.0000   1.0000   1.0000   1.0000   1.0000   1.0000   1.0000
     1.0000   1.0000   1.0000   1.0000   1.0000   1.0000   1.0000   1.0000
     1.0000   1.0000   1.0000   1.0000   1.0000   1.0000   1.0000   1.0000
     1.0000   1.0000   1.0000   1.0000   1.0000   1.0000   1.0000   1.0000
     1.0000   1.0000   1.0000   1.0000   1.0000   1.0000   1.0000   1.0000
     1.0000   1.0000   1.0000   1.0000   1.0000   1.0000   1.0000   1.0000
     1.0000   1.0000   1.0000   1.0000   1.0000   1.0000   1.0000   1.0000
     1.0000   1.0000   1.0000   1.0000   1.0000   1.0000   1.0000   1.0000
     1.0000   1.0000   1.0000   1.0000   1.0000   1.0000   1.0000   1.0000
     1.0000   1.0000   1.0000   1.0000   1.0000   1.0000   0.9999   0.9999
     0.9999   0.9997   0.9997   0.9996   0.9995   0.9994   0.9993   0.9992
     0.9991   0.9987   0.9983   0.9979   0.9978   0.9919   0.9916   0.9910
     0.9899   0.9852   0.9844   0.9834   0.9827   0.9811   0.9805   0.9774
     0.9756   0.9727   0.9680   0.9662   0.9605   0.9568   0.9494   0.9302
     0.9056   0.8900   0.8847   0.8619   0.8507   0.8407   0.8148   0.8121
     0.8086   0.7979   0.7908   0.7868   0.7734   0.7599   0.7386   0.7228
     0.7012   0.6851   0.6835   0.6824   0.6744   0.6690   0.6626   0.6547
     0.6522   0.6390   0.6345   0.6252   0.6151   0.6121   0.5362   0.5223
     0.1345   0.1164   0.0974   0.0569   0.0145   0.0107   0.0052   0.0040
     0.0005   0.0004   0.0003   0.0002   0.0000   0.0000   0.0000   0.0000
     0.0000   0.0000   0.0000   0.0000   0.0000   0.0000   0.0000   0.0000
     0.0000   0.0000   0.0000   0.0000   0.0000   0.0000   0.0000   0.0000
     0.0000   0.0000

          k =-0.2500 0.2500 0.0000 ( 65198 PWs)   bands (ev):

   -92.8450 -92.7904 -92.6983 -92.6449 -92.5935 -92.5512 -92.5336 -92.4122
   -56.1985 -56.1770 -56.0555 -56.0453 -56.0328 -56.0323 -55.9948 -55.9674
   -55.9525 -55.9510 -55.9412 -55.9007 -55.8799 -55.8442 -55.8248 -55.7938
   -55.7754 -55.7390 -55.7372 -55.7361 -55.7277 -55.6874 -55.6638 -55.5790
   -31.4079 -31.3918 -31.2483 -31.1625 -31.1366 -31.0564 -31.0246 -30.9092
   -29.9889 -29.9481 -29.9217 -29.8143 -15.1580 -15.1181 -15.0433 -14.9261
   -14.8144 -14.6875 -14.6025 -14.3940 -14.2545 -14.2247 -14.2098 -14.1656
   -14.1400 -14.1203 -14.1043 -14.0533 -13.9760 -13.9640 -13.8089 -13.7845
   -13.7576 -13.7342 -13.6957 -13.6356 -13.5709 -13.5633 -13.4184 -13.3922
   -13.3551 -13.2785 -13.2351 -13.1728 -13.1417 -13.1181 -13.0996 -13.0801
   -13.0593 -13.0089 -12.9964 -12.9413 -12.9053 -12.8937 -12.8771 -12.8451
   -12.8246 -12.8178 -12.6308 -12.5756 -12.5503 -12.4164 -12.2531 -12.2088
   -11.9664 -11.9409 -11.9194 -11.8924 -11.8800 -11.8393 -11.8045 -11.7815
   -11.7597 -11.7371 -11.6531 -11.6076 -11.5983  -2.8086  -2.6003  -2.4794
    -2.3906  -2.2729  -2.2062  -2.0027  -1.8584  -1.8399  -1.8108  -1.7184
    -1.6828  -1.5893  -1.5551  -1.5289  -1.3863  -1.3305  -1.2629  -1.2348
    -1.1742  -1.1525  -1.1125  -1.0836  -1.0438  -0.9802  -0.9322  -0.8705
    -0.8002  -0.7727  -0.7231  -0.6934  -0.6482  -0.5930  -0.5503  -0.5055
    -0.4066  -0.3739  -0.3593  -0.3185  -0.2505  -0.1700  -0.1293  -0.1022
    -0.0258   0.0011   0.2497   0.4176   0.4601   0.5007   0.5615   0.6173
     0.6760   0.7353   0.7617   1.0417   1.1494   1.1897   1.2226   1.2279
     1.2705   1.2888   1.3319   1.3636   1.3776   1.4032   1.4490   1.4652
     1.5078   1.5237   1.5707   1.6658   1.6844   1.6958   1.7446   1.7639
     1.8009   1.8648   1.9612   2.0652   2.0914   2.1385   2.1585   2.2305
     2.2681   2.2927   2.3172   2.3401   2.4410   2.4739   2.5629   2.6385
     2.6497   2.6882   2.7423   2.7524   2.7641   2.7750   2.7857   2.7987
     2.8056   2.8250   2.8353   2.8476   2.8553   2.8675   2.8772   2.8850
     2.9179   2.9298   2.9358   2.9704   3.2619   3.3451   3.4131   3.4960
     3.5413   3.6994   3.8216   4.1714   4.4061   4.5923   4.8519   5.1525
     5.5341   5.5844   5.6272   5.6955   5.7605   6.0884   6.1320   6.1740
     6.8593   7.0566   7.1154   7.3474   7.4933   7.5194   7.5964   7.7988
     7.8738   7.9488   8.2325   8.2429   8.3526   8.3771   8.4330   8.4494
     8.5447   8.6056

     occupation numbers 
     1.0000   1.0000   1.0000   1.0000   1.0000   1.0000   1.0000   1.0000
     1.0000   1.0000   1.0000   1.0000   1.0000   1.0000   1.0000   1.0000
     1.0000   1.0000   1.0000   1.0000   1.0000   1.0000   1.0000   1.0000
     1.0000   1.0000   1.0000   1.0000   1.0000   1.0000   1.0000   1.0000
     1.0000   1.0000   1.0000   1.0000   1.0000   1.0000   1.0000   1.0000
     1.0000   1.0000   1.0000   1.0000   1.0000   1.0000   1.0000   1.0000
     1.0000   1.0000   1.0000   1.0000   1.0000   1.0000   1.0000   1.0000
     1.0000   1.0000   1.0000   1.0000   1.0000   1.0000   1.0000   1.0000
     1.0000   1.0000   1.0000   1.0000   1.0000   1.0000   1.0000   1.0000
     1.0000   1.0000   1.0000   1.0000   1.0000   1.0000   1.0000   1.0000
     1.0000   1.0000   1.0000   1.0000   1.0000   1.0000   1.0000   1.0000
     1.0000   1.0000   1.0000   1.0000   1.0000   1.0000   1.0000   1.0000
     1.0000   1.0000   1.0000   1.0000   1.0000   1.0000   1.0000   1.0000
     1.0000   1.0000   1.0000   1.0000   1.0000   1.0000   1.0000   1.0000
     1.0000   1.0000   1.0000   1.0000   1.0000   1.0000   1.0000   1.0000
     1.0000   1.0000   1.0000   1.0000   1.0000   1.0000   1.0000   1.0000
     1.0000   1.0000   1.0000   1.0000   1.0000   1.0000   1.0000   1.0000
     1.0000   1.0000   1.0000   1.0000   1.0000   1.0000   1.0000   1.0000
     1.0000   1.0000   1.0000   1.0000   1.0000   1.0000   1.0000   1.0000
     1.0000   1.0000   1.0000   1.0000   1.0000   1.0000   1.0000   0.9999
     0.9999   0.9999   0.9998   0.9993   0.9987   0.9985   0.9982   0.9982
     0.9978   0.9976   0.9970   0.9966   0.9963   0.9959   0.9950   0.9946
     0.9936   0.9932   0.9917   0.9879   0.9870   0.9864   0.9837   0.9825
     0.9800   0.9749   0.9653   0.9517   0.9476   0.9397   0.9361   0.9216
     0.9131   0.9071   0.9009   0.8949   0.8650   0.8541   0.8218   0.7910
     0.7862   0.7692   0.7440   0.7391   0.7335   0.7281   0.7229   0.7164
     0.7129   0.7030   0.6977   0.6912   0.6872   0.6808   0.6756   0.6714
     0.6536   0.6470   0.6437   0.6244   0.4539   0.4054   0.3668   0.3216
     0.2978   0.2220   0.1718   0.0713   0.0348   0.0183   0.0066   0.0017
     0.0002   0.0002   0.0001   0.0001   0.0001   0.0000   0.0000   0.0000
     0.0000   0.0000   0.0000   0.0000   0.0000   0.0000   0.0000   0.0000
     0.0000   0.0000   0.0000   0.0000   0.0000   0.0000   0.0000   0.0000
     0.0000   0.0000

          k =-0.5000 0.2500 0.0000 ( 65138 PWs)   bands (ev):

   -92.8450 -92.7904 -92.6983 -92.6449 -92.5935 -92.5512 -92.5336 -92.4122
   -56.1985 -56.1770 -56.0555 -56.0453 -56.0328 -56.0323 -55.9948 -55.9674
   -55.9525 -55.9510 -55.9412 -55.9007 -55.8799 -55.8442 -55.8248 -55.7938
   -55.7754 -55.7390 -55.7372 -55.7361 -55.7277 -55.6874 -55.6638 -55.5790
   -31.4057 -31.3939 -31.2479 -31.1628 -31.1364 -31.0562 -31.0249 -30.9094
   -29.9878 -29.9492 -29.9213 -29.8147 -15.1230 -15.0789 -15.0002 -14.8985
   -14.8572 -14.7325 -14.6444 -14.5115 -14.2058 -14.1746 -14.1630 -14.1180
   -14.0953 -14.0710 -14.0362 -14.0263 -14.0053 -13.9629 -13.9515 -13.8421
   -13.7746 -13.7305 -13.7255 -13.7121 -13.6047 -13.5959 -13.4754 -13.4207
   -13.3326 -13.2969 -13.1992 -13.1597 -13.1487 -13.1199 -13.0896 -13.0803
   -13.0721 -13.0326 -12.9911 -12.9237 -12.8990 -12.8784 -12.8423 -12.8326
   -12.7554 -12.7479 -12.6725 -12.5505 -12.4560 -12.4030 -12.3154 -12.2895
   -11.9665 -11.9136 -11.9010 -11.8869 -11.8746 -11.8537 -11.8233 -11.7424
   -11.7343 -11.7104 -11.6755 -11.6475 -11.6384  -2.5814  -2.5394  -2.3915
    -2.3489  -2.1874  -2.1129  -1.9698  -1.8340  -1.7780  -1.7509  -1.7118
    -1.6732  -1.5926  -1.4768  -1.4195  -1.3962  -1.3714  -1.2952  -1.2656
    -1.2270  -1.2099  -1.1495  -1.1200  -1.0813  -1.0459  -1.0170  -0.9591
    -0.9313  -0.8891  -0.8549  -0.7515  -0.7226  -0.6376  -0.5703  -0.5423
    -0.4874  -0.3995  -0.3627  -0.2679  -0.2181  -0.1675  -0.1112  -0.0935
    -0.0186   0.0078   0.0397   0.0904   0.1299   0.4417   0.5107   0.5784
     0.6072   0.8823   0.9318   1.0096   1.0320   1.2092   1.2469   1.2835
     1.2943   1.3132   1.3308   1.4003   1.4439   1.4888   1.5120   1.6480
     1.6772   1.7046   1.7174   1.7670   1.7796   1.7959   1.8096   1.8305
     1.8521   1.9031   1.9126   1.9464   1.9694   2.0053   2.0586   2.1794
     2.2829   2.3068   2.3749   2.4108   2.4652   2.5106   2.5154   2.5532
     2.5864   2.6071   2.6398   2.6436   2.6845   2.7104   2.7467   2.7530
     2.7581   2.7799   2.8011   2.8128   2.8274   2.8415   2.8632   2.8749
     2.8841   2.8932   2.9018   2.9131   3.4425   3.5173   3.6321   3.6618
     3.9350   4.0157   4.0682   4.3079   4.6476   4.7476   4.9074   4.9826
     5.2671   5.3037   5.5248   5.5849   5.6500   5.6658   6.3506   6.3629
     6.4762   6.6642   7.2410   7.6327   7.6631   7.6999   7.7466   7.7915
     7.8580   7.9387   8.1863   8.3320   8.4440   8.4560   8.5339   8.5927
     8.6176   8.7213

     occupation numbers 
     1.0000   1.0000   1.0000   1.0000   1.0000   1.0000   1.0000   1.0000
     1.0000   1.0000   1.0000   1.0000   1.0000   1.0000   1.0000   1.0000
     1.0000   1.0000   1.0000   1.0000   1.0000   1.0000   1.0000   1.0000
     1.0000   1.0000   1.0000   1.0000   1.0000   1.0000   1.0000   1.0000
     1.0000   1.0000   1.0000   1.0000   1.0000   1.0000   1.0000   1.0000
     1.0000   1.0000   1.0000   1.0000   1.0000   1.0000   1.0000   1.0000
     1.0000   1.0000   1.0000   1.0000   1.0000   1.0000   1.0000   1.0000
     1.0000   1.0000   1.0000   1.0000   1.0000   1.0000   1.0000   1.0000
     1.0000   1.0000   1.0000   1.0000   1.0000   1.0000   1.0000   1.0000
     1.0000   1.0000   1.0000   1.0000   1.0000   1.0000   1.0000   1.0000
     1.0000   1.0000   1.0000   1.0000   1.0000   1.0000   1.0000   1.0000
     1.0000   1.0000   1.0000   1.0000   1.0000   1.0000   1.0000   1.0000
     1.0000   1.0000   1.0000   1.0000   1.0000   1.0000   1.0000   1.0000
     1.0000   1.0000   1.0000   1.0000   1.0000   1.0000   1.0000   1.0000
     1.0000   1.0000   1.0000   1.0000   1.0000   1.0000   1.0000   1.0000
     1.0000   1.0000   1.0000   1.0000   1.0000   1.0000   1.0000   1.0000
     1.0000   1.0000   1.0000   1.0000   1.0000   1.0000   1.0000   1.0000
     1.0000   1.0000   1.0000   1.0000   1.0000   1.0000   1.0000   1.0000
     1.0000   1.0000   1.0000   1.0000   1.0000   1.0000   1.0000   1.0000
     1.0000   1.0000   1.0000   1.0000   1.0000   1.0000   1.0000   0.9999
     0.9999   0.9997   0.9996   0.9994   0.9993   0.9983   0.9980   0.9976
     0.9975   0.9973   0.9970   0.9960   0.9951   0.9941   0.9935   0.9887
     0.9874   0.9860   0.9853   0.9823   0.9815   0.9804   0.9794   0.9778
     0.9760   0.9714   0.9705   0.9669   0.9643   0.9600   0.9526   0.9321
     0.9095   0.9036   0.8852   0.8745   0.8571   0.8413   0.8396   0.8255
     0.8125   0.8041   0.7905   0.7888   0.7708   0.7590   0.7419   0.7389
     0.7364   0.7257   0.7152   0.7092   0.7017   0.6944   0.6831   0.6769
     0.6719   0.6670   0.6624   0.6562   0.3505   0.3103   0.2529   0.2390
     0.1324   0.1084   0.0946   0.0476   0.0149   0.0101   0.0052   0.0038
     0.0010   0.0008   0.0003   0.0002   0.0001   0.0001   0.0000   0.0000
     0.0000   0.0000   0.0000   0.0000   0.0000   0.0000   0.0000   0.0000
     0.0000   0.0000   0.0000   0.0000   0.0000   0.0000   0.0000   0.0000
     0.0000   0.0000

     the Fermi energy is     3.1839 ev

!    total energy              =   -4440.29022862 Ry
     estimated scf accuracy    <          6.0E-09 Ry
     smearing contrib. (-TS)   =      -1.20535820 Ry
     internal energy E=F+TS    =   -4439.08487042 Ry

     The total energy is F=E-TS. E is the sum of the following terms:
     one-electron contribution =  -20891.25392266 Ry
     hartree contribution      =   10575.15212028 Ry
     xc contribution           =    -693.24358414 Ry
     ewald contribution        =    6846.45293719 Ry
     one-center paw contrib.   =    -276.19242109 Ry
      -> PAW hartree energy AE =      25.15971737 Ry
      -> PAW hartree energy PS =     -25.04364073 Ry
      -> PAW xc energy AE      =     -16.51705992 Ry
      -> PAW xc energy PS      =       6.87649568 Ry
      -> total E_H with PAW    =   10575.26819691 Ry
      -> total E_XC with PAW   =    -702.88414838 Ry

     convergence has been achieved in  49 iterations

     Writing all to output data dir /bsuhome/zayahcortright/scratch/pwscf.save/
 
     init_run     :      7.84s CPU      8.68s WALL (       1 calls)
     electrons    :    703.41s CPU    736.99s WALL (       1 calls)

     Called by init_run:
     wfcinit      :      6.39s CPU      6.59s WALL (       1 calls)
     wfcinit:atom :      0.04s CPU      0.06s WALL (       5 calls)
     wfcinit:wfcr :      6.07s CPU      6.20s WALL (       5 calls)
     potinit      :      0.19s CPU      0.22s WALL (       1 calls)
     hinit0       :      0.33s CPU      0.67s WALL (       1 calls)

     Called by electrons:
     c_bands      :    557.06s CPU    563.65s WALL (      49 calls)
     sum_band     :    109.77s CPU    124.73s WALL (      49 calls)
     v_of_rho     :      5.35s CPU      5.74s WALL (      50 calls)
     v_h          :      0.47s CPU      0.48s WALL (      50 calls)
     v_xc         :      4.87s CPU      5.26s WALL (      50 calls)
     newd         :     16.26s CPU     27.56s WALL (      50 calls)
     PAW_pot      :      1.58s CPU      1.62s WALL (      50 calls)
     mix_rho      :     13.03s CPU     13.40s WALL (      49 calls)

     Called by c_bands:
     init_us_2    :      6.83s CPU      6.90s WALL (     495 calls)
     init_us_2:cp :      6.82s CPU      6.90s WALL (     495 calls)
     cegterg      :    521.79s CPU    528.07s WALL (     245 calls)

     Called by sum_band:
     sum_band:wei :      0.36s CPU      0.36s WALL (      49 calls)
     sum_band:loo :     92.28s CPU     92.99s WALL (      49 calls)
     sum_band:buf :      1.29s CPU      1.36s WALL (     245 calls)
     sum_band:ini :      3.17s CPU      3.19s WALL (     245 calls)
     sum_band:cal :     19.53s CPU     19.59s WALL (     245 calls)
     sum_band:bec :      0.54s CPU      0.55s WALL (     245 calls)
     addusdens    :     15.46s CPU     29.63s WALL (      49 calls)
                                        0.00s GPU  (      49 calls)
     addusd:skk   :      0.32s CPU      0.97s WALL (     147 calls)
                                        0.00s GPU  (     147 calls)

     Called by *egterg:
     cdiaghg      :     52.90s CPU     53.14s WALL (    1232 calls)
     cegterg:over :     38.56s CPU     38.73s WALL (     987 calls)
     cegterg:upda :     27.57s CPU     28.09s WALL (     987 calls)
     cegterg:last :     57.19s CPU     57.41s WALL (     438 calls)
     cdiaghg:chol :      2.93s CPU      2.95s WALL (    1232 calls)
     cdiaghg:inve :      2.60s CPU      2.62s WALL (    1232 calls)
     cdiaghg:para :      6.63s CPU      6.67s WALL (    2464 calls)
     h_psi        :    291.48s CPU    294.54s WALL (    1237 calls)
     s_psi        :     39.07s CPU     39.19s WALL (    1237 calls)
     g_psi        :      0.96s CPU      0.96s WALL (     987 calls)

     Called by h_psi:
     h_psi:calbec :     44.36s CPU     44.59s WALL (    1237 calls)
     vloc_psi     :    205.64s CPU    207.58s WALL (    1237 calls)
     add_vuspsi   :     38.78s CPU     38.97s WALL (    1237 calls)

     General routines
     calbec       :     63.88s CPU     64.18s WALL (    1482 calls)
     fft          :      3.73s CPU      3.78s WALL (     648 calls)
     ffts         :      4.85s CPU      4.89s WALL (    5313 calls)
     fftw         :    178.58s CPU    180.03s WALL (  328864 calls)
     interpolate  :      0.39s CPU      0.41s WALL (      50 calls)
 
     Parallel routines

     PAW routines
     PAW_pot      :      1.58s CPU      1.62s WALL (      50 calls)
 
     PWSCF        :  11m53.26s CPU  12m30.44s WALL

 
   This run was terminated on:  22:43:24  21Jun2024            

=------------------------------------------------------------------------------=
   JOB DONE.
=------------------------------------------------------------------------------=
