
     Program PWSCF v.7.2 starts on 21Jun2024 at 20:37:31 

     This program is part of the open-source Quantum ESPRESSO suite
     for quantum simulation of materials; please cite
         "P. Giannozzi et al., J. Phys.:Condens. Matter 21 395502 (2009);
         "P. Giannozzi et al., J. Phys.:Condens. Matter 29 465901 (2017);
         "P. Giannozzi et al., J. Chem. Phys. 152 154105 (2020);
          URL http://www.quantum-espresso.org", 
     in publications or presentations arising from this work. More details at
     http://www.quantum-espresso.org/quote

     Parallel version (MPI & OpenMP), running on      48 processor cores
     Number of MPI processes:                48
     Threads/MPI process:                     1

     MPI processes distributed on     1 nodes
     60578 MiB available memory on the printing compute node when the environment starts
 
     Reading input from espresso.pwi
Warning: card &CELL ignored
Warning: card / ignored
Warning: card &FCP ignored
Warning: card / ignored
Warning: card &RISM ignored
Warning: card / ignored

     Current dimensions of program PWSCF are:
     Max number of different atomic species (ntypx) = 10
     Max number of k-points (npk) =  40000
     Max angular momentum in pseudopotentials (lmaxx) =  4
     file O.pbe-n-kjpaw_psl.0.1.UPF: wavefunction(s)  2P renormalized
     signal trapping enabled: kill the code with -SIGUSR1 to stop cleanly the simulation 
 
     K-points division:     npool     =       2
     R & G space division:  proc/nbgrp/npool/nimage =      24
     Subspace diagonalization in iterative solution of the eigenvalue problem:
     one sub-group per band group will be used
     scalapack distributed-memory algorithm (size of sub-group:  3*  3 procs)

 
     Parallelization info
     --------------------
     sticks:   dense  smooth     PW     G-vecs:    dense   smooth      PW
     Min         350     175     47                61430    21716    3036
     Max         351     177     48                61449    21727    3041
     Sum        8421    4205   1137              1474595   521381   72913
 
     Using Slab Decomposition
 


     bravais-lattice index     =            0
     lattice parameter (alat)  =      14.8599  a.u.
     unit-cell volume          =    8305.1283 (a.u.)^3
     number of atoms/cell      =           49
     number of atomic types    =            3
     number of electrons       =       430.00
     number of Kohn-Sham states=          258
     kinetic-energy cutoff     =      60.0000  Ry
     charge density cutoff     =     480.0000  Ry
     scf convergence threshold =      1.0E-08
     mixing beta               =       0.1500
     number of iterations used =            8  local-TF  mixing
     Exchange-correlation= SLA  PW   PBE  PBE
                           (   1   4   3   4   0   0   0)

     celldm(1)=  14.859904  celldm(2)=   0.000000  celldm(3)=   0.000000
     celldm(4)=   0.000000  celldm(5)=   0.000000  celldm(6)=   0.000000

     crystal axes: (cart. coord. in units of alat)
               a(1) = (   1.000000   0.000000   0.000000 )  
               a(2) = (   0.000000   1.000000   0.000000 )  
               a(3) = (   0.000000   0.000000   2.531036 )  

     reciprocal axes: (cart. coord. in units 2 pi/alat)
               b(1) = (  1.000000  0.000000  0.000000 )  
               b(2) = (  0.000000  1.000000  0.000000 )  
               b(3) = (  0.000000  0.000000  0.395095 )  


     PseudoPot. # 1 for Sr read from file:
     /bsuhome/zayahcortright/q-e/pseudo/Sr_pbe_v1.uspp.F.UPF
     MD5 check sum: 6b418c05fbe9db5448babca5e47b7a5b
     Pseudo is Ultrasoft + core correction, Zval = 10.0
     Generated by new atomic code, or converted to UPF format
     Using radial grid of  883 points,  6 beta functions with: 
                l(1) =   0
                l(2) =   0
                l(3) =   1
                l(4) =   1
                l(5) =   2
                l(6) =   2
     Q(r) pseudized with  6 coefficients,  rinner =    1.400   1.400   1.400
                                                       1.400   1.400

     PseudoPot. # 2 for O  read from file:
     /bsuhome/zayahcortright/q-e/pseudo/O.pbe-n-kjpaw_psl.0.1.UPF
     MD5 check sum: 0234752ac141de4415c5fc33072bef88
     Pseudo is Projector augmented-wave + core cor, Zval =  6.0
     Generated using "atomic" code by A. Dal Corso  v.5.0.99 svn rev. 10869
     Shape of augmentation charge: BESSEL
     Using radial grid of 1095 points,  4 beta functions with: 
                l(1) =   0
                l(2) =   0
                l(3) =   1
                l(4) =   1
     Q(r) pseudized with 0 coefficients 


     PseudoPot. # 3 for Co read from file:
     /bsuhome/zayahcortright/q-e/pseudo/Co_pbe_v1.2.uspp.F.UPF
     MD5 check sum: 5f91765df6ddd3222702df6e7b74a16d
     Pseudo is Ultrasoft + core correction, Zval = 17.0
     Generated by new atomic code, or converted to UPF format
     Using radial grid of  863 points,  6 beta functions with: 
                l(1) =   0
                l(2) =   0
                l(3) =   1
                l(4) =   1
                l(5) =   2
                l(6) =   2
     Q(r) pseudized with  8 coefficients,  rinner =    1.200   1.200   1.200
                                                       1.200   1.200

     atomic species   valence    mass     pseudopotential
        Sr            10.00    87.62000     Sr( 1.00)
        O              6.00    15.99900     O ( 1.00)
        Co            17.00    58.93319     Co( 1.00)

     No symmetry found


                                    s                        frac. trans.

      isym =  1     identity                                     

 cryst.   s( 1) = (     1          0          0      )
                  (     0          1          0      )
                  (     0          0          1      )

 cart.    s( 1) = (  1.0000000  0.0000000  0.0000000 )
                  (  0.0000000  1.0000000  0.0000000 )
                  (  0.0000000  0.0000000  1.0000000 )


   Cartesian axes

     site n.     atom                  positions (alat units)
         1           Sr  tau(   1) = (   0.2508693   0.7491307   1.7574407  )
         2           O   tau(   2) = (   0.4985141   0.5014859   1.7715967  )
         3           Sr  tau(   3) = (   0.7482398   0.7454518   1.7648669  )
         4           Sr  tau(   4) = (   0.7441748   0.2558252   1.7667843  )
         5           Sr  tau(   5) = (   0.2508693   0.7491307   1.2696799  )
         6           Sr  tau(   6) = (   0.2508693   0.7491307   0.7632319  )
         7           Co  tau(   7) = (   0.4998914   0.5001086   1.0164559  )
         8           Co  tau(   8) = (   0.4936915   0.5063085   1.5135603  )
         9           O   tau(   9) = (   0.4988895   0.7610401   1.0164559  )
        10           O   tau(  10) = (   0.2389599   0.5011105   1.0164559  )
        11           O   tau(  11) = (   0.0070918   0.7374880   1.0164559  )
        12           O   tau(  12) = (   0.0088340   0.7405089   1.5135603  )
        13           O   tau(  13) = (   0.5066944   0.7415376   1.5135603  )
        14           O   tau(  14) = (   0.2584624   0.4933056   1.5135603  )
        15           O   tau(  15) = (   0.4985141   0.5014859   0.7773880  )
        16           O   tau(  16) = (   0.4985141   0.5014859   1.2555238  )
        17           Sr  tau(  17) = (   0.7482398   0.7454518   0.7706582  )
        18           Sr  tau(  18) = (   0.7482398   0.7454518   1.2622536  )
        19           Sr  tau(  19) = (   0.7441748   0.2558252   0.7725755  )
        20           Sr  tau(  20) = (   0.7441748   0.2558252   1.2603363  )
        21           O   tau(  21) = (   0.7322655   0.0078049   1.5135603  )
        22           O   tau(  22) = (   0.7558175   0.4996027   1.5135603  )
        23           O   tau(  23) = (   0.5003973   0.2441825   1.5135603  )
        24           O   tau(  24) = (   0.7527966   0.4978604   1.0164559  )
        25           O   tau(  25) = (   0.5021396   0.2472034   1.0164559  )
        26           O   tau(  26) = (   0.7517679   0.0000000   1.0164559  )
        27           O   tau(  27) = (   0.0114961   0.4948124   1.7455321  )
        28           O   tau(  28) = (   0.0048226   0.0077944   1.7715967  )
        29           Sr  tau(  29) = (   0.2545482   0.2517602   1.7648669  )
        30           O   tau(  30) = (   0.5048017   0.0015068   1.7786929  )
        31           Co  tau(  31) = (   0.0056869   0.5006215   1.0164559  )
        32           Co  tau(  32) = (   0.0065315   0.4997770   1.5135603  )
        33           Co  tau(  33) = (   0.0061999   0.0064171   1.0164559  )
        34           Co  tau(  34) = (   0.0000000   0.0126169   1.5135603  )
        35           O   tau(  35) = (   0.0114961   0.4948124   1.2815885  )
        36           O   tau(  36) = (   0.0114961   0.4948124   0.7513233  )
        37           O   tau(  37) = (   0.0051979   0.2673486   1.0164559  )
        38           O   tau(  38) = (   0.0130029   0.2478461   1.5135603  )
        39           O   tau(  39) = (   0.0048226   0.0077944   0.7773880  )
        40           O   tau(  40) = (   0.0048226   0.0077944   1.2555238  )
        41           Sr  tau(  41) = (   0.2545482   0.2517602   0.7706582  )
        42           Sr  tau(  42) = (   0.2545482   0.2517602   1.2622536  )
        43           Co  tau(  43) = (   0.4989925   0.0073160   1.5135603  )
        44           Co  tau(  44) = (   0.4998370   0.0064714   1.0164559  )
        45           O   tau(  45) = (   0.5048017   0.0015068   0.7844841  )
        46           O   tau(  46) = (   0.5048017   0.0015068   1.2484277  )
        47           O   tau(  47) = (   0.2621260   0.0059111   1.5135603  )
        48           O   tau(  48) = (   0.2591051   0.0041689   1.0164559  )
        49           O   tau(  49) = (   0.4264937   0.8529874   2.1602013  )

   Crystallographic axes

     site n.     atom                  positions (cryst. coord.)
         1           Sr  tau(   1) = (  0.2508693  0.7491307  0.6943562  )
         2           O   tau(   2) = (  0.4985141  0.5014859  0.6999492  )
         3           Sr  tau(   3) = (  0.7482398  0.7454518  0.6972903  )
         4           Sr  tau(   4) = (  0.7441748  0.2558252  0.6980478  )
         5           Sr  tau(   5) = (  0.2508693  0.7491307  0.5016443  )
         6           Sr  tau(   6) = (  0.2508693  0.7491307  0.3015492  )
         7           Co  tau(   7) = (  0.4998914  0.5001086  0.4015968  )
         8           Co  tau(   8) = (  0.4936915  0.5063085  0.5980003  )
         9           O   tau(   9) = (  0.4988895  0.7610401  0.4015968  )
        10           O   tau(  10) = (  0.2389599  0.5011105  0.4015968  )
        11           O   tau(  11) = (  0.0070918  0.7374880  0.4015968  )
        12           O   tau(  12) = (  0.0088340  0.7405089  0.5980003  )
        13           O   tau(  13) = (  0.5066944  0.7415376  0.5980003  )
        14           O   tau(  14) = (  0.2584624  0.4933056  0.5980003  )
        15           O   tau(  15) = (  0.4985141  0.5014859  0.3071422  )
        16           O   tau(  16) = (  0.4985141  0.5014859  0.4960513  )
        17           Sr  tau(  17) = (  0.7482398  0.7454518  0.3044833  )
        18           Sr  tau(  18) = (  0.7482398  0.7454518  0.4987103  )
        19           Sr  tau(  19) = (  0.7441748  0.2558252  0.3052408  )
        20           Sr  tau(  20) = (  0.7441748  0.2558252  0.4979527  )
        21           O   tau(  21) = (  0.7322655  0.0078049  0.5980003  )
        22           O   tau(  22) = (  0.7558175  0.4996027  0.5980003  )
        23           O   tau(  23) = (  0.5003973  0.2441825  0.5980003  )
        24           O   tau(  24) = (  0.7527966  0.4978604  0.4015968  )
        25           O   tau(  25) = (  0.5021396  0.2472034  0.4015968  )
        26           O   tau(  26) = (  0.7517679  0.0000000  0.4015968  )
        27           O   tau(  27) = (  0.0114961  0.4948124  0.6896512  )
        28           O   tau(  28) = (  0.0048226  0.0077944  0.6999492  )
        29           Sr  tau(  29) = (  0.2545482  0.2517602  0.6972903  )
        30           O   tau(  30) = (  0.5048017  0.0015068  0.7027529  )
        31           Co  tau(  31) = (  0.0056869  0.5006215  0.4015968  )
        32           Co  tau(  32) = (  0.0065315  0.4997770  0.5980003  )
        33           Co  tau(  33) = (  0.0061999  0.0064171  0.4015968  )
        34           Co  tau(  34) = (  0.0000000  0.0126169  0.5980003  )
        35           O   tau(  35) = (  0.0114961  0.4948124  0.5063494  )
        36           O   tau(  36) = (  0.0114961  0.4948124  0.2968442  )
        37           O   tau(  37) = (  0.0051979  0.2673486  0.4015968  )
        38           O   tau(  38) = (  0.0130029  0.2478461  0.5980003  )
        39           O   tau(  39) = (  0.0048226  0.0077944  0.3071422  )
        40           O   tau(  40) = (  0.0048226  0.0077944  0.4960513  )
        41           Sr  tau(  41) = (  0.2545482  0.2517602  0.3044833  )
        42           Sr  tau(  42) = (  0.2545482  0.2517602  0.4987103  )
        43           Co  tau(  43) = (  0.4989925  0.0073160  0.5980003  )
        44           Co  tau(  44) = (  0.4998370  0.0064714  0.4015968  )
        45           O   tau(  45) = (  0.5048017  0.0015068  0.3099459  )
        46           O   tau(  46) = (  0.5048017  0.0015068  0.4932477  )
        47           O   tau(  47) = (  0.2621260  0.0059111  0.5980003  )
        48           O   tau(  48) = (  0.2591051  0.0041689  0.4015968  )
        49           O   tau(  49) = (  0.4264937  0.8529874  0.8534850  )

     number of k points=    10  Gaussian smearing, width (Ry)=  0.0700
                       cart. coord. in units 2pi/alat
        k(    1) = (   0.0000000   0.0000000   0.0000000), wk =   0.1250000
        k(    2) = (   0.0000000   0.2500000   0.0000000), wk =   0.2500000
        k(    3) = (   0.0000000  -0.5000000   0.0000000), wk =   0.1250000
        k(    4) = (   0.2500000   0.2500000   0.0000000), wk =   0.2500000
        k(    5) = (   0.2500000  -0.5000000   0.0000000), wk =   0.2500000
        k(    6) = (  -0.5000000  -0.5000000   0.0000000), wk =   0.1250000
        k(    7) = (   0.2500000   0.0000000   0.0000000), wk =   0.2500000
        k(    8) = (  -0.5000000   0.0000000   0.0000000), wk =   0.1250000
        k(    9) = (  -0.2500000   0.2500000   0.0000000), wk =   0.2500000
        k(   10) = (  -0.5000000   0.2500000   0.0000000), wk =   0.2500000

                       cryst. coord.
        k(    1) = (   0.0000000   0.0000000   0.0000000), wk =   0.1250000
        k(    2) = (   0.0000000   0.2500000   0.0000000), wk =   0.2500000
        k(    3) = (   0.0000000  -0.5000000   0.0000000), wk =   0.1250000
        k(    4) = (   0.2500000   0.2500000   0.0000000), wk =   0.2500000
        k(    5) = (   0.2500000  -0.5000000   0.0000000), wk =   0.2500000
        k(    6) = (  -0.5000000  -0.5000000   0.0000000), wk =   0.1250000
        k(    7) = (   0.2500000   0.0000000   0.0000000), wk =   0.2500000
        k(    8) = (  -0.5000000   0.0000000   0.0000000), wk =   0.1250000
        k(    9) = (  -0.2500000   0.2500000   0.0000000), wk =   0.2500000
        k(   10) = (  -0.5000000   0.2500000   0.0000000), wk =   0.2500000

     Dense  grid:  1474595 G-vectors     FFT dimensions: ( 108, 108, 270)

     Smooth grid:   521381 G-vectors     FFT dimensions: (  75,  75, 192)

     Dynamical RAM for                 wfc:      10.69 MB

     Dynamical RAM for     wfc (w. buffer):      64.13 MB

     Dynamical RAM for           str. fact:       2.81 MB

     Dynamical RAM for           local pot:       0.00 MB

     Dynamical RAM for          nlocal pot:      24.53 MB

     Dynamical RAM for                qrad:       5.27 MB

     Dynamical RAM for          rho,v,vnew:       6.02 MB

     Dynamical RAM for               rhoin:       2.01 MB

     Dynamical RAM for            rho*nmix:      15.00 MB

     Dynamical RAM for           G-vectors:       3.68 MB

     Dynamical RAM for          h,s,v(r/c):       1.35 MB

     Dynamical RAM for          <psi|beta>:       2.33 MB

     Dynamical RAM for                 psi:      21.38 MB

     Dynamical RAM for                hpsi:      21.38 MB

     Dynamical RAM for                spsi:      21.38 MB

     Dynamical RAM for      wfcinit/wfcrot:      34.39 MB

     Dynamical RAM for           addusdens:     101.26 MB

     Estimated static dynamical RAM per process >     117.53 MB

     Estimated max dynamical RAM per process >     233.79 MB

     Estimated total dynamical RAM >      10.61 GB

     Check: negative core charge=   -0.000004

     Initial potential from superposition of free atoms

     starting charge     421.5961, renormalised to     430.0000

     negative rho (up, down):  7.826E-01 0.000E+00
     Starting wfcs are  376 randomized atomic wfcs
     Checking if some PAW data can be deallocated... 
       PAW data deallocated on   19 nodes for type:  2

     total cpu time spent up to now is        9.2 secs

     Self-consistent Calculation

     iteration #  1     ecut=    60.00 Ry     beta= 0.15
     Davidson diagonalization with overlap

---- Real-time Memory Report at c_bands before calling an iterative solver
             0 MiB given to the printing process from OS
             0 MiB allocation reported by mallinfo(arena+hblkhd)
         51483 MiB available memory on the node where the printing process lives
------------------
     ethr =  1.00E-02,  avg # of iterations =  2.0

     negative rho (up, down):  7.715E-01 0.000E+00

     total cpu time spent up to now is       24.6 secs

     total energy              =   -4445.20008274 Ry
     estimated scf accuracy    <      53.94151165 Ry

     iteration #  2     ecut=    60.00 Ry     beta= 0.15
     Davidson diagonalization with overlap

---- Real-time Memory Report at c_bands before calling an iterative solver
             0 MiB given to the printing process from OS
             0 MiB allocation reported by mallinfo(arena+hblkhd)
         51838 MiB available memory on the node where the printing process lives
------------------
     ethr =  1.00E-02,  avg # of iterations =  1.0

     negative rho (up, down):  7.590E-01 0.000E+00

     total cpu time spent up to now is       37.5 secs

     total energy              =   -4441.92150623 Ry
     estimated scf accuracy    <      28.23455695 Ry

     iteration #  3     ecut=    60.00 Ry     beta= 0.15
     Davidson diagonalization with overlap

---- Real-time Memory Report at c_bands before calling an iterative solver
             0 MiB given to the printing process from OS
             0 MiB allocation reported by mallinfo(arena+hblkhd)
         51078 MiB available memory on the node where the printing process lives
------------------
     ethr =  6.57E-03,  avg # of iterations =  1.0

     negative rho (up, down):  7.531E-01 0.000E+00

     total cpu time spent up to now is       50.6 secs

     total energy              =   -4442.60956205 Ry
     estimated scf accuracy    <      29.50965466 Ry

     iteration #  4     ecut=    60.00 Ry     beta= 0.15
     Davidson diagonalization with overlap

---- Real-time Memory Report at c_bands before calling an iterative solver
             0 MiB given to the printing process from OS
             0 MiB allocation reported by mallinfo(arena+hblkhd)
         51038 MiB available memory on the node where the printing process lives
------------------
     ethr =  6.57E-03,  avg # of iterations =  1.0

     negative rho (up, down):  7.539E-01 0.000E+00

     total cpu time spent up to now is       63.2 secs

     total energy              =   -4442.55912736 Ry
     estimated scf accuracy    <      27.31501296 Ry

     iteration #  5     ecut=    60.00 Ry     beta= 0.15
     Davidson diagonalization with overlap

---- Real-time Memory Report at c_bands before calling an iterative solver
             0 MiB given to the printing process from OS
             0 MiB allocation reported by mallinfo(arena+hblkhd)
         51023 MiB available memory on the node where the printing process lives
------------------
     ethr =  6.35E-03,  avg # of iterations =  1.0

     negative rho (up, down):  7.386E-01 0.000E+00

     total cpu time spent up to now is       75.8 secs

     total energy              =   -4441.60230921 Ry
     estimated scf accuracy    <      20.43436270 Ry

     iteration #  6     ecut=    60.00 Ry     beta= 0.15
     Davidson diagonalization with overlap

---- Real-time Memory Report at c_bands before calling an iterative solver
             0 MiB given to the printing process from OS
             0 MiB allocation reported by mallinfo(arena+hblkhd)
         50994 MiB available memory on the node where the printing process lives
------------------
     ethr =  4.75E-03,  avg # of iterations =  1.0

     negative rho (up, down):  7.441E-01 0.000E+00

     total cpu time spent up to now is       88.4 secs

     total energy              =   -4442.83134068 Ry
     estimated scf accuracy    <      58.00743808 Ry

     iteration #  7     ecut=    60.00 Ry     beta= 0.15
     Davidson diagonalization with overlap

---- Real-time Memory Report at c_bands before calling an iterative solver
             0 MiB given to the printing process from OS
             0 MiB allocation reported by mallinfo(arena+hblkhd)
         50977 MiB available memory on the node where the printing process lives
------------------
     ethr =  4.75E-03,  avg # of iterations =  1.0

     negative rho (up, down):  7.493E-01 0.000E+00

     total cpu time spent up to now is      101.0 secs

     total energy              =   -4439.37401185 Ry
     estimated scf accuracy    <      43.58292557 Ry

     iteration #  8     ecut=    60.00 Ry     beta= 0.15
     Davidson diagonalization with overlap

---- Real-time Memory Report at c_bands before calling an iterative solver
             0 MiB given to the printing process from OS
             0 MiB allocation reported by mallinfo(arena+hblkhd)
         50965 MiB available memory on the node where the printing process lives
------------------
     ethr =  4.75E-03,  avg # of iterations =  1.0

     negative rho (up, down):  7.458E-01 0.000E+00

     total cpu time spent up to now is      113.4 secs

     total energy              =   -4440.99106658 Ry
     estimated scf accuracy    <       8.65087206 Ry

     iteration #  9     ecut=    60.00 Ry     beta= 0.15
     Davidson diagonalization with overlap

---- Real-time Memory Report at c_bands before calling an iterative solver
             0 MiB given to the printing process from OS
             0 MiB allocation reported by mallinfo(arena+hblkhd)
         50946 MiB available memory on the node where the printing process lives
------------------
     ethr =  2.01E-03,  avg # of iterations =  1.2

     negative rho (up, down):  7.547E-01 0.000E+00

     total cpu time spent up to now is      126.5 secs

     total energy              =   -4441.13682897 Ry
     estimated scf accuracy    <       7.03736095 Ry

     iteration # 10     ecut=    60.00 Ry     beta= 0.15
     Davidson diagonalization with overlap

---- Real-time Memory Report at c_bands before calling an iterative solver
             0 MiB given to the printing process from OS
             0 MiB allocation reported by mallinfo(arena+hblkhd)
         50924 MiB available memory on the node where the printing process lives
------------------
     ethr =  1.64E-03,  avg # of iterations =  2.0

     negative rho (up, down):  7.711E-01 0.000E+00

     total cpu time spent up to now is      140.3 secs

     total energy              =   -4440.10719242 Ry
     estimated scf accuracy    <      18.42957326 Ry

     iteration # 11     ecut=    60.00 Ry     beta= 0.15
     Davidson diagonalization with overlap

---- Real-time Memory Report at c_bands before calling an iterative solver
             0 MiB given to the printing process from OS
             0 MiB allocation reported by mallinfo(arena+hblkhd)
         50917 MiB available memory on the node where the printing process lives
------------------
     ethr =  1.64E-03,  avg # of iterations =  6.0

     negative rho (up, down):  7.777E-01 0.000E+00

     total cpu time spent up to now is      156.8 secs

     total energy              =   -4440.10079980 Ry
     estimated scf accuracy    <      10.36534937 Ry

     iteration # 12     ecut=    60.00 Ry     beta= 0.15
     Davidson diagonalization with overlap

---- Real-time Memory Report at c_bands before calling an iterative solver
             0 MiB given to the printing process from OS
             0 MiB allocation reported by mallinfo(arena+hblkhd)
         50811 MiB available memory on the node where the printing process lives
------------------
     ethr =  1.64E-03,  avg # of iterations =  3.4

     negative rho (up, down):  7.819E-01 0.000E+00

     total cpu time spent up to now is      171.3 secs

     total energy              =   -4440.52304702 Ry
     estimated scf accuracy    <       2.29078852 Ry

     iteration # 13     ecut=    60.00 Ry     beta= 0.15
     Davidson diagonalization with overlap

---- Real-time Memory Report at c_bands before calling an iterative solver
             0 MiB given to the printing process from OS
             0 MiB allocation reported by mallinfo(arena+hblkhd)
         50813 MiB available memory on the node where the printing process lives
------------------
     c_bands:  2 eigenvalues not converged
     ethr =  5.33E-04,  avg # of iterations = 12.3

     negative rho (up, down):  7.917E-01 0.000E+00

     total cpu time spent up to now is      190.2 secs

     total energy              =   -4440.43701118 Ry
     estimated scf accuracy    <       1.22389598 Ry

     iteration # 14     ecut=    60.00 Ry     beta= 0.15
     Davidson diagonalization with overlap

---- Real-time Memory Report at c_bands before calling an iterative solver
             0 MiB given to the printing process from OS
             0 MiB allocation reported by mallinfo(arena+hblkhd)
         50422 MiB available memory on the node where the printing process lives
------------------
     ethr =  2.85E-04,  avg # of iterations =  2.5

     negative rho (up, down):  7.985E-01 0.000E+00

     total cpu time spent up to now is      204.4 secs

     total energy              =   -4440.48531144 Ry
     estimated scf accuracy    <       4.98024955 Ry

     iteration # 15     ecut=    60.00 Ry     beta= 0.15
     Davidson diagonalization with overlap

---- Real-time Memory Report at c_bands before calling an iterative solver
             0 MiB given to the printing process from OS
             0 MiB allocation reported by mallinfo(arena+hblkhd)
         50422 MiB available memory on the node where the printing process lives
------------------
     ethr =  2.85E-04,  avg # of iterations =  1.0

     negative rho (up, down):  8.158E-01 0.000E+00

     total cpu time spent up to now is      217.0 secs

     total energy              =   -4440.38768264 Ry
     estimated scf accuracy    <       1.81818923 Ry

     iteration # 16     ecut=    60.00 Ry     beta= 0.15
     Davidson diagonalization with overlap

---- Real-time Memory Report at c_bands before calling an iterative solver
             0 MiB given to the printing process from OS
             0 MiB allocation reported by mallinfo(arena+hblkhd)
         50444 MiB available memory on the node where the printing process lives
------------------
     ethr =  2.85E-04,  avg # of iterations =  2.6

     negative rho (up, down):  8.247E-01 0.000E+00

     total cpu time spent up to now is      231.0 secs

     total energy              =   -4440.39170367 Ry
     estimated scf accuracy    <       1.21520445 Ry

     iteration # 17     ecut=    60.00 Ry     beta= 0.15
     Davidson diagonalization with overlap

---- Real-time Memory Report at c_bands before calling an iterative solver
             0 MiB given to the printing process from OS
             0 MiB allocation reported by mallinfo(arena+hblkhd)
         50466 MiB available memory on the node where the printing process lives
------------------
     ethr =  2.83E-04,  avg # of iterations =  9.8

     negative rho (up, down):  8.233E-01 0.000E+00

     total cpu time spent up to now is      248.0 secs

     total energy              =   -4440.33643175 Ry
     estimated scf accuracy    <       1.08684522 Ry

     iteration # 18     ecut=    60.00 Ry     beta= 0.15
     Davidson diagonalization with overlap

---- Real-time Memory Report at c_bands before calling an iterative solver
             0 MiB given to the printing process from OS
             0 MiB allocation reported by mallinfo(arena+hblkhd)
         50492 MiB available memory on the node where the printing process lives
------------------
     ethr =  2.53E-04,  avg # of iterations =  1.4

     negative rho (up, down):  8.253E-01 0.000E+00

     total cpu time spent up to now is      261.5 secs

     total energy              =   -4440.34255888 Ry
     estimated scf accuracy    <       0.19163034 Ry

     iteration # 19     ecut=    60.00 Ry     beta= 0.15
     Davidson diagonalization with overlap

---- Real-time Memory Report at c_bands before calling an iterative solver
             0 MiB given to the printing process from OS
             0 MiB allocation reported by mallinfo(arena+hblkhd)
         50499 MiB available memory on the node where the printing process lives
------------------
     c_bands:  1 eigenvalues not converged
     ethr =  4.46E-05,  avg # of iterations = 15.1

     negative rho (up, down):  8.209E-01 0.000E+00

     total cpu time spent up to now is      281.9 secs

     total energy              =   -4440.33832576 Ry
     estimated scf accuracy    <       0.19882575 Ry

     iteration # 20     ecut=    60.00 Ry     beta= 0.15
     Davidson diagonalization with overlap

---- Real-time Memory Report at c_bands before calling an iterative solver
             0 MiB given to the printing process from OS
             0 MiB allocation reported by mallinfo(arena+hblkhd)
         50403 MiB available memory on the node where the printing process lives
------------------
     ethr =  4.46E-05,  avg # of iterations =  1.2

     negative rho (up, down):  8.064E-01 0.000E+00

     total cpu time spent up to now is      294.9 secs

     total energy              =   -4440.32082328 Ry
     estimated scf accuracy    <       0.12418720 Ry

     iteration # 21     ecut=    60.00 Ry     beta= 0.15
     Davidson diagonalization with overlap

---- Real-time Memory Report at c_bands before calling an iterative solver
             0 MiB given to the printing process from OS
             0 MiB allocation reported by mallinfo(arena+hblkhd)
         50391 MiB available memory on the node where the printing process lives
------------------
     ethr =  2.89E-05,  avg # of iterations =  7.7

     negative rho (up, down):  8.277E-01 0.000E+00

     total cpu time spent up to now is      312.1 secs

     total energy              =   -4440.30345668 Ry
     estimated scf accuracy    <       0.07523358 Ry

     iteration # 22     ecut=    60.00 Ry     beta= 0.15
     Davidson diagonalization with overlap

---- Real-time Memory Report at c_bands before calling an iterative solver
             0 MiB given to the printing process from OS
             0 MiB allocation reported by mallinfo(arena+hblkhd)
         50390 MiB available memory on the node where the printing process lives
------------------
     ethr =  1.75E-05,  avg # of iterations = 11.0

     negative rho (up, down):  8.487E-01 0.000E+00

     total cpu time spent up to now is      331.2 secs

     total energy              =   -4440.30230814 Ry
     estimated scf accuracy    <       0.05089861 Ry

     iteration # 23     ecut=    60.00 Ry     beta= 0.15
     Davidson diagonalization with overlap

---- Real-time Memory Report at c_bands before calling an iterative solver
             0 MiB given to the printing process from OS
             0 MiB allocation reported by mallinfo(arena+hblkhd)
         50297 MiB available memory on the node where the printing process lives
------------------
     c_bands:  1 eigenvalues not converged
     ethr =  1.18E-05,  avg # of iterations =  6.0

     negative rho (up, down):  8.321E-01 0.000E+00

     total cpu time spent up to now is      347.5 secs

     total energy              =   -4440.30010254 Ry
     estimated scf accuracy    <       0.02327571 Ry

     iteration # 24     ecut=    60.00 Ry     beta= 0.15
     Davidson diagonalization with overlap

---- Real-time Memory Report at c_bands before calling an iterative solver
             0 MiB given to the printing process from OS
             0 MiB allocation reported by mallinfo(arena+hblkhd)
         50262 MiB available memory on the node where the printing process lives
------------------
     ethr =  5.41E-06,  avg # of iterations = 10.5

     negative rho (up, down):  8.173E-01 0.000E+00

     total cpu time spent up to now is      365.3 secs

     total energy              =   -4440.29898511 Ry
     estimated scf accuracy    <       0.01722115 Ry

     iteration # 25     ecut=    60.00 Ry     beta= 0.15
     Davidson diagonalization with overlap

---- Real-time Memory Report at c_bands before calling an iterative solver
             0 MiB given to the printing process from OS
             0 MiB allocation reported by mallinfo(arena+hblkhd)
         50261 MiB available memory on the node where the printing process lives
------------------
     ethr =  4.00E-06,  avg # of iterations =  2.0

     negative rho (up, down):  7.962E-01 0.000E+00

     total cpu time spent up to now is      379.4 secs

     total energy              =   -4440.29710358 Ry
     estimated scf accuracy    <       0.01336993 Ry

     iteration # 26     ecut=    60.00 Ry     beta= 0.15
     Davidson diagonalization with overlap

---- Real-time Memory Report at c_bands before calling an iterative solver
             0 MiB given to the printing process from OS
             0 MiB allocation reported by mallinfo(arena+hblkhd)
         50316 MiB available memory on the node where the printing process lives
------------------
     c_bands:  1 eigenvalues not converged
     c_bands:  1 eigenvalues not converged
     ethr =  3.11E-06,  avg # of iterations = 11.1

     negative rho (up, down):  7.911E-01 0.000E+00

     total cpu time spent up to now is      397.9 secs

     total energy              =   -4440.29667096 Ry
     estimated scf accuracy    <       0.00711342 Ry

     iteration # 27     ecut=    60.00 Ry     beta= 0.15
     Davidson diagonalization with overlap

---- Real-time Memory Report at c_bands before calling an iterative solver
             0 MiB given to the printing process from OS
             0 MiB allocation reported by mallinfo(arena+hblkhd)
         50311 MiB available memory on the node where the printing process lives
------------------
     c_bands:  1 eigenvalues not converged
     ethr =  1.65E-06,  avg # of iterations =  9.5

     negative rho (up, down):  7.925E-01 0.000E+00

     total cpu time spent up to now is      415.1 secs

     total energy              =   -4440.29629597 Ry
     estimated scf accuracy    <       0.00487256 Ry

     iteration # 28     ecut=    60.00 Ry     beta= 0.15
     Davidson diagonalization with overlap

---- Real-time Memory Report at c_bands before calling an iterative solver
             0 MiB given to the printing process from OS
             0 MiB allocation reported by mallinfo(arena+hblkhd)
         50311 MiB available memory on the node where the printing process lives
------------------
     c_bands:  1 eigenvalues not converged
     ethr =  1.13E-06,  avg # of iterations =  6.9

     negative rho (up, down):  7.946E-01 0.000E+00

     total cpu time spent up to now is      432.0 secs

     total energy              =   -4440.29612509 Ry
     estimated scf accuracy    <       0.00290239 Ry

     iteration # 29     ecut=    60.00 Ry     beta= 0.15
     Davidson diagonalization with overlap

---- Real-time Memory Report at c_bands before calling an iterative solver
             0 MiB given to the printing process from OS
             0 MiB allocation reported by mallinfo(arena+hblkhd)
         50256 MiB available memory on the node where the printing process lives
------------------
     c_bands:  1 eigenvalues not converged
     ethr =  6.75E-07,  avg # of iterations = 10.6

     negative rho (up, down):  7.975E-01 0.000E+00

     total cpu time spent up to now is      450.6 secs

     total energy              =   -4440.29607179 Ry
     estimated scf accuracy    <       0.00127831 Ry

     iteration # 30     ecut=    60.00 Ry     beta= 0.15
     Davidson diagonalization with overlap

---- Real-time Memory Report at c_bands before calling an iterative solver
             0 MiB given to the printing process from OS
             0 MiB allocation reported by mallinfo(arena+hblkhd)
         50235 MiB available memory on the node where the printing process lives
------------------
     ethr =  2.97E-07,  avg # of iterations =  6.1

     negative rho (up, down):  7.977E-01 0.000E+00

     total cpu time spent up to now is      466.5 secs

     total energy              =   -4440.29614414 Ry
     estimated scf accuracy    <       0.00032827 Ry

     iteration # 31     ecut=    60.00 Ry     beta= 0.15
     Davidson diagonalization with overlap

---- Real-time Memory Report at c_bands before calling an iterative solver
             0 MiB given to the printing process from OS
             0 MiB allocation reported by mallinfo(arena+hblkhd)
         50235 MiB available memory on the node where the printing process lives
------------------
     ethr =  7.63E-08,  avg # of iterations =  2.7

     negative rho (up, down):  7.960E-01 0.000E+00

     total cpu time spent up to now is      480.9 secs

     total energy              =   -4440.29613529 Ry
     estimated scf accuracy    <       0.00012084 Ry

     iteration # 32     ecut=    60.00 Ry     beta= 0.15
     Davidson diagonalization with overlap

---- Real-time Memory Report at c_bands before calling an iterative solver
             0 MiB given to the printing process from OS
             0 MiB allocation reported by mallinfo(arena+hblkhd)
         50235 MiB available memory on the node where the printing process lives
------------------
     ethr =  2.81E-08,  avg # of iterations =  1.8

     negative rho (up, down):  7.935E-01 0.000E+00

     total cpu time spent up to now is      494.7 secs

     total energy              =   -4440.29612077 Ry
     estimated scf accuracy    <       0.00008359 Ry

     iteration # 33     ecut=    60.00 Ry     beta= 0.15
     Davidson diagonalization with overlap

---- Real-time Memory Report at c_bands before calling an iterative solver
             0 MiB given to the printing process from OS
             0 MiB allocation reported by mallinfo(arena+hblkhd)
         50259 MiB available memory on the node where the printing process lives
------------------
     ethr =  1.94E-08,  avg # of iterations =  5.9

     negative rho (up, down):  7.932E-01 0.000E+00

     total cpu time spent up to now is      510.4 secs

     total energy              =   -4440.29612473 Ry
     estimated scf accuracy    <       0.00004738 Ry

     iteration # 34     ecut=    60.00 Ry     beta= 0.15
     Davidson diagonalization with overlap

---- Real-time Memory Report at c_bands before calling an iterative solver
             0 MiB given to the printing process from OS
             0 MiB allocation reported by mallinfo(arena+hblkhd)
         50273 MiB available memory on the node where the printing process lives
------------------
     ethr =  1.10E-08,  avg # of iterations =  2.0

     negative rho (up, down):  7.926E-01 0.000E+00

     total cpu time spent up to now is      524.5 secs

     total energy              =   -4440.29612344 Ry
     estimated scf accuracy    <       0.00002613 Ry

     iteration # 35     ecut=    60.00 Ry     beta= 0.15
     Davidson diagonalization with overlap

---- Real-time Memory Report at c_bands before calling an iterative solver
             0 MiB given to the printing process from OS
             0 MiB allocation reported by mallinfo(arena+hblkhd)
         50281 MiB available memory on the node where the printing process lives
------------------
     ethr =  6.08E-09,  avg # of iterations =  3.4

     negative rho (up, down):  7.923E-01 0.000E+00

     total cpu time spent up to now is      539.2 secs

     total energy              =   -4440.29612574 Ry
     estimated scf accuracy    <       0.00001096 Ry

     iteration # 36     ecut=    60.00 Ry     beta= 0.15
     Davidson diagonalization with overlap

---- Real-time Memory Report at c_bands before calling an iterative solver
             0 MiB given to the printing process from OS
             0 MiB allocation reported by mallinfo(arena+hblkhd)
         50270 MiB available memory on the node where the printing process lives
------------------
     ethr =  2.55E-09,  avg # of iterations =  2.0

     negative rho (up, down):  7.923E-01 0.000E+00

     total cpu time spent up to now is      553.3 secs

     total energy              =   -4440.29612605 Ry
     estimated scf accuracy    <       0.00000568 Ry

     iteration # 37     ecut=    60.00 Ry     beta= 0.15
     Davidson diagonalization with overlap

---- Real-time Memory Report at c_bands before calling an iterative solver
             0 MiB given to the printing process from OS
             0 MiB allocation reported by mallinfo(arena+hblkhd)
         50271 MiB available memory on the node where the printing process lives
------------------
     ethr =  1.32E-09,  avg # of iterations =  2.0

     negative rho (up, down):  7.924E-01 0.000E+00

     total cpu time spent up to now is      567.5 secs

     total energy              =   -4440.29612657 Ry
     estimated scf accuracy    <       0.00000425 Ry

     iteration # 38     ecut=    60.00 Ry     beta= 0.15
     Davidson diagonalization with overlap

---- Real-time Memory Report at c_bands before calling an iterative solver
             0 MiB given to the printing process from OS
             0 MiB allocation reported by mallinfo(arena+hblkhd)
         50274 MiB available memory on the node where the printing process lives
------------------
     ethr =  9.89E-10,  avg # of iterations =  1.9

     negative rho (up, down):  7.925E-01 0.000E+00

     total cpu time spent up to now is      581.4 secs

     total energy              =   -4440.29612785 Ry
     estimated scf accuracy    <       0.00000329 Ry

     iteration # 39     ecut=    60.00 Ry     beta= 0.15
     Davidson diagonalization with overlap

---- Real-time Memory Report at c_bands before calling an iterative solver
             0 MiB given to the printing process from OS
             0 MiB allocation reported by mallinfo(arena+hblkhd)
         50283 MiB available memory on the node where the printing process lives
------------------
     ethr =  7.65E-10,  avg # of iterations =  2.0

     negative rho (up, down):  7.927E-01 0.000E+00

     total cpu time spent up to now is      595.4 secs

     total energy              =   -4440.29612855 Ry
     estimated scf accuracy    <       0.00000222 Ry

     iteration # 40     ecut=    60.00 Ry     beta= 0.15
     Davidson diagonalization with overlap

---- Real-time Memory Report at c_bands before calling an iterative solver
             0 MiB given to the printing process from OS
             0 MiB allocation reported by mallinfo(arena+hblkhd)
         50288 MiB available memory on the node where the printing process lives
------------------
     ethr =  5.16E-10,  avg # of iterations =  2.7

     negative rho (up, down):  7.927E-01 0.000E+00

     total cpu time spent up to now is      609.9 secs

     total energy              =   -4440.29612867 Ry
     estimated scf accuracy    <       0.00000166 Ry

     iteration # 41     ecut=    60.00 Ry     beta= 0.15
     Davidson diagonalization with overlap

---- Real-time Memory Report at c_bands before calling an iterative solver
             0 MiB given to the printing process from OS
             0 MiB allocation reported by mallinfo(arena+hblkhd)
         50285 MiB available memory on the node where the printing process lives
------------------
     ethr =  3.87E-10,  avg # of iterations =  1.9

     negative rho (up, down):  7.928E-01 0.000E+00

     total cpu time spent up to now is      624.0 secs

     total energy              =   -4440.29612865 Ry
     estimated scf accuracy    <       0.00000136 Ry

     iteration # 42     ecut=    60.00 Ry     beta= 0.15
     Davidson diagonalization with overlap

---- Real-time Memory Report at c_bands before calling an iterative solver
             0 MiB given to the printing process from OS
             0 MiB allocation reported by mallinfo(arena+hblkhd)
         50284 MiB available memory on the node where the printing process lives
------------------
     ethr =  3.15E-10,  avg # of iterations =  1.6

     negative rho (up, down):  7.927E-01 0.000E+00

     total cpu time spent up to now is      637.8 secs

     total energy              =   -4440.29612842 Ry
     estimated scf accuracy    <       0.00000103 Ry

     iteration # 43     ecut=    60.00 Ry     beta= 0.15
     Davidson diagonalization with overlap

---- Real-time Memory Report at c_bands before calling an iterative solver
             0 MiB given to the printing process from OS
             0 MiB allocation reported by mallinfo(arena+hblkhd)
         50286 MiB available memory on the node where the printing process lives
------------------
     ethr =  2.39E-10,  avg # of iterations =  1.0

     negative rho (up, down):  7.927E-01 0.000E+00

     total cpu time spent up to now is      650.6 secs

     total energy              =   -4440.29612846 Ry
     estimated scf accuracy    <       0.00000090 Ry

     iteration # 44     ecut=    60.00 Ry     beta= 0.15
     Davidson diagonalization with overlap

---- Real-time Memory Report at c_bands before calling an iterative solver
             0 MiB given to the printing process from OS
             0 MiB allocation reported by mallinfo(arena+hblkhd)
         50297 MiB available memory on the node where the printing process lives
------------------
     ethr =  2.09E-10,  avg # of iterations =  2.0

     negative rho (up, down):  7.926E-01 0.000E+00

     total cpu time spent up to now is      664.6 secs

     total energy              =   -4440.29612863 Ry
     estimated scf accuracy    <       0.00000046 Ry

     iteration # 45     ecut=    60.00 Ry     beta= 0.15
     Davidson diagonalization with overlap

---- Real-time Memory Report at c_bands before calling an iterative solver
             0 MiB given to the printing process from OS
             0 MiB allocation reported by mallinfo(arena+hblkhd)
         50302 MiB available memory on the node where the printing process lives
------------------
     ethr =  1.07E-10,  avg # of iterations =  2.2

     negative rho (up, down):  7.925E-01 0.000E+00

     total cpu time spent up to now is      678.9 secs

     total energy              =   -4440.29612867 Ry
     estimated scf accuracy    <       0.00000026 Ry

     iteration # 46     ecut=    60.00 Ry     beta= 0.15
     Davidson diagonalization with overlap

---- Real-time Memory Report at c_bands before calling an iterative solver
             0 MiB given to the printing process from OS
             0 MiB allocation reported by mallinfo(arena+hblkhd)
         50306 MiB available memory on the node where the printing process lives
------------------
     ethr =  5.94E-11,  avg # of iterations =  2.0

     negative rho (up, down):  7.925E-01 0.000E+00

     total cpu time spent up to now is      693.1 secs

     total energy              =   -4440.29612870 Ry
     estimated scf accuracy    <       0.00000014 Ry

     iteration # 47     ecut=    60.00 Ry     beta= 0.15
     Davidson diagonalization with overlap

---- Real-time Memory Report at c_bands before calling an iterative solver
             0 MiB given to the printing process from OS
             0 MiB allocation reported by mallinfo(arena+hblkhd)
         50305 MiB available memory on the node where the printing process lives
------------------
     ethr =  3.35E-11,  avg # of iterations =  2.1

     negative rho (up, down):  7.926E-01 0.000E+00

     total cpu time spent up to now is      707.2 secs

     total energy              =   -4440.29612871 Ry
     estimated scf accuracy    <       0.00000006 Ry

     iteration # 48     ecut=    60.00 Ry     beta= 0.15
     Davidson diagonalization with overlap

---- Real-time Memory Report at c_bands before calling an iterative solver
             0 MiB given to the printing process from OS
             0 MiB allocation reported by mallinfo(arena+hblkhd)
         50304 MiB available memory on the node where the printing process lives
------------------
     ethr =  1.47E-11,  avg # of iterations =  3.4

     negative rho (up, down):  7.926E-01 0.000E+00

     total cpu time spent up to now is      722.0 secs

     total energy              =   -4440.29612872 Ry
     estimated scf accuracy    <       0.00000003 Ry

     iteration # 49     ecut=    60.00 Ry     beta= 0.15
     Davidson diagonalization with overlap

---- Real-time Memory Report at c_bands before calling an iterative solver
             0 MiB given to the printing process from OS
             0 MiB allocation reported by mallinfo(arena+hblkhd)
         50296 MiB available memory on the node where the printing process lives
------------------
     ethr =  7.34E-12,  avg # of iterations =  2.8

     negative rho (up, down):  7.926E-01 0.000E+00

     total cpu time spent up to now is      736.6 secs

     total energy              =   -4440.29612871 Ry
     estimated scf accuracy    <       0.00000002 Ry

     iteration # 50     ecut=    60.00 Ry     beta= 0.15
     Davidson diagonalization with overlap

---- Real-time Memory Report at c_bands before calling an iterative solver
             0 MiB given to the printing process from OS
             0 MiB allocation reported by mallinfo(arena+hblkhd)
         50301 MiB available memory on the node where the printing process lives
------------------
     ethr =  4.19E-12,  avg # of iterations =  3.6

     negative rho (up, down):  7.926E-01 0.000E+00

     total cpu time spent up to now is      751.7 secs

     total energy              =   -4440.29612871 Ry
     estimated scf accuracy    <       0.00000001 Ry

     iteration # 51     ecut=    60.00 Ry     beta= 0.15
     Davidson diagonalization with overlap

---- Real-time Memory Report at c_bands before calling an iterative solver
             0 MiB given to the printing process from OS
             0 MiB allocation reported by mallinfo(arena+hblkhd)
         50286 MiB available memory on the node where the printing process lives
------------------
     ethr =  2.38E-12,  avg # of iterations =  2.5

     negative rho (up, down):  7.926E-01 0.000E+00

     total cpu time spent up to now is      765.7 secs

     End of self-consistent calculation

          k = 0.0000 0.0000 0.0000 ( 65197 PWs)   bands (ev):

   -92.8585 -92.8052 -92.7119 -92.6623 -92.6086 -92.5649 -92.5472 -92.4255
   -56.2121 -56.1918 -56.0690 -56.0588 -56.0491 -56.0457 -56.0094 -55.9810
   -55.9660 -55.9647 -55.9558 -55.9153 -55.8951 -55.8593 -55.8385 -55.8085
   -55.7954 -55.7525 -55.7507 -55.7497 -55.7413 -55.7007 -55.6773 -55.5922
   -31.4224 -31.4022 -31.2621 -31.1851 -31.1747 -31.1646 -30.9214 -30.8160
   -30.0031 -29.9595 -29.9356 -29.8262 -15.2348 -15.1894 -15.1104 -14.9800
   -14.7849 -14.6597 -14.3712 -14.3514 -14.3210 -14.2763 -14.2306 -14.2208
   -14.2077 -14.1906 -14.1593 -14.1333 -14.0833 -13.9314 -13.7542 -13.7191
   -13.6894 -13.6604 -13.6413 -13.5817 -13.5501 -13.4652 -13.3977 -13.2674
   -13.2541 -13.2442 -13.2201 -13.2032 -13.1998 -13.1514 -13.1476 -13.1298
   -13.1016 -13.0684 -13.0488 -13.0363 -13.0151 -13.0067 -12.9154 -12.8854
   -12.8775 -12.7699 -12.7212 -12.6920 -12.4890 -12.3433 -12.1509 -12.0843
   -12.0164 -11.9687 -11.9422 -11.9318 -11.9083 -11.8910 -11.8274 -11.8105
   -11.7747 -11.7465 -11.6348 -11.5551 -11.5516  -3.0965  -2.8645  -2.6349
    -2.4877  -2.4252  -2.2831  -1.9756  -1.9616  -1.9425  -1.8578  -1.8373
    -1.7691  -1.7526  -1.7118  -1.6689  -1.4860  -1.2622  -1.2317  -1.0857
    -1.0713  -1.0236  -1.0070  -0.9595  -0.9422  -0.8888  -0.8621  -0.7859
    -0.7745  -0.7019  -0.5666  -0.5522  -0.5274  -0.4463  -0.4285  -0.4170
    -0.3507  -0.2821  -0.2203  -0.1840  -0.1493  -0.0839  -0.0182   0.0267
     0.0492   0.0628   0.3205   0.3360   0.5102   0.5733   0.6451   0.6890
     0.7725   0.7878   0.8012   0.8710   0.8967   0.9312   0.9888   1.1183
     1.1820   1.2000   1.2201   1.2347   1.2983   1.3656   1.4778   1.4872
     1.5582   1.5689   1.6120   1.6243   1.6337   1.6920   1.7490   1.7668
     1.8051   1.8452   1.8742   2.0063   2.0966   2.1332   2.1510   2.3060
     2.3224   2.3564   2.3600   2.4690   2.5028   2.5282   2.5470   2.5611
     2.6098   2.6438   2.6487   2.6701   2.7654   2.7837   2.7958   2.8032
     2.8709   2.8777   2.8978   2.9051   2.9146   2.9308   2.9355   2.9484
     2.9541   2.9665   2.9741   2.9828   3.0016   3.0224   3.0275   3.0400
     3.0892   3.1815   3.2719   3.9613   4.2923   4.6391   4.8419   4.8918
     5.7367   5.8082   5.8553   5.8699   6.1587   6.2056   6.4485   6.4584
     6.9540   6.9798   7.0893   7.1817   7.3803   7.4886   7.5646   7.5776
     7.6003   7.8705   7.8928   7.9268   8.0480   8.1351   8.4096   8.4982
     8.7484   8.9499

     occupation numbers 
     1.0000   1.0000   1.0000   1.0000   1.0000   1.0000   1.0000   1.0000
     1.0000   1.0000   1.0000   1.0000   1.0000   1.0000   1.0000   1.0000
     1.0000   1.0000   1.0000   1.0000   1.0000   1.0000   1.0000   1.0000
     1.0000   1.0000   1.0000   1.0000   1.0000   1.0000   1.0000   1.0000
     1.0000   1.0000   1.0000   1.0000   1.0000   1.0000   1.0000   1.0000
     1.0000   1.0000   1.0000   1.0000   1.0000   1.0000   1.0000   1.0000
     1.0000   1.0000   1.0000   1.0000   1.0000   1.0000   1.0000   1.0000
     1.0000   1.0000   1.0000   1.0000   1.0000   1.0000   1.0000   1.0000
     1.0000   1.0000   1.0000   1.0000   1.0000   1.0000   1.0000   1.0000
     1.0000   1.0000   1.0000   1.0000   1.0000   1.0000   1.0000   1.0000
     1.0000   1.0000   1.0000   1.0000   1.0000   1.0000   1.0000   1.0000
     1.0000   1.0000   1.0000   1.0000   1.0000   1.0000   1.0000   1.0000
     1.0000   1.0000   1.0000   1.0000   1.0000   1.0000   1.0000   1.0000
     1.0000   1.0000   1.0000   1.0000   1.0000   1.0000   1.0000   1.0000
     1.0000   1.0000   1.0000   1.0000   1.0000   1.0000   1.0000   1.0000
     1.0000   1.0000   1.0000   1.0000   1.0000   1.0000   1.0000   1.0000
     1.0000   1.0000   1.0000   1.0000   1.0000   1.0000   1.0000   1.0000
     1.0000   1.0000   1.0000   1.0000   1.0000   1.0000   1.0000   1.0000
     1.0000   1.0000   1.0000   1.0000   1.0000   1.0000   1.0000   1.0000
     1.0000   1.0000   1.0000   1.0000   1.0000   0.9999   0.9999   0.9999
     0.9998   0.9998   0.9998   0.9997   0.9996   0.9996   0.9994   0.9988
     0.9984   0.9983   0.9981   0.9980   0.9973   0.9963   0.9940   0.9938
     0.9917   0.9913   0.9897   0.9892   0.9888   0.9859   0.9826   0.9814
     0.9787   0.9755   0.9729   0.9581   0.9446   0.9382   0.9350   0.9004
     0.8960   0.8866   0.8856   0.8512   0.8393   0.8299   0.8227   0.8172
     0.7975   0.7829   0.7807   0.7712   0.7262   0.7171   0.7110   0.7072
     0.6718   0.6681   0.6572   0.6532   0.6480   0.6390   0.6364   0.6292
     0.6260   0.6190   0.6147   0.6097   0.5990   0.5870   0.5841   0.5768
     0.5480   0.4934   0.4401   0.1201   0.0479   0.0146   0.0065   0.0053
     0.0001   0.0000   0.0000   0.0000   0.0000   0.0000   0.0000   0.0000
     0.0000   0.0000   0.0000   0.0000   0.0000   0.0000   0.0000   0.0000
     0.0000   0.0000   0.0000   0.0000   0.0000   0.0000   0.0000   0.0000
     0.0000   0.0000

          k = 0.0000 0.2500 0.0000 ( 65257 PWs)   bands (ev):

   -92.8585 -92.8052 -92.7119 -92.6623 -92.6086 -92.5649 -92.5472 -92.4255
   -56.2121 -56.1918 -56.0690 -56.0588 -56.0491 -56.0457 -56.0094 -55.9810
   -55.9660 -55.9647 -55.9558 -55.9153 -55.8951 -55.8593 -55.8385 -55.8085
   -55.7954 -55.7525 -55.7507 -55.7497 -55.7413 -55.7007 -55.6773 -55.5922
   -31.4223 -31.4021 -31.2623 -31.1835 -31.1749 -31.1662 -30.9211 -30.8163
   -30.0025 -29.9591 -29.9362 -29.8265 -15.1984 -15.1633 -15.0852 -14.9507
   -14.8258 -14.6514 -14.5177 -14.3376 -14.2999 -14.2794 -14.2526 -14.1935
   -14.1871 -14.1725 -14.1494 -14.1011 -14.0023 -13.9607 -13.7982 -13.7777
   -13.7293 -13.6951 -13.6520 -13.6029 -13.5558 -13.4909 -13.4512 -13.3746
   -13.3165 -13.2924 -13.2535 -13.2358 -13.1847 -13.1362 -13.1119 -13.0836
   -13.0681 -13.0460 -13.0128 -12.9523 -12.9438 -12.9376 -12.9070 -12.8744
   -12.8576 -12.7485 -12.6339 -12.5905 -12.5504 -12.3945 -12.2074 -12.1520
   -11.9820 -11.9685 -11.9390 -11.9112 -11.8837 -11.8670 -11.8190 -11.8080
   -11.7854 -11.7501 -11.6494 -11.5968 -11.5862  -2.9611  -2.7401  -2.6023
    -2.4203  -2.3768  -2.2135  -1.9932  -1.9100  -1.8970  -1.8392  -1.7358
    -1.7192  -1.6868  -1.6587  -1.6147  -1.4174  -1.2884  -1.2768  -1.2008
    -1.1901  -1.0860  -1.0564  -0.9987  -0.9726  -0.9332  -0.8684  -0.8404
    -0.8097  -0.7743  -0.7589  -0.7262  -0.6511  -0.6030  -0.5381  -0.4202
    -0.4038  -0.3583  -0.2406  -0.1982  -0.1383  -0.0944  -0.0321  -0.0195
     0.0085   0.0730   0.3691   0.4552   0.4892   0.5789   0.6253   0.6468
     0.7573   0.7756   0.8732   0.8995   0.9222   1.0361   1.1331   1.1558
     1.1783   1.1961   1.2217   1.2809   1.3084   1.3367   1.3835   1.4224
     1.4520   1.5393   1.5708   1.6128   1.6579   1.7187   1.7723   1.7896
     1.8098   1.8303   1.9224   2.0439   2.1171   2.1333   2.2056   2.2546
     2.2992   2.3101   2.3626   2.3994   2.4853   2.5220   2.5389   2.6069
     2.6467   2.6666   2.7132   2.7412   2.7677   2.7882   2.8040   2.8116
     2.8196   2.8333   2.8585   2.8598   2.8808   2.8841   2.8932   2.9124
     2.9271   2.9321   2.9526   2.9637   2.9683   3.0033   3.0206   3.0810
     3.4654   3.5010   3.7249   4.1496   4.2956   4.5704   4.9105   5.0049
     5.5341   5.6450   5.8250   5.9292   5.9599   5.9976   6.0841   6.5634
     7.0082   7.0458   7.2007   7.2590   7.3664   7.4230   7.5275   7.5627
     7.7354   7.9039   8.0889   8.1388   8.2837   8.3138   8.3645   8.4276
     8.5447   8.8320

     occupation numbers 
     1.0000   1.0000   1.0000   1.0000   1.0000   1.0000   1.0000   1.0000
     1.0000   1.0000   1.0000   1.0000   1.0000   1.0000   1.0000   1.0000
     1.0000   1.0000   1.0000   1.0000   1.0000   1.0000   1.0000   1.0000
     1.0000   1.0000   1.0000   1.0000   1.0000   1.0000   1.0000   1.0000
     1.0000   1.0000   1.0000   1.0000   1.0000   1.0000   1.0000   1.0000
     1.0000   1.0000   1.0000   1.0000   1.0000   1.0000   1.0000   1.0000
     1.0000   1.0000   1.0000   1.0000   1.0000   1.0000   1.0000   1.0000
     1.0000   1.0000   1.0000   1.0000   1.0000   1.0000   1.0000   1.0000
     1.0000   1.0000   1.0000   1.0000   1.0000   1.0000   1.0000   1.0000
     1.0000   1.0000   1.0000   1.0000   1.0000   1.0000   1.0000   1.0000
     1.0000   1.0000   1.0000   1.0000   1.0000   1.0000   1.0000   1.0000
     1.0000   1.0000   1.0000   1.0000   1.0000   1.0000   1.0000   1.0000
     1.0000   1.0000   1.0000   1.0000   1.0000   1.0000   1.0000   1.0000
     1.0000   1.0000   1.0000   1.0000   1.0000   1.0000   1.0000   1.0000
     1.0000   1.0000   1.0000   1.0000   1.0000   1.0000   1.0000   1.0000
     1.0000   1.0000   1.0000   1.0000   1.0000   1.0000   1.0000   1.0000
     1.0000   1.0000   1.0000   1.0000   1.0000   1.0000   1.0000   1.0000
     1.0000   1.0000   1.0000   1.0000   1.0000   1.0000   1.0000   1.0000
     1.0000   1.0000   1.0000   1.0000   1.0000   1.0000   1.0000   1.0000
     1.0000   1.0000   1.0000   1.0000   1.0000   0.9999   0.9999   0.9999
     0.9998   0.9998   0.9997   0.9996   0.9996   0.9992   0.9988   0.9986
     0.9985   0.9983   0.9981   0.9975   0.9972   0.9968   0.9960   0.9953
     0.9946   0.9923   0.9912   0.9896   0.9876   0.9844   0.9811   0.9798
     0.9783   0.9767   0.9681   0.9528   0.9411   0.9382   0.9240   0.9131
     0.9021   0.8993   0.8848   0.8739   0.8455   0.8322   0.8258   0.7987
     0.7816   0.7728   0.7514   0.7381   0.7251   0.7148   0.7068   0.7029
     0.6988   0.6917   0.6784   0.6777   0.6664   0.6647   0.6597   0.6492
     0.6411   0.6383   0.6268   0.6206   0.6180   0.5980   0.5880   0.5528
     0.3307   0.3118   0.2052   0.0730   0.0474   0.0188   0.0049   0.0032
     0.0002   0.0001   0.0000   0.0000   0.0000   0.0000   0.0000   0.0000
     0.0000   0.0000   0.0000   0.0000   0.0000   0.0000   0.0000   0.0000
     0.0000   0.0000   0.0000   0.0000   0.0000   0.0000   0.0000   0.0000
     0.0000   0.0000

          k = 0.0000-0.5000 0.0000 ( 65180 PWs)   bands (ev):

   -92.8585 -92.8052 -92.7119 -92.6623 -92.6086 -92.5649 -92.5472 -92.4255
   -56.2121 -56.1918 -56.0690 -56.0588 -56.0491 -56.0457 -56.0094 -55.9810
   -55.9660 -55.9647 -55.9558 -55.9153 -55.8951 -55.8593 -55.8385 -55.8085
   -55.7954 -55.7525 -55.7507 -55.7497 -55.7413 -55.7007 -55.6773 -55.5922
   -31.4221 -31.4020 -31.2625 -31.1816 -31.1750 -31.1681 -30.9208 -30.8166
   -30.0019 -29.9588 -29.9369 -29.8269 -15.1629 -15.1136 -15.0618 -14.9289
   -14.8506 -14.7091 -14.5607 -14.4257 -14.3101 -14.2375 -14.1943 -14.1892
   -14.1364 -14.1219 -14.0758 -14.0529 -14.0287 -13.9896 -13.9409 -13.9130
   -13.7359 -13.6778 -13.6590 -13.6085 -13.5472 -13.5091 -13.4550 -13.4267
   -13.3993 -13.3620 -13.2542 -13.2368 -13.1618 -13.1330 -13.1136 -13.0955
   -13.0743 -13.0286 -12.9427 -12.9246 -12.9061 -12.8644 -12.8519 -12.8381
   -12.7981 -12.7410 -12.6613 -12.5080 -12.4697 -12.3767 -12.3218 -12.2900
   -11.9686 -11.9359 -11.9334 -11.9061 -11.8702 -11.8354 -11.8241 -11.7803
   -11.7765 -11.7308 -11.6718 -11.6578 -11.6434  -2.7468  -2.6869  -2.5370
    -2.4651  -2.1833  -2.0979  -1.9733  -1.8353  -1.7993  -1.7782  -1.7006
    -1.6670  -1.5874  -1.5506  -1.4732  -1.4335  -1.3952  -1.3675  -1.3101
    -1.2729  -1.2233  -1.1892  -1.1577  -1.1209  -1.0136  -0.9684  -0.9329
    -0.9316  -0.8447  -0.8127  -0.7891  -0.7397  -0.6569  -0.5785  -0.4965
    -0.4698  -0.3533  -0.3133  -0.1835  -0.1449  -0.1155  -0.0584   0.0783
     0.1244   0.2375   0.3081   0.3145   0.4429   0.5000   0.6058   0.7244
     0.8305   0.8616   0.9016   0.9075   0.9465   0.9608   0.9972   1.0175
     1.0251   1.1378   1.1981   1.2227   1.2478   1.5135   1.5472   1.5757
     1.6696   1.6940   1.7228   1.7389   1.7599   1.7891   1.7962   1.8224
     1.8505   1.8808   1.9111   1.9137   1.9471   2.0004   2.0867   2.1228
     2.2991   2.4470   2.4576   2.4776   2.5096   2.5164   2.5278   2.5765
     2.5874   2.6085   2.6405   2.6455   2.6665   2.6736   2.7522   2.7667
     2.8246   2.8384   2.8536   2.8578   2.8754   2.8821   2.8877   2.8909
     2.8925   2.9107   2.9240   2.9251   2.9879   2.9945   3.0103   3.0638
     3.9780   4.0254   4.0561   4.1118   4.5848   4.7588   4.9319   5.0156
     5.3108   5.3794   5.5117   5.5930   5.8738   5.9026   6.2363   6.6084
     6.8113   6.9044   7.1624   7.3162   7.5702   7.6062   7.6671   7.7012
     7.7959   7.9245   8.0552   8.1551   8.3227   8.3732   8.5203   8.5394
     8.7091   8.7818

     occupation numbers 
     1.0000   1.0000   1.0000   1.0000   1.0000   1.0000   1.0000   1.0000
     1.0000   1.0000   1.0000   1.0000   1.0000   1.0000   1.0000   1.0000
     1.0000   1.0000   1.0000   1.0000   1.0000   1.0000   1.0000   1.0000
     1.0000   1.0000   1.0000   1.0000   1.0000   1.0000   1.0000   1.0000
     1.0000   1.0000   1.0000   1.0000   1.0000   1.0000   1.0000   1.0000
     1.0000   1.0000   1.0000   1.0000   1.0000   1.0000   1.0000   1.0000
     1.0000   1.0000   1.0000   1.0000   1.0000   1.0000   1.0000   1.0000
     1.0000   1.0000   1.0000   1.0000   1.0000   1.0000   1.0000   1.0000
     1.0000   1.0000   1.0000   1.0000   1.0000   1.0000   1.0000   1.0000
     1.0000   1.0000   1.0000   1.0000   1.0000   1.0000   1.0000   1.0000
     1.0000   1.0000   1.0000   1.0000   1.0000   1.0000   1.0000   1.0000
     1.0000   1.0000   1.0000   1.0000   1.0000   1.0000   1.0000   1.0000
     1.0000   1.0000   1.0000   1.0000   1.0000   1.0000   1.0000   1.0000
     1.0000   1.0000   1.0000   1.0000   1.0000   1.0000   1.0000   1.0000
     1.0000   1.0000   1.0000   1.0000   1.0000   1.0000   1.0000   1.0000
     1.0000   1.0000   1.0000   1.0000   1.0000   1.0000   1.0000   1.0000
     1.0000   1.0000   1.0000   1.0000   1.0000   1.0000   1.0000   1.0000
     1.0000   1.0000   1.0000   1.0000   1.0000   1.0000   1.0000   1.0000
     1.0000   1.0000   1.0000   1.0000   1.0000   1.0000   1.0000   1.0000
     1.0000   1.0000   1.0000   1.0000   1.0000   1.0000   0.9999   0.9999
     0.9997   0.9997   0.9996   0.9996   0.9995   0.9995   0.9994   0.9993
     0.9993   0.9987   0.9983   0.9981   0.9978   0.9931   0.9920   0.9911
     0.9871   0.9858   0.9842   0.9832   0.9819   0.9799   0.9794   0.9773
     0.9750   0.9723   0.9693   0.9690   0.9654   0.9588   0.9462   0.9401
     0.9022   0.8586   0.8551   0.8482   0.8368   0.8343   0.8300   0.8111
     0.8067   0.7980   0.7843   0.7821   0.7729   0.7697   0.7327   0.7256
     0.6962   0.6890   0.6810   0.6788   0.6693   0.6657   0.6627   0.6610
     0.6601   0.6502   0.6428   0.6422   0.6068   0.6031   0.5940   0.5629
     0.1152   0.1021   0.0942   0.0811   0.0179   0.0092   0.0045   0.0031
     0.0007   0.0005   0.0003   0.0002   0.0000   0.0000   0.0000   0.0000
     0.0000   0.0000   0.0000   0.0000   0.0000   0.0000   0.0000   0.0000
     0.0000   0.0000   0.0000   0.0000   0.0000   0.0000   0.0000   0.0000
     0.0000   0.0000

          k = 0.2500 0.2500 0.0000 ( 65198 PWs)   bands (ev):

   -92.8585 -92.8052 -92.7119 -92.6623 -92.6086 -92.5649 -92.5472 -92.4255
   -56.2121 -56.1918 -56.0690 -56.0588 -56.0491 -56.0457 -56.0094 -55.9810
   -55.9660 -55.9647 -55.9558 -55.9153 -55.8951 -55.8593 -55.8385 -55.8085
   -55.7954 -55.7525 -55.7507 -55.7497 -55.7413 -55.7007 -55.6773 -55.5922
   -31.4206 -31.4037 -31.2620 -31.1834 -31.1753 -31.1661 -30.9213 -30.8164
   -30.0015 -29.9601 -29.9358 -29.8269 -15.1695 -15.1282 -15.0574 -14.9400
   -14.8192 -14.6924 -14.6236 -14.4136 -14.2608 -14.2457 -14.2100 -14.1806
   -14.1583 -14.1316 -14.0947 -14.0662 -13.9935 -13.9747 -13.8143 -13.7992
   -13.7725 -13.7498 -13.7010 -13.6614 -13.5800 -13.5745 -13.4277 -13.4033
   -13.3736 -13.2866 -13.2469 -13.1958 -13.1650 -13.1576 -13.1276 -13.0924
   -13.0770 -13.0573 -12.9938 -12.9537 -12.8973 -12.8879 -12.8601 -12.8477
   -12.7991 -12.7388 -12.5988 -12.5820 -12.5325 -12.4236 -12.2419 -12.1906
   -11.9688 -11.9540 -11.9225 -11.9115 -11.9049 -11.8417 -11.8080 -11.8009
   -11.7648 -11.7577 -11.6660 -11.6252 -11.6075  -2.8227  -2.6143  -2.4963
    -2.4017  -2.2815  -2.2166  -2.0181  -1.8745  -1.8556  -1.8258  -1.7307
    -1.6973  -1.6019  -1.5743  -1.5238  -1.3932  -1.3449  -1.2722  -1.2270
    -1.1832  -1.1598  -1.1357  -1.0929  -1.0775  -0.9865  -0.9360  -0.8701
    -0.8207  -0.7887  -0.7424  -0.7247  -0.6628  -0.6148  -0.5583  -0.5232
    -0.4368  -0.3816  -0.3538  -0.3171  -0.2612  -0.1720  -0.1455  -0.1223
    -0.0370  -0.0094   0.2566   0.4052   0.4393   0.5033   0.5455   0.6041
     0.6629   0.7204   0.7516   1.0227   1.0873   1.1606   1.1861   1.2359
     1.2663   1.3015   1.3390   1.3556   1.3829   1.4302   1.4374   1.4521
     1.4961   1.5375   1.5743   1.6451   1.6832   1.6865   1.7317   1.7586
     1.8123   1.8469   1.9622   2.0260   2.0593   2.0798   2.1485   2.2186
     2.2432   2.2775   2.3071   2.3215   2.4273   2.4634   2.5513   2.6053
     2.6455   2.6807   2.7248   2.7389   2.7461   2.7616   2.7764   2.7880
     2.8043   2.8107   2.8203   2.8320   2.8450   2.8626   2.8681   2.8810
     2.9044   2.9145   2.9234   2.9554   3.2553   3.3512   3.3944   3.4667
     3.5202   3.7027   3.7995   4.1594   4.3840   4.5770   4.8313   5.1446
     5.5218   5.5780   5.6125   5.6843   5.7461   6.0770   6.1150   6.1777
     6.8493   7.0366   7.1670   7.3565   7.4729   7.5026   7.6129   7.7766
     7.8269   8.0235   8.2058   8.2259   8.3448   8.3914   8.4412   8.4551
     8.5539   8.6652

     occupation numbers 
     1.0000   1.0000   1.0000   1.0000   1.0000   1.0000   1.0000   1.0000
     1.0000   1.0000   1.0000   1.0000   1.0000   1.0000   1.0000   1.0000
     1.0000   1.0000   1.0000   1.0000   1.0000   1.0000   1.0000   1.0000
     1.0000   1.0000   1.0000   1.0000   1.0000   1.0000   1.0000   1.0000
     1.0000   1.0000   1.0000   1.0000   1.0000   1.0000   1.0000   1.0000
     1.0000   1.0000   1.0000   1.0000   1.0000   1.0000   1.0000   1.0000
     1.0000   1.0000   1.0000   1.0000   1.0000   1.0000   1.0000   1.0000
     1.0000   1.0000   1.0000   1.0000   1.0000   1.0000   1.0000   1.0000
     1.0000   1.0000   1.0000   1.0000   1.0000   1.0000   1.0000   1.0000
     1.0000   1.0000   1.0000   1.0000   1.0000   1.0000   1.0000   1.0000
     1.0000   1.0000   1.0000   1.0000   1.0000   1.0000   1.0000   1.0000
     1.0000   1.0000   1.0000   1.0000   1.0000   1.0000   1.0000   1.0000
     1.0000   1.0000   1.0000   1.0000   1.0000   1.0000   1.0000   1.0000
     1.0000   1.0000   1.0000   1.0000   1.0000   1.0000   1.0000   1.0000
     1.0000   1.0000   1.0000   1.0000   1.0000   1.0000   1.0000   1.0000
     1.0000   1.0000   1.0000   1.0000   1.0000   1.0000   1.0000   1.0000
     1.0000   1.0000   1.0000   1.0000   1.0000   1.0000   1.0000   1.0000
     1.0000   1.0000   1.0000   1.0000   1.0000   1.0000   1.0000   1.0000
     1.0000   1.0000   1.0000   1.0000   1.0000   1.0000   1.0000   1.0000
     1.0000   1.0000   1.0000   1.0000   1.0000   1.0000   1.0000   0.9999
     0.9999   0.9999   0.9998   0.9993   0.9990   0.9986   0.9984   0.9980
     0.9977   0.9972   0.9967   0.9965   0.9960   0.9951   0.9950   0.9946
     0.9935   0.9923   0.9911   0.9882   0.9864   0.9862   0.9837   0.9820
     0.9781   0.9753   0.9636   0.9554   0.9505   0.9473   0.9354   0.9212
     0.9157   0.9076   0.9001   0.8963   0.8651   0.8531   0.8211   0.7993
     0.7822   0.7664   0.7459   0.7392   0.7357   0.7281   0.7207   0.7149
     0.7067   0.7034   0.6984   0.6924   0.6855   0.6762   0.6733   0.6663
     0.6536   0.6480   0.6431   0.6253   0.4499   0.3942   0.3697   0.3300
     0.3018   0.2146   0.1751   0.0710   0.0358   0.0184   0.0068   0.0017
     0.0002   0.0002   0.0001   0.0001   0.0001   0.0000   0.0000   0.0000
     0.0000   0.0000   0.0000   0.0000   0.0000   0.0000   0.0000   0.0000
     0.0000   0.0000   0.0000   0.0000   0.0000   0.0000   0.0000   0.0000
     0.0000   0.0000

          k = 0.2500-0.5000 0.0000 ( 65138 PWs)   bands (ev):

   -92.8585 -92.8052 -92.7119 -92.6623 -92.6086 -92.5649 -92.5472 -92.4255
   -56.2121 -56.1918 -56.0690 -56.0588 -56.0491 -56.0457 -56.0094 -55.9810
   -55.9660 -55.9647 -55.9558 -55.9153 -55.8951 -55.8593 -55.8385 -55.8085
   -55.7954 -55.7525 -55.7507 -55.7497 -55.7413 -55.7007 -55.6773 -55.5921
   -31.4204 -31.4036 -31.2622 -31.1814 -31.1754 -31.1680 -30.9210 -30.8167
   -30.0009 -29.9598 -29.9365 -29.8273 -15.1323 -15.0867 -15.0185 -14.8992
   -14.8728 -14.7508 -14.6626 -14.5260 -14.2257 -14.1711 -14.1451 -14.1225
   -14.1065 -14.0948 -14.0602 -14.0420 -14.0063 -13.9689 -13.9395 -13.8984
   -13.8175 -13.7673 -13.7179 -13.6894 -13.6173 -13.5910 -13.4857 -13.4561
   -13.3518 -13.2874 -13.2646 -13.1800 -13.1490 -13.1304 -13.1106 -13.1053
   -13.0879 -13.0580 -12.9464 -12.9304 -12.8974 -12.8672 -12.8556 -12.8020
   -12.7704 -12.7414 -12.6675 -12.4947 -12.4669 -12.3628 -12.3105 -12.2847
   -11.9687 -11.9297 -11.9177 -11.9071 -11.8803 -11.8480 -11.8207 -11.7778
   -11.7516 -11.7283 -11.6845 -11.6589 -11.6473  -2.6047  -2.5384  -2.4107
    -2.3336  -2.2035  -2.1182  -1.9975  -1.8467  -1.7936  -1.7705  -1.7072
    -1.6948  -1.5983  -1.5295  -1.4453  -1.3950  -1.3852  -1.3236  -1.2803
    -1.2456  -1.1985  -1.1605  -1.1257  -1.0866  -1.0756  -1.0290  -0.9990
    -0.9578  -0.9263  -0.8597  -0.7588  -0.7161  -0.6388  -0.5722  -0.5238
    -0.4816  -0.4603  -0.4036  -0.2413  -0.2299  -0.1332  -0.0940  -0.0867
    -0.0452  -0.0074   0.0347   0.0586   0.1219   0.4020   0.5043   0.5711
     0.6319   0.8860   0.9122   0.9980   1.0209   1.1843   1.2188   1.2607
     1.2828   1.2973   1.3181   1.3804   1.4277   1.4635   1.5439   1.6457
     1.6837   1.6986   1.7084   1.7469   1.7574   1.7717   1.8134   1.8207
     1.8490   1.8706   1.8913   1.9060   1.9431   2.0003   2.0404   2.1217
     2.2597   2.4001   2.4170   2.4367   2.4623   2.4869   2.5140   2.5353
     2.5452   2.5709   2.6090   2.6416   2.6727   2.6893   2.7342   2.7409
     2.7454   2.7588   2.7782   2.7914   2.8111   2.8199   2.8540   2.8624
     2.8767   2.8867   2.8944   2.9064   3.4406   3.4446   3.5876   3.6406
     3.9989   4.0422   4.0642   4.1684   4.6043   4.7794   4.9504   4.9835
     5.1614   5.3215   5.5236   5.5380   5.6539   5.6852   6.3223   6.3635
     6.4559   6.7129   7.2124   7.6074   7.6727   7.7150   7.7468   7.8125
     7.8888   7.9444   8.1965   8.3149   8.4124   8.4392   8.5699   8.6084
     8.6549   8.6797

     occupation numbers 
     1.0000   1.0000   1.0000   1.0000   1.0000   1.0000   1.0000   1.0000
     1.0000   1.0000   1.0000   1.0000   1.0000   1.0000   1.0000   1.0000
     1.0000   1.0000   1.0000   1.0000   1.0000   1.0000   1.0000   1.0000
     1.0000   1.0000   1.0000   1.0000   1.0000   1.0000   1.0000   1.0000
     1.0000   1.0000   1.0000   1.0000   1.0000   1.0000   1.0000   1.0000
     1.0000   1.0000   1.0000   1.0000   1.0000   1.0000   1.0000   1.0000
     1.0000   1.0000   1.0000   1.0000   1.0000   1.0000   1.0000   1.0000
     1.0000   1.0000   1.0000   1.0000   1.0000   1.0000   1.0000   1.0000
     1.0000   1.0000   1.0000   1.0000   1.0000   1.0000   1.0000   1.0000
     1.0000   1.0000   1.0000   1.0000   1.0000   1.0000   1.0000   1.0000
     1.0000   1.0000   1.0000   1.0000   1.0000   1.0000   1.0000   1.0000
     1.0000   1.0000   1.0000   1.0000   1.0000   1.0000   1.0000   1.0000
     1.0000   1.0000   1.0000   1.0000   1.0000   1.0000   1.0000   1.0000
     1.0000   1.0000   1.0000   1.0000   1.0000   1.0000   1.0000   1.0000
     1.0000   1.0000   1.0000   1.0000   1.0000   1.0000   1.0000   1.0000
     1.0000   1.0000   1.0000   1.0000   1.0000   1.0000   1.0000   1.0000
     1.0000   1.0000   1.0000   1.0000   1.0000   1.0000   1.0000   1.0000
     1.0000   1.0000   1.0000   1.0000   1.0000   1.0000   1.0000   1.0000
     1.0000   1.0000   1.0000   1.0000   1.0000   1.0000   1.0000   1.0000
     1.0000   1.0000   1.0000   1.0000   1.0000   1.0000   1.0000   0.9999
     0.9999   0.9997   0.9996   0.9994   0.9993   0.9984   0.9981   0.9977
     0.9975   0.9973   0.9970   0.9961   0.9952   0.9944   0.9921   0.9882
     0.9864   0.9856   0.9850   0.9827   0.9821   0.9811   0.9781   0.9775
     0.9751   0.9732   0.9712   0.9698   0.9658   0.9589   0.9533   0.9403
     0.9119   0.8737   0.8684   0.8620   0.8535   0.8450   0.8351   0.8272
     0.8234   0.8133   0.7978   0.7838   0.7701   0.7626   0.7414   0.7382
     0.7360   0.7295   0.7199   0.7132   0.7032   0.6987   0.6808   0.6763
     0.6687   0.6632   0.6591   0.6525   0.3442   0.3420   0.2678   0.2425
     0.1093   0.0977   0.0922   0.0692   0.0166   0.0084   0.0041   0.0035
     0.0016   0.0007   0.0002   0.0002   0.0001   0.0001   0.0000   0.0000
     0.0000   0.0000   0.0000   0.0000   0.0000   0.0000   0.0000   0.0000
     0.0000   0.0000   0.0000   0.0000   0.0000   0.0000   0.0000   0.0000
     0.0000   0.0000

          k =-0.5000-0.5000 0.0000 ( 65132 PWs)   bands (ev):

   -92.8585 -92.8052 -92.7119 -92.6623 -92.6086 -92.5649 -92.5472 -92.4255
   -56.2121 -56.1918 -56.0690 -56.0588 -56.0491 -56.0457 -56.0094 -55.9810
   -55.9660 -55.9647 -55.9558 -55.9153 -55.8951 -55.8593 -55.8385 -55.8085
   -55.7954 -55.7525 -55.7507 -55.7497 -55.7413 -55.7007 -55.6773 -55.5921
   -31.4184 -31.4056 -31.2618 -31.1813 -31.1758 -31.1680 -30.9211 -30.8168
   -29.9999 -29.9608 -29.9361 -29.8277 -15.0855 -15.0600 -14.9413 -14.9303
   -14.8362 -14.7987 -14.7624 -14.6277 -14.1365 -14.1217 -14.0900 -14.0712
   -14.0535 -14.0421 -14.0112 -14.0013 -13.9891 -13.9740 -13.9600 -13.8852
   -13.8742 -13.8443 -13.8104 -13.8035 -13.7046 -13.6460 -13.5129 -13.5096
   -13.3012 -13.2631 -13.1970 -13.1716 -13.1433 -13.1304 -13.1211 -13.1111
   -13.0988 -13.0831 -12.9450 -12.9348 -12.8941 -12.8765 -12.8581 -12.7564
   -12.7471 -12.7423 -12.6833 -12.4822 -12.4628 -12.3482 -12.2989 -12.2794
   -11.9688 -11.9266 -11.9141 -11.8960 -11.8796 -11.8439 -11.8254 -11.7934
   -11.7322 -11.7117 -11.7064 -11.6564 -11.6528  -2.3806  -2.3045  -2.2925
    -2.2233  -2.1845  -2.1059  -2.0384  -1.9127  -1.7974  -1.7659  -1.7282
    -1.6704  -1.5983  -1.5843  -1.5128  -1.4708  -1.3530  -1.3232  -1.2749
    -1.2478  -1.1835  -1.1361  -1.1171  -1.1038  -1.0517  -1.0080  -0.9913
    -0.8784  -0.8198  -0.7752  -0.7240  -0.6969  -0.6864  -0.6505  -0.6047
    -0.5713  -0.5614  -0.4751  -0.4056  -0.3650  -0.3345  -0.2638  -0.2032
    -0.1795  -0.1298  -0.1094  -0.0960  -0.0841   0.3719   0.4322   0.5174
     0.5565   0.9190   0.9320   0.9623   1.0000   1.2701   1.2905   1.2959
     1.3342   1.4626   1.5591   1.5862   1.6230   1.6511   1.6700   1.6784
     1.7093   1.7256   1.7474   1.7506   1.7930   1.7977   1.8261   1.8598
     1.8700   1.8836   1.9243   1.9422   1.9552   1.9862   2.0150   2.0784
     2.1466   2.4078   2.4431   2.4621   2.4820   2.4914   2.5228   2.5254
     2.5450   2.5552   2.5726   2.5907   2.6020   2.6123   2.6454   2.6705
     2.6754   2.6849   2.6984   2.7221   2.7362   2.7451   2.7471   2.7589
     2.8593   2.8685   2.8918   2.9014   3.8525   3.8869   3.9372   3.9776
     4.1630   4.2377   4.2624   4.5035   4.6255   4.7081   4.8417   4.9446
     4.9544   5.0509   5.2000   5.2521   5.8280   5.8641   5.9109   6.0102
     6.4893   6.8770   6.8808   7.5269   7.8608   7.8723   7.9511   8.0783
     8.1249   8.1734   8.2270   8.2347   8.3706   8.4793   8.5159   8.5278
     8.5488   8.6548

     occupation numbers 
     1.0000   1.0000   1.0000   1.0000   1.0000   1.0000   1.0000   1.0000
     1.0000   1.0000   1.0000   1.0000   1.0000   1.0000   1.0000   1.0000
     1.0000   1.0000   1.0000   1.0000   1.0000   1.0000   1.0000   1.0000
     1.0000   1.0000   1.0000   1.0000   1.0000   1.0000   1.0000   1.0000
     1.0000   1.0000   1.0000   1.0000   1.0000   1.0000   1.0000   1.0000
     1.0000   1.0000   1.0000   1.0000   1.0000   1.0000   1.0000   1.0000
     1.0000   1.0000   1.0000   1.0000   1.0000   1.0000   1.0000   1.0000
     1.0000   1.0000   1.0000   1.0000   1.0000   1.0000   1.0000   1.0000
     1.0000   1.0000   1.0000   1.0000   1.0000   1.0000   1.0000   1.0000
     1.0000   1.0000   1.0000   1.0000   1.0000   1.0000   1.0000   1.0000
     1.0000   1.0000   1.0000   1.0000   1.0000   1.0000   1.0000   1.0000
     1.0000   1.0000   1.0000   1.0000   1.0000   1.0000   1.0000   1.0000
     1.0000   1.0000   1.0000   1.0000   1.0000   1.0000   1.0000   1.0000
     1.0000   1.0000   1.0000   1.0000   1.0000   1.0000   1.0000   1.0000
     1.0000   1.0000   1.0000   1.0000   1.0000   1.0000   1.0000   1.0000
     1.0000   1.0000   1.0000   1.0000   1.0000   1.0000   1.0000   1.0000
     1.0000   1.0000   1.0000   1.0000   1.0000   1.0000   1.0000   1.0000
     1.0000   1.0000   1.0000   1.0000   1.0000   1.0000   1.0000   1.0000
     1.0000   1.0000   1.0000   1.0000   1.0000   1.0000   1.0000   1.0000
[...]
     0.6327   0.6211   0.6185   0.6141   0.6105   0.6047   0.5990   0.5186
     0.3472   0.3207   0.2038   0.0768   0.0421   0.0205   0.0050   0.0031
     0.0002   0.0001   0.0000   0.0000   0.0000   0.0000   0.0000   0.0000
     0.0000   0.0000   0.0000   0.0000   0.0000   0.0000   0.0000   0.0000
     0.0000   0.0000   0.0000   0.0000   0.0000   0.0000   0.0000   0.0000
     0.0000   0.0000

          k =-0.5000 0.0000 0.0000 ( 65180 PWs)   bands (ev):

   -92.8585 -92.8052 -92.7119 -92.6623 -92.6086 -92.5649 -92.5472 -92.4255
   -56.2121 -56.1918 -56.0690 -56.0588 -56.0491 -56.0457 -56.0094 -55.9810
   -55.9660 -55.9647 -55.9558 -55.9153 -55.8951 -55.8593 -55.8385 -55.8085
   -55.7954 -55.7525 -55.7507 -55.7497 -55.7413 -55.7007 -55.6773 -55.5921
   -31.4188 -31.4059 -31.2614 -31.1848 -31.1755 -31.1644 -30.9217 -30.8162
   -30.0011 -29.9615 -29.9348 -29.8270 -15.1679 -15.1153 -15.0532 -14.9458
   -14.8409 -14.6986 -14.5462 -14.4099 -14.2846 -14.2728 -14.2612 -14.1891
   -14.1405 -14.1093 -14.0588 -14.0552 -14.0391 -13.9889 -13.9715 -13.8577
   -13.7068 -13.6814 -13.6464 -13.6401 -13.5560 -13.5148 -13.4424 -13.4119
   -13.3879 -13.3735 -13.1999 -13.1955 -13.1857 -13.1618 -13.1545 -13.0927
   -13.0839 -13.0720 -13.0280 -13.0067 -12.8792 -12.7875 -12.7809 -12.7733
   -12.7284 -12.7034 -12.6871 -12.5950 -12.4766 -12.4730 -12.2930 -12.2486
   -11.9690 -11.9334 -11.9118 -11.9049 -11.8903 -11.8720 -11.8300 -11.7691
   -11.7517 -11.7187 -11.6730 -11.6639 -11.6485  -2.7363  -2.6981  -2.5347
    -2.4956  -2.1810  -2.1070  -1.9578  -1.8414  -1.8018  -1.7574  -1.7084
    -1.6841  -1.5598  -1.5160  -1.4998  -1.4181  -1.3828  -1.3665  -1.3359
    -1.2763  -1.2088  -1.1802  -1.1509  -1.0535  -1.0085  -0.9587  -0.9258
    -0.9049  -0.8756  -0.8270  -0.8022  -0.7599  -0.6656  -0.5897  -0.5260
    -0.4642  -0.2832  -0.2607  -0.2089  -0.1753  -0.1007  -0.0930   0.0496
     0.0747   0.1167   0.2868   0.3862   0.4348   0.5178   0.6105   0.7078
     0.7262   0.8602   0.8794   0.9322   0.9580   0.9998   1.0122   1.0551
     1.0799   1.1503   1.1965   1.2440   1.2492   1.5575   1.5642   1.5816
     1.6122   1.7111   1.7203   1.7399   1.7492   1.7730   1.7835   1.8262
     1.8445   1.8784   1.9233   1.9438   1.9887   2.0160   2.0682   2.1764
     2.2942   2.3436   2.3638   2.4402   2.4707   2.4997   2.5684   2.5744
     2.5826   2.6068   2.6129   2.6465   2.6711   2.6967   2.7329   2.7720
     2.8157   2.8459   2.8495   2.8509   2.8636   2.8769   2.8888   2.9034
     2.9073   2.9313   2.9327   2.9559   2.9735   2.9790   3.1099   3.1259
     3.9142   3.9791   4.0458   4.2152   4.6424   4.7244   4.8996   4.9533
     5.3910   5.4297   5.5070   5.5279   5.8789   5.8885   6.2265   6.6244
     6.7536   6.9572   7.2192   7.2715   7.5919   7.6313   7.6475   7.6960
     7.7828   7.8530   8.0260   8.2433   8.3705   8.4030   8.4589   8.5100
     8.6563   8.7824

     occupation numbers 
     1.0000   1.0000   1.0000   1.0000   1.0000   1.0000   1.0000   1.0000
     1.0000   1.0000   1.0000   1.0000   1.0000   1.0000   1.0000   1.0000
     1.0000   1.0000   1.0000   1.0000   1.0000   1.0000   1.0000   1.0000
     1.0000   1.0000   1.0000   1.0000   1.0000   1.0000   1.0000   1.0000
     1.0000   1.0000   1.0000   1.0000   1.0000   1.0000   1.0000   1.0000
     1.0000   1.0000   1.0000   1.0000   1.0000   1.0000   1.0000   1.0000
     1.0000   1.0000   1.0000   1.0000   1.0000   1.0000   1.0000   1.0000
     1.0000   1.0000   1.0000   1.0000   1.0000   1.0000   1.0000   1.0000
     1.0000   1.0000   1.0000   1.0000   1.0000   1.0000   1.0000   1.0000
     1.0000   1.0000   1.0000   1.0000   1.0000   1.0000   1.0000   1.0000
     1.0000   1.0000   1.0000   1.0000   1.0000   1.0000   1.0000   1.0000
     1.0000   1.0000   1.0000   1.0000   1.0000   1.0000   1.0000   1.0000
     1.0000   1.0000   1.0000   1.0000   1.0000   1.0000   1.0000   1.0000
     1.0000   1.0000   1.0000   1.0000   1.0000   1.0000   1.0000   1.0000
     1.0000   1.0000   1.0000   1.0000   1.0000   1.0000   1.0000   1.0000
     1.0000   1.0000   1.0000   1.0000   1.0000   1.0000   1.0000   1.0000
     1.0000   1.0000   1.0000   1.0000   1.0000   1.0000   1.0000   1.0000
     1.0000   1.0000   1.0000   1.0000   1.0000   1.0000   1.0000   1.0000
     1.0000   1.0000   1.0000   1.0000   1.0000   1.0000   1.0000   1.0000
     1.0000   1.0000   1.0000   1.0000   1.0000   1.0000   0.9999   0.9999
     0.9999   0.9997   0.9997   0.9996   0.9995   0.9994   0.9993   0.9992
     0.9990   0.9986   0.9983   0.9979   0.9978   0.9917   0.9915   0.9908
     0.9897   0.9849   0.9844   0.9832   0.9826   0.9810   0.9803   0.9770
     0.9755   0.9725   0.9680   0.9657   0.9604   0.9568   0.9492   0.9300
     0.9034   0.8902   0.8845   0.8609   0.8506   0.8404   0.8143   0.8119
     0.8087   0.7987   0.7961   0.7817   0.7708   0.7591   0.7421   0.7230
     0.7008   0.6851   0.6832   0.6824   0.6757   0.6686   0.6621   0.6541
     0.6520   0.6387   0.6380   0.6250   0.6151   0.6119   0.5358   0.5263
     0.1347   0.1149   0.0968   0.0604   0.0144   0.0105   0.0051   0.0041
     0.0005   0.0004   0.0003   0.0002   0.0000   0.0000   0.0000   0.0000
     0.0000   0.0000   0.0000   0.0000   0.0000   0.0000   0.0000   0.0000
     0.0000   0.0000   0.0000   0.0000   0.0000   0.0000   0.0000   0.0000
     0.0000   0.0000

          k =-0.2500 0.2500 0.0000 ( 65198 PWs)   bands (ev):

   -92.8585 -92.8052 -92.7119 -92.6623 -92.6086 -92.5649 -92.5472 -92.4255
   -56.2121 -56.1918 -56.0690 -56.0588 -56.0491 -56.0457 -56.0094 -55.9810
   -55.9660 -55.9647 -55.9558 -55.9153 -55.8951 -55.8593 -55.8385 -55.8085
   -55.7954 -55.7525 -55.7507 -55.7497 -55.7413 -55.7007 -55.6773 -55.5922
   -31.4206 -31.4037 -31.2620 -31.1834 -31.1753 -31.1661 -30.9213 -30.8164
   -30.0015 -29.9601 -29.9358 -29.8269 -15.1708 -15.1273 -15.0557 -14.9387
   -14.8253 -14.6965 -14.6157 -14.4048 -14.2671 -14.2366 -14.2237 -14.1757
   -14.1533 -14.1333 -14.1099 -14.0652 -13.9897 -13.9756 -13.8215 -13.7973
   -13.7681 -13.7472 -13.7047 -13.6486 -13.5832 -13.5745 -13.4324 -13.4021
   -13.3682 -13.2907 -13.2483 -13.1851 -13.1618 -13.1525 -13.1314 -13.0984
   -13.0737 -13.0610 -12.9909 -12.9612 -12.9178 -12.8906 -12.8486 -12.8382
   -12.8068 -12.7362 -12.6060 -12.5884 -12.5068 -12.4293 -12.2333 -12.2008
   -11.9690 -11.9531 -11.9318 -11.9050 -11.8928 -11.8513 -11.8178 -11.7935
   -11.7730 -11.7497 -11.6657 -11.6205 -11.6109  -2.8211  -2.6132  -2.4920
    -2.4033  -2.2857  -2.2193  -2.0157  -1.8714  -1.8533  -1.8239  -1.7312
    -1.6961  -1.6017  -1.5674  -1.5415  -1.3990  -1.3428  -1.2754  -1.2469
    -1.1861  -1.1653  -1.1255  -1.0965  -1.0563  -0.9926  -0.9446  -0.8822
    -0.8120  -0.7843  -0.7354  -0.7060  -0.6603  -0.6050  -0.5611  -0.5176
    -0.4177  -0.3851  -0.3706  -0.3307  -0.2624  -0.1781  -0.1399  -0.1134
    -0.0350  -0.0114   0.2376   0.4071   0.4484   0.4903   0.5531   0.6076
     0.6640   0.7248   0.7512   1.0307   1.1374   1.1779   1.2110   1.2156
     1.2598   1.2761   1.3203   1.3519   1.3653   1.3907   1.4385   1.4546
     1.4951   1.5124   1.5583   1.6607   1.6736   1.6865   1.7354   1.7559
     1.7927   1.8535   1.9527   2.0563   2.0795   2.1270   2.1469   2.2189
     2.2534   2.2805   2.3111   2.3264   2.4280   2.4614   2.5511   2.6085
     2.6433   2.6813   2.7295   2.7389   2.7507   2.7612   2.7721   2.7857
     2.7943   2.8104   2.8200   2.8333   2.8421   2.8546   2.8640   2.8708
     2.9051   2.9152   2.9227   2.9570   3.2484   3.3312   3.3995   3.4823
     3.5166   3.6872   3.8082   4.1585   4.3829   4.5781   4.8409   5.1448
     5.5231   5.5747   5.6158   5.6814   5.7471   6.0798   6.1268   6.1619
     6.8503   7.0590   7.1372   7.3554   7.4831   7.5079   7.5871   7.7867
     7.8380   8.0385   8.2218   8.2414   8.3119   8.3480   8.4377   8.4703
     8.5326   8.7035

     occupation numbers 
     1.0000   1.0000   1.0000   1.0000   1.0000   1.0000   1.0000   1.0000
     1.0000   1.0000   1.0000   1.0000   1.0000   1.0000   1.0000   1.0000
     1.0000   1.0000   1.0000   1.0000   1.0000   1.0000   1.0000   1.0000
     1.0000   1.0000   1.0000   1.0000   1.0000   1.0000   1.0000   1.0000
     1.0000   1.0000   1.0000   1.0000   1.0000   1.0000   1.0000   1.0000
     1.0000   1.0000   1.0000   1.0000   1.0000   1.0000   1.0000   1.0000
     1.0000   1.0000   1.0000   1.0000   1.0000   1.0000   1.0000   1.0000
     1.0000   1.0000   1.0000   1.0000   1.0000   1.0000   1.0000   1.0000
     1.0000   1.0000   1.0000   1.0000   1.0000   1.0000   1.0000   1.0000
     1.0000   1.0000   1.0000   1.0000   1.0000   1.0000   1.0000   1.0000
     1.0000   1.0000   1.0000   1.0000   1.0000   1.0000   1.0000   1.0000
     1.0000   1.0000   1.0000   1.0000   1.0000   1.0000   1.0000   1.0000
     1.0000   1.0000   1.0000   1.0000   1.0000   1.0000   1.0000   1.0000
     1.0000   1.0000   1.0000   1.0000   1.0000   1.0000   1.0000   1.0000
     1.0000   1.0000   1.0000   1.0000   1.0000   1.0000   1.0000   1.0000
     1.0000   1.0000   1.0000   1.0000   1.0000   1.0000   1.0000   1.0000
     1.0000   1.0000   1.0000   1.0000   1.0000   1.0000   1.0000   1.0000
     1.0000   1.0000   1.0000   1.0000   1.0000   1.0000   1.0000   1.0000
     1.0000   1.0000   1.0000   1.0000   1.0000   1.0000   1.0000   1.0000
     1.0000   1.0000   1.0000   1.0000   1.0000   1.0000   0.9999   0.9999
     0.9999   0.9999   0.9998   0.9993   0.9987   0.9985   0.9982   0.9982
     0.9977   0.9975   0.9970   0.9965   0.9963   0.9959   0.9949   0.9946
     0.9936   0.9931   0.9917   0.9875   0.9869   0.9862   0.9834   0.9822
     0.9796   0.9747   0.9647   0.9510   0.9474   0.9394   0.9357   0.9212
     0.9134   0.9068   0.8990   0.8950   0.8649   0.8538   0.8211   0.7980
     0.7831   0.7662   0.7437   0.7392   0.7335   0.7283   0.7229   0.7161
     0.7118   0.7035   0.6986   0.6917   0.6871   0.6805   0.6755   0.6718
     0.6532   0.6477   0.6435   0.6244   0.4539   0.4057   0.3669   0.3217
     0.3036   0.2214   0.1718   0.0712   0.0359   0.0183   0.0066   0.0017
     0.0002   0.0002   0.0001   0.0001   0.0001   0.0000   0.0000   0.0000
     0.0000   0.0000   0.0000   0.0000   0.0000   0.0000   0.0000   0.0000
     0.0000   0.0000   0.0000   0.0000   0.0000   0.0000   0.0000   0.0000
     0.0000   0.0000

          k =-0.5000 0.2500 0.0000 ( 65138 PWs)   bands (ev):

   -92.8585 -92.8052 -92.7119 -92.6623 -92.6086 -92.5649 -92.5472 -92.4255
   -56.2121 -56.1918 -56.0690 -56.0588 -56.0491 -56.0457 -56.0094 -55.9810
   -55.9660 -55.9647 -55.9558 -55.9153 -55.8951 -55.8593 -55.8385 -55.8085
   -55.7954 -55.7525 -55.7507 -55.7497 -55.7413 -55.7007 -55.6773 -55.5921
   -31.4186 -31.4057 -31.2616 -31.1833 -31.1756 -31.1660 -30.9214 -30.8165
   -30.0005 -29.9612 -29.9354 -29.8274 -15.1350 -15.0893 -15.0102 -14.9115
   -14.8709 -14.7450 -14.6513 -14.5250 -14.2185 -14.1862 -14.1740 -14.1270
   -14.1057 -14.0831 -14.0458 -14.0403 -14.0177 -13.9777 -13.9668 -13.8531
   -13.7879 -13.7404 -13.7371 -13.7218 -13.6177 -13.6006 -13.4786 -13.4441
   -13.3443 -13.3102 -13.2133 -13.1724 -13.1619 -13.1527 -13.1332 -13.1015
   -13.0858 -13.0620 -13.0203 -12.9612 -12.8867 -12.8204 -12.7956 -12.7688
   -12.7623 -12.7313 -12.6849 -12.5286 -12.4687 -12.4131 -12.2909 -12.2617
   -11.9689 -11.9262 -11.9135 -11.8991 -11.8873 -11.8655 -11.8350 -11.7560
   -11.7476 -11.7242 -11.6876 -11.6596 -11.6511  -2.5938  -2.5522  -2.4043
    -2.3619  -2.2000  -2.1255  -1.9822  -1.8475  -1.7908  -1.7642  -1.7245
    -1.6865  -1.6054  -1.4899  -1.4325  -1.4097  -1.3842  -1.3062  -1.2790
    -1.2384  -1.2228  -1.1616  -1.1328  -1.0934  -1.0582  -1.0294  -0.9715
    -0.9437  -0.9021  -0.8675  -0.7637  -0.7335  -0.6479  -0.5842  -0.5531
    -0.4989  -0.4119  -0.3746  -0.2788  -0.2270  -0.1792  -0.1215  -0.1018
    -0.0300  -0.0052   0.0273   0.0776   0.1182   0.4315   0.5083   0.5642
     0.5985   0.8724   0.9216   0.9974   1.0224   1.1969   1.2348   1.2715
     1.2824   1.3011   1.3190   1.3896   1.4311   1.4788   1.5012   1.6414
     1.6701   1.6935   1.7056   1.7554   1.7712   1.7852   1.8008   1.8194
     1.8424   1.8924   1.9003   1.9360   1.9564   1.9933   2.0461   2.1676
     2.2714   2.2955   2.3635   2.3974   2.4570   2.4973   2.5022   2.5405
     2.5717   2.5956   2.6081   2.6454   2.6744   2.6974   2.7285   2.7399
     2.7439   2.7653   2.7876   2.7986   2.8158   2.8276   2.8498   2.8603
     2.8716   2.8785   2.8891   2.8997   3.4293   3.4979   3.6187   3.6463
     3.9215   4.0042   4.0539   4.2811   4.6352   4.7369   4.8969   4.9657
     5.2557   5.2902   5.5153   5.5768   5.6377   5.6569   6.3144   6.3540
     6.4663   6.7278   7.2097   7.6224   7.6903   7.7159   7.7442   7.7814
     7.8849   7.9325   8.1929   8.3224   8.4347   8.4522   8.5250   8.5860
     8.6624   8.7154

     occupation numbers 
     1.0000   1.0000   1.0000   1.0000   1.0000   1.0000   1.0000   1.0000
     1.0000   1.0000   1.0000   1.0000   1.0000   1.0000   1.0000   1.0000
     1.0000   1.0000   1.0000   1.0000   1.0000   1.0000   1.0000   1.0000
     1.0000   1.0000   1.0000   1.0000   1.0000   1.0000   1.0000   1.0000
     1.0000   1.0000   1.0000   1.0000   1.0000   1.0000   1.0000   1.0000
     1.0000   1.0000   1.0000   1.0000   1.0000   1.0000   1.0000   1.0000
     1.0000   1.0000   1.0000   1.0000   1.0000   1.0000   1.0000   1.0000
     1.0000   1.0000   1.0000   1.0000   1.0000   1.0000   1.0000   1.0000
     1.0000   1.0000   1.0000   1.0000   1.0000   1.0000   1.0000   1.0000
     1.0000   1.0000   1.0000   1.0000   1.0000   1.0000   1.0000   1.0000
     1.0000   1.0000   1.0000   1.0000   1.0000   1.0000   1.0000   1.0000
     1.0000   1.0000   1.0000   1.0000   1.0000   1.0000   1.0000   1.0000
     1.0000   1.0000   1.0000   1.0000   1.0000   1.0000   1.0000   1.0000
     1.0000   1.0000   1.0000   1.0000   1.0000   1.0000   1.0000   1.0000
     1.0000   1.0000   1.0000   1.0000   1.0000   1.0000   1.0000   1.0000
     1.0000   1.0000   1.0000   1.0000   1.0000   1.0000   1.0000   1.0000
     1.0000   1.0000   1.0000   1.0000   1.0000   1.0000   1.0000   1.0000
     1.0000   1.0000   1.0000   1.0000   1.0000   1.0000   1.0000   1.0000
     1.0000   1.0000   1.0000   1.0000   1.0000   1.0000   1.0000   1.0000
     1.0000   1.0000   1.0000   1.0000   1.0000   1.0000   1.0000   0.9999
     0.9999   0.9997   0.9996   0.9994   0.9993   0.9983   0.9980   0.9976
     0.9975   0.9972   0.9970   0.9959   0.9951   0.9940   0.9934   0.9884
     0.9871   0.9859   0.9852   0.9822   0.9811   0.9802   0.9790   0.9776
     0.9757   0.9711   0.9704   0.9666   0.9643   0.9598   0.9525   0.9318
     0.9091   0.9031   0.8846   0.8745   0.8553   0.8412   0.8395   0.8252
     0.8130   0.8033   0.7981   0.7822   0.7693   0.7588   0.7442   0.7387
     0.7367   0.7263   0.7152   0.7096   0.7008   0.6947   0.6830   0.6774
     0.6714   0.6677   0.6620   0.6562   0.3504   0.3134   0.2528   0.2399
     0.1324   0.1079   0.0948   0.0496   0.0148   0.0100   0.0052   0.0038
     0.0010   0.0008   0.0002   0.0002   0.0001   0.0001   0.0000   0.0000
     0.0000   0.0000   0.0000   0.0000   0.0000   0.0000   0.0000   0.0000
     0.0000   0.0000   0.0000   0.0000   0.0000   0.0000   0.0000   0.0000
     0.0000   0.0000

     the Fermi energy is     3.1705 ev

!    total energy              =   -4440.29612872 Ry
     estimated scf accuracy    <          6.6E-09 Ry
     smearing contrib. (-TS)   =      -1.20694232 Ry
     internal energy E=F+TS    =   -4439.08918640 Ry

     The total energy is F=E-TS. E is the sum of the following terms:
     one-electron contribution =  -20890.65826704 Ry
     hartree contribution      =   10574.68526097 Ry
     xc contribution           =    -693.24577155 Ry
     ewald contribution        =    6846.32129677 Ry
     one-center paw contrib.   =    -276.19170554 Ry
      -> PAW hartree energy AE =      25.13721982 Ry
      -> PAW hartree energy PS =     -25.02138453 Ry
      -> PAW xc energy AE      =     -16.51383436 Ry
      -> PAW xc energy PS      =       6.87312505 Ry
      -> total E_H with PAW    =   10574.80109626 Ry
      -> total E_XC with PAW   =    -702.88648087 Ry

     convergence has been achieved in  51 iterations

     Writing all to output data dir /bsuhome/zayahcortright/scratch/pwscf.save/
 
     init_run     :      8.06s CPU      8.73s WALL (       1 calls)
     electrons    :    725.38s CPU    756.71s WALL (       1 calls)

     Called by init_run:
     wfcinit      :      6.46s CPU      6.65s WALL (       1 calls)
     wfcinit:atom :      0.05s CPU      0.07s WALL (       5 calls)
     wfcinit:wfcr :      6.15s CPU      6.27s WALL (       5 calls)
     potinit      :      0.16s CPU      0.19s WALL (       1 calls)
     hinit0       :      0.56s CPU      0.73s WALL (       1 calls)

     Called by electrons:
     c_bands      :    572.31s CPU    577.85s WALL (      51 calls)
     sum_band     :    115.27s CPU    128.59s WALL (      51 calls)
     v_of_rho     :      5.49s CPU      5.88s WALL (      52 calls)
     v_h          :      0.44s CPU      0.44s WALL (      52 calls)
     v_xc         :      5.04s CPU      5.44s WALL (      52 calls)
     newd         :     16.92s CPU     28.68s WALL (      52 calls)
     PAW_pot      :      1.65s CPU      1.68s WALL (      52 calls)
     mix_rho      :     13.36s CPU     13.73s WALL (      51 calls)

     Called by c_bands:
     init_us_2    :      7.11s CPU      7.19s WALL (     515 calls)
     init_us_2:cp :      7.10s CPU      7.19s WALL (     515 calls)
     cegterg      :    542.87s CPU    548.07s WALL (     255 calls)

     Called by sum_band:
     sum_band:wei :      0.37s CPU      0.37s WALL (      51 calls)
     sum_band:loo :     94.90s CPU     95.63s WALL (      51 calls)
     sum_band:buf :      1.43s CPU      1.48s WALL (     255 calls)
     sum_band:ini :      3.33s CPU      3.35s WALL (     255 calls)
     sum_band:cal :     20.15s CPU     20.22s WALL (     255 calls)
     sum_band:bec :      0.56s CPU      0.56s WALL (     255 calls)
     addusdens    :     18.32s CPU     30.83s WALL (      51 calls)
                                        0.00s GPU  (      51 calls)
     addusd:skk   :      0.32s CPU      0.97s WALL (     153 calls)
                                        0.00s GPU  (     153 calls)

     Called by *egterg:
     cdiaghg      :     57.62s CPU     57.86s WALL (    1291 calls)
     cegterg:over :     40.49s CPU     40.65s WALL (    1036 calls)
     cegterg:upda :     29.06s CPU     29.46s WALL (    1036 calls)
     cegterg:last :     58.71s CPU     58.95s WALL (     452 calls)
     cdiaghg:chol :      3.39s CPU      3.41s WALL (    1291 calls)
     cdiaghg:inve :      3.17s CPU      3.18s WALL (    1291 calls)
     cdiaghg:para :      7.26s CPU      7.30s WALL (    2582 calls)
     h_psi        :    300.00s CPU    302.89s WALL (    1296 calls)
     s_psi        :     40.31s CPU     40.43s WALL (    1296 calls)
     g_psi        :      1.06s CPU      1.07s WALL (    1036 calls)

     Called by h_psi:
     h_psi:calbec :     45.66s CPU     45.91s WALL (    1296 calls)
     vloc_psi     :    211.09s CPU    213.04s WALL (    1296 calls)
     add_vuspsi   :     40.41s CPU     40.67s WALL (    1296 calls)

     General routines
     calbec       :     65.80s CPU     66.12s WALL (    1551 calls)
     fft          :      4.13s CPU      4.17s WALL (     674 calls)
     ffts         :      4.99s CPU      5.04s WALL (    5521 calls)
     fftw         :    185.03s CPU    186.51s WALL (  341528 calls)
     interpolate  :      0.42s CPU      0.43s WALL (      52 calls)
 
     Parallel routines

     PAW routines
     PAW_pot      :      1.65s CPU      1.68s WALL (      52 calls)
 
     PWSCF        :  12m15.14s CPU  12m50.23s WALL

 
   This run was terminated on:  20:50:21  21Jun2024            

=------------------------------------------------------------------------------=
   JOB DONE.
=------------------------------------------------------------------------------=
