
     Program PWSCF v.7.2 starts on 22Jun2024 at  1: 6:21 

     This program is part of the open-source Quantum ESPRESSO suite
     for quantum simulation of materials; please cite
         "P. Giannozzi et al., J. Phys.:Condens. Matter 21 395502 (2009);
         "P. Giannozzi et al., J. Phys.:Condens. Matter 29 465901 (2017);
         "P. Giannozzi et al., J. Chem. Phys. 152 154105 (2020);
          URL http://www.quantum-espresso.org", 
     in publications or presentations arising from this work. More details at
     http://www.quantum-espresso.org/quote

     Parallel version (MPI & OpenMP), running on      48 processor cores
     Number of MPI processes:                48
     Threads/MPI process:                     1

     MPI processes distributed on     1 nodes
     33235 MiB available memory on the printing compute node when the environment starts
 
     Reading input from espresso.pwi
Warning: card &CELL ignored
Warning: card / ignored
Warning: card &FCP ignored
Warning: card / ignored
Warning: card &RISM ignored
Warning: card / ignored

     Current dimensions of program PWSCF are:
     Max number of different atomic species (ntypx) = 10
     Max number of k-points (npk) =  40000
     Max angular momentum in pseudopotentials (lmaxx) =  4
     file O.pbe-n-kjpaw_psl.0.1.UPF: wavefunction(s)  2P renormalized
     signal trapping enabled: kill the code with -SIGUSR1 to stop cleanly the simulation 
 
     K-points division:     npool     =       2
     R & G space division:  proc/nbgrp/npool/nimage =      24
     Subspace diagonalization in iterative solution of the eigenvalue problem:
     one sub-group per band group will be used
     scalapack distributed-memory algorithm (size of sub-group:  3*  3 procs)

 
     Parallelization info
     --------------------
     sticks:   dense  smooth     PW     G-vecs:    dense   smooth      PW
     Min         350     175     47                61430    21716    3036
     Max         351     177     48                61449    21727    3041
     Sum        8421    4205   1137              1474595   521381   72913
 
     Using Slab Decomposition
 


     bravais-lattice index     =            0
     lattice parameter (alat)  =      14.8599  a.u.
     unit-cell volume          =    8305.1283 (a.u.)^3
     number of atoms/cell      =           50
     number of atomic types    =            4
     number of electrons       =       431.00
     number of Kohn-Sham states=          259
     kinetic-energy cutoff     =      60.0000  Ry
     charge density cutoff     =     480.0000  Ry
     scf convergence threshold =      1.0E-08
     mixing beta               =       0.1500
     number of iterations used =            8  local-TF  mixing
     Exchange-correlation= PBE
                           (   1   4   3   4   0   0   0)

     celldm(1)=  14.859904  celldm(2)=   0.000000  celldm(3)=   0.000000
     celldm(4)=   0.000000  celldm(5)=   0.000000  celldm(6)=   0.000000

     crystal axes: (cart. coord. in units of alat)
               a(1) = (   1.000000   0.000000   0.000000 )  
               a(2) = (   0.000000   1.000000   0.000000 )  
               a(3) = (   0.000000   0.000000   2.531036 )  

     reciprocal axes: (cart. coord. in units 2 pi/alat)
               b(1) = (  1.000000  0.000000  0.000000 )  
               b(2) = (  0.000000  1.000000  0.000000 )  
               b(3) = (  0.000000  0.000000  0.395095 )  


     PseudoPot. # 1 for Sr read from file:
     /bsuhome/zayahcortright/q-e/pseudo/Sr_pbe_v1.uspp.F.UPF
     MD5 check sum: 6b418c05fbe9db5448babca5e47b7a5b
     Pseudo is Ultrasoft + core correction, Zval = 10.0
     Generated by new atomic code, or converted to UPF format
     Using radial grid of  883 points,  6 beta functions with: 
                l(1) =   0
                l(2) =   0
                l(3) =   1
                l(4) =   1
                l(5) =   2
                l(6) =   2
     Q(r) pseudized with  6 coefficients,  rinner =    1.400   1.400   1.400
                                                       1.400   1.400

     PseudoPot. # 2 for O  read from file:
     /bsuhome/zayahcortright/q-e/pseudo/O.pbe-n-kjpaw_psl.0.1.UPF
     MD5 check sum: 0234752ac141de4415c5fc33072bef88
     Pseudo is Projector augmented-wave + core cor, Zval =  6.0
     Generated using "atomic" code by A. Dal Corso  v.5.0.99 svn rev. 10869
     Shape of augmentation charge: BESSEL
     Using radial grid of 1095 points,  4 beta functions with: 
                l(1) =   0
                l(2) =   0
                l(3) =   1
                l(4) =   1
     Q(r) pseudized with 0 coefficients 


     PseudoPot. # 3 for Co read from file:
     /bsuhome/zayahcortright/q-e/pseudo/Co_pbe_v1.2.uspp.F.UPF
     MD5 check sum: 5f91765df6ddd3222702df6e7b74a16d
     Pseudo is Ultrasoft + core correction, Zval = 17.0
     Generated by new atomic code, or converted to UPF format
     Using radial grid of  863 points,  6 beta functions with: 
                l(1) =   0
                l(2) =   0
                l(3) =   1
                l(4) =   1
                l(5) =   2
                l(6) =   2
     Q(r) pseudized with  8 coefficients,  rinner =    1.200   1.200   1.200
                                                       1.200   1.200

     PseudoPot. # 4 for H  read from file:
     /bsuhome/zayahcortright/q-e/pseudo/H.pbe-rrkjus_psl.1.0.0.UPF
     MD5 check sum: f52b6d4d1c606e5624b1dc7b2218f220
     Pseudo is Ultrasoft, Zval =  1.0
     Generated using "atomic" code by A. Dal Corso  v.5.1
     Using radial grid of  929 points,  2 beta functions with: 
                l(1) =   0
                l(2) =   0
     Q(r) pseudized with 0 coefficients 


     atomic species   valence    mass     pseudopotential
        Sr            10.00    87.62000     Sr( 1.00)
        O              6.00    15.99900     O ( 1.00)
        Co            17.00    58.93319     Co( 1.00)
        H              1.00     1.00800     H ( 1.00)

     No symmetry found


                                    s                        frac. trans.

      isym =  1     identity                                     

 cryst.   s( 1) = (     1          0          0      )
                  (     0          1          0      )
                  (     0          0          1      )

 cart.    s( 1) = (  1.0000000  0.0000000  0.0000000 )
                  (  0.0000000  1.0000000  0.0000000 )
                  (  0.0000000  0.0000000  1.0000000 )


   Cartesian axes

     site n.     atom                  positions (alat units)
         1           Sr  tau(   1) = (   0.2508693   0.7491307   1.7574407  )
         2           O   tau(   2) = (   0.4985141   0.5014859   1.7715967  )
         3           Sr  tau(   3) = (   0.7482398   0.7454518   1.7648669  )
         4           Sr  tau(   4) = (   0.7441748   0.2558252   1.7667843  )
         5           Sr  tau(   5) = (   0.2508693   0.7491307   1.2696799  )
         6           Sr  tau(   6) = (   0.2508693   0.7491307   0.7632319  )
         7           Co  tau(   7) = (   0.4998914   0.5001086   1.0164559  )
         8           Co  tau(   8) = (   0.4936915   0.5063085   1.5135603  )
         9           O   tau(   9) = (   0.4988895   0.7610401   1.0164559  )
        10           O   tau(  10) = (   0.2389599   0.5011105   1.0164559  )
        11           O   tau(  11) = (   0.0070918   0.7374880   1.0164559  )
        12           O   tau(  12) = (   0.0088340   0.7405089   1.5135603  )
        13           O   tau(  13) = (   0.5066944   0.7415376   1.5135603  )
        14           O   tau(  14) = (   0.2584624   0.4933056   1.5135603  )
        15           O   tau(  15) = (   0.4985141   0.5014859   0.7773880  )
        16           O   tau(  16) = (   0.4985141   0.5014859   1.2555238  )
        17           Sr  tau(  17) = (   0.7482398   0.7454518   0.7706582  )
        18           Sr  tau(  18) = (   0.7482398   0.7454518   1.2622536  )
        19           Sr  tau(  19) = (   0.7441748   0.2558252   0.7725755  )
        20           Sr  tau(  20) = (   0.7441748   0.2558252   1.2603363  )
        21           O   tau(  21) = (   0.7322655   0.0078049   1.5135603  )
        22           O   tau(  22) = (   0.7558175   0.4996027   1.5135603  )
        23           O   tau(  23) = (   0.5003973   0.2441825   1.5135603  )
        24           O   tau(  24) = (   0.7527966   0.4978604   1.0164559  )
        25           O   tau(  25) = (   0.5021396   0.2472034   1.0164559  )
        26           O   tau(  26) = (   0.7517679   0.0000000   1.0164559  )
        27           O   tau(  27) = (   0.0114961   0.4948124   1.7455321  )
        28           O   tau(  28) = (   0.0048226   0.0077944   1.7715967  )
        29           Sr  tau(  29) = (   0.2545482   0.2517602   1.7648669  )
        30           O   tau(  30) = (   0.5048017   0.0015068   1.7786929  )
        31           Co  tau(  31) = (   0.0056869   0.5006215   1.0164559  )
        32           Co  tau(  32) = (   0.0065315   0.4997770   1.5135603  )
        33           Co  tau(  33) = (   0.0061999   0.0064171   1.0164559  )
        34           Co  tau(  34) = (   0.0000000   0.0126169   1.5135603  )
        35           O   tau(  35) = (   0.0114961   0.4948124   1.2815885  )
        36           O   tau(  36) = (   0.0114961   0.4948124   0.7513233  )
        37           O   tau(  37) = (   0.0051979   0.2673486   1.0164559  )
        38           O   tau(  38) = (   0.0130029   0.2478461   1.5135603  )
        39           O   tau(  39) = (   0.0048226   0.0077944   0.7773880  )
        40           O   tau(  40) = (   0.0048226   0.0077944   1.2555238  )
        41           Sr  tau(  41) = (   0.2545482   0.2517602   0.7706582  )
        42           Sr  tau(  42) = (   0.2545482   0.2517602   1.2622536  )
        43           Co  tau(  43) = (   0.4989925   0.0073160   1.5135603  )
        44           Co  tau(  44) = (   0.4998370   0.0064714   1.0164559  )
        45           O   tau(  45) = (   0.5048017   0.0015068   0.7844841  )
        46           O   tau(  46) = (   0.5048017   0.0015068   1.2484277  )
        47           O   tau(  47) = (   0.2621260   0.0059111   1.5135603  )
        48           O   tau(  48) = (   0.2591051   0.0041689   1.0164559  )
        49           O   tau(  49) = (   0.7108228   0.7108228   2.1602013  )
        50           H   tau(  50) = (   0.7108228   0.7108228   2.2847091  )

   Crystallographic axes

     site n.     atom                  positions (cryst. coord.)
         1           Sr  tau(   1) = (  0.2508693  0.7491307  0.6943562  )
         2           O   tau(   2) = (  0.4985141  0.5014859  0.6999492  )
         3           Sr  tau(   3) = (  0.7482398  0.7454518  0.6972903  )
         4           Sr  tau(   4) = (  0.7441748  0.2558252  0.6980478  )
         5           Sr  tau(   5) = (  0.2508693  0.7491307  0.5016443  )
         6           Sr  tau(   6) = (  0.2508693  0.7491307  0.3015492  )
         7           Co  tau(   7) = (  0.4998914  0.5001086  0.4015968  )
         8           Co  tau(   8) = (  0.4936915  0.5063085  0.5980003  )
         9           O   tau(   9) = (  0.4988895  0.7610401  0.4015968  )
        10           O   tau(  10) = (  0.2389599  0.5011105  0.4015968  )
        11           O   tau(  11) = (  0.0070918  0.7374880  0.4015968  )
        12           O   tau(  12) = (  0.0088340  0.7405089  0.5980003  )
        13           O   tau(  13) = (  0.5066944  0.7415376  0.5980003  )
        14           O   tau(  14) = (  0.2584624  0.4933056  0.5980003  )
        15           O   tau(  15) = (  0.4985141  0.5014859  0.3071422  )
        16           O   tau(  16) = (  0.4985141  0.5014859  0.4960513  )
        17           Sr  tau(  17) = (  0.7482398  0.7454518  0.3044833  )
        18           Sr  tau(  18) = (  0.7482398  0.7454518  0.4987103  )
        19           Sr  tau(  19) = (  0.7441748  0.2558252  0.3052408  )
        20           Sr  tau(  20) = (  0.7441748  0.2558252  0.4979527  )
        21           O   tau(  21) = (  0.7322655  0.0078049  0.5980003  )
        22           O   tau(  22) = (  0.7558175  0.4996027  0.5980003  )
        23           O   tau(  23) = (  0.5003973  0.2441825  0.5980003  )
        24           O   tau(  24) = (  0.7527966  0.4978604  0.4015968  )
        25           O   tau(  25) = (  0.5021396  0.2472034  0.4015968  )
        26           O   tau(  26) = (  0.7517679  0.0000000  0.4015968  )
        27           O   tau(  27) = (  0.0114961  0.4948124  0.6896512  )
        28           O   tau(  28) = (  0.0048226  0.0077944  0.6999492  )
        29           Sr  tau(  29) = (  0.2545482  0.2517602  0.6972903  )
        30           O   tau(  30) = (  0.5048017  0.0015068  0.7027529  )
        31           Co  tau(  31) = (  0.0056869  0.5006215  0.4015968  )
        32           Co  tau(  32) = (  0.0065315  0.4997770  0.5980003  )
        33           Co  tau(  33) = (  0.0061999  0.0064171  0.4015968  )
        34           Co  tau(  34) = (  0.0000000  0.0126169  0.5980003  )
        35           O   tau(  35) = (  0.0114961  0.4948124  0.5063494  )
        36           O   tau(  36) = (  0.0114961  0.4948124  0.2968442  )
        37           O   tau(  37) = (  0.0051979  0.2673486  0.4015968  )
        38           O   tau(  38) = (  0.0130029  0.2478461  0.5980003  )
        39           O   tau(  39) = (  0.0048226  0.0077944  0.3071422  )
        40           O   tau(  40) = (  0.0048226  0.0077944  0.4960513  )
        41           Sr  tau(  41) = (  0.2545482  0.2517602  0.3044833  )
        42           Sr  tau(  42) = (  0.2545482  0.2517602  0.4987103  )
        43           Co  tau(  43) = (  0.4989925  0.0073160  0.5980003  )
        44           Co  tau(  44) = (  0.4998370  0.0064714  0.4015968  )
        45           O   tau(  45) = (  0.5048017  0.0015068  0.3099459  )
        46           O   tau(  46) = (  0.5048017  0.0015068  0.4932477  )
        47           O   tau(  47) = (  0.2621260  0.0059111  0.5980003  )
        48           O   tau(  48) = (  0.2591051  0.0041689  0.4015968  )
        49           O   tau(  49) = (  0.7108228  0.7108228  0.8534850  )
        50           H   tau(  50) = (  0.7108228  0.7108228  0.9026774  )

     number of k points=    10  Gaussian smearing, width (Ry)=  0.0700
                       cart. coord. in units 2pi/alat
        k(    1) = (   0.0000000   0.0000000   0.0000000), wk =   0.1250000
        k(    2) = (   0.0000000   0.2500000   0.0000000), wk =   0.2500000
        k(    3) = (   0.0000000  -0.5000000   0.0000000), wk =   0.1250000
        k(    4) = (   0.2500000   0.2500000   0.0000000), wk =   0.2500000
        k(    5) = (   0.2500000  -0.5000000   0.0000000), wk =   0.2500000
        k(    6) = (  -0.5000000  -0.5000000   0.0000000), wk =   0.1250000
        k(    7) = (   0.2500000   0.0000000   0.0000000), wk =   0.2500000
        k(    8) = (  -0.5000000   0.0000000   0.0000000), wk =   0.1250000
        k(    9) = (  -0.2500000   0.2500000   0.0000000), wk =   0.2500000
        k(   10) = (  -0.5000000   0.2500000   0.0000000), wk =   0.2500000

                       cryst. coord.
        k(    1) = (   0.0000000   0.0000000   0.0000000), wk =   0.1250000
        k(    2) = (   0.0000000   0.2500000   0.0000000), wk =   0.2500000
        k(    3) = (   0.0000000  -0.5000000   0.0000000), wk =   0.1250000
        k(    4) = (   0.2500000   0.2500000   0.0000000), wk =   0.2500000
        k(    5) = (   0.2500000  -0.5000000   0.0000000), wk =   0.2500000
        k(    6) = (  -0.5000000  -0.5000000   0.0000000), wk =   0.1250000
        k(    7) = (   0.2500000   0.0000000   0.0000000), wk =   0.2500000
        k(    8) = (  -0.5000000   0.0000000   0.0000000), wk =   0.1250000
        k(    9) = (  -0.2500000   0.2500000   0.0000000), wk =   0.2500000
        k(   10) = (  -0.5000000   0.2500000   0.0000000), wk =   0.2500000

     Dense  grid:  1474595 G-vectors     FFT dimensions: ( 108, 108, 270)

     Smooth grid:   521381 G-vectors     FFT dimensions: (  75,  75, 192)

     Dynamical RAM for                 wfc:      10.73 MB

     Dynamical RAM for     wfc (w. buffer):      64.38 MB

     Dynamical RAM for           str. fact:       3.75 MB

     Dynamical RAM for           local pot:       0.00 MB

     Dynamical RAM for          nlocal pot:      24.61 MB

     Dynamical RAM for                qrad:       7.03 MB

     Dynamical RAM for          rho,v,vnew:       6.02 MB

     Dynamical RAM for               rhoin:       2.01 MB

     Dynamical RAM for            rho*nmix:      15.00 MB

     Dynamical RAM for           G-vectors:       3.68 MB

     Dynamical RAM for          h,s,v(r/c):       1.35 MB

     Dynamical RAM for          <psi|beta>:       2.35 MB

     Dynamical RAM for                 psi:      21.46 MB

     Dynamical RAM for                hpsi:      21.46 MB

     Dynamical RAM for                spsi:      21.46 MB

     Dynamical RAM for      wfcinit/wfcrot:      34.49 MB

     Dynamical RAM for           addusdens:     101.26 MB

     Estimated static dynamical RAM per process >     121.50 MB

     Estimated max dynamical RAM per process >     237.76 MB

     Estimated total dynamical RAM >      10.79 GB

     Check: negative core charge=   -0.000004

     Initial potential from superposition of free atoms

     starting charge     422.5961, renormalised to     431.0000

     negative rho (up, down):  7.819E-01 0.000E+00
     Starting wfcs are  377 randomized atomic wfcs
     Checking if some PAW data can be deallocated... 
       PAW data deallocated on   19 nodes for type:  2

     total cpu time spent up to now is        9.1 secs

     Self-consistent Calculation

     iteration #  1     ecut=    60.00 Ry     beta= 0.15
     Davidson diagonalization with overlap

---- Real-time Memory Report at c_bands before calling an iterative solver
             0 MiB given to the printing process from OS
             0 MiB allocation reported by mallinfo(arena+hblkhd)
         23979 MiB available memory on the node where the printing process lives
------------------
     ethr =  1.00E-02,  avg # of iterations =  2.0

     negative rho (up, down):  7.717E-01 0.000E+00

     total cpu time spent up to now is       25.2 secs

     total energy              =   -4446.64175509 Ry
     estimated scf accuracy    <      44.40381727 Ry

     iteration #  2     ecut=    60.00 Ry     beta= 0.15
     Davidson diagonalization with overlap

---- Real-time Memory Report at c_bands before calling an iterative solver
             0 MiB given to the printing process from OS
             0 MiB allocation reported by mallinfo(arena+hblkhd)
         24256 MiB available memory on the node where the printing process lives
------------------
     ethr =  1.00E-02,  avg # of iterations =  1.0

     negative rho (up, down):  7.589E-01 0.000E+00

     total cpu time spent up to now is       39.2 secs

     total energy              =   -4443.45206905 Ry
     estimated scf accuracy    <      29.91405081 Ry

     iteration #  3     ecut=    60.00 Ry     beta= 0.15
     Davidson diagonalization with overlap

---- Real-time Memory Report at c_bands before calling an iterative solver
             0 MiB given to the printing process from OS
             0 MiB allocation reported by mallinfo(arena+hblkhd)
         23418 MiB available memory on the node where the printing process lives
------------------
     ethr =  6.94E-03,  avg # of iterations =  1.0

     negative rho (up, down):  7.557E-01 0.000E+00

     total cpu time spent up to now is       53.4 secs

     total energy              =   -4444.27217599 Ry
     estimated scf accuracy    <      26.60101729 Ry

     iteration #  4     ecut=    60.00 Ry     beta= 0.15
     Davidson diagonalization with overlap

---- Real-time Memory Report at c_bands before calling an iterative solver
             0 MiB given to the printing process from OS
             0 MiB allocation reported by mallinfo(arena+hblkhd)
         23387 MiB available memory on the node where the printing process lives
------------------
     ethr =  6.17E-03,  avg # of iterations =  1.0

     negative rho (up, down):  7.509E-01 0.000E+00

     total cpu time spent up to now is       67.5 secs

     total energy              =   -4443.15804776 Ry
     estimated scf accuracy    <      19.65624235 Ry

     iteration #  5     ecut=    60.00 Ry     beta= 0.15
     Davidson diagonalization with overlap

---- Real-time Memory Report at c_bands before calling an iterative solver
             0 MiB given to the printing process from OS
             0 MiB allocation reported by mallinfo(arena+hblkhd)
         23372 MiB available memory on the node where the printing process lives
------------------
     ethr =  4.56E-03,  avg # of iterations =  1.0

     negative rho (up, down):  7.391E-01 0.000E+00

     total cpu time spent up to now is       81.6 secs

     total energy              =   -4442.40761822 Ry
     estimated scf accuracy    <      13.00173666 Ry

     iteration #  6     ecut=    60.00 Ry     beta= 0.15
     Davidson diagonalization with overlap

---- Real-time Memory Report at c_bands before calling an iterative solver
             0 MiB given to the printing process from OS
             0 MiB allocation reported by mallinfo(arena+hblkhd)
         23353 MiB available memory on the node where the printing process lives
------------------
     ethr =  3.02E-03,  avg # of iterations =  1.0

     negative rho (up, down):  7.426E-01 0.000E+00

     total cpu time spent up to now is       95.8 secs

     total energy              =   -4442.83119331 Ry
     estimated scf accuracy    <       5.17228552 Ry

     iteration #  7     ecut=    60.00 Ry     beta= 0.15
     Davidson diagonalization with overlap

---- Real-time Memory Report at c_bands before calling an iterative solver
             0 MiB given to the printing process from OS
             0 MiB allocation reported by mallinfo(arena+hblkhd)
         23337 MiB available memory on the node where the printing process lives
------------------
     ethr =  1.20E-03,  avg # of iterations =  1.7

     negative rho (up, down):  7.643E-01 0.000E+00

     total cpu time spent up to now is      110.6 secs

     total energy              =   -4441.59376903 Ry
     estimated scf accuracy    <       4.03125497 Ry

     iteration #  8     ecut=    60.00 Ry     beta= 0.15
     Davidson diagonalization with overlap

---- Real-time Memory Report at c_bands before calling an iterative solver
             0 MiB given to the printing process from OS
             0 MiB allocation reported by mallinfo(arena+hblkhd)
         23313 MiB available memory on the node where the printing process lives
------------------
     ethr =  9.35E-04,  avg # of iterations =  5.0

     negative rho (up, down):  7.739E-01 0.000E+00

     total cpu time spent up to now is      129.4 secs

     total energy              =   -4441.19810690 Ry
     estimated scf accuracy    <      23.63865109 Ry

     iteration #  9     ecut=    60.00 Ry     beta= 0.15
     Davidson diagonalization with overlap

---- Real-time Memory Report at c_bands before calling an iterative solver
             0 MiB given to the printing process from OS
             0 MiB allocation reported by mallinfo(arena+hblkhd)
         23161 MiB available memory on the node where the printing process lives
------------------
     ethr =  9.35E-04,  avg # of iterations =  9.9

     negative rho (up, down):  7.707E-01 0.000E+00

     total cpu time spent up to now is      150.8 secs

     total energy              =   -4441.72094036 Ry
     estimated scf accuracy    <       4.03480461 Ry

     iteration # 10     ecut=    60.00 Ry     beta= 0.15
     Davidson diagonalization with overlap

---- Real-time Memory Report at c_bands before calling an iterative solver
             0 MiB given to the printing process from OS
             0 MiB allocation reported by mallinfo(arena+hblkhd)
         22856 MiB available memory on the node where the printing process lives
------------------
     ethr =  9.35E-04,  avg # of iterations =  1.3

     negative rho (up, down):  7.750E-01 0.000E+00

     total cpu time spent up to now is      165.9 secs

     total energy              =   -4441.87568024 Ry
     estimated scf accuracy    <       1.57982011 Ry

     iteration # 11     ecut=    60.00 Ry     beta= 0.15
     Davidson diagonalization with overlap

---- Real-time Memory Report at c_bands before calling an iterative solver
             0 MiB given to the printing process from OS
             0 MiB allocation reported by mallinfo(arena+hblkhd)
         22845 MiB available memory on the node where the printing process lives
------------------
     ethr =  3.67E-04,  avg # of iterations =  2.4

     negative rho (up, down):  8.022E-01 0.000E+00

     total cpu time spent up to now is      182.3 secs

     total energy              =   -4441.77455731 Ry
     estimated scf accuracy    <       1.12646500 Ry

     iteration # 12     ecut=    60.00 Ry     beta= 0.15
     Davidson diagonalization with overlap

---- Real-time Memory Report at c_bands before calling an iterative solver
             0 MiB given to the printing process from OS
             0 MiB allocation reported by mallinfo(arena+hblkhd)
         22855 MiB available memory on the node where the printing process lives
------------------
     ethr =  2.61E-04,  avg # of iterations =  7.0

     negative rho (up, down):  8.116E-01 0.000E+00

     total cpu time spent up to now is      201.5 secs

     total energy              =   -4441.87926283 Ry
     estimated scf accuracy    <       1.37745764 Ry

     iteration # 13     ecut=    60.00 Ry     beta= 0.15
     Davidson diagonalization with overlap

---- Real-time Memory Report at c_bands before calling an iterative solver
             0 MiB given to the printing process from OS
             0 MiB allocation reported by mallinfo(arena+hblkhd)
         22820 MiB available memory on the node where the printing process lives
------------------
     ethr =  2.61E-04,  avg # of iterations =  7.2

     negative rho (up, down):  8.193E-01 0.000E+00

     total cpu time spent up to now is      221.8 secs

     total energy              =   -4441.83431538 Ry
     estimated scf accuracy    <       0.89489533 Ry

     iteration # 14     ecut=    60.00 Ry     beta= 0.15
     Davidson diagonalization with overlap

---- Real-time Memory Report at c_bands before calling an iterative solver
             0 MiB given to the printing process from OS
             0 MiB allocation reported by mallinfo(arena+hblkhd)
         22763 MiB available memory on the node where the printing process lives
------------------
     ethr =  2.08E-04,  avg # of iterations =  4.4

     negative rho (up, down):  8.194E-01 0.000E+00

     total cpu time spent up to now is      239.2 secs

     total energy              =   -4441.77176904 Ry
     estimated scf accuracy    <       0.48696306 Ry

     iteration # 15     ecut=    60.00 Ry     beta= 0.15
     Davidson diagonalization with overlap

---- Real-time Memory Report at c_bands before calling an iterative solver
             0 MiB given to the printing process from OS
             0 MiB allocation reported by mallinfo(arena+hblkhd)
         22817 MiB available memory on the node where the printing process lives
------------------
     ethr =  1.13E-04,  avg # of iterations =  6.0

     negative rho (up, down):  8.271E-01 0.000E+00

     total cpu time spent up to now is      257.8 secs

     total energy              =   -4441.74338088 Ry
     estimated scf accuracy    <       0.33650165 Ry

     iteration # 16     ecut=    60.00 Ry     beta= 0.15
     Davidson diagonalization with overlap

---- Real-time Memory Report at c_bands before calling an iterative solver
             0 MiB given to the printing process from OS
             0 MiB allocation reported by mallinfo(arena+hblkhd)
         22824 MiB available memory on the node where the printing process lives
------------------
     ethr =  7.81E-05,  avg # of iterations = 10.1

     negative rho (up, down):  8.289E-01 0.000E+00

     total cpu time spent up to now is      278.8 secs

     total energy              =   -4441.74199755 Ry
     estimated scf accuracy    <       0.34925948 Ry

     iteration # 17     ecut=    60.00 Ry     beta= 0.15
     Davidson diagonalization with overlap

---- Real-time Memory Report at c_bands before calling an iterative solver
             0 MiB given to the printing process from OS
             0 MiB allocation reported by mallinfo(arena+hblkhd)
         22831 MiB available memory on the node where the printing process lives
------------------
     ethr =  7.81E-05,  avg # of iterations =  1.1

     negative rho (up, down):  8.238E-01 0.000E+00

     total cpu time spent up to now is      293.6 secs

     total energy              =   -4441.71380305 Ry
     estimated scf accuracy    <       0.26584309 Ry

     iteration # 18     ecut=    60.00 Ry     beta= 0.15
     Davidson diagonalization with overlap

---- Real-time Memory Report at c_bands before calling an iterative solver
             0 MiB given to the printing process from OS
             0 MiB allocation reported by mallinfo(arena+hblkhd)
         22829 MiB available memory on the node where the printing process lives
------------------
     ethr =  6.17E-05,  avg # of iterations =  8.2

     negative rho (up, down):  8.203E-01 0.000E+00

     total cpu time spent up to now is      313.5 secs

     total energy              =   -4441.68953579 Ry
     estimated scf accuracy    <       0.15431277 Ry

     iteration # 19     ecut=    60.00 Ry     beta= 0.15
     Davidson diagonalization with overlap

---- Real-time Memory Report at c_bands before calling an iterative solver
             0 MiB given to the printing process from OS
             0 MiB allocation reported by mallinfo(arena+hblkhd)
         22807 MiB available memory on the node where the printing process lives
------------------
     ethr =  3.58E-05,  avg # of iterations =  9.6

     negative rho (up, down):  8.312E-01 0.000E+00

     total cpu time spent up to now is      335.2 secs

     total energy              =   -4441.68205493 Ry
     estimated scf accuracy    <       0.09508899 Ry

     iteration # 20     ecut=    60.00 Ry     beta= 0.15
     Davidson diagonalization with overlap

---- Real-time Memory Report at c_bands before calling an iterative solver
             0 MiB given to the printing process from OS
             0 MiB allocation reported by mallinfo(arena+hblkhd)
         22690 MiB available memory on the node where the printing process lives
------------------
     ethr =  2.21E-05,  avg # of iterations =  2.8

     negative rho (up, down):  8.219E-01 0.000E+00

     total cpu time spent up to now is      352.0 secs

     total energy              =   -4441.68246563 Ry
     estimated scf accuracy    <       0.04234573 Ry

     iteration # 21     ecut=    60.00 Ry     beta= 0.15
     Davidson diagonalization with overlap

---- Real-time Memory Report at c_bands before calling an iterative solver
             0 MiB given to the printing process from OS
             0 MiB allocation reported by mallinfo(arena+hblkhd)
         22680 MiB available memory on the node where the printing process lives
------------------
     c_bands:  1 eigenvalues not converged
     ethr =  9.82E-06,  avg # of iterations = 12.3

     negative rho (up, down):  8.139E-01 0.000E+00

     total cpu time spent up to now is      373.4 secs

     total energy              =   -4441.68116523 Ry
     estimated scf accuracy    <       0.02943595 Ry

     iteration # 22     ecut=    60.00 Ry     beta= 0.15
     Davidson diagonalization with overlap

---- Real-time Memory Report at c_bands before calling an iterative solver
             0 MiB given to the printing process from OS
             0 MiB allocation reported by mallinfo(arena+hblkhd)
         22662 MiB available memory on the node where the printing process lives
------------------
     ethr =  6.83E-06,  avg # of iterations =  2.9

     negative rho (up, down):  8.141E-01 0.000E+00

     total cpu time spent up to now is      390.1 secs

     total energy              =   -4441.67960908 Ry
     estimated scf accuracy    <       0.02203349 Ry

     iteration # 23     ecut=    60.00 Ry     beta= 0.15
     Davidson diagonalization with overlap

---- Real-time Memory Report at c_bands before calling an iterative solver
             0 MiB given to the printing process from OS
             0 MiB allocation reported by mallinfo(arena+hblkhd)
         22677 MiB available memory on the node where the printing process lives
------------------
     c_bands:  1 eigenvalues not converged
     ethr =  5.11E-06,  avg # of iterations = 12.5

     negative rho (up, down):  8.019E-01 0.000E+00

     total cpu time spent up to now is      411.9 secs

     total energy              =   -4441.67640381 Ry
     estimated scf accuracy    <       0.01634391 Ry

     iteration # 24     ecut=    60.00 Ry     beta= 0.15
     Davidson diagonalization with overlap

---- Real-time Memory Report at c_bands before calling an iterative solver
             0 MiB given to the printing process from OS
             0 MiB allocation reported by mallinfo(arena+hblkhd)
         22685 MiB available memory on the node where the printing process lives
------------------
     ethr =  3.79E-06,  avg # of iterations = 11.3

     negative rho (up, down):  8.009E-01 0.000E+00

     total cpu time spent up to now is      433.1 secs

     total energy              =   -4441.67581042 Ry
     estimated scf accuracy    <       0.00924817 Ry

     iteration # 25     ecut=    60.00 Ry     beta= 0.15
     Davidson diagonalization with overlap

---- Real-time Memory Report at c_bands before calling an iterative solver
             0 MiB given to the printing process from OS
             0 MiB allocation reported by mallinfo(arena+hblkhd)
         22678 MiB available memory on the node where the printing process lives
------------------
     ethr =  2.15E-06,  avg # of iterations =  7.1

     negative rho (up, down):  7.969E-01 0.000E+00

     total cpu time spent up to now is      453.0 secs

     total energy              =   -4441.67498032 Ry
     estimated scf accuracy    <       0.00404138 Ry

     iteration # 26     ecut=    60.00 Ry     beta= 0.15
     Davidson diagonalization with overlap

---- Real-time Memory Report at c_bands before calling an iterative solver
             0 MiB given to the printing process from OS
             0 MiB allocation reported by mallinfo(arena+hblkhd)
         22661 MiB available memory on the node where the printing process lives
------------------
     c_bands:  2 eigenvalues not converged
     c_bands:  1 eigenvalues not converged
     c_bands:  1 eigenvalues not converged
     c_bands:  1 eigenvalues not converged
     ethr =  9.38E-07,  avg # of iterations = 15.2

     negative rho (up, down):  7.976E-01 0.000E+00

     total cpu time spent up to now is      478.2 secs

     total energy              =   -4441.67508928 Ry
     estimated scf accuracy    <       0.00154001 Ry

     iteration # 27     ecut=    60.00 Ry     beta= 0.15
     Davidson diagonalization with overlap

---- Real-time Memory Report at c_bands before calling an iterative solver
             0 MiB given to the printing process from OS
             0 MiB allocation reported by mallinfo(arena+hblkhd)
         22585 MiB available memory on the node where the printing process lives
------------------
     c_bands:  1 eigenvalues not converged
     c_bands:  1 eigenvalues not converged
     ethr =  3.57E-07,  avg # of iterations = 12.3

     negative rho (up, down):  7.961E-01 0.000E+00

     total cpu time spent up to now is      500.3 secs

     total energy              =   -4441.67510030 Ry
     estimated scf accuracy    <       0.00065715 Ry

     iteration # 28     ecut=    60.00 Ry     beta= 0.15
     Davidson diagonalization with overlap

---- Real-time Memory Report at c_bands before calling an iterative solver
             0 MiB given to the printing process from OS
             0 MiB allocation reported by mallinfo(arena+hblkhd)
         22562 MiB available memory on the node where the printing process lives
------------------
     ethr =  1.52E-07,  avg # of iterations =  8.7

     negative rho (up, down):  7.953E-01 0.000E+00

     total cpu time spent up to now is      520.8 secs

     total energy              =   -4441.67513955 Ry
     estimated scf accuracy    <       0.00035701 Ry

     iteration # 29     ecut=    60.00 Ry     beta= 0.15
     Davidson diagonalization with overlap

---- Real-time Memory Report at c_bands before calling an iterative solver
             0 MiB given to the printing process from OS
             0 MiB allocation reported by mallinfo(arena+hblkhd)
         22551 MiB available memory on the node where the printing process lives
------------------
     ethr =  8.28E-08,  avg # of iterations =  2.1

     negative rho (up, down):  7.940E-01 0.000E+00

     total cpu time spent up to now is      537.1 secs

     total energy              =   -4441.67514425 Ry
     estimated scf accuracy    <       0.00019814 Ry

     iteration # 30     ecut=    60.00 Ry     beta= 0.15
     Davidson diagonalization with overlap

---- Real-time Memory Report at c_bands before calling an iterative solver
             0 MiB given to the printing process from OS
             0 MiB allocation reported by mallinfo(arena+hblkhd)
         22599 MiB available memory on the node where the printing process lives
------------------
     ethr =  4.60E-08,  avg # of iterations =  2.8

     negative rho (up, down):  7.934E-01 0.000E+00

     total cpu time spent up to now is      553.9 secs

     total energy              =   -4441.67515899 Ry
     estimated scf accuracy    <       0.00008357 Ry

     iteration # 31     ecut=    60.00 Ry     beta= 0.15
     Davidson diagonalization with overlap

---- Real-time Memory Report at c_bands before calling an iterative solver
             0 MiB given to the printing process from OS
             0 MiB allocation reported by mallinfo(arena+hblkhd)
         22606 MiB available memory on the node where the printing process lives
------------------
     ethr =  1.94E-08,  avg # of iterations =  2.0

     negative rho (up, down):  7.929E-01 0.000E+00

     total cpu time spent up to now is      570.6 secs

     total energy              =   -4441.67516607 Ry
     estimated scf accuracy    <       0.00004824 Ry

     iteration # 32     ecut=    60.00 Ry     beta= 0.15
     Davidson diagonalization with overlap

---- Real-time Memory Report at c_bands before calling an iterative solver
             0 MiB given to the printing process from OS
             0 MiB allocation reported by mallinfo(arena+hblkhd)
         22610 MiB available memory on the node where the printing process lives
------------------
     ethr =  1.12E-08,  avg # of iterations =  2.3

     negative rho (up, down):  7.923E-01 0.000E+00

     total cpu time spent up to now is      587.4 secs

     total energy              =   -4441.67516402 Ry
     estimated scf accuracy    <       0.00003173 Ry

     iteration # 33     ecut=    60.00 Ry     beta= 0.15
     Davidson diagonalization with overlap

---- Real-time Memory Report at c_bands before calling an iterative solver
             0 MiB given to the printing process from OS
             0 MiB allocation reported by mallinfo(arena+hblkhd)
         22616 MiB available memory on the node where the printing process lives
------------------
     ethr =  7.36E-09,  avg # of iterations =  6.1

     negative rho (up, down):  7.921E-01 0.000E+00

     total cpu time spent up to now is      605.6 secs

     total energy              =   -4441.67516599 Ry
     estimated scf accuracy    <       0.00001697 Ry

     iteration # 34     ecut=    60.00 Ry     beta= 0.15
     Davidson diagonalization with overlap

---- Real-time Memory Report at c_bands before calling an iterative solver
             0 MiB given to the printing process from OS
             0 MiB allocation reported by mallinfo(arena+hblkhd)
         22641 MiB available memory on the node where the printing process lives
------------------
     ethr =  3.94E-09,  avg # of iterations =  2.2

     negative rho (up, down):  7.922E-01 0.000E+00

     total cpu time spent up to now is      622.5 secs

     total energy              =   -4441.67517035 Ry
     estimated scf accuracy    <       0.00000944 Ry

     iteration # 35     ecut=    60.00 Ry     beta= 0.15
     Davidson diagonalization with overlap

---- Real-time Memory Report at c_bands before calling an iterative solver
             0 MiB given to the printing process from OS
             0 MiB allocation reported by mallinfo(arena+hblkhd)
         22652 MiB available memory on the node where the printing process lives
------------------
     ethr =  2.19E-09,  avg # of iterations =  2.3

     negative rho (up, down):  7.922E-01 0.000E+00

     total cpu time spent up to now is      639.1 secs

     total energy              =   -4441.67517282 Ry
     estimated scf accuracy    <       0.00000670 Ry

     iteration # 36     ecut=    60.00 Ry     beta= 0.15
     Davidson diagonalization with overlap

---- Real-time Memory Report at c_bands before calling an iterative solver
             0 MiB given to the printing process from OS
             0 MiB allocation reported by mallinfo(arena+hblkhd)
         22649 MiB available memory on the node where the printing process lives
------------------
     ethr =  1.56E-09,  avg # of iterations =  2.2

     negative rho (up, down):  7.924E-01 0.000E+00

     total cpu time spent up to now is      655.6 secs

     total energy              =   -4441.67517389 Ry
     estimated scf accuracy    <       0.00000481 Ry

     iteration # 37     ecut=    60.00 Ry     beta= 0.15
     Davidson diagonalization with overlap

---- Real-time Memory Report at c_bands before calling an iterative solver
             0 MiB given to the printing process from OS
             0 MiB allocation reported by mallinfo(arena+hblkhd)
         22653 MiB available memory on the node where the printing process lives
------------------
     ethr =  1.12E-09,  avg # of iterations =  2.8

     negative rho (up, down):  7.926E-01 0.000E+00

     total cpu time spent up to now is      672.4 secs

     total energy              =   -4441.67517400 Ry
     estimated scf accuracy    <       0.00000296 Ry

     iteration # 38     ecut=    60.00 Ry     beta= 0.15
     Davidson diagonalization with overlap

---- Real-time Memory Report at c_bands before calling an iterative solver
             0 MiB given to the printing process from OS
             0 MiB allocation reported by mallinfo(arena+hblkhd)
         22659 MiB available memory on the node where the printing process lives
------------------
     ethr =  6.87E-10,  avg # of iterations =  3.1

     negative rho (up, down):  7.926E-01 0.000E+00

     total cpu time spent up to now is      689.5 secs

     total energy              =   -4441.67517408 Ry
     estimated scf accuracy    <       0.00000105 Ry

     iteration # 39     ecut=    60.00 Ry     beta= 0.15
     Davidson diagonalization with overlap

---- Real-time Memory Report at c_bands before calling an iterative solver
             0 MiB given to the printing process from OS
             0 MiB allocation reported by mallinfo(arena+hblkhd)
         22660 MiB available memory on the node where the printing process lives
------------------
     ethr =  2.43E-10,  avg # of iterations =  2.2

     negative rho (up, down):  7.926E-01 0.000E+00

     total cpu time spent up to now is      706.3 secs

     total energy              =   -4441.67517405 Ry
     estimated scf accuracy    <       0.00000068 Ry

     iteration # 40     ecut=    60.00 Ry     beta= 0.15
     Davidson diagonalization with overlap

---- Real-time Memory Report at c_bands before calling an iterative solver
             0 MiB given to the printing process from OS
             0 MiB allocation reported by mallinfo(arena+hblkhd)
         22658 MiB available memory on the node where the printing process lives
------------------
     ethr =  1.58E-10,  avg # of iterations =  2.1

     negative rho (up, down):  7.926E-01 0.000E+00

     total cpu time spent up to now is      722.7 secs

     total energy              =   -4441.67517404 Ry
     estimated scf accuracy    <       0.00000041 Ry

     iteration # 41     ecut=    60.00 Ry     beta= 0.15
     Davidson diagonalization with overlap

---- Real-time Memory Report at c_bands before calling an iterative solver
             0 MiB given to the printing process from OS
             0 MiB allocation reported by mallinfo(arena+hblkhd)
         22658 MiB available memory on the node where the printing process lives
------------------
     ethr =  9.46E-11,  avg # of iterations =  1.6

     negative rho (up, down):  7.926E-01 0.000E+00

     total cpu time spent up to now is      738.4 secs

     total energy              =   -4441.67517404 Ry
     estimated scf accuracy    <       0.00000021 Ry

     iteration # 42     ecut=    60.00 Ry     beta= 0.15
     Davidson diagonalization with overlap

---- Real-time Memory Report at c_bands before calling an iterative solver
             0 MiB given to the printing process from OS
             0 MiB allocation reported by mallinfo(arena+hblkhd)
         22665 MiB available memory on the node where the printing process lives
------------------
     ethr =  4.80E-11,  avg # of iterations =  2.2

     negative rho (up, down):  7.925E-01 0.000E+00

     total cpu time spent up to now is      755.4 secs

     total energy              =   -4441.67517407 Ry
     estimated scf accuracy    <       0.00000009 Ry

     iteration # 43     ecut=    60.00 Ry     beta= 0.15
     Davidson diagonalization with overlap

---- Real-time Memory Report at c_bands before calling an iterative solver
             0 MiB given to the printing process from OS
             0 MiB allocation reported by mallinfo(arena+hblkhd)
         22670 MiB available memory on the node where the printing process lives
------------------
     ethr =  2.01E-11,  avg # of iterations =  2.1

     negative rho (up, down):  7.925E-01 0.000E+00

     total cpu time spent up to now is      772.0 secs

     total energy              =   -4441.67517408 Ry
     estimated scf accuracy    <       0.00000008 Ry

     iteration # 44     ecut=    60.00 Ry     beta= 0.15
     Davidson diagonalization with overlap

---- Real-time Memory Report at c_bands before calling an iterative solver
             0 MiB given to the printing process from OS
             0 MiB allocation reported by mallinfo(arena+hblkhd)
         22666 MiB available memory on the node where the printing process lives
------------------
     ethr =  1.75E-11,  avg # of iterations =  2.2

     negative rho (up, down):  7.925E-01 0.000E+00

     total cpu time spent up to now is      789.2 secs

     total energy              =   -4441.67517408 Ry
     estimated scf accuracy    <       0.00000005 Ry

     iteration # 45     ecut=    60.00 Ry     beta= 0.15
     Davidson diagonalization with overlap

---- Real-time Memory Report at c_bands before calling an iterative solver
             0 MiB given to the printing process from OS
             0 MiB allocation reported by mallinfo(arena+hblkhd)
         22672 MiB available memory on the node where the printing process lives
------------------
     ethr =  1.10E-11,  avg # of iterations =  2.7

     negative rho (up, down):  7.925E-01 0.000E+00

     total cpu time spent up to now is      806.5 secs

     total energy              =   -4441.67517408 Ry
     estimated scf accuracy    <       0.00000003 Ry

     iteration # 46     ecut=    60.00 Ry     beta= 0.15
     Davidson diagonalization with overlap

---- Real-time Memory Report at c_bands before calling an iterative solver
             0 MiB given to the printing process from OS
             0 MiB allocation reported by mallinfo(arena+hblkhd)
         22679 MiB available memory on the node where the printing process lives
------------------
     ethr =  7.75E-12,  avg # of iterations =  2.2

     negative rho (up, down):  7.925E-01 0.000E+00

     total cpu time spent up to now is      823.8 secs

     total energy              =   -4441.67517408 Ry
     estimated scf accuracy    <       0.00000002 Ry

     iteration # 47     ecut=    60.00 Ry     beta= 0.15
     Davidson diagonalization with overlap

---- Real-time Memory Report at c_bands before calling an iterative solver
             0 MiB given to the printing process from OS
             0 MiB allocation reported by mallinfo(arena+hblkhd)
         22677 MiB available memory on the node where the printing process lives
------------------
     ethr =  5.56E-12,  avg # of iterations =  1.9

     negative rho (up, down):  7.925E-01 0.000E+00

     total cpu time spent up to now is      840.7 secs

     total energy              =   -4441.67517408 Ry
     estimated scf accuracy    <       0.00000002 Ry

     iteration # 48     ecut=    60.00 Ry     beta= 0.15
     Davidson diagonalization with overlap

---- Real-time Memory Report at c_bands before calling an iterative solver
             0 MiB given to the printing process from OS
             0 MiB allocation reported by mallinfo(arena+hblkhd)
         22677 MiB available memory on the node where the printing process lives
------------------
     ethr =  4.75E-12,  avg # of iterations =  2.1

     negative rho (up, down):  7.925E-01 0.000E+00

     total cpu time spent up to now is      857.7 secs

     total energy              =   -4441.67517407 Ry
     estimated scf accuracy    <       0.00000002 Ry

     iteration # 49     ecut=    60.00 Ry     beta= 0.15
     Davidson diagonalization with overlap

---- Real-time Memory Report at c_bands before calling an iterative solver
             0 MiB given to the printing process from OS
             0 MiB allocation reported by mallinfo(arena+hblkhd)
         22688 MiB available memory on the node where the printing process lives
------------------
     ethr =  3.69E-12,  avg # of iterations =  2.2

     negative rho (up, down):  7.925E-01 0.000E+00

     total cpu time spent up to now is      874.7 secs

     total energy              =   -4441.67517407 Ry
     estimated scf accuracy    <       0.00000001 Ry

     iteration # 50     ecut=    60.00 Ry     beta= 0.15
     Davidson diagonalization with overlap

---- Real-time Memory Report at c_bands before calling an iterative solver
             0 MiB given to the printing process from OS
             0 MiB allocation reported by mallinfo(arena+hblkhd)
         22680 MiB available memory on the node where the printing process lives
------------------
     ethr =  2.37E-12,  avg # of iterations =  2.6

     negative rho (up, down):  7.925E-01 0.000E+00

     total cpu time spent up to now is      891.8 secs

     End of self-consistent calculation

          k = 0.0000 0.0000 0.0000 ( 65197 PWs)   bands (ev):

   -92.7071 -92.6575 -92.5610 -92.5152 -92.4587 -92.4137 -92.3959 -92.2749
   -56.0606 -56.0443 -55.9182 -55.9077 -55.9016 -55.8945 -55.8607 -55.8301
   -55.8145 -55.8134 -55.8079 -55.7657 -55.7460 -55.7088 -55.6874 -55.6585
   -55.6509 -55.6016 -55.6006 -55.5988 -55.5904 -55.5500 -55.5263 -55.4411
   -31.2839 -31.2646 -31.1229 -31.0363 -30.9926 -30.8901 -30.8284 -30.6780
   -29.8524 -29.8087 -29.7835 -29.6772 -15.0871 -15.0410 -14.9606 -14.8318
   -14.6345 -14.5135 -14.2242 -14.1951 -14.1730 -14.1255 -14.0816 -14.0735
   -14.0599 -14.0402 -14.0122 -13.9993 -13.9646 -13.9326 -13.7809 -13.6022
   -13.5684 -13.5408 -13.5042 -13.4915 -13.4343 -13.3993 -13.3285 -13.2562
   -13.1178 -13.1043 -13.1030 -13.0805 -13.0627 -13.0197 -13.0068 -12.9900
   -12.9629 -12.9444 -12.9290 -12.9060 -12.8453 -12.8179 -12.7946 -12.7577
   -12.7102 -12.6941 -12.6270 -12.6139 -12.5407 -12.3486 -12.2029 -12.0049
   -11.9319 -11.8656 -11.7917 -11.7807 -11.7578 -11.7399 -11.6769 -11.6599
   -11.6242 -11.5944 -11.4854 -11.4051 -11.4015  -2.9463  -2.7145  -2.4850
    -2.3374  -2.2749  -2.1335  -1.8258  -1.8115  -1.7925  -1.7075  -1.6878
    -1.6198  -1.6030  -1.5623  -1.5194  -1.3446  -1.2932  -1.1107  -1.0798
    -0.9365  -0.9216  -0.8734  -0.8539  -0.8086  -0.7915  -0.7386  -0.7120
    -0.6350  -0.6252  -0.5517  -0.4199  -0.4074  -0.3763  -0.2963  -0.2730
    -0.2608  -0.2062  -0.1313  -0.0731  -0.0308  -0.0054   0.0684   0.1275
     0.1760   0.1987   0.2104   0.4744   0.4837   0.6605   0.7212   0.7913
     0.8362   0.9269   0.9361   0.9531   1.0192   1.0470   1.0803   1.1382
     1.2691   1.3306   1.3498   1.3698   1.3868   1.4508   1.5157   1.6317
     1.6425   1.7080   1.7139   1.7596   1.7736   1.7845   1.8424   1.9052
     1.9196   1.9502   1.9816   2.0238   2.1562   2.2455   2.2833   2.3009
     2.4288   2.4292   2.4586   2.4682   2.5070   2.5213   2.6223   2.6544
     2.6791   2.6991   2.7156   2.7962   2.9021   2.9351   2.9459   2.9520
     3.0197   3.0246   3.0482   3.0551   3.0648   3.0785   3.0844   3.0985
     3.1039   3.1154   3.1234   3.1320   3.1515   3.1728   3.1772   3.1898
     3.2173   3.3305   3.4084   4.1018   4.4285   4.7641   4.8599   5.0430
     5.8158   5.9372   5.9800   6.0005   6.3088   6.3552   6.4755   6.4836
     6.7432   7.0005   7.0912   7.3139   7.4169   7.6504   7.6603   7.7140
     7.7678   7.9288   8.0021   8.0324   8.1062   8.1855   8.4976   8.5467
     8.6743   8.7784   8.8647

     occupation numbers 
     1.0000   1.0000   1.0000   1.0000   1.0000   1.0000   1.0000   1.0000
     1.0000   1.0000   1.0000   1.0000   1.0000   1.0000   1.0000   1.0000
     1.0000   1.0000   1.0000   1.0000   1.0000   1.0000   1.0000   1.0000
     1.0000   1.0000   1.0000   1.0000   1.0000   1.0000   1.0000   1.0000
     1.0000   1.0000   1.0000   1.0000   1.0000   1.0000   1.0000   1.0000
     1.0000   1.0000   1.0000   1.0000   1.0000   1.0000   1.0000   1.0000
     1.0000   1.0000   1.0000   1.0000   1.0000   1.0000   1.0000   1.0000
     1.0000   1.0000   1.0000   1.0000   1.0000   1.0000   1.0000   1.0000
     1.0000   1.0000   1.0000   1.0000   1.0000   1.0000   1.0000   1.0000
     1.0000   1.0000   1.0000   1.0000   1.0000   1.0000   1.0000   1.0000
     1.0000   1.0000   1.0000   1.0000   1.0000   1.0000   1.0000   1.0000
     1.0000   1.0000   1.0000   1.0000   1.0000   1.0000   1.0000   1.0000
     1.0000   1.0000   1.0000   1.0000   1.0000   1.0000   1.0000   1.0000
     1.0000   1.0000   1.0000   1.0000   1.0000   1.0000   1.0000   1.0000
     1.0000   1.0000   1.0000   1.0000   1.0000   1.0000   1.0000   1.0000
     1.0000   1.0000   1.0000   1.0000   1.0000   1.0000   1.0000   1.0000
     1.0000   1.0000   1.0000   1.0000   1.0000   1.0000   1.0000   1.0000
     1.0000   1.0000   1.0000   1.0000   1.0000   1.0000   1.0000   1.0000
     1.0000   1.0000   1.0000   1.0000   1.0000   1.0000   1.0000   1.0000
     1.0000   1.0000   1.0000   1.0000   1.0000   1.0000   0.9999   0.9999
     0.9999   0.9998   0.9998   0.9998   0.9997   0.9996   0.9996   0.9994
     0.9988   0.9984   0.9983   0.9981   0.9980   0.9973   0.9963   0.9939
     0.9937   0.9917   0.9915   0.9898   0.9892   0.9887   0.9859   0.9822
     0.9813   0.9791   0.9766   0.9729   0.9581   0.9448   0.9383   0.9350
     0.9073   0.9072   0.8998   0.8972   0.8866   0.8824   0.8502   0.8388
     0.8296   0.8220   0.8156   0.7820   0.7329   0.7166   0.7111   0.7080
     0.6726   0.6700   0.6572   0.6534   0.6481   0.6405   0.6372   0.6293
     0.6263   0.6198   0.6153   0.6104   0.5992   0.5869   0.5844   0.5771
     0.5610   0.4942   0.4482   0.1231   0.0500   0.0160   0.0111   0.0053
     0.0001   0.0001   0.0000   0.0000   0.0000   0.0000   0.0000   0.0000
     0.0000   0.0000   0.0000   0.0000   0.0000   0.0000   0.0000   0.0000
     0.0000   0.0000   0.0000   0.0000   0.0000   0.0000   0.0000   0.0000
     0.0000   0.0000   0.0000

          k = 0.0000 0.2500 0.0000 ( 65257 PWs)   bands (ev):

   -92.7071 -92.6575 -92.5610 -92.5152 -92.4587 -92.4137 -92.3959 -92.2749
   -56.0606 -56.0443 -55.9182 -55.9077 -55.9016 -55.8945 -55.8607 -55.8301
   -55.8145 -55.8134 -55.8079 -55.7657 -55.7460 -55.7088 -55.6874 -55.6585
   -55.6509 -55.6016 -55.6006 -55.5988 -55.5904 -55.5500 -55.5263 -55.4411
   -31.2837 -31.2645 -31.1231 -31.0365 -30.9925 -30.8896 -30.8289 -30.6781
   -29.8518 -29.8084 -29.7841 -29.6776 -15.0506 -15.0153 -14.9357 -14.8019
   -14.6765 -14.5019 -14.3688 -14.1898 -14.1489 -14.1291 -14.1016 -14.0434
   -14.0393 -14.0263 -14.0082 -13.9889 -13.9360 -13.8525 -13.8104 -13.6532
   -13.6239 -13.5809 -13.5467 -13.4945 -13.4557 -13.3992 -13.3476 -13.3133
   -13.2105 -13.1555 -13.1474 -13.1144 -13.0938 -12.9967 -12.9853 -12.9592
   -12.9400 -12.9070 -12.8728 -12.8629 -12.8049 -12.7883 -12.7773 -12.7555
   -12.6600 -12.6420 -12.5610 -12.5357 -12.4668 -12.4099 -12.2541 -12.0614
   -12.0003 -11.8312 -11.7885 -11.7604 -11.7324 -11.7158 -11.6684 -11.6572
   -11.6342 -11.5991 -11.5000 -11.4469 -11.4362  -2.8109  -2.5903  -2.4523
    -2.2703  -2.2268  -2.0635  -1.8437  -1.7599  -1.7469  -1.6883  -1.5858
    -1.5704  -1.5374  -1.5093  -1.4657  -1.3098  -1.2593  -1.1365  -1.1265
    -1.0503  -1.0400  -0.9347  -0.9069  -0.8468  -0.8205  -0.7830  -0.7184
    -0.6901  -0.6587  -0.6237  -0.6092  -0.5757  -0.5039  -0.4530  -0.3842
    -0.2720  -0.2525  -0.2104  -0.0910  -0.0457   0.0064   0.0575   0.1148
     0.1282   0.1577   0.2189   0.5186   0.6058   0.6422   0.7283   0.7713
     0.7927   0.9064   0.9238   1.0260   1.0493   1.0736   1.1861   1.2825
     1.3063   1.3300   1.3464   1.3708   1.4309   1.4597   1.4879   1.5338
     1.5706   1.6047   1.6956   1.7220   1.7599   1.8082   1.8670   1.9193
     1.9366   1.9550   1.9723   2.0741   2.1961   2.2666   2.2837   2.3558
     2.3977   2.4265   2.4354   2.4523   2.4680   2.5146   2.5494   2.6364
     2.6765   2.6915   2.8599   2.8816   2.9158   2.9384   2.9532   2.9620
     2.9691   2.9774   3.0073   3.0094   3.0279   3.0329   3.0422   3.0624
     3.0729   3.0809   3.1021   3.1133   3.1182   3.1535   3.1706   3.2301
     3.6066   3.6312   3.8742   4.2932   4.4238   4.7081   5.0136   5.0633
     5.6405   5.8037   5.9624   5.9865   6.0801   6.1039   6.1785   6.5913
     6.8571   7.0913   7.1299   7.3237   7.4808   7.4926   7.6371   7.6911
     7.8855   7.9680   8.0278   8.1768   8.3609   8.3839   8.4172   8.4804
     8.6002   8.8508   8.9396

     occupation numbers 
     1.0000   1.0000   1.0000   1.0000   1.0000   1.0000   1.0000   1.0000
     1.0000   1.0000   1.0000   1.0000   1.0000   1.0000   1.0000   1.0000
     1.0000   1.0000   1.0000   1.0000   1.0000   1.0000   1.0000   1.0000
     1.0000   1.0000   1.0000   1.0000   1.0000   1.0000   1.0000   1.0000
     1.0000   1.0000   1.0000   1.0000   1.0000   1.0000   1.0000   1.0000
     1.0000   1.0000   1.0000   1.0000   1.0000   1.0000   1.0000   1.0000
     1.0000   1.0000   1.0000   1.0000   1.0000   1.0000   1.0000   1.0000
     1.0000   1.0000   1.0000   1.0000   1.0000   1.0000   1.0000   1.0000
     1.0000   1.0000   1.0000   1.0000   1.0000   1.0000   1.0000   1.0000
     1.0000   1.0000   1.0000   1.0000   1.0000   1.0000   1.0000   1.0000
     1.0000   1.0000   1.0000   1.0000   1.0000   1.0000   1.0000   1.0000
     1.0000   1.0000   1.0000   1.0000   1.0000   1.0000   1.0000   1.0000
     1.0000   1.0000   1.0000   1.0000   1.0000   1.0000   1.0000   1.0000
     1.0000   1.0000   1.0000   1.0000   1.0000   1.0000   1.0000   1.0000
     1.0000   1.0000   1.0000   1.0000   1.0000   1.0000   1.0000   1.0000
     1.0000   1.0000   1.0000   1.0000   1.0000   1.0000   1.0000   1.0000
     1.0000   1.0000   1.0000   1.0000   1.0000   1.0000   1.0000   1.0000
     1.0000   1.0000   1.0000   1.0000   1.0000   1.0000   1.0000   1.0000
     1.0000   1.0000   1.0000   1.0000   1.0000   1.0000   1.0000   1.0000
     1.0000   1.0000   1.0000   1.0000   1.0000   1.0000   0.9999   0.9999
     0.9999   0.9998   0.9998   0.9997   0.9996   0.9996   0.9992   0.9988
     0.9986   0.9984   0.9983   0.9981   0.9975   0.9971   0.9968   0.9960
     0.9953   0.9946   0.9921   0.9912   0.9898   0.9876   0.9846   0.9813
     0.9801   0.9787   0.9774   0.9679   0.9525   0.9412   0.9382   0.9240
     0.9148   0.9079   0.9057   0.9014   0.8973   0.8844   0.8740   0.8452
     0.8306   0.8249   0.7531   0.7428   0.7262   0.7149   0.7074   0.7029
     0.6992   0.6949   0.6792   0.6781   0.6682   0.6655   0.6604   0.6493
     0.6436   0.6391   0.6273   0.6209   0.6182   0.5980   0.5882   0.5535
     0.3356   0.3224   0.2056   0.0744   0.0507   0.0197   0.0060   0.0048
     0.0003   0.0001   0.0000   0.0000   0.0000   0.0000   0.0000   0.0000
     0.0000   0.0000   0.0000   0.0000   0.0000   0.0000   0.0000   0.0000
     0.0000   0.0000   0.0000   0.0000   0.0000   0.0000   0.0000   0.0000
     0.0000   0.0000   0.0000

          k = 0.0000-0.5000 0.0000 ( 65180 PWs)   bands (ev):

   -92.7071 -92.6575 -92.5610 -92.5152 -92.4587 -92.4137 -92.3959 -92.2749
   -56.0606 -56.0443 -55.9182 -55.9077 -55.9016 -55.8945 -55.8607 -55.8301
   -55.8145 -55.8134 -55.8079 -55.7657 -55.7460 -55.7088 -55.6874 -55.6585
   -55.6509 -55.6016 -55.6006 -55.5988 -55.5904 -55.5500 -55.5263 -55.4411
   -31.2835 -31.2643 -31.1233 -31.0366 -30.9924 -30.8891 -30.8294 -30.6782
   -29.8511 -29.8081 -29.7847 -29.6779 -15.0149 -14.9659 -14.9142 -14.7773
   -14.7014 -14.5600 -14.4115 -14.2750 -14.1632 -14.0803 -14.0460 -14.0367
   -14.0027 -13.9890 -13.9731 -13.9283 -13.9016 -13.8785 -13.8411 -13.7787
   -13.7639 -13.5890 -13.5301 -13.4984 -13.4626 -13.3811 -13.3644 -13.2958
   -13.2892 -13.2344 -13.2240 -13.1152 -13.0936 -12.9868 -12.9741 -12.9524
   -12.9353 -12.9009 -12.8839 -12.7949 -12.7687 -12.7449 -12.7118 -12.6581
   -12.6536 -12.6375 -12.5456 -12.5204 -12.4025 -12.3292 -12.2449 -12.1633
   -12.1421 -11.7853 -11.7829 -11.7552 -11.7190 -11.6838 -11.6721 -11.6294
   -11.6252 -11.5807 -11.5222 -11.5082 -11.4939  -2.5964  -2.5370  -2.3874
    -2.3153  -2.0329  -1.9497  -1.8231  -1.6856  -1.6474  -1.6287  -1.5512
    -1.5158  -1.4378  -1.4011  -1.3226  -1.3072  -1.2838  -1.2453  -1.2178
    -1.1598  -1.1219  -1.0728  -1.0331  -1.0078  -0.9685  -0.8631  -0.8188
    -0.7827  -0.7795  -0.6933  -0.6631  -0.6379  -0.5909  -0.5066  -0.4316
    -0.3421  -0.3146  -0.2046  -0.1729  -0.0351   0.0098   0.0384   0.0840
     0.2167   0.2753   0.3863   0.4599   0.4669   0.5926   0.6555   0.7455
     0.8736   0.9778   1.0117   1.0505   1.0603   1.0942   1.1095   1.1476
     1.1673   1.1833   1.2860   1.3446   1.3733   1.4006   1.6706   1.6971
     1.7321   1.8150   1.8344   1.8719   1.8883   1.9091   1.9409   1.9467
     1.9634   2.0022   2.0274   2.0622   2.0629   2.0958   2.1486   2.2380
     2.2766   2.4270   2.4355   2.4457   2.5997   2.6133   2.6272   2.6655
     2.6733   2.6788   2.7275   2.7389   2.7932   2.8147   2.8956   2.9057
     2.9782   2.9799   3.0054   3.0090   3.0246   3.0285   3.0319   3.0391
     3.0414   3.0549   3.0727   3.0739   3.1385   3.1435   3.1603   3.2149
     4.1230   4.1453   4.1950   4.2543   4.7315   4.9028   5.0205   5.1638
     5.4085   5.4590   5.5802   5.7230   6.0232   6.0429   6.3163   6.5435
     6.8461   6.9471   7.2195   7.3119   7.3641   7.4913   7.7438   7.8118
     7.9031   7.9887   8.2610   8.3384   8.3556   8.4957   8.5587   8.6644
     8.8076   8.8537   8.8657

     occupation numbers 
     1.0000   1.0000   1.0000   1.0000   1.0000   1.0000   1.0000   1.0000
     1.0000   1.0000   1.0000   1.0000   1.0000   1.0000   1.0000   1.0000
     1.0000   1.0000   1.0000   1.0000   1.0000   1.0000   1.0000   1.0000
     1.0000   1.0000   1.0000   1.0000   1.0000   1.0000   1.0000   1.0000
     1.0000   1.0000   1.0000   1.0000   1.0000   1.0000   1.0000   1.0000
     1.0000   1.0000   1.0000   1.0000   1.0000   1.0000   1.0000   1.0000
     1.0000   1.0000   1.0000   1.0000   1.0000   1.0000   1.0000   1.0000
     1.0000   1.0000   1.0000   1.0000   1.0000   1.0000   1.0000   1.0000
     1.0000   1.0000   1.0000   1.0000   1.0000   1.0000   1.0000   1.0000
     1.0000   1.0000   1.0000   1.0000   1.0000   1.0000   1.0000   1.0000
     1.0000   1.0000   1.0000   1.0000   1.0000   1.0000   1.0000   1.0000
     1.0000   1.0000   1.0000   1.0000   1.0000   1.0000   1.0000   1.0000
     1.0000   1.0000   1.0000   1.0000   1.0000   1.0000   1.0000   1.0000
     1.0000   1.0000   1.0000   1.0000   1.0000   1.0000   1.0000   1.0000
     1.0000   1.0000   1.0000   1.0000   1.0000   1.0000   1.0000   1.0000
     1.0000   1.0000   1.0000   1.0000   1.0000   1.0000   1.0000   1.0000
     1.0000   1.0000   1.0000   1.0000   1.0000   1.0000   1.0000   1.0000
     1.0000   1.0000   1.0000   1.0000   1.0000   1.0000   1.0000   1.0000
     1.0000   1.0000   1.0000   1.0000   1.0000   1.0000   1.0000   1.0000
     1.0000   1.0000   1.0000   1.0000   1.0000   1.0000   1.0000   0.9999
     0.9999   0.9997   0.9997   0.9996   0.9996   0.9995   0.9995   0.9994
     0.9993   0.9992   0.9987   0.9983   0.9981   0.9978   0.9929   0.9920
     0.9908   0.9873   0.9863   0.9843   0.9833   0.9820   0.9798   0.9793
     0.9781   0.9749   0.9726   0.9692   0.9691   0.9655   0.9591   0.9461
     0.9395   0.9078   0.9056   0.9031   0.8578   0.8532   0.8485   0.8347
     0.8318   0.8298   0.8108   0.8062   0.7833   0.7738   0.7361   0.7312
     0.6945   0.6936   0.6802   0.6783   0.6699   0.6678   0.6660   0.6621
     0.6609   0.6535   0.6437   0.6430   0.6067   0.6038   0.5942   0.5624
     0.1168   0.1104   0.0971   0.0828   0.0181   0.0094   0.0058   0.0031
     0.0010   0.0007   0.0004   0.0002   0.0000   0.0000   0.0000   0.0000
     0.0000   0.0000   0.0000   0.0000   0.0000   0.0000   0.0000   0.0000
     0.0000   0.0000   0.0000   0.0000   0.0000   0.0000   0.0000   0.0000
     0.0000   0.0000   0.0000

          k = 0.2500 0.2500 0.0000 ( 65198 PWs)   bands (ev):

   -92.7071 -92.6575 -92.5610 -92.5152 -92.4587 -92.4137 -92.3959 -92.2749
   -56.0606 -56.0443 -55.9182 -55.9077 -55.9016 -55.8945 -55.8607 -55.8301
   -55.8145 -55.8134 -55.8079 -55.7657 -55.7460 -55.7088 -55.6874 -55.6585
   -55.6509 -55.6016 -55.6006 -55.5988 -55.5904 -55.5500 -55.5263 -55.4411
   -31.2820 -31.2662 -31.1228 -31.0369 -30.9923 -30.8895 -30.8291 -30.6782
   -29.8508 -29.8094 -29.7837 -29.6780 -15.0217 -14.9814 -14.9077 -14.7909
   -14.6688 -14.5432 -14.4738 -14.2610 -14.1127 -14.0975 -14.0616 -14.0310
   -14.0136 -14.0014 -13.9869 -13.9397 -13.8973 -13.8422 -13.8241 -13.6680
   -13.6522 -13.6229 -13.6043 -13.5379 -13.5155 -13.4330 -13.4227 -13.2706
   -13.2401 -13.2215 -13.1473 -13.1069 -13.0542 -13.0239 -12.9847 -12.9554
   -12.9439 -12.9184 -12.8655 -12.8057 -12.7825 -12.7495 -12.7344 -12.7199
   -12.6675 -12.6368 -12.5547 -12.5112 -12.4582 -12.3312 -12.2832 -12.0829
   -12.0638 -11.8034 -11.7720 -11.7611 -11.7537 -11.6911 -11.6562 -11.6501
   -11.6150 -11.6056 -11.5168 -11.4749 -11.4580  -2.6725  -2.4645  -2.3462
    -2.2518  -2.1315  -2.0670  -1.8684  -1.7244  -1.7057  -1.6753  -1.5806
    -1.5477  -1.4541  -1.4250  -1.3749  -1.3041  -1.2417  -1.1923  -1.1223
    -1.0766  -1.0318  -1.0079  -0.9850  -0.9413  -0.9269  -0.8364  -0.7849
    -0.7196  -0.6694  -0.6385  -0.5930  -0.5776  -0.5131  -0.4646  -0.4042
    -0.3743  -0.2850  -0.2316  -0.2041  -0.1669  -0.1112  -0.0198   0.0006
     0.0267   0.1094   0.1353   0.4070   0.5577   0.5904   0.6535   0.6977
     0.7495   0.8021   0.8667   0.9039   1.1731   1.2388   1.3102   1.3353
     1.3877   1.4165   1.4526   1.4899   1.5062   1.5338   1.5818   1.5863
     1.6028   1.6476   1.6859   1.7264   1.7980   1.8290   1.8374   1.8766
     1.9068   1.9624   1.9878   2.1129   2.1769   2.2122   2.2297   2.2992
     2.3650   2.3889   2.4239   2.4314   2.4347   2.4613   2.4780   2.5788
     2.6158   2.7053   2.8710   2.8884   2.8942   2.9102   2.9265   2.9385
     2.9513   2.9574   2.9686   2.9815   2.9946   3.0122   3.0184   3.0309
     3.0543   3.0643   3.0740   3.1049   3.4053   3.4988   3.5429   3.6173
     3.6377   3.8529   3.9484   4.3048   4.5090   4.7126   4.9811   5.1606
     5.6445   5.7000   5.7657   5.8310   5.8905   6.1236   6.1524   6.2106
     6.8913   6.9690   7.1018   7.3348   7.5464   7.5996   7.7071   7.8464
     7.9282   8.0629   8.1953   8.3018   8.3276   8.3817   8.4421   8.5392
     8.5479   8.7563   8.9282

     occupation numbers 
     1.0000   1.0000   1.0000   1.0000   1.0000   1.0000   1.0000   1.0000
     1.0000   1.0000   1.0000   1.0000   1.0000   1.0000   1.0000   1.0000
     1.0000   1.0000   1.0000   1.0000   1.0000   1.0000   1.0000   1.0000
     1.0000   1.0000   1.0000   1.0000   1.0000   1.0000   1.0000   1.0000
     1.0000   1.0000   1.0000   1.0000   1.0000   1.0000   1.0000   1.0000
     1.0000   1.0000   1.0000   1.0000   1.0000   1.0000   1.0000   1.0000
     1.0000   1.0000   1.0000   1.0000   1.0000   1.0000   1.0000   1.0000
     1.0000   1.0000   1.0000   1.0000   1.0000   1.0000   1.0000   1.0000
     1.0000   1.0000   1.0000   1.0000   1.0000   1.0000   1.0000   1.0000
     1.0000   1.0000   1.0000   1.0000   1.0000   1.0000   1.0000   1.0000
     1.0000   1.0000   1.0000   1.0000   1.0000   1.0000   1.0000   1.0000
     1.0000   1.0000   1.0000   1.0000   1.0000   1.0000   1.0000   1.0000
     1.0000   1.0000   1.0000   1.0000   1.0000   1.0000   1.0000   1.0000
     1.0000   1.0000   1.0000   1.0000   1.0000   1.0000   1.0000   1.0000
     1.0000   1.0000   1.0000   1.0000   1.0000   1.0000   1.0000   1.0000
     1.0000   1.0000   1.0000   1.0000   1.0000   1.0000   1.0000   1.0000
     1.0000   1.0000   1.0000   1.0000   1.0000   1.0000   1.0000   1.0000
     1.0000   1.0000   1.0000   1.0000   1.0000   1.0000   1.0000   1.0000
     1.0000   1.0000   1.0000   1.0000   1.0000   1.0000   1.0000   1.0000
     1.0000   1.0000   1.0000   1.0000   1.0000   1.0000   1.0000   1.0000
     0.9999   0.9999   0.9999   0.9998   0.9993   0.9990   0.9986   0.9984
     0.9980   0.9977   0.9972   0.9967   0.9965   0.9960   0.9951   0.9950
     0.9946   0.9935   0.9924   0.9910   0.9881   0.9866   0.9862   0.9840
     0.9821   0.9782   0.9761   0.9636   0.9553   0.9501   0.9474   0.9354
     0.9221   0.9168   0.9085   0.9067   0.9059   0.8991   0.8946   0.8647
     0.8524   0.8196   0.7479   0.7395   0.7368   0.7290   0.7209   0.7149
     0.7084   0.7053   0.6995   0.6928   0.6859   0.6766   0.6733   0.6666
     0.6538   0.6483   0.6430   0.6257   0.4501   0.3957   0.3707   0.3298
     0.3190   0.2147   0.1757   0.0720   0.0388   0.0194   0.0068   0.0031
     0.0003   0.0002   0.0001   0.0001   0.0001   0.0000   0.0000   0.0000
     0.0000   0.0000   0.0000   0.0000   0.0000   0.0000   0.0000   0.0000
     0.0000   0.0000   0.0000   0.0000   0.0000   0.0000   0.0000   0.0000
     0.0000   0.0000   0.0000

          k = 0.2500-0.5000 0.0000 ( 65138 PWs)   bands (ev):

   -92.7071 -92.6575 -92.5610 -92.5152 -92.4587 -92.4137 -92.3959 -92.2749
   -56.0606 -56.0443 -55.9182 -55.9077 -55.9016 -55.8945 -55.8607 -55.8301
   -55.8145 -55.8134 -55.8079 -55.7657 -55.7460 -55.7088 -55.6874 -55.6585
   -55.6509 -55.6016 -55.6006 -55.5988 -55.5904 -55.5500 -55.5263 -55.4411
   -31.2818 -31.2660 -31.1230 -31.0370 -30.9922 -30.8890 -30.8296 -30.6783
   -29.8502 -29.8091 -29.7843 -29.6783 -14.9847 -14.9392 -14.8715 -14.7482
   -14.7224 -14.6020 -14.5109 -14.3741 -14.0774 -14.0212 -14.0068 -13.9939
   -13.9745 -13.9517 -13.9478 -13.9124 -13.8907 -13.8513 -13.8237 -13.7832
   -13.7436 -13.6713 -13.6225 -13.5552 -13.5442 -13.4743 -13.4212 -13.3259
   -13.2916 -13.2130 -13.1482 -13.1228 -13.0384 -12.9985 -12.9832 -12.9535
   -12.9436 -12.9174 -12.8600 -12.7994 -12.7888 -12.7496 -12.6629 -12.6559
   -12.6372 -12.6297 -12.5473 -12.5258 -12.3928 -12.3267 -12.2434 -12.1440
   -12.1312 -11.7791 -11.7671 -11.7563 -11.7290 -11.6968 -11.6690 -11.6260
   -11.6008 -11.5774 -11.5353 -11.5093 -11.4980  -2.4542  -2.3889  -2.2612
    -2.1840  -2.0532  -1.9698  -1.8474  -1.6967  -1.6428  -1.6205  -1.5574
    -1.5446  -1.4487  -1.3788  -1.3058  -1.2953  -1.2448  -1.2344  -1.1733
    -1.1307  -1.0963  -1.0472  -1.0092  -0.9744  -0.9358  -0.9245  -0.8779
    -0.8484  -0.8049  -0.7755  -0.7092  -0.6068  -0.5681  -0.4895  -0.4223
    -0.3711  -0.3327  -0.3124  -0.2495  -0.0939  -0.0834   0.0217   0.0519
     0.0617   0.1024   0.1440   0.1802   0.2080   0.2714   0.5602   0.6563
     0.7125   0.7706   1.0391   1.0591   1.1486   1.1695   1.3345   1.3707
     1.4096   1.4361   1.4467   1.4684   1.5314   1.5806   1.6159   1.6905
     1.7979   1.8286   1.8485   1.8558   1.8976   1.9062   1.9220   1.9613
     1.9715   1.9949   2.0204   2.0372   2.0565   2.0917   2.1491   2.1924
     2.2737   2.4035   2.4298   2.4368   2.5515   2.5697   2.5885   2.6187
     2.6419   2.6653   2.6861   2.7007   2.7234   2.8205   2.8726   2.8898
     2.8944   2.9077   2.9277   2.9412   2.9605   2.9690   3.0049   3.0132
     3.0271   3.0355   3.0440   3.0557   3.5756   3.5943   3.7371   3.7926
     4.1321   4.1855   4.1954   4.3132   4.7513   4.9239   5.0570   5.1346
     5.2997   5.4267   5.6015   5.6358   5.7657   5.7852   6.3897   6.4195
     6.4878   6.6721   7.2847   7.3557   7.5771   7.6945   7.8050   7.8672
     7.9847   8.0382   8.3613   8.4538   8.4977   8.5297   8.5525   8.5730
     8.7082   8.7611   8.7893

     occupation numbers 
     1.0000   1.0000   1.0000   1.0000   1.0000   1.0000   1.0000   1.0000
     1.0000   1.0000   1.0000   1.0000   1.0000   1.0000   1.0000   1.0000
     1.0000   1.0000   1.0000   1.0000   1.0000   1.0000   1.0000   1.0000
     1.0000   1.0000   1.0000   1.0000   1.0000   1.0000   1.0000   1.0000
     1.0000   1.0000   1.0000   1.0000   1.0000   1.0000   1.0000   1.0000
     1.0000   1.0000   1.0000   1.0000   1.0000   1.0000   1.0000   1.0000
     1.0000   1.0000   1.0000   1.0000   1.0000   1.0000   1.0000   1.0000
     1.0000   1.0000   1.0000   1.0000   1.0000   1.0000   1.0000   1.0000
     1.0000   1.0000   1.0000   1.0000   1.0000   1.0000   1.0000   1.0000
     1.0000   1.0000   1.0000   1.0000   1.0000   1.0000   1.0000   1.0000
     1.0000   1.0000   1.0000   1.0000   1.0000   1.0000   1.0000   1.0000
     1.0000   1.0000   1.0000   1.0000   1.0000   1.0000   1.0000   1.0000
     1.0000   1.0000   1.0000   1.0000   1.0000   1.0000   1.0000   1.0000
     1.0000   1.0000   1.0000   1.0000   1.0000   1.0000   1.0000   1.0000
     1.0000   1.0000   1.0000   1.0000   1.0000   1.0000   1.0000   1.0000
     1.0000   1.0000   1.0000   1.0000   1.0000   1.0000   1.0000   1.0000
     1.0000   1.0000   1.0000   1.0000   1.0000   1.0000   1.0000   1.0000
     1.0000   1.0000   1.0000   1.0000   1.0000   1.0000   1.0000   1.0000
     1.0000   1.0000   1.0000   1.0000   1.0000   1.0000   1.0000   1.0000
     1.0000   1.0000   1.0000   1.0000   1.0000   1.0000   1.0000   1.0000
     0.9999   0.9999   0.9996   0.9996   0.9994   0.9993   0.9984   0.9981
     0.9977   0.9974   0.9973   0.9970   0.9961   0.9951   0.9943   0.9923
     0.9881   0.9866   0.9856   0.9852   0.9827   0.9822   0.9811   0.9782
     0.9774   0.9755   0.9733   0.9717   0.9698   0.9660   0.9591   0.9531
     0.9400   0.9134   0.9071   0.9053   0.8733   0.8676   0.8616   0.8514
     0.8433   0.8348   0.8270   0.8214   0.8125   0.7712   0.7471   0.7389
     0.7367   0.7302   0.7203   0.7135   0.7036   0.6993   0.6805   0.6760
     0.6686   0.6641   0.6595   0.6531   0.3526   0.3423   0.2682   0.2418
     0.1142   0.0996   0.0970   0.0703   0.0168   0.0086   0.0050   0.0035
     0.0016   0.0009   0.0004   0.0003   0.0001   0.0001   0.0000   0.0000
     0.0000   0.0000   0.0000   0.0000   0.0000   0.0000   0.0000   0.0000
     0.0000   0.0000   0.0000   0.0000   0.0000   0.0000   0.0000   0.0000
     0.0000   0.0000   0.0000

          k =-0.5000-0.5000 0.0000 ( 65132 PWs)   bands (ev):

   -92.7071 -92.6575 -92.5610 -92.5152 -92.4587 -92.4137 -92.3959 -92.2749
   -56.0606 -56.0443 -55.9182 -55.9077 -55.9016 -55.8945 -55.8607 -55.8301
   -55.8145 -55.8134 -55.8079 -55.7657 -55.7460 -55.7088 -55.6874 -55.6585
   -55.6509 -55.6016 -55.6006 -55.5988 -55.5904 -55.5500 -55.5263 -55.4411
   -31.2796 -31.2683 -31.1226 -31.0374 -30.9920 -30.8888 -30.8298 -30.6785
   -29.8492 -29.8101 -29.7839 -29.6788 -14.9392 -14.9126 -14.7942 -14.7825
   -14.6829 -14.6523 -14.6066 -14.4747 -14.0065 -13.9885 -13.9733 -13.9388
   -13.9216 -13.9071 -13.8889 -13.8647 -13.8547 -13.8384 -13.8238 -13.7994
   -13.7368 -13.7315 -13.6875 -13.6641 -13.6479 -13.5639 -13.4658 -13.3621
   -13.3387 -13.1639 -13.1188 -13.0561 -13.0315 -12.9978 -12.9903 -12.9806
   -12.9619 -12.9221 -12.8355 -12.8142 -12.7962 -12.7578 -12.6480 -12.6363
   -12.6111 -12.6049 -12.5600 -12.5422 -12.3820 -12.3230 -12.2384 -12.1252
   -12.1218 -11.7761 -11.7634 -11.7450 -11.7286 -11.6930 -11.6750 -11.6405
   -11.5816 -11.5600 -11.5570 -11.5070 -11.5041  -2.2292  -2.1548  -2.1445
    -2.0740  -2.0351  -1.9565  -1.8886  -1.7622  -1.6475  -1.6172  -1.5772
    -1.5209  -1.4477  -1.4337  -1.3628  -1.3216  -1.3020  -1.2013  -1.1721
    -1.1238  -1.0979  -1.0332  -0.9867  -0.9670  -0.9541  -0.9017  -0.8583
    -0.8382  -0.7265  -0.6710  -0.6261  -0.5738  -0.5464  -0.5339  -0.5000
    -0.4562  -0.4198  -0.4077  -0.3266  -0.2524  -0.2157  -0.1836  -0.1140
    -0.0484  -0.0409   0.0192   0.0454   0.0517   0.0599   0.5288   0.5874
     0.6646   0.6840   1.0743   1.0792   1.1117   1.1501   1.4187   1.4389
     1.4460   1.4859   1.6128   1.7086   1.7361   1.7728   1.8051   1.8186
     1.8291   1.8584   1.8734   1.8954   1.9028   1.9448   1.9478   1.9762
     2.0092   2.0127   2.0280   2.0690   2.0907   2.1053   2.1360   2.1683
     2.2297   2.2971   2.4264   2.4339   2.5700   2.5951   2.6179   2.6322
     2.6468   2.6746   2.6775   2.6965   2.7071   2.7230   2.7447   2.7560
     2.8214   2.8259   2.8459   2.8601   2.8763   2.8938   2.8968   2.9068
     3.0101   3.0177   3.0402   3.0517   3.9981   4.0340   4.0681   4.0955
     4.3132   4.3877   4.4124   4.6538   4.7759   4.8579   4.9876   5.0790
     5.0900   5.2017   5.2959   5.4165   5.8483   5.8825   5.9523   6.0266
     6.6540   6.8874   6.9272   7.1697   7.9220   7.9292   7.9648   7.9728
     8.0217   8.0826   8.1166   8.2679   8.5483   8.5897   8.6154   8.6540
     8.7106   8.7452   8.8788

     occupation numbers 
     1.0000   1.0000   1.0000   1.0000   1.0000   1.0000   1.0000   1.0000
     1.0000   1.0000   1.0000   1.0000   1.0000   1.0000   1.0000   1.0000
     1.0000   1.0000   1.0000   1.0000   1.0000   1.0000   1.0000   1.0000
     1.0000   1.0000   1.0000   1.0000   1.0000   1.0000   1.0000   1.0000
     1.0000   1.0000   1.0000   1.0000   1.0000   1.0000   1.0000   1.0000
     1.0000   1.0000   1.0000   1.0000   1.0000   1.0000   1.0000   1.0000
     1.0000   1.0000   1.0000   1.0000   1.0000   1.0000   1.0000   1.0000
     1.0000   1.0000   1.0000   1.0000   1.0000   1.0000   1.0000   1.0000
     1.0000   1.0000   1.0000   1.0000   1.0000   1.0000   1.0000   1.0000
     1.0000   1.0000   1.0000   1.0000   1.0000   1.0000   1.0000   1.0000
     1.0000   1.0000   1.0000   1.0000   1.0000   1.0000   1.0000   1.0000
     1.0000   1.0000   1.0000   1.0000   1.0000   1.0000   1.0000   1.0000
     1.0000   1.0000   1.0000   1.0000   1.0000   1.0000   1.0000   1.0000
     1.0000   1.0000   1.0000   1.0000   1.0000   1.0000   1.0000   1.0000
     1.0000   1.0000   1.0000   1.0000   1.0000   1.0000   1.0000   1.0000
     1.0000   1.0000   1.0000   1.0000   1.0000   1.0000   1.0000   1.0000
     1.0000   1.0000   1.0000   1.0000   1.0000   1.0000   1.0000   1.0000
     1.0000   1.0000   1.0000   1.0000   1.0000   1.0000   1.0000   1.0000
[...]
     0.3523   0.3269   0.2037   0.0780   0.0455   0.0218   0.0059   0.0048
     0.0003   0.0001   0.0000   0.0000   0.0000   0.0000   0.0000   0.0000
     0.0000   0.0000   0.0000   0.0000   0.0000   0.0000   0.0000   0.0000
     0.0000   0.0000   0.0000   0.0000   0.0000   0.0000   0.0000   0.0000
     0.0000   0.0000   0.0000

          k =-0.5000 0.0000 0.0000 ( 65180 PWs)   bands (ev):

   -92.7071 -92.6575 -92.5610 -92.5152 -92.4587 -92.4137 -92.3959 -92.2749
   -56.0606 -56.0443 -55.9182 -55.9077 -55.9016 -55.8945 -55.8607 -55.8301
   -55.8145 -55.8134 -55.8079 -55.7657 -55.7460 -55.7088 -55.6874 -55.6585
   -55.6509 -55.6016 -55.6006 -55.5988 -55.5904 -55.5500 -55.5263 -55.4411
   -31.2800 -31.2685 -31.1222 -31.0371 -30.9922 -30.8899 -30.8287 -30.6783
   -29.8504 -29.8107 -29.7827 -29.6781 -15.0203 -14.9689 -14.9061 -14.7892
   -14.6941 -14.5491 -14.4061 -14.2469 -14.1377 -14.1155 -14.1116 -14.0449
   -14.0044 -13.9956 -13.9650 -13.9127 -13.8961 -13.8874 -13.8412 -13.8000
   -13.7072 -13.5608 -13.5255 -13.5001 -13.4914 -13.3861 -13.3700 -13.3063
   -13.2739 -13.2505 -13.2131 -13.0605 -13.0482 -13.0249 -13.0151 -12.9543
   -12.9535 -12.9314 -12.9144 -12.7739 -12.7382 -12.7143 -12.6965 -12.6736
   -12.6464 -12.6373 -12.5492 -12.5445 -12.3921 -12.3331 -12.2379 -12.1742
   -12.1388 -11.7827 -11.7611 -11.7540 -11.7401 -11.7212 -11.6795 -11.6180
   -11.5994 -11.5651 -11.5246 -11.5152 -11.4993  -2.5862  -2.5478  -2.3851
    -2.3451  -2.0318  -1.9566  -1.8100  -1.6906  -1.6521  -1.6066  -1.5594
    -1.5341  -1.4102  -1.3659  -1.3503  -1.3094  -1.2685  -1.2316  -1.2129
    -1.1856  -1.1241  -1.0586  -1.0312  -0.9981  -0.8956  -0.8579  -0.8091
    -0.7772  -0.7555  -0.7237  -0.6770  -0.6505  -0.6099  -0.5140  -0.4422
    -0.3742  -0.3139  -0.1381  -0.1149  -0.0606  -0.0203   0.0483   0.0537
     0.2014   0.2278   0.2624   0.4355   0.5353   0.5871   0.6702   0.7506
     0.8553   0.8759   1.0050   1.0284   1.0808   1.1095   1.1502   1.1614
     1.2117   1.2291   1.2995   1.3458   1.3906   1.4037   1.7044   1.7202
     1.7334   1.7648   1.8601   1.8670   1.8867   1.8991   1.9202   1.9378
     1.9743   1.9934   2.0252   2.0721   2.0917   2.1422   2.1654   2.2173
     2.3260   2.4218   2.4242   2.4508   2.5066   2.5169   2.5978   2.6205
     2.6534   2.7209   2.7266   2.7344   2.7638   2.8306   2.8773   2.9259
     2.9523   2.9952   2.9999   3.0007   3.0120   3.0266   3.0391   3.0525
     3.0567   3.0776   3.0807   3.1059   3.1237   3.1291   3.2589   3.2649
     4.0603   4.1246   4.1964   4.3259   4.7862   4.8637   5.0396   5.0509
     5.4808   5.5045   5.5961   5.6491   6.0281   6.0381   6.3273   6.5187
     6.7915   6.9984   7.2752   7.3130   7.3270   7.4668   7.7700   7.7992
     7.8804   8.0487   8.2433   8.3204   8.4478   8.4853   8.5302   8.6247
     8.7554   8.8066   8.9053

     occupation numbers 
     1.0000   1.0000   1.0000   1.0000   1.0000   1.0000   1.0000   1.0000
     1.0000   1.0000   1.0000   1.0000   1.0000   1.0000   1.0000   1.0000
     1.0000   1.0000   1.0000   1.0000   1.0000   1.0000   1.0000   1.0000
     1.0000   1.0000   1.0000   1.0000   1.0000   1.0000   1.0000   1.0000
     1.0000   1.0000   1.0000   1.0000   1.0000   1.0000   1.0000   1.0000
     1.0000   1.0000   1.0000   1.0000   1.0000   1.0000   1.0000   1.0000
     1.0000   1.0000   1.0000   1.0000   1.0000   1.0000   1.0000   1.0000
     1.0000   1.0000   1.0000   1.0000   1.0000   1.0000   1.0000   1.0000
     1.0000   1.0000   1.0000   1.0000   1.0000   1.0000   1.0000   1.0000
     1.0000   1.0000   1.0000   1.0000   1.0000   1.0000   1.0000   1.0000
     1.0000   1.0000   1.0000   1.0000   1.0000   1.0000   1.0000   1.0000
     1.0000   1.0000   1.0000   1.0000   1.0000   1.0000   1.0000   1.0000
     1.0000   1.0000   1.0000   1.0000   1.0000   1.0000   1.0000   1.0000
     1.0000   1.0000   1.0000   1.0000   1.0000   1.0000   1.0000   1.0000
     1.0000   1.0000   1.0000   1.0000   1.0000   1.0000   1.0000   1.0000
     1.0000   1.0000   1.0000   1.0000   1.0000   1.0000   1.0000   1.0000
     1.0000   1.0000   1.0000   1.0000   1.0000   1.0000   1.0000   1.0000
     1.0000   1.0000   1.0000   1.0000   1.0000   1.0000   1.0000   1.0000
     1.0000   1.0000   1.0000   1.0000   1.0000   1.0000   1.0000   1.0000
     1.0000   1.0000   1.0000   1.0000   1.0000   1.0000   1.0000   0.9999
     0.9999   0.9999   0.9997   0.9997   0.9996   0.9995   0.9994   0.9993
     0.9991   0.9991   0.9987   0.9983   0.9979   0.9978   0.9918   0.9913
     0.9908   0.9896   0.9850   0.9846   0.9834   0.9826   0.9812   0.9800
     0.9772   0.9756   0.9728   0.9681   0.9660   0.9599   0.9569   0.9493
     0.9302   0.9090   0.9084   0.9018   0.8866   0.8837   0.8585   0.8508
     0.8391   0.8134   0.8112   0.8080   0.7959   0.7666   0.7449   0.7211
     0.7078   0.6856   0.6831   0.6827   0.6767   0.6689   0.6621   0.6548
     0.6525   0.6410   0.6393   0.6251   0.6151   0.6120   0.5366   0.5331
     0.1361   0.1163   0.0968   0.0678   0.0148   0.0110   0.0054   0.0051
     0.0007   0.0006   0.0004   0.0003   0.0000   0.0000   0.0000   0.0000
     0.0000   0.0000   0.0000   0.0000   0.0000   0.0000   0.0000   0.0000
     0.0000   0.0000   0.0000   0.0000   0.0000   0.0000   0.0000   0.0000
     0.0000   0.0000   0.0000

          k =-0.2500 0.2500 0.0000 ( 65198 PWs)   bands (ev):

   -92.7071 -92.6575 -92.5610 -92.5152 -92.4587 -92.4137 -92.3959 -92.2749
   -56.0606 -56.0443 -55.9182 -55.9077 -55.9016 -55.8945 -55.8607 -55.8301
   -55.8145 -55.8134 -55.8079 -55.7657 -55.7460 -55.7088 -55.6874 -55.6585
   -55.6509 -55.6016 -55.6006 -55.5988 -55.5904 -55.5500 -55.5263 -55.4411
   -31.2820 -31.2662 -31.1228 -31.0369 -30.9923 -30.8895 -30.8291 -30.6782
   -29.8508 -29.8094 -29.7837 -29.6780 -15.0231 -14.9804 -14.9058 -14.7902
   -14.6738 -14.5491 -14.4658 -14.2510 -14.1187 -14.0905 -14.0718 -14.0291
   -14.0119 -13.9934 -13.9859 -13.9577 -13.9017 -13.8378 -13.8232 -13.6773
   -13.6485 -13.6187 -13.6002 -13.5466 -13.5015 -13.4412 -13.4030 -13.2769
   -13.2470 -13.2264 -13.1516 -13.1076 -13.0458 -13.0131 -12.9934 -12.9612
   -12.9383 -12.9332 -12.8654 -12.8038 -12.7886 -12.7749 -12.7203 -12.6984
   -12.6772 -12.6250 -12.5487 -12.4509 -12.4481 -12.4058 -12.2889 -12.1063
   -12.0321 -11.8025 -11.7813 -11.7542 -11.7420 -11.7004 -11.6659 -11.6429
   -11.6214 -11.5989 -11.5165 -11.4704 -11.4612  -2.6710  -2.4635  -2.3422
    -2.2532  -2.1356  -2.0698  -1.8661  -1.7213  -1.7033  -1.6733  -1.5811
    -1.5466  -1.4535  -1.4184  -1.3928  -1.3037  -1.2495  -1.1899  -1.1237
    -1.0964  -1.0361  -1.0134  -0.9744  -0.9462  -0.9060  -0.8409  -0.7939
    -0.7286  -0.6628  -0.6347  -0.5860  -0.5557  -0.5114  -0.4544  -0.4062
    -0.3699  -0.2664  -0.2357  -0.2215  -0.1793  -0.1139  -0.0261   0.0037
     0.0362   0.1143   0.1319   0.3877   0.5612   0.5989   0.6434   0.7019
     0.7494   0.8056   0.8794   0.8979   1.1802   1.2912   1.3285   1.3618
     1.3664   1.4082   1.4247   1.4723   1.5029   1.5148   1.5416   1.5896
     1.6050   1.6450   1.6638   1.7088   1.8066   1.8206   1.8402   1.8809
     1.9042   1.9450   1.9950   2.1019   2.2071   2.2297   2.2777   2.2972
     2.3645   2.4020   2.4235   2.4306   2.4390   2.4642   2.4847   2.5801
     2.6155   2.7037   2.8775   2.8866   2.8998   2.9099   2.9207   2.9346
     2.9426   2.9604   2.9681   2.9825   2.9926   3.0041   3.0133   3.0202
     3.0544   3.0650   3.0726   3.1070   3.3985   3.4802   3.5461   3.6212
     3.6462   3.8377   3.9572   4.3038   4.5078   4.7133   4.9902   5.1606
     5.6459   5.6970   5.7686   5.8283   5.8915   6.1246   6.1671   6.1952
     6.8927   6.9646   7.1131   7.3212   7.5596   7.6076   7.6667   7.8727
     7.9286   8.0568   8.2063   8.2891   8.3481   8.3834   8.4439   8.4991
     8.5786   8.7422   8.9334

     occupation numbers 
     1.0000   1.0000   1.0000   1.0000   1.0000   1.0000   1.0000   1.0000
     1.0000   1.0000   1.0000   1.0000   1.0000   1.0000   1.0000   1.0000
     1.0000   1.0000   1.0000   1.0000   1.0000   1.0000   1.0000   1.0000
     1.0000   1.0000   1.0000   1.0000   1.0000   1.0000   1.0000   1.0000
     1.0000   1.0000   1.0000   1.0000   1.0000   1.0000   1.0000   1.0000
     1.0000   1.0000   1.0000   1.0000   1.0000   1.0000   1.0000   1.0000
     1.0000   1.0000   1.0000   1.0000   1.0000   1.0000   1.0000   1.0000
     1.0000   1.0000   1.0000   1.0000   1.0000   1.0000   1.0000   1.0000
     1.0000   1.0000   1.0000   1.0000   1.0000   1.0000   1.0000   1.0000
     1.0000   1.0000   1.0000   1.0000   1.0000   1.0000   1.0000   1.0000
     1.0000   1.0000   1.0000   1.0000   1.0000   1.0000   1.0000   1.0000
     1.0000   1.0000   1.0000   1.0000   1.0000   1.0000   1.0000   1.0000
     1.0000   1.0000   1.0000   1.0000   1.0000   1.0000   1.0000   1.0000
     1.0000   1.0000   1.0000   1.0000   1.0000   1.0000   1.0000   1.0000
     1.0000   1.0000   1.0000   1.0000   1.0000   1.0000   1.0000   1.0000
     1.0000   1.0000   1.0000   1.0000   1.0000   1.0000   1.0000   1.0000
     1.0000   1.0000   1.0000   1.0000   1.0000   1.0000   1.0000   1.0000
     1.0000   1.0000   1.0000   1.0000   1.0000   1.0000   1.0000   1.0000
     1.0000   1.0000   1.0000   1.0000   1.0000   1.0000   1.0000   1.0000
     1.0000   1.0000   1.0000   1.0000   1.0000   1.0000   1.0000   0.9999
     0.9999   0.9999   0.9999   0.9998   0.9993   0.9987   0.9985   0.9982
     0.9981   0.9977   0.9976   0.9970   0.9965   0.9963   0.9959   0.9949
     0.9946   0.9936   0.9931   0.9917   0.9877   0.9870   0.9860   0.9837
     0.9823   0.9795   0.9755   0.9648   0.9509   0.9474   0.9393   0.9357
     0.9222   0.9138   0.9086   0.9069   0.9048   0.8983   0.8928   0.8643
     0.8525   0.8202   0.7448   0.7404   0.7340   0.7291   0.7237   0.7168
     0.7128   0.7037   0.6998   0.6922   0.6869   0.6809   0.6760   0.6723
     0.6537   0.6479   0.6438   0.6245   0.4540   0.4064   0.3689   0.3277
     0.3145   0.2213   0.1723   0.0722   0.0390   0.0193   0.0066   0.0031
     0.0003   0.0002   0.0001   0.0001   0.0001   0.0000   0.0000   0.0000
     0.0000   0.0000   0.0000   0.0000   0.0000   0.0000   0.0000   0.0000
     0.0000   0.0000   0.0000   0.0000   0.0000   0.0000   0.0000   0.0000
     0.0000   0.0000   0.0000

          k =-0.5000 0.2500 0.0000 ( 65138 PWs)   bands (ev):

   -92.7071 -92.6575 -92.5610 -92.5152 -92.4587 -92.4137 -92.3959 -92.2749
   -56.0606 -56.0443 -55.9182 -55.9077 -55.9016 -55.8945 -55.8607 -55.8301
   -55.8145 -55.8134 -55.8079 -55.7657 -55.7460 -55.7088 -55.6874 -55.6585
   -55.6509 -55.6016 -55.6006 -55.5988 -55.5904 -55.5500 -55.5263 -55.4411
   -31.2798 -31.2684 -31.1224 -31.0373 -30.9921 -30.8894 -30.8293 -30.6784
   -29.8498 -29.8104 -29.7833 -29.6784 -14.9876 -14.9426 -14.8636 -14.7575
   -14.7203 -14.5962 -14.5065 -14.3668 -14.0693 -14.0374 -14.0247 -14.0064
   -13.9837 -13.9551 -13.9373 -13.8992 -13.8776 -13.8687 -13.8283 -13.8007
   -13.7010 -13.6430 -13.5939 -13.5883 -13.5686 -13.4750 -13.4271 -13.3337
   -13.2756 -13.2065 -13.1692 -13.0722 -13.0327 -13.0218 -12.9925 -12.9608
   -12.9461 -12.9300 -12.8851 -12.7944 -12.7668 -12.7367 -12.6726 -12.6487
   -12.6287 -12.6211 -12.5512 -12.5415 -12.3880 -12.3284 -12.2410 -12.1496
   -12.1284 -11.7755 -11.7629 -11.7484 -11.7362 -11.7149 -11.6843 -11.6038
   -11.5965 -11.5712 -11.5391 -11.5108 -11.5018  -2.4436  -2.4021  -2.2548
    -2.2116  -2.0510  -1.9752  -1.8341  -1.6966  -1.6408  -1.6139  -1.5753
    -1.5367  -1.4557  -1.3398  -1.3065  -1.2830  -1.2593  -1.2326  -1.1548
    -1.1278  -1.0883  -1.0721  -1.0121  -0.9804  -0.9432  -0.9074  -0.8793
    -0.8204  -0.7923  -0.7486  -0.7167  -0.6126  -0.5842  -0.4953  -0.4348
    -0.4054  -0.3464  -0.2637  -0.2265  -0.1276  -0.0805  -0.0312   0.0274
     0.0478   0.1210   0.1447   0.1761   0.2261   0.2698   0.5864   0.6630
     0.7112   0.7287   1.0197   1.0732   1.1498   1.1723   1.3482   1.3831
     1.4215   1.4327   1.4510   1.4690   1.5375   1.5850   1.6259   1.6536
     1.7895   1.8241   1.8425   1.8552   1.8994   1.9214   1.9378   1.9510
     1.9672   1.9928   2.0379   2.0479   2.0854   2.1086   2.1433   2.1948
     2.3172   2.4147   2.4216   2.4331   2.4611   2.5192   2.5480   2.6138
     2.6490   2.6546   2.6934   2.7243   2.7485   2.8304   2.8749   2.8872
     2.8928   2.9142   2.9354   2.9482   2.9633   2.9777   2.9990   3.0104
     3.0211   3.0287   3.0381   3.0500   3.5782   3.6293   3.7695   3.7914
     4.0678   4.1492   4.2000   4.4063   4.7805   4.8816   5.0360   5.0774
     5.4025   5.4265   5.5858   5.6238   5.7426   5.7892   6.3872   6.4280
     6.4964   6.6457   7.3186   7.3376   7.5791   7.7115   7.7912   7.8844
     7.9657   8.0295   8.3590   8.4541   8.5025   8.5546   8.5676   8.5820
     8.6631   8.7416   8.7808

     occupation numbers 
     1.0000   1.0000   1.0000   1.0000   1.0000   1.0000   1.0000   1.0000
     1.0000   1.0000   1.0000   1.0000   1.0000   1.0000   1.0000   1.0000
     1.0000   1.0000   1.0000   1.0000   1.0000   1.0000   1.0000   1.0000
     1.0000   1.0000   1.0000   1.0000   1.0000   1.0000   1.0000   1.0000
     1.0000   1.0000   1.0000   1.0000   1.0000   1.0000   1.0000   1.0000
     1.0000   1.0000   1.0000   1.0000   1.0000   1.0000   1.0000   1.0000
     1.0000   1.0000   1.0000   1.0000   1.0000   1.0000   1.0000   1.0000
     1.0000   1.0000   1.0000   1.0000   1.0000   1.0000   1.0000   1.0000
     1.0000   1.0000   1.0000   1.0000   1.0000   1.0000   1.0000   1.0000
     1.0000   1.0000   1.0000   1.0000   1.0000   1.0000   1.0000   1.0000
     1.0000   1.0000   1.0000   1.0000   1.0000   1.0000   1.0000   1.0000
     1.0000   1.0000   1.0000   1.0000   1.0000   1.0000   1.0000   1.0000
     1.0000   1.0000   1.0000   1.0000   1.0000   1.0000   1.0000   1.0000
     1.0000   1.0000   1.0000   1.0000   1.0000   1.0000   1.0000   1.0000
     1.0000   1.0000   1.0000   1.0000   1.0000   1.0000   1.0000   1.0000
     1.0000   1.0000   1.0000   1.0000   1.0000   1.0000   1.0000   1.0000
     1.0000   1.0000   1.0000   1.0000   1.0000   1.0000   1.0000   1.0000
     1.0000   1.0000   1.0000   1.0000   1.0000   1.0000   1.0000   1.0000
     1.0000   1.0000   1.0000   1.0000   1.0000   1.0000   1.0000   1.0000
     1.0000   1.0000   1.0000   1.0000   1.0000   1.0000   1.0000   1.0000
     0.9999   0.9999   0.9997   0.9996   0.9994   0.9993   0.9983   0.9980
     0.9976   0.9975   0.9973   0.9970   0.9960   0.9950   0.9941   0.9933
     0.9885   0.9869   0.9859   0.9852   0.9826   0.9811   0.9800   0.9790
     0.9778   0.9757   0.9716   0.9706   0.9667   0.9641   0.9598   0.9527
     0.9319   0.9108   0.9091   0.9063   0.8991   0.8830   0.8744   0.8531
     0.8407   0.8387   0.8242   0.8121   0.8023   0.7667   0.7460   0.7401
     0.7374   0.7270   0.7164   0.7100   0.7022   0.6947   0.6836   0.6775
     0.6718   0.6677   0.6626   0.6562   0.3511   0.3234   0.2526   0.2423
     0.1337   0.1093   0.0958   0.0535   0.0151   0.0102   0.0054   0.0045
     0.0010   0.0009   0.0004   0.0003   0.0002   0.0001   0.0000   0.0000
     0.0000   0.0000   0.0000   0.0000   0.0000   0.0000   0.0000   0.0000
     0.0000   0.0000   0.0000   0.0000   0.0000   0.0000   0.0000   0.0000
     0.0000   0.0000   0.0000

     the Fermi energy is     3.3207 ev

!    total energy              =   -4441.67517406 Ry
     estimated scf accuracy    <          7.2E-09 Ry
     smearing contrib. (-TS)   =      -1.15454733 Ry
     internal energy E=F+TS    =   -4440.52062673 Ry

     The total energy is F=E-TS. E is the sum of the following terms:
     one-electron contribution =  -20804.13221640 Ry
     hartree contribution      =   10534.00018880 Ry
     xc contribution           =    -694.19382102 Ry
     ewald contribution        =    6799.97236910 Ry
     one-center paw contrib.   =    -276.16714720 Ry
      -> PAW hartree energy AE =      25.12528845 Ry
      -> PAW hartree energy PS =     -25.00957990 Ry
      -> PAW xc energy AE      =     -16.51213380 Ry
      -> PAW xc energy PS      =       6.87134465 Ry
      -> total E_H with PAW    =   10534.11589735 Ry
      -> total E_XC with PAW   =    -703.83461017 Ry

     convergence has been achieved in  50 iterations

     Writing all to output data dir /bsuhome/zayahcortright/scratch/pwscf.save/
 
     init_run     :      8.08s CPU      8.65s WALL (       1 calls)
     electrons    :    804.51s CPU    883.11s WALL (       1 calls)

     Called by init_run:
     wfcinit      :      6.37s CPU      6.56s WALL (       1 calls)
     wfcinit:atom :      0.05s CPU      0.07s WALL (       5 calls)
     wfcinit:wfcr :      6.05s CPU      6.18s WALL (       5 calls)
     potinit      :      0.23s CPU      0.25s WALL (       1 calls)
     hinit0       :      0.59s CPU      0.70s WALL (       1 calls)

     Called by electrons:
     c_bands      :    644.82s CPU    657.20s WALL (      50 calls)
     sum_band     :    119.11s CPU    154.96s WALL (      50 calls)
     v_of_rho     :      5.45s CPU      5.83s WALL (      51 calls)
     v_h          :      0.46s CPU      0.47s WALL (      51 calls)
     v_xc         :      4.99s CPU      5.37s WALL (      51 calls)
     newd         :     19.52s CPU     49.03s WALL (      51 calls)
     PAW_pot      :      1.76s CPU      1.78s WALL (      51 calls)
     mix_rho      :     13.48s CPU     13.86s WALL (      50 calls)

     Called by c_bands:
     init_us_2    :      6.22s CPU      6.32s WALL (     505 calls)
     init_us_2:cp :      6.22s CPU      6.32s WALL (     505 calls)
     cegterg      :    610.23s CPU    622.25s WALL (     250 calls)

     Called by sum_band:
     sum_band:wei :      0.37s CPU      0.37s WALL (      50 calls)
     sum_band:loo :     93.83s CPU     94.54s WALL (      50 calls)
     sum_band:buf :      1.23s CPU      1.29s WALL (     250 calls)
     sum_band:ini :      2.62s CPU      2.63s WALL (     250 calls)
     sum_band:cal :     19.38s CPU     19.44s WALL (     250 calls)
     sum_band:bec :      0.58s CPU      0.60s WALL (     250 calls)
     addusdens    :     19.23s CPU     54.30s WALL (      50 calls)
                                        0.00s GPU  (      50 calls)
     addusd:skk   :      0.31s CPU      1.86s WALL (     200 calls)
                                        0.00s GPU  (     200 calls)

     Called by *egterg:
     cdiaghg      :     64.97s CPU     65.26s WALL (    1413 calls)
     cegterg:over :     49.16s CPU     49.39s WALL (    1163 calls)
     cegterg:upda :     50.07s CPU     51.19s WALL (    1163 calls)
     cegterg:last :     72.23s CPU     72.54s WALL (     460 calls)
     cdiaghg:chol :      3.60s CPU      3.63s WALL (    1413 calls)
     cdiaghg:inve :      3.97s CPU      3.99s WALL (    1413 calls)
     cdiaghg:para :      8.41s CPU      8.47s WALL (    2826 calls)
     h_psi        :    307.43s CPU    312.24s WALL (    1418 calls)
     s_psi        :     40.54s CPU     40.68s WALL (    1418 calls)
     g_psi        :      2.60s CPU      2.61s WALL (    1163 calls)

     Called by h_psi:
     h_psi:calbec :     46.88s CPU     47.13s WALL (    1418 calls)
     vloc_psi     :    214.98s CPU    216.98s WALL (    1418 calls)
     add_vuspsi   :     40.08s CPU     40.31s WALL (    1418 calls)

     General routines
     calbec       :     66.25s CPU     66.56s WALL (    1668 calls)
     fft          :      6.50s CPU      6.56s WALL (     661 calls)
     ffts         :      5.13s CPU      5.18s WALL (    5472 calls)
     fftw         :    197.27s CPU    198.90s WALL (  338414 calls)
     interpolate  :      0.42s CPU      0.43s WALL (      51 calls)
 
     Parallel routines

     PAW routines
     PAW_pot      :      1.76s CPU      1.78s WALL (      51 calls)
 
     PWSCF        :  13m34.17s CPU  14m58.09s WALL

 
   This run was terminated on:   1:21:20  22Jun2024            

=------------------------------------------------------------------------------=
   JOB DONE.
=------------------------------------------------------------------------------=
