
     Program PWSCF v.7.2 starts on 22Jun2024 at  5:27:27 

     This program is part of the open-source Quantum ESPRESSO suite
     for quantum simulation of materials; please cite
         "P. Giannozzi et al., J. Phys.:Condens. Matter 21 395502 (2009);
         "P. Giannozzi et al., J. Phys.:Condens. Matter 29 465901 (2017);
         "P. Giannozzi et al., J. Chem. Phys. 152 154105 (2020);
          URL http://www.quantum-espresso.org", 
     in publications or presentations arising from this work. More details at
     http://www.quantum-espresso.org/quote

     Parallel version (MPI & OpenMP), running on      48 processor cores
     Number of MPI processes:                48
     Threads/MPI process:                     1

     MPI processes distributed on     1 nodes
     33215 MiB available memory on the printing compute node when the environment starts
 
     Reading input from espresso.pwi
Warning: card &CELL ignored
Warning: card / ignored
Warning: card &FCP ignored
Warning: card / ignored
Warning: card &RISM ignored
Warning: card / ignored

     Current dimensions of program PWSCF are:
     Max number of different atomic species (ntypx) = 10
     Max number of k-points (npk) =  40000
     Max angular momentum in pseudopotentials (lmaxx) =  4
     file O.pbe-n-kjpaw_psl.0.1.UPF: wavefunction(s)  2P renormalized
     signal trapping enabled: kill the code with -SIGUSR1 to stop cleanly the simulation 
 
     K-points division:     npool     =       2
     R & G space division:  proc/nbgrp/npool/nimage =      24
     Subspace diagonalization in iterative solution of the eigenvalue problem:
     one sub-group per band group will be used
     scalapack distributed-memory algorithm (size of sub-group:  3*  3 procs)

 
     Parallelization info
     --------------------
     sticks:   dense  smooth     PW     G-vecs:    dense   smooth      PW
     Min         350     175     47                61430    21716    3036
     Max         351     177     48                61449    21727    3041
     Sum        8421    4205   1137              1474595   521381   72913
 
     Using Slab Decomposition
 


     bravais-lattice index     =            0
     lattice parameter (alat)  =      14.8599  a.u.
     unit-cell volume          =    8305.1283 (a.u.)^3
     number of atoms/cell      =           50
     number of atomic types    =            4
     number of electrons       =       431.00
     number of Kohn-Sham states=          259
     kinetic-energy cutoff     =      60.0000  Ry
     charge density cutoff     =     480.0000  Ry
     scf convergence threshold =      1.0E-08
     mixing beta               =       0.1500
     number of iterations used =            8  local-TF  mixing
     Exchange-correlation= PBE
                           (   1   4   3   4   0   0   0)

     celldm(1)=  14.859904  celldm(2)=   0.000000  celldm(3)=   0.000000
     celldm(4)=   0.000000  celldm(5)=   0.000000  celldm(6)=   0.000000

     crystal axes: (cart. coord. in units of alat)
               a(1) = (   1.000000   0.000000   0.000000 )  
               a(2) = (   0.000000   1.000000   0.000000 )  
               a(3) = (   0.000000   0.000000   2.531036 )  

     reciprocal axes: (cart. coord. in units 2 pi/alat)
               b(1) = (  1.000000  0.000000  0.000000 )  
               b(2) = (  0.000000  1.000000  0.000000 )  
               b(3) = (  0.000000  0.000000  0.395095 )  


     PseudoPot. # 1 for Sr read from file:
     /bsuhome/zayahcortright/q-e/pseudo/Sr_pbe_v1.uspp.F.UPF
     MD5 check sum: 6b418c05fbe9db5448babca5e47b7a5b
     Pseudo is Ultrasoft + core correction, Zval = 10.0
     Generated by new atomic code, or converted to UPF format
     Using radial grid of  883 points,  6 beta functions with: 
                l(1) =   0
                l(2) =   0
                l(3) =   1
                l(4) =   1
                l(5) =   2
                l(6) =   2
     Q(r) pseudized with  6 coefficients,  rinner =    1.400   1.400   1.400
                                                       1.400   1.400

     PseudoPot. # 2 for O  read from file:
     /bsuhome/zayahcortright/q-e/pseudo/O.pbe-n-kjpaw_psl.0.1.UPF
     MD5 check sum: 0234752ac141de4415c5fc33072bef88
     Pseudo is Projector augmented-wave + core cor, Zval =  6.0
     Generated using "atomic" code by A. Dal Corso  v.5.0.99 svn rev. 10869
     Shape of augmentation charge: BESSEL
     Using radial grid of 1095 points,  4 beta functions with: 
                l(1) =   0
                l(2) =   0
                l(3) =   1
                l(4) =   1
     Q(r) pseudized with 0 coefficients 


     PseudoPot. # 3 for Co read from file:
     /bsuhome/zayahcortright/q-e/pseudo/Co_pbe_v1.2.uspp.F.UPF
     MD5 check sum: 5f91765df6ddd3222702df6e7b74a16d
     Pseudo is Ultrasoft + core correction, Zval = 17.0
     Generated by new atomic code, or converted to UPF format
     Using radial grid of  863 points,  6 beta functions with: 
                l(1) =   0
                l(2) =   0
                l(3) =   1
                l(4) =   1
                l(5) =   2
                l(6) =   2
     Q(r) pseudized with  8 coefficients,  rinner =    1.200   1.200   1.200
                                                       1.200   1.200

     PseudoPot. # 4 for H  read from file:
     /bsuhome/zayahcortright/q-e/pseudo/H.pbe-rrkjus_psl.1.0.0.UPF
     MD5 check sum: f52b6d4d1c606e5624b1dc7b2218f220
     Pseudo is Ultrasoft, Zval =  1.0
     Generated using "atomic" code by A. Dal Corso  v.5.1
     Using radial grid of  929 points,  2 beta functions with: 
                l(1) =   0
                l(2) =   0
     Q(r) pseudized with 0 coefficients 


     atomic species   valence    mass     pseudopotential
        Sr            10.00    87.62000     Sr( 1.00)
        O              6.00    15.99900     O ( 1.00)
        Co            17.00    58.93319     Co( 1.00)
        H              1.00     1.00800     H ( 1.00)

     No symmetry found


                                    s                        frac. trans.

      isym =  1     identity                                     

 cryst.   s( 1) = (     1          0          0      )
                  (     0          1          0      )
                  (     0          0          1      )

 cart.    s( 1) = (  1.0000000  0.0000000  0.0000000 )
                  (  0.0000000  1.0000000  0.0000000 )
                  (  0.0000000  0.0000000  1.0000000 )


   Cartesian axes

     site n.     atom                  positions (alat units)
         1           Sr  tau(   1) = (   0.2508693   0.7491307   1.7574407  )
         2           O   tau(   2) = (   0.4985141   0.5014859   1.7715967  )
         3           Sr  tau(   3) = (   0.7482398   0.7454518   1.7648669  )
         4           Sr  tau(   4) = (   0.7441748   0.2558252   1.7667843  )
         5           Sr  tau(   5) = (   0.2508693   0.7491307   1.2696799  )
         6           Sr  tau(   6) = (   0.2508693   0.7491307   0.7632319  )
         7           Co  tau(   7) = (   0.4998914   0.5001086   1.0164559  )
         8           Co  tau(   8) = (   0.4936915   0.5063085   1.5135603  )
         9           O   tau(   9) = (   0.4988895   0.7610401   1.0164559  )
        10           O   tau(  10) = (   0.2389599   0.5011105   1.0164559  )
        11           O   tau(  11) = (   0.0070918   0.7374880   1.0164559  )
        12           O   tau(  12) = (   0.0088340   0.7405089   1.5135603  )
        13           O   tau(  13) = (   0.5066944   0.7415376   1.5135603  )
        14           O   tau(  14) = (   0.2584624   0.4933056   1.5135603  )
        15           O   tau(  15) = (   0.4985141   0.5014859   0.7773880  )
        16           O   tau(  16) = (   0.4985141   0.5014859   1.2555238  )
        17           Sr  tau(  17) = (   0.7482398   0.7454518   0.7706582  )
        18           Sr  tau(  18) = (   0.7482398   0.7454518   1.2622536  )
        19           Sr  tau(  19) = (   0.7441748   0.2558252   0.7725755  )
        20           Sr  tau(  20) = (   0.7441748   0.2558252   1.2603363  )
        21           O   tau(  21) = (   0.7322655   0.0078049   1.5135603  )
        22           O   tau(  22) = (   0.7558175   0.4996027   1.5135603  )
        23           O   tau(  23) = (   0.5003973   0.2441825   1.5135603  )
        24           O   tau(  24) = (   0.7527966   0.4978604   1.0164559  )
        25           O   tau(  25) = (   0.5021396   0.2472034   1.0164559  )
        26           O   tau(  26) = (   0.7517679   0.0000000   1.0164559  )
        27           O   tau(  27) = (   0.0114961   0.4948124   1.7455321  )
        28           O   tau(  28) = (   0.0048226   0.0077944   1.7715967  )
        29           Sr  tau(  29) = (   0.2545482   0.2517602   1.7648669  )
        30           O   tau(  30) = (   0.5048017   0.0015068   1.7786929  )
        31           Co  tau(  31) = (   0.0056869   0.5006215   1.0164559  )
        32           Co  tau(  32) = (   0.0065315   0.4997770   1.5135603  )
        33           Co  tau(  33) = (   0.0061999   0.0064171   1.0164559  )
        34           Co  tau(  34) = (   0.0000000   0.0126169   1.5135603  )
        35           O   tau(  35) = (   0.0114961   0.4948124   1.2815885  )
        36           O   tau(  36) = (   0.0114961   0.4948124   0.7513233  )
        37           O   tau(  37) = (   0.0051979   0.2673486   1.0164559  )
        38           O   tau(  38) = (   0.0130029   0.2478461   1.5135603  )
        39           O   tau(  39) = (   0.0048226   0.0077944   0.7773880  )
        40           O   tau(  40) = (   0.0048226   0.0077944   1.2555238  )
        41           Sr  tau(  41) = (   0.2545482   0.2517602   0.7706582  )
        42           Sr  tau(  42) = (   0.2545482   0.2517602   1.2622536  )
        43           Co  tau(  43) = (   0.4989925   0.0073160   1.5135603  )
        44           Co  tau(  44) = (   0.4998370   0.0064714   1.0164559  )
        45           O   tau(  45) = (   0.5048017   0.0015068   0.7844841  )
        46           O   tau(  46) = (   0.5048017   0.0015068   1.2484277  )
        47           O   tau(  47) = (   0.2621260   0.0059111   1.5135603  )
        48           O   tau(  48) = (   0.2591051   0.0041689   1.0164559  )
        49           O   tau(  49) = (   0.9951520   0.9951520   2.1602013  )
        50           H   tau(  50) = (   0.9951520   0.9951520   2.2847091  )

   Crystallographic axes

     site n.     atom                  positions (cryst. coord.)
         1           Sr  tau(   1) = (  0.2508693  0.7491307  0.6943562  )
         2           O   tau(   2) = (  0.4985141  0.5014859  0.6999492  )
         3           Sr  tau(   3) = (  0.7482398  0.7454518  0.6972903  )
         4           Sr  tau(   4) = (  0.7441748  0.2558252  0.6980478  )
         5           Sr  tau(   5) = (  0.2508693  0.7491307  0.5016443  )
         6           Sr  tau(   6) = (  0.2508693  0.7491307  0.3015492  )
         7           Co  tau(   7) = (  0.4998914  0.5001086  0.4015968  )
         8           Co  tau(   8) = (  0.4936915  0.5063085  0.5980003  )
         9           O   tau(   9) = (  0.4988895  0.7610401  0.4015968  )
        10           O   tau(  10) = (  0.2389599  0.5011105  0.4015968  )
        11           O   tau(  11) = (  0.0070918  0.7374880  0.4015968  )
        12           O   tau(  12) = (  0.0088340  0.7405089  0.5980003  )
        13           O   tau(  13) = (  0.5066944  0.7415376  0.5980003  )
        14           O   tau(  14) = (  0.2584624  0.4933056  0.5980003  )
        15           O   tau(  15) = (  0.4985141  0.5014859  0.3071422  )
        16           O   tau(  16) = (  0.4985141  0.5014859  0.4960513  )
        17           Sr  tau(  17) = (  0.7482398  0.7454518  0.3044833  )
        18           Sr  tau(  18) = (  0.7482398  0.7454518  0.4987103  )
        19           Sr  tau(  19) = (  0.7441748  0.2558252  0.3052408  )
        20           Sr  tau(  20) = (  0.7441748  0.2558252  0.4979527  )
        21           O   tau(  21) = (  0.7322655  0.0078049  0.5980003  )
        22           O   tau(  22) = (  0.7558175  0.4996027  0.5980003  )
        23           O   tau(  23) = (  0.5003973  0.2441825  0.5980003  )
        24           O   tau(  24) = (  0.7527966  0.4978604  0.4015968  )
        25           O   tau(  25) = (  0.5021396  0.2472034  0.4015968  )
        26           O   tau(  26) = (  0.7517679  0.0000000  0.4015968  )
        27           O   tau(  27) = (  0.0114961  0.4948124  0.6896512  )
        28           O   tau(  28) = (  0.0048226  0.0077944  0.6999492  )
        29           Sr  tau(  29) = (  0.2545482  0.2517602  0.6972903  )
        30           O   tau(  30) = (  0.5048017  0.0015068  0.7027529  )
        31           Co  tau(  31) = (  0.0056869  0.5006215  0.4015968  )
        32           Co  tau(  32) = (  0.0065315  0.4997770  0.5980003  )
        33           Co  tau(  33) = (  0.0061999  0.0064171  0.4015968  )
        34           Co  tau(  34) = (  0.0000000  0.0126169  0.5980003  )
        35           O   tau(  35) = (  0.0114961  0.4948124  0.5063494  )
        36           O   tau(  36) = (  0.0114961  0.4948124  0.2968442  )
        37           O   tau(  37) = (  0.0051979  0.2673486  0.4015968  )
        38           O   tau(  38) = (  0.0130029  0.2478461  0.5980003  )
        39           O   tau(  39) = (  0.0048226  0.0077944  0.3071422  )
        40           O   tau(  40) = (  0.0048226  0.0077944  0.4960513  )
        41           Sr  tau(  41) = (  0.2545482  0.2517602  0.3044833  )
        42           Sr  tau(  42) = (  0.2545482  0.2517602  0.4987103  )
        43           Co  tau(  43) = (  0.4989925  0.0073160  0.5980003  )
        44           Co  tau(  44) = (  0.4998370  0.0064714  0.4015968  )
        45           O   tau(  45) = (  0.5048017  0.0015068  0.3099459  )
        46           O   tau(  46) = (  0.5048017  0.0015068  0.4932477  )
        47           O   tau(  47) = (  0.2621260  0.0059111  0.5980003  )
        48           O   tau(  48) = (  0.2591051  0.0041689  0.4015968  )
        49           O   tau(  49) = (  0.9951520  0.9951520  0.8534850  )
        50           H   tau(  50) = (  0.9951520  0.9951520  0.9026774  )

     number of k points=    10  Gaussian smearing, width (Ry)=  0.0700
                       cart. coord. in units 2pi/alat
        k(    1) = (   0.0000000   0.0000000   0.0000000), wk =   0.1250000
        k(    2) = (   0.0000000   0.2500000   0.0000000), wk =   0.2500000
        k(    3) = (   0.0000000  -0.5000000   0.0000000), wk =   0.1250000
        k(    4) = (   0.2500000   0.2500000   0.0000000), wk =   0.2500000
        k(    5) = (   0.2500000  -0.5000000   0.0000000), wk =   0.2500000
        k(    6) = (  -0.5000000  -0.5000000   0.0000000), wk =   0.1250000
        k(    7) = (   0.2500000   0.0000000   0.0000000), wk =   0.2500000
        k(    8) = (  -0.5000000   0.0000000   0.0000000), wk =   0.1250000
        k(    9) = (  -0.2500000   0.2500000   0.0000000), wk =   0.2500000
        k(   10) = (  -0.5000000   0.2500000   0.0000000), wk =   0.2500000

                       cryst. coord.
        k(    1) = (   0.0000000   0.0000000   0.0000000), wk =   0.1250000
        k(    2) = (   0.0000000   0.2500000   0.0000000), wk =   0.2500000
        k(    3) = (   0.0000000  -0.5000000   0.0000000), wk =   0.1250000
        k(    4) = (   0.2500000   0.2500000   0.0000000), wk =   0.2500000
        k(    5) = (   0.2500000  -0.5000000   0.0000000), wk =   0.2500000
        k(    6) = (  -0.5000000  -0.5000000   0.0000000), wk =   0.1250000
        k(    7) = (   0.2500000   0.0000000   0.0000000), wk =   0.2500000
        k(    8) = (  -0.5000000   0.0000000   0.0000000), wk =   0.1250000
        k(    9) = (  -0.2500000   0.2500000   0.0000000), wk =   0.2500000
        k(   10) = (  -0.5000000   0.2500000   0.0000000), wk =   0.2500000

     Dense  grid:  1474595 G-vectors     FFT dimensions: ( 108, 108, 270)

     Smooth grid:   521381 G-vectors     FFT dimensions: (  75,  75, 192)

     Dynamical RAM for                 wfc:      10.73 MB

     Dynamical RAM for     wfc (w. buffer):      64.38 MB

     Dynamical RAM for           str. fact:       3.75 MB

     Dynamical RAM for           local pot:       0.00 MB

     Dynamical RAM for          nlocal pot:      24.61 MB

     Dynamical RAM for                qrad:       7.03 MB

     Dynamical RAM for          rho,v,vnew:       6.02 MB

     Dynamical RAM for               rhoin:       2.01 MB

     Dynamical RAM for            rho*nmix:      15.00 MB

     Dynamical RAM for           G-vectors:       3.68 MB

     Dynamical RAM for          h,s,v(r/c):       1.35 MB

     Dynamical RAM for          <psi|beta>:       2.35 MB

     Dynamical RAM for                 psi:      21.46 MB

     Dynamical RAM for                hpsi:      21.46 MB

     Dynamical RAM for                spsi:      21.46 MB

     Dynamical RAM for      wfcinit/wfcrot:      34.49 MB

     Dynamical RAM for           addusdens:     101.26 MB

     Estimated static dynamical RAM per process >     121.50 MB

     Estimated max dynamical RAM per process >     237.76 MB

     Estimated total dynamical RAM >      10.79 GB

     Check: negative core charge=   -0.000004

     Initial potential from superposition of free atoms

     starting charge     422.5961, renormalised to     431.0000

     negative rho (up, down):  7.820E-01 0.000E+00
     Starting wfcs are  377 randomized atomic wfcs
     Checking if some PAW data can be deallocated... 
       PAW data deallocated on   19 nodes for type:  2

     total cpu time spent up to now is        9.6 secs

     Self-consistent Calculation

     iteration #  1     ecut=    60.00 Ry     beta= 0.15
     Davidson diagonalization with overlap

---- Real-time Memory Report at c_bands before calling an iterative solver
             0 MiB given to the printing process from OS
             0 MiB allocation reported by mallinfo(arena+hblkhd)
         23963 MiB available memory on the node where the printing process lives
------------------
     ethr =  1.00E-02,  avg # of iterations =  2.0

     negative rho (up, down):  7.717E-01 0.000E+00

     total cpu time spent up to now is       25.9 secs

     total energy              =   -4446.67380039 Ry
     estimated scf accuracy    <      44.93835880 Ry

     iteration #  2     ecut=    60.00 Ry     beta= 0.15
     Davidson diagonalization with overlap

---- Real-time Memory Report at c_bands before calling an iterative solver
             0 MiB given to the printing process from OS
             0 MiB allocation reported by mallinfo(arena+hblkhd)
         24239 MiB available memory on the node where the printing process lives
------------------
     ethr =  1.00E-02,  avg # of iterations =  1.0

     negative rho (up, down):  7.580E-01 0.000E+00

     total cpu time spent up to now is       40.1 secs

     total energy              =   -4443.20758288 Ry
     estimated scf accuracy    <      29.82384958 Ry

     iteration #  3     ecut=    60.00 Ry     beta= 0.15
     Davidson diagonalization with overlap

---- Real-time Memory Report at c_bands before calling an iterative solver
             0 MiB given to the printing process from OS
             0 MiB allocation reported by mallinfo(arena+hblkhd)
         23416 MiB available memory on the node where the printing process lives
------------------
     ethr =  6.92E-03,  avg # of iterations =  1.0

     negative rho (up, down):  7.553E-01 0.000E+00

     total cpu time spent up to now is       54.3 secs

     total energy              =   -4444.26081268 Ry
     estimated scf accuracy    <      29.50357824 Ry

     iteration #  4     ecut=    60.00 Ry     beta= 0.15
     Davidson diagonalization with overlap

---- Real-time Memory Report at c_bands before calling an iterative solver
             0 MiB given to the printing process from OS
             0 MiB allocation reported by mallinfo(arena+hblkhd)
         23389 MiB available memory on the node where the printing process lives
------------------
     ethr =  6.85E-03,  avg # of iterations =  1.0

     negative rho (up, down):  7.493E-01 0.000E+00

     total cpu time spent up to now is       68.6 secs

     total energy              =   -4443.06010811 Ry
     estimated scf accuracy    <      21.30412666 Ry

     iteration #  5     ecut=    60.00 Ry     beta= 0.15
     Davidson diagonalization with overlap

---- Real-time Memory Report at c_bands before calling an iterative solver
             0 MiB given to the printing process from OS
             0 MiB allocation reported by mallinfo(arena+hblkhd)
         23365 MiB available memory on the node where the printing process lives
------------------
     ethr =  4.94E-03,  avg # of iterations =  1.0

     negative rho (up, down):  7.408E-01 0.000E+00

     total cpu time spent up to now is       83.0 secs

     total energy              =   -4442.60108399 Ry
     estimated scf accuracy    <      10.11346847 Ry

     iteration #  6     ecut=    60.00 Ry     beta= 0.15
     Davidson diagonalization with overlap

---- Real-time Memory Report at c_bands before calling an iterative solver
             0 MiB given to the printing process from OS
             0 MiB allocation reported by mallinfo(arena+hblkhd)
         23349 MiB available memory on the node where the printing process lives
------------------
     ethr =  2.35E-03,  avg # of iterations =  1.1

     negative rho (up, down):  7.428E-01 0.000E+00

     total cpu time spent up to now is       97.6 secs

     total energy              =   -4442.80445884 Ry
     estimated scf accuracy    <       4.90864417 Ry

     iteration #  7     ecut=    60.00 Ry     beta= 0.15
     Davidson diagonalization with overlap

---- Real-time Memory Report at c_bands before calling an iterative solver
             0 MiB given to the printing process from OS
             0 MiB allocation reported by mallinfo(arena+hblkhd)
         23330 MiB available memory on the node where the printing process lives
------------------
     ethr =  1.14E-03,  avg # of iterations =  1.7

     negative rho (up, down):  7.660E-01 0.000E+00

     total cpu time spent up to now is      112.5 secs

     total energy              =   -4441.64421478 Ry
     estimated scf accuracy    <       3.97170916 Ry

     iteration #  8     ecut=    60.00 Ry     beta= 0.15
     Davidson diagonalization with overlap

---- Real-time Memory Report at c_bands before calling an iterative solver
             0 MiB given to the printing process from OS
             0 MiB allocation reported by mallinfo(arena+hblkhd)
         23311 MiB available memory on the node where the printing process lives
------------------
     ethr =  9.22E-04,  avg # of iterations =  5.1

     negative rho (up, down):  7.720E-01 0.000E+00

     total cpu time spent up to now is      131.6 secs

     total energy              =   -4441.56485269 Ry
     estimated scf accuracy    <      14.71048397 Ry

     iteration #  9     ecut=    60.00 Ry     beta= 0.15
     Davidson diagonalization with overlap

---- Real-time Memory Report at c_bands before calling an iterative solver
             0 MiB given to the printing process from OS
             0 MiB allocation reported by mallinfo(arena+hblkhd)
         23132 MiB available memory on the node where the printing process lives
------------------
     ethr =  9.22E-04,  avg # of iterations = 10.1

     negative rho (up, down):  7.703E-01 0.000E+00

     total cpu time spent up to now is      152.8 secs

     total energy              =   -4441.79049498 Ry
     estimated scf accuracy    <       2.30069641 Ry

     iteration # 10     ecut=    60.00 Ry     beta= 0.15
     Davidson diagonalization with overlap

---- Real-time Memory Report at c_bands before calling an iterative solver
             0 MiB given to the printing process from OS
             0 MiB allocation reported by mallinfo(arena+hblkhd)
         22842 MiB available memory on the node where the printing process lives
------------------
     ethr =  5.34E-04,  avg # of iterations =  2.5

     negative rho (up, down):  7.780E-01 0.000E+00

     total cpu time spent up to now is      169.3 secs

     total energy              =   -4441.91816525 Ry
     estimated scf accuracy    <       1.12276189 Ry

     iteration # 11     ecut=    60.00 Ry     beta= 0.15
     Davidson diagonalization with overlap

---- Real-time Memory Report at c_bands before calling an iterative solver
             0 MiB given to the printing process from OS
             0 MiB allocation reported by mallinfo(arena+hblkhd)
         22825 MiB available memory on the node where the printing process lives
------------------
     ethr =  2.61E-04,  avg # of iterations =  2.0

     negative rho (up, down):  8.127E-01 0.000E+00

     total cpu time spent up to now is      185.5 secs

     total energy              =   -4441.69255289 Ry
     estimated scf accuracy    <       1.33822103 Ry

     iteration # 12     ecut=    60.00 Ry     beta= 0.15
     Davidson diagonalization with overlap

---- Real-time Memory Report at c_bands before calling an iterative solver
             0 MiB given to the printing process from OS
             0 MiB allocation reported by mallinfo(arena+hblkhd)
         22838 MiB available memory on the node where the printing process lives
------------------
     ethr =  2.61E-04,  avg # of iterations = 10.1

     negative rho (up, down):  8.166E-01 0.000E+00

     total cpu time spent up to now is      206.2 secs

     total energy              =   -4441.83970197 Ry
     estimated scf accuracy    <       1.16460666 Ry

     iteration # 13     ecut=    60.00 Ry     beta= 0.15
     Davidson diagonalization with overlap

---- Real-time Memory Report at c_bands before calling an iterative solver
             0 MiB given to the printing process from OS
             0 MiB allocation reported by mallinfo(arena+hblkhd)
         22764 MiB available memory on the node where the printing process lives
------------------
     ethr =  2.61E-04,  avg # of iterations =  1.4

     negative rho (up, down):  8.176E-01 0.000E+00

     total cpu time spent up to now is      221.5 secs

     total energy              =   -4441.78192639 Ry
     estimated scf accuracy    <       0.72879842 Ry

     iteration # 14     ecut=    60.00 Ry     beta= 0.15
     Davidson diagonalization with overlap

---- Real-time Memory Report at c_bands before calling an iterative solver
             0 MiB given to the printing process from OS
             0 MiB allocation reported by mallinfo(arena+hblkhd)
         22776 MiB available memory on the node where the printing process lives
------------------
     ethr =  1.69E-04,  avg # of iterations =  3.2

     negative rho (up, down):  8.251E-01 0.000E+00

     total cpu time spent up to now is      237.9 secs

     total energy              =   -4441.72457884 Ry
     estimated scf accuracy    <       0.35163516 Ry

     iteration # 15     ecut=    60.00 Ry     beta= 0.15
     Davidson diagonalization with overlap

---- Real-time Memory Report at c_bands before calling an iterative solver
             0 MiB given to the printing process from OS
             0 MiB allocation reported by mallinfo(arena+hblkhd)
         22775 MiB available memory on the node where the printing process lives
------------------
     c_bands:  1 eigenvalues not converged
     c_bands:  1 eigenvalues not converged
     ethr =  8.16E-05,  avg # of iterations = 14.6

     negative rho (up, down):  8.330E-01 0.000E+00

     total cpu time spent up to now is      261.1 secs

     total energy              =   -4441.71585281 Ry
     estimated scf accuracy    <       0.29462487 Ry

     iteration # 16     ecut=    60.00 Ry     beta= 0.15
     Davidson diagonalization with overlap

---- Real-time Memory Report at c_bands before calling an iterative solver
             0 MiB given to the printing process from OS
             0 MiB allocation reported by mallinfo(arena+hblkhd)
         22711 MiB available memory on the node where the printing process lives
------------------
     ethr =  6.84E-05,  avg # of iterations =  3.2

     negative rho (up, down):  8.315E-01 0.000E+00

     total cpu time spent up to now is      278.7 secs

     total energy              =   -4441.71016428 Ry
     estimated scf accuracy    <       0.25643590 Ry

     iteration # 17     ecut=    60.00 Ry     beta= 0.15
     Davidson diagonalization with overlap

---- Real-time Memory Report at c_bands before calling an iterative solver
             0 MiB given to the printing process from OS
             0 MiB allocation reported by mallinfo(arena+hblkhd)
         22700 MiB available memory on the node where the printing process lives
------------------
     ethr =  5.95E-05,  avg # of iterations =  1.2

     negative rho (up, down):  8.178E-01 0.000E+00

     total cpu time spent up to now is      293.8 secs

     total energy              =   -4441.68983152 Ry
     estimated scf accuracy    <       0.20124530 Ry

     iteration # 18     ecut=    60.00 Ry     beta= 0.15
     Davidson diagonalization with overlap

---- Real-time Memory Report at c_bands before calling an iterative solver
             0 MiB given to the printing process from OS
             0 MiB allocation reported by mallinfo(arena+hblkhd)
         22707 MiB available memory on the node where the printing process lives
------------------
     ethr =  4.67E-05,  avg # of iterations =  4.0

     negative rho (up, down):  8.119E-01 0.000E+00

     total cpu time spent up to now is      311.5 secs

     total energy              =   -4441.67349087 Ry
     estimated scf accuracy    <       0.14592156 Ry

     iteration # 19     ecut=    60.00 Ry     beta= 0.15
     Davidson diagonalization with overlap

---- Real-time Memory Report at c_bands before calling an iterative solver
             0 MiB given to the printing process from OS
             0 MiB allocation reported by mallinfo(arena+hblkhd)
         22697 MiB available memory on the node where the printing process lives
------------------
     ethr =  3.39E-05,  avg # of iterations =  8.0

     negative rho (up, down):  8.036E-01 0.000E+00

     total cpu time spent up to now is      331.4 secs

     total energy              =   -4441.65760090 Ry
     estimated scf accuracy    <       0.10475097 Ry

     iteration # 20     ecut=    60.00 Ry     beta= 0.15
     Davidson diagonalization with overlap

---- Real-time Memory Report at c_bands before calling an iterative solver
             0 MiB given to the printing process from OS
             0 MiB allocation reported by mallinfo(arena+hblkhd)
         22657 MiB available memory on the node where the printing process lives
------------------
     ethr =  2.43E-05,  avg # of iterations =  7.4

     negative rho (up, down):  8.328E-01 0.000E+00

     total cpu time spent up to now is      351.6 secs

     total energy              =   -4441.65179357 Ry
     estimated scf accuracy    <       0.05135590 Ry

     iteration # 21     ecut=    60.00 Ry     beta= 0.15
     Davidson diagonalization with overlap

---- Real-time Memory Report at c_bands before calling an iterative solver
             0 MiB given to the printing process from OS
             0 MiB allocation reported by mallinfo(arena+hblkhd)
         22740 MiB available memory on the node where the printing process lives
------------------
     ethr =  1.19E-05,  avg # of iterations = 11.3

     negative rho (up, down):  8.240E-01 0.000E+00

     total cpu time spent up to now is      375.0 secs

     total energy              =   -4441.65407720 Ry
     estimated scf accuracy    <       0.02311539 Ry

     iteration # 22     ecut=    60.00 Ry     beta= 0.15
     Davidson diagonalization with overlap

---- Real-time Memory Report at c_bands before calling an iterative solver
             0 MiB given to the printing process from OS
             0 MiB allocation reported by mallinfo(arena+hblkhd)
         22555 MiB available memory on the node where the printing process lives
------------------
     ethr =  5.36E-06,  avg # of iterations =  1.4

     negative rho (up, down):  7.938E-01 0.000E+00

     total cpu time spent up to now is      390.7 secs

     total energy              =   -4441.64989193 Ry
     estimated scf accuracy    <       0.01954436 Ry

     iteration # 23     ecut=    60.00 Ry     beta= 0.15
     Davidson diagonalization with overlap

---- Real-time Memory Report at c_bands before calling an iterative solver
             0 MiB given to the printing process from OS
             0 MiB allocation reported by mallinfo(arena+hblkhd)
         22570 MiB available memory on the node where the printing process lives
------------------
     c_bands:  1 eigenvalues not converged
     ethr =  4.53E-06,  avg # of iterations =  7.5

     negative rho (up, down):  7.912E-01 0.000E+00

     total cpu time spent up to now is      410.4 secs

     total energy              =   -4441.64908544 Ry
     estimated scf accuracy    <       0.01100885 Ry

     iteration # 24     ecut=    60.00 Ry     beta= 0.15
     Davidson diagonalization with overlap

---- Real-time Memory Report at c_bands before calling an iterative solver
             0 MiB given to the printing process from OS
             0 MiB allocation reported by mallinfo(arena+hblkhd)
         22540 MiB available memory on the node where the printing process lives
------------------
     c_bands:  1 eigenvalues not converged
     ethr =  2.55E-06,  avg # of iterations = 11.5

     negative rho (up, down):  7.959E-01 0.000E+00

     total cpu time spent up to now is      432.1 secs

     total energy              =   -4441.64848360 Ry
     estimated scf accuracy    <       0.00590133 Ry

     iteration # 25     ecut=    60.00 Ry     beta= 0.15
     Davidson diagonalization with overlap

---- Real-time Memory Report at c_bands before calling an iterative solver
             0 MiB given to the printing process from OS
             0 MiB allocation reported by mallinfo(arena+hblkhd)
         22554 MiB available memory on the node where the printing process lives
------------------
     ethr =  1.37E-06,  avg # of iterations =  8.0

     negative rho (up, down):  7.992E-01 0.000E+00

     total cpu time spent up to now is      453.3 secs

     total energy              =   -4441.64847553 Ry
     estimated scf accuracy    <       0.00313643 Ry

     iteration # 26     ecut=    60.00 Ry     beta= 0.15
     Davidson diagonalization with overlap

---- Real-time Memory Report at c_bands before calling an iterative solver
             0 MiB given to the printing process from OS
             0 MiB allocation reported by mallinfo(arena+hblkhd)
         22586 MiB available memory on the node where the printing process lives
------------------
     ethr =  7.28E-07,  avg # of iterations =  6.6

     negative rho (up, down):  7.989E-01 0.000E+00

     total cpu time spent up to now is      472.4 secs

     total energy              =   -4441.64841190 Ry
     estimated scf accuracy    <       0.00159692 Ry

     iteration # 27     ecut=    60.00 Ry     beta= 0.15
     Davidson diagonalization with overlap

---- Real-time Memory Report at c_bands before calling an iterative solver
             0 MiB given to the printing process from OS
             0 MiB allocation reported by mallinfo(arena+hblkhd)
         22573 MiB available memory on the node where the printing process lives
------------------
     ethr =  3.71E-07,  avg # of iterations = 11.1

     negative rho (up, down):  7.986E-01 0.000E+00

     total cpu time spent up to now is      496.2 secs

     total energy              =   -4441.64852355 Ry
     estimated scf accuracy    <       0.00045065 Ry

     iteration # 28     ecut=    60.00 Ry     beta= 0.15
     Davidson diagonalization with overlap

---- Real-time Memory Report at c_bands before calling an iterative solver
             0 MiB given to the printing process from OS
             0 MiB allocation reported by mallinfo(arena+hblkhd)
         22562 MiB available memory on the node where the printing process lives
------------------
     ethr =  1.05E-07,  avg # of iterations =  2.2

     negative rho (up, down):  7.955E-01 0.000E+00

     total cpu time spent up to now is      513.0 secs

     total energy              =   -4441.64847815 Ry
     estimated scf accuracy    <       0.00025344 Ry

     iteration # 29     ecut=    60.00 Ry     beta= 0.15
     Davidson diagonalization with overlap

---- Real-time Memory Report at c_bands before calling an iterative solver
             0 MiB given to the printing process from OS
             0 MiB allocation reported by mallinfo(arena+hblkhd)
         22529 MiB available memory on the node where the printing process lives
------------------
     ethr =  5.88E-08,  avg # of iterations =  3.0

     negative rho (up, down):  7.952E-01 0.000E+00

     total cpu time spent up to now is      530.3 secs

     total energy              =   -4441.64849376 Ry
     estimated scf accuracy    <       0.00009953 Ry

     iteration # 30     ecut=    60.00 Ry     beta= 0.15
     Davidson diagonalization with overlap

---- Real-time Memory Report at c_bands before calling an iterative solver
             0 MiB given to the printing process from OS
             0 MiB allocation reported by mallinfo(arena+hblkhd)
         22545 MiB available memory on the node where the printing process lives
------------------
     ethr =  2.31E-08,  avg # of iterations =  2.2

     negative rho (up, down):  7.941E-01 0.000E+00

     total cpu time spent up to now is      547.2 secs

     total energy              =   -4441.64848106 Ry
     estimated scf accuracy    <       0.00005943 Ry

     iteration # 31     ecut=    60.00 Ry     beta= 0.15
     Davidson diagonalization with overlap

---- Real-time Memory Report at c_bands before calling an iterative solver
             0 MiB given to the printing process from OS
             0 MiB allocation reported by mallinfo(arena+hblkhd)
         22540 MiB available memory on the node where the printing process lives
------------------
     ethr =  1.38E-08,  avg # of iterations =  2.8

     negative rho (up, down):  7.927E-01 0.000E+00

     total cpu time spent up to now is      564.2 secs

     total energy              =   -4441.64846827 Ry
     estimated scf accuracy    <       0.00003609 Ry

     iteration # 32     ecut=    60.00 Ry     beta= 0.15
     Davidson diagonalization with overlap

---- Real-time Memory Report at c_bands before calling an iterative solver
             0 MiB given to the printing process from OS
             0 MiB allocation reported by mallinfo(arena+hblkhd)
         22547 MiB available memory on the node where the printing process lives
------------------
     c_bands:  1 eigenvalues not converged
     ethr =  8.37E-09,  avg # of iterations =  5.4

     negative rho (up, down):  7.922E-01 0.000E+00

     total cpu time spent up to now is      583.5 secs

     total energy              =   -4441.64847137 Ry
     estimated scf accuracy    <       0.00001244 Ry

     iteration # 33     ecut=    60.00 Ry     beta= 0.15
     Davidson diagonalization with overlap

---- Real-time Memory Report at c_bands before calling an iterative solver
             0 MiB given to the printing process from OS
             0 MiB allocation reported by mallinfo(arena+hblkhd)
         22562 MiB available memory on the node where the printing process lives
------------------
     ethr =  2.89E-09,  avg # of iterations =  2.9

     negative rho (up, down):  7.922E-01 0.000E+00

     total cpu time spent up to now is      600.7 secs

     total energy              =   -4441.64847119 Ry
     estimated scf accuracy    <       0.00000714 Ry

     iteration # 34     ecut=    60.00 Ry     beta= 0.15
     Davidson diagonalization with overlap

---- Real-time Memory Report at c_bands before calling an iterative solver
             0 MiB given to the printing process from OS
             0 MiB allocation reported by mallinfo(arena+hblkhd)
         22571 MiB available memory on the node where the printing process lives
------------------
     ethr =  1.66E-09,  avg # of iterations =  1.2

     negative rho (up, down):  7.923E-01 0.000E+00

     total cpu time spent up to now is      615.9 secs

     total energy              =   -4441.64847102 Ry
     estimated scf accuracy    <       0.00000493 Ry

     iteration # 35     ecut=    60.00 Ry     beta= 0.15
     Davidson diagonalization with overlap

---- Real-time Memory Report at c_bands before calling an iterative solver
             0 MiB given to the printing process from OS
             0 MiB allocation reported by mallinfo(arena+hblkhd)
         22569 MiB available memory on the node where the printing process lives
------------------
     ethr =  1.14E-09,  avg # of iterations =  2.2

     negative rho (up, down):  7.923E-01 0.000E+00

     total cpu time spent up to now is      632.7 secs

     total energy              =   -4441.64847103 Ry
     estimated scf accuracy    <       0.00000277 Ry

     iteration # 36     ecut=    60.00 Ry     beta= 0.15
     Davidson diagonalization with overlap

---- Real-time Memory Report at c_bands before calling an iterative solver
             0 MiB given to the printing process from OS
             0 MiB allocation reported by mallinfo(arena+hblkhd)
         22575 MiB available memory on the node where the printing process lives
------------------
     ethr =  6.42E-10,  avg # of iterations =  2.3

     negative rho (up, down):  7.924E-01 0.000E+00

     total cpu time spent up to now is      649.6 secs

     total energy              =   -4441.64847125 Ry
     estimated scf accuracy    <       0.00000166 Ry

     iteration # 37     ecut=    60.00 Ry     beta= 0.15
     Davidson diagonalization with overlap

---- Real-time Memory Report at c_bands before calling an iterative solver
             0 MiB given to the printing process from OS
             0 MiB allocation reported by mallinfo(arena+hblkhd)
         22586 MiB available memory on the node where the printing process lives
------------------
     ethr =  3.84E-10,  avg # of iterations =  2.2

     negative rho (up, down):  7.924E-01 0.000E+00

     total cpu time spent up to now is      666.3 secs

     total energy              =   -4441.64847129 Ry
     estimated scf accuracy    <       0.00000110 Ry

     iteration # 38     ecut=    60.00 Ry     beta= 0.15
     Davidson diagonalization with overlap

---- Real-time Memory Report at c_bands before calling an iterative solver
             0 MiB given to the printing process from OS
             0 MiB allocation reported by mallinfo(arena+hblkhd)
         22595 MiB available memory on the node where the printing process lives
------------------
     ethr =  2.55E-10,  avg # of iterations =  1.7

     negative rho (up, down):  7.924E-01 0.000E+00

     total cpu time spent up to now is      682.3 secs

     total energy              =   -4441.64847122 Ry
     estimated scf accuracy    <       0.00000090 Ry

     iteration # 39     ecut=    60.00 Ry     beta= 0.15
     Davidson diagonalization with overlap

---- Real-time Memory Report at c_bands before calling an iterative solver
             0 MiB given to the printing process from OS
             0 MiB allocation reported by mallinfo(arena+hblkhd)
         22590 MiB available memory on the node where the printing process lives
------------------
     ethr =  2.10E-10,  avg # of iterations =  1.6

     negative rho (up, down):  7.924E-01 0.000E+00

     total cpu time spent up to now is      698.4 secs

     total energy              =   -4441.64847111 Ry
     estimated scf accuracy    <       0.00000068 Ry

     iteration # 40     ecut=    60.00 Ry     beta= 0.15
     Davidson diagonalization with overlap

---- Real-time Memory Report at c_bands before calling an iterative solver
             0 MiB given to the printing process from OS
             0 MiB allocation reported by mallinfo(arena+hblkhd)
         22598 MiB available memory on the node where the printing process lives
------------------
     ethr =  1.59E-10,  avg # of iterations =  2.1

     negative rho (up, down):  7.924E-01 0.000E+00

     total cpu time spent up to now is      715.1 secs

     total energy              =   -4441.64847104 Ry
     estimated scf accuracy    <       0.00000034 Ry

     iteration # 41     ecut=    60.00 Ry     beta= 0.15
     Davidson diagonalization with overlap

---- Real-time Memory Report at c_bands before calling an iterative solver
             0 MiB given to the printing process from OS
             0 MiB allocation reported by mallinfo(arena+hblkhd)
         22641 MiB available memory on the node where the printing process lives
------------------
     ethr =  7.82E-11,  avg # of iterations =  2.1

     negative rho (up, down):  7.925E-01 0.000E+00

     total cpu time spent up to now is      731.8 secs

     total energy              =   -4441.64847107 Ry
     estimated scf accuracy    <       0.00000019 Ry

     iteration # 42     ecut=    60.00 Ry     beta= 0.15
     Davidson diagonalization with overlap

---- Real-time Memory Report at c_bands before calling an iterative solver
             0 MiB given to the printing process from OS
             0 MiB allocation reported by mallinfo(arena+hblkhd)
         22648 MiB available memory on the node where the printing process lives
------------------
     ethr =  4.50E-11,  avg # of iterations =  2.1

     negative rho (up, down):  7.925E-01 0.000E+00

     total cpu time spent up to now is      748.5 secs

     total energy              =   -4441.64847109 Ry
     estimated scf accuracy    <       0.00000010 Ry

     iteration # 43     ecut=    60.00 Ry     beta= 0.15
     Davidson diagonalization with overlap

---- Real-time Memory Report at c_bands before calling an iterative solver
             0 MiB given to the printing process from OS
             0 MiB allocation reported by mallinfo(arena+hblkhd)
         22649 MiB available memory on the node where the printing process lives
------------------
     ethr =  2.33E-11,  avg # of iterations =  2.7

     negative rho (up, down):  7.925E-01 0.000E+00

     total cpu time spent up to now is      765.8 secs

     total energy              =   -4441.64847112 Ry
     estimated scf accuracy    <       0.00000005 Ry

     iteration # 44     ecut=    60.00 Ry     beta= 0.15
     Davidson diagonalization with overlap

---- Real-time Memory Report at c_bands before calling an iterative solver
             0 MiB given to the printing process from OS
             0 MiB allocation reported by mallinfo(arena+hblkhd)
         22655 MiB available memory on the node where the printing process lives
------------------
     ethr =  1.17E-11,  avg # of iterations =  2.2

     negative rho (up, down):  7.925E-01 0.000E+00

     total cpu time spent up to now is      782.5 secs

     total energy              =   -4441.64847114 Ry
     estimated scf accuracy    <       0.00000004 Ry

     iteration # 45     ecut=    60.00 Ry     beta= 0.15
     Davidson diagonalization with overlap

---- Real-time Memory Report at c_bands before calling an iterative solver
             0 MiB given to the printing process from OS
             0 MiB allocation reported by mallinfo(arena+hblkhd)
         22657 MiB available memory on the node where the printing process lives
------------------
     ethr =  9.06E-12,  avg # of iterations =  2.3

     negative rho (up, down):  7.925E-01 0.000E+00

     total cpu time spent up to now is      799.2 secs

     total energy              =   -4441.64847119 Ry
     estimated scf accuracy    <       0.00000003 Ry

     iteration # 46     ecut=    60.00 Ry     beta= 0.15
     Davidson diagonalization with overlap

---- Real-time Memory Report at c_bands before calling an iterative solver
             0 MiB given to the printing process from OS
             0 MiB allocation reported by mallinfo(arena+hblkhd)
         22658 MiB available memory on the node where the printing process lives
------------------
     ethr =  6.63E-12,  avg # of iterations =  3.2

     negative rho (up, down):  7.925E-01 0.000E+00

     total cpu time spent up to now is      816.7 secs

     total energy              =   -4441.64847124 Ry
     estimated scf accuracy    <       0.00000002 Ry

     iteration # 47     ecut=    60.00 Ry     beta= 0.15
     Davidson diagonalization with overlap

---- Real-time Memory Report at c_bands before calling an iterative solver
             0 MiB given to the printing process from OS
             0 MiB allocation reported by mallinfo(arena+hblkhd)
         22656 MiB available memory on the node where the printing process lives
------------------
     ethr =  4.22E-12,  avg # of iterations =  4.2

     negative rho (up, down):  7.924E-01 0.000E+00

     total cpu time spent up to now is      834.5 secs

     total energy              =   -4441.64847127 Ry
     estimated scf accuracy    <       0.00000001 Ry

     iteration # 48     ecut=    60.00 Ry     beta= 0.15
     Davidson diagonalization with overlap

---- Real-time Memory Report at c_bands before calling an iterative solver
             0 MiB given to the printing process from OS
             0 MiB allocation reported by mallinfo(arena+hblkhd)
         22667 MiB available memory on the node where the printing process lives
------------------
     ethr =  2.60E-12,  avg # of iterations =  4.6

     negative rho (up, down):  7.925E-01 0.000E+00

     total cpu time spent up to now is      852.5 secs

     End of self-consistent calculation

          k = 0.0000 0.0000 0.0000 ( 65197 PWs)   bands (ev):

   -92.6817 -92.6296 -92.5357 -92.4887 -92.4293 -92.3880 -92.3715 -92.2521
   -56.0352 -56.0164 -55.8930 -55.8825 -55.8762 -55.8693 -55.8344 -55.8049
   -55.7904 -55.7874 -55.7793 -55.7373 -55.7189 -55.6808 -55.6621 -55.6291
   -55.6246 -55.5768 -55.5757 -55.5734 -55.5649 -55.5272 -55.5016 -55.4188
   -31.2593 -31.2399 -31.0983 -31.0311 -31.0114 -30.9530 -30.8440 -30.7331
   -29.8294 -29.7861 -29.7603 -29.6520 -15.0625 -15.0194 -14.9383 -14.8077
   -14.6164 -14.4927 -14.2003 -14.1795 -14.1513 -14.1048 -14.0601 -14.0509
   -14.0388 -14.0216 -14.0005 -13.9623 -13.9279 -13.9105 -13.7602 -13.5833
   -13.5481 -13.5182 -13.4864 -13.4700 -13.4156 -13.3826 -13.3039 -13.2320
   -13.1115 -13.0915 -13.0812 -13.0563 -13.0410 -13.0374 -12.9842 -12.9801
   -12.9483 -12.9357 -12.9043 -12.8849 -12.8670 -12.8395 -12.8291 -12.7699
   -12.7574 -12.7396 -12.6732 -12.6389 -12.6246 -12.3238 -12.1782 -12.0161
   -11.9340 -11.8429 -11.7687 -11.7576 -11.7350 -11.7173 -11.6536 -11.6363
   -11.6016 -11.5725 -11.4610 -11.3811 -11.3774  -2.9226  -2.6904  -2.4605
    -2.3143  -2.2509  -2.1088  -1.8018  -1.7877  -1.7676  -1.6838  -1.6643
    -1.5960  -1.5798  -1.5390  -1.4928  -1.3130  -1.0890  -1.0596  -1.0329
    -0.9119  -0.8975  -0.8516  -0.8330  -0.7878  -0.7712  -0.7146  -0.6884
    -0.6168  -0.6028  -0.5280  -0.3971  -0.3837  -0.3547  -0.2738  -0.2575
    -0.2446  -0.1769  -0.1092  -0.0713  -0.0100   0.0132   0.0859   0.1706
     0.2001   0.2256   0.2643   0.4905   0.5049   0.6809   0.7426   0.8075
     0.8790   0.9520   0.9676   0.9811   1.0407   1.0679   1.1029   1.1606
     1.2924   1.3501   1.3744   1.3958   1.4039   1.4689   1.5403   1.6443
     1.6597   1.7190   1.7323   1.7749   1.7986   1.8035   1.8664   1.9157
     1.9371   1.9710   2.0046   2.0475   2.1776   2.2573   2.3022   2.3247
     2.4602   2.4798   2.5005   2.5091   2.5320   2.5386   2.6570   2.6776
     2.7079   2.7257   2.7382   2.8179   2.9261   2.9578   2.9701   2.9769
     3.0439   3.0476   3.0730   3.0804   3.0895   3.1038   3.1081   3.1224
     3.1272   3.1416   3.1493   3.1563   3.1754   3.1964   3.2023   3.2133
     3.2369   3.3545   3.4401   4.1306   4.4468   4.7840   4.8784   5.0669
     5.7515   5.9509   6.0017   6.0404   6.3330   6.3804   6.4952   6.5048
     6.7457   7.0206   7.1113   7.3339   7.4559   7.5594   7.6580   7.6808
     7.6960   7.8545   7.9291   8.1203   8.1277   8.1943   8.4145   8.4931
     8.6755   8.7768   8.8894

     occupation numbers 
     1.0000   1.0000   1.0000   1.0000   1.0000   1.0000   1.0000   1.0000
     1.0000   1.0000   1.0000   1.0000   1.0000   1.0000   1.0000   1.0000
     1.0000   1.0000   1.0000   1.0000   1.0000   1.0000   1.0000   1.0000
     1.0000   1.0000   1.0000   1.0000   1.0000   1.0000   1.0000   1.0000
     1.0000   1.0000   1.0000   1.0000   1.0000   1.0000   1.0000   1.0000
     1.0000   1.0000   1.0000   1.0000   1.0000   1.0000   1.0000   1.0000
     1.0000   1.0000   1.0000   1.0000   1.0000   1.0000   1.0000   1.0000
     1.0000   1.0000   1.0000   1.0000   1.0000   1.0000   1.0000   1.0000
     1.0000   1.0000   1.0000   1.0000   1.0000   1.0000   1.0000   1.0000
     1.0000   1.0000   1.0000   1.0000   1.0000   1.0000   1.0000   1.0000
     1.0000   1.0000   1.0000   1.0000   1.0000   1.0000   1.0000   1.0000
     1.0000   1.0000   1.0000   1.0000   1.0000   1.0000   1.0000   1.0000
     1.0000   1.0000   1.0000   1.0000   1.0000   1.0000   1.0000   1.0000
     1.0000   1.0000   1.0000   1.0000   1.0000   1.0000   1.0000   1.0000
     1.0000   1.0000   1.0000   1.0000   1.0000   1.0000   1.0000   1.0000
     1.0000   1.0000   1.0000   1.0000   1.0000   1.0000   1.0000   1.0000
     1.0000   1.0000   1.0000   1.0000   1.0000   1.0000   1.0000   1.0000
     1.0000   1.0000   1.0000   1.0000   1.0000   1.0000   1.0000   1.0000
     1.0000   1.0000   1.0000   1.0000   1.0000   1.0000   1.0000   1.0000
     1.0000   1.0000   1.0000   1.0000   1.0000   1.0000   0.9999   0.9999
     0.9999   0.9998   0.9998   0.9998   0.9997   0.9996   0.9996   0.9994
     0.9989   0.9985   0.9983   0.9981   0.9980   0.9973   0.9963   0.9942
     0.9939   0.9921   0.9917   0.9902   0.9892   0.9890   0.9860   0.9831
     0.9818   0.9794   0.9768   0.9731   0.9586   0.9470   0.9394   0.9353
     0.9058   0.9008   0.8953   0.8930   0.8866   0.8847   0.8468   0.8395
     0.8282   0.8214   0.8165   0.7835   0.7335   0.7177   0.7116   0.7081
     0.6731   0.6711   0.6573   0.6533   0.6483   0.6404   0.6379   0.6300
     0.6273   0.6192   0.6148   0.6108   0.5999   0.5878   0.5844   0.5780
     0.5642   0.4949   0.4443   0.1219   0.0510   0.0164   0.0114   0.0053
     0.0002   0.0001   0.0000   0.0000   0.0000   0.0000   0.0000   0.0000
     0.0000   0.0000   0.0000   0.0000   0.0000   0.0000   0.0000   0.0000
     0.0000   0.0000   0.0000   0.0000   0.0000   0.0000   0.0000   0.0000
     0.0000   0.0000   0.0000

          k = 0.0000 0.2500 0.0000 ( 65257 PWs)   bands (ev):

   -92.6817 -92.6296 -92.5357 -92.4887 -92.4293 -92.3880 -92.3715 -92.2521
   -56.0352 -56.0164 -55.8930 -55.8825 -55.8762 -55.8693 -55.8344 -55.8049
   -55.7904 -55.7874 -55.7793 -55.7373 -55.7189 -55.6808 -55.6621 -55.6291
   -55.6246 -55.5769 -55.5757 -55.5734 -55.5649 -55.5272 -55.5016 -55.4188
   -31.2591 -31.2398 -31.0985 -31.0307 -31.0116 -30.9534 -30.8437 -30.7334
   -29.8288 -29.7858 -29.7610 -29.6523 -15.0259 -14.9933 -14.9132 -14.7784
   -14.6570 -14.4831 -14.3455 -14.1663 -14.1310 -14.1103 -14.0811 -14.0239
   -14.0175 -14.0035 -13.9842 -13.9406 -13.9231 -13.8295 -13.7910 -13.6289
   -13.6085 -13.5593 -13.5234 -13.4776 -13.4351 -13.3924 -13.3241 -13.2894
   -13.2195 -13.1394 -13.1278 -13.0902 -13.0734 -13.0204 -12.9700 -12.9461
   -12.9172 -12.8976 -12.8820 -12.8481 -12.8086 -12.7919 -12.7823 -12.7629
   -12.7255 -12.7026 -12.6660 -12.5529 -12.4731 -12.3851 -12.2295 -12.0726
   -12.0012 -11.8084 -11.7655 -11.7376 -11.7093 -11.6928 -11.6454 -11.6342
   -11.6115 -11.5774 -11.4753 -11.4227 -11.4121  -2.7873  -2.5660  -2.4282
    -2.2466  -2.2030  -2.0392  -1.8202  -1.7353  -1.7224  -1.6647  -1.5625
    -1.5462  -1.5111  -1.4857  -1.4417  -1.2442  -1.1163  -1.1054  -1.0399
    -1.0214  -1.0136  -0.9123  -0.8826  -0.8251  -0.8000  -0.7590  -0.6948
    -0.6683  -0.6365  -0.6048  -0.5877  -0.5554  -0.4818  -0.4301  -0.3607
    -0.2546  -0.2325  -0.1920  -0.0750  -0.0410   0.0300   0.0736   0.1448
     0.1745   0.2039   0.2411   0.5412   0.6257   0.6540   0.7502   0.7948
     0.8463   0.9322   0.9535   1.0480   1.0697   1.0953   1.2115   1.3036
     1.3258   1.3489   1.3705   1.3943   1.4541   1.4820   1.5077   1.5563
     1.5918   1.6220   1.7032   1.7354   1.7784   1.8286   1.8822   1.9254
     1.9526   1.9827   1.9953   2.1003   2.2094   2.2832   2.3087   2.3778
     2.4239   2.4625   2.4737   2.4899   2.5048   2.5440   2.5738   2.6742
     2.7012   2.7158   2.8844   2.9064   2.9385   2.9609   2.9776   2.9861
     2.9932   3.0024   3.0319   3.0357   3.0534   3.0573   3.0678   3.0853
     3.0972   3.1046   3.1273   3.1379   3.1432   3.1771   3.1935   3.2556
     3.6177   3.6640   3.9038   4.3256   4.4399   4.7247   5.0312   5.0930
     5.6570   5.8200   5.9285   5.9997   6.1016   6.1295   6.2014   6.6122
     6.8446   7.0890   7.1516   7.3458   7.4995   7.5102   7.5251   7.6613
     7.8342   7.9549   8.0352   8.1748   8.3237   8.3795   8.3959   8.4301
     8.5213   8.7801   8.9320

     occupation numbers 
     1.0000   1.0000   1.0000   1.0000   1.0000   1.0000   1.0000   1.0000
     1.0000   1.0000   1.0000   1.0000   1.0000   1.0000   1.0000   1.0000
     1.0000   1.0000   1.0000   1.0000   1.0000   1.0000   1.0000   1.0000
     1.0000   1.0000   1.0000   1.0000   1.0000   1.0000   1.0000   1.0000
     1.0000   1.0000   1.0000   1.0000   1.0000   1.0000   1.0000   1.0000
     1.0000   1.0000   1.0000   1.0000   1.0000   1.0000   1.0000   1.0000
     1.0000   1.0000   1.0000   1.0000   1.0000   1.0000   1.0000   1.0000
     1.0000   1.0000   1.0000   1.0000   1.0000   1.0000   1.0000   1.0000
     1.0000   1.0000   1.0000   1.0000   1.0000   1.0000   1.0000   1.0000
     1.0000   1.0000   1.0000   1.0000   1.0000   1.0000   1.0000   1.0000
     1.0000   1.0000   1.0000   1.0000   1.0000   1.0000   1.0000   1.0000
     1.0000   1.0000   1.0000   1.0000   1.0000   1.0000   1.0000   1.0000
     1.0000   1.0000   1.0000   1.0000   1.0000   1.0000   1.0000   1.0000
     1.0000   1.0000   1.0000   1.0000   1.0000   1.0000   1.0000   1.0000
     1.0000   1.0000   1.0000   1.0000   1.0000   1.0000   1.0000   1.0000
     1.0000   1.0000   1.0000   1.0000   1.0000   1.0000   1.0000   1.0000
     1.0000   1.0000   1.0000   1.0000   1.0000   1.0000   1.0000   1.0000
     1.0000   1.0000   1.0000   1.0000   1.0000   1.0000   1.0000   1.0000
     1.0000   1.0000   1.0000   1.0000   1.0000   1.0000   1.0000   1.0000
     1.0000   1.0000   1.0000   1.0000   1.0000   1.0000   0.9999   0.9999
     0.9999   0.9998   0.9998   0.9997   0.9996   0.9996   0.9992   0.9988
     0.9986   0.9985   0.9983   0.9981   0.9975   0.9972   0.9968   0.9961
     0.9954   0.9948   0.9926   0.9916   0.9900   0.9879   0.9851   0.9825
     0.9807   0.9785   0.9775   0.9678   0.9542   0.9427   0.9382   0.9247
     0.9145   0.9052   0.9023   0.8981   0.8941   0.8831   0.8742   0.8407
     0.8308   0.8253   0.7534   0.7430   0.7274   0.7162   0.7077   0.7034
     0.6997   0.6949   0.6795   0.6774   0.6680   0.6659   0.6601   0.6506
     0.6440   0.6399   0.6273   0.6213   0.6183   0.5989   0.5895   0.5533
     0.3432   0.3183   0.2037   0.0729   0.0521   0.0203   0.0062   0.0047
     0.0003   0.0001   0.0001   0.0000   0.0000   0.0000   0.0000   0.0000
     0.0000   0.0000   0.0000   0.0000   0.0000   0.0000   0.0000   0.0000
     0.0000   0.0000   0.0000   0.0000   0.0000   0.0000   0.0000   0.0000
     0.0000   0.0000   0.0000

          k = 0.0000-0.5000 0.0000 ( 65180 PWs)   bands (ev):

   -92.6817 -92.6296 -92.5357 -92.4887 -92.4293 -92.3880 -92.3715 -92.2521
   -56.0352 -56.0164 -55.8930 -55.8825 -55.8762 -55.8693 -55.8344 -55.8049
   -55.7904 -55.7874 -55.7793 -55.7373 -55.7189 -55.6808 -55.6621 -55.6291
   -55.6246 -55.5768 -55.5757 -55.5734 -55.5649 -55.5272 -55.5016 -55.4188
   -31.2589 -31.2396 -31.0987 -31.0304 -31.0117 -30.9537 -30.8434 -30.7337
   -29.8282 -29.7855 -29.7616 -29.6526 -14.9910 -14.9425 -14.8893 -14.7609
   -14.6770 -14.5392 -14.3871 -14.2625 -14.1385 -14.0652 -14.0238 -14.0186
   -13.9688 -13.9521 -13.9305 -13.9027 -13.8819 -13.8574 -13.8231 -13.7847
   -13.7449 -13.5646 -13.5061 -13.4839 -13.4374 -13.3941 -13.3396 -13.2862
   -13.2647 -13.2263 -13.1993 -13.0911 -13.0747 -13.0042 -12.9616 -12.9473
   -12.9293 -12.9102 -12.8633 -12.8062 -12.7869 -12.7637 -12.7118 -12.6869
   -12.6843 -12.6726 -12.6332 -12.4961 -12.4133 -12.3045 -12.2554 -12.1784
   -12.1325 -11.7624 -11.7601 -11.7326 -11.6952 -11.6609 -11.6497 -11.6072
   -11.6032 -11.5590 -11.4970 -11.4834 -11.4692  -2.5731  -2.5127  -2.3631
    -2.2909  -2.0096  -1.9256  -1.7987  -1.6613  -1.6238  -1.6048  -1.5248
    -1.4943  -1.4127  -1.3773  -1.3002  -1.2601  -1.2215  -1.1947  -1.1369
    -1.0998  -1.0542  -1.0283  -1.0162  -0.9836  -0.9492  -0.8394  -0.7947
    -0.7588  -0.7580  -0.6726  -0.6387  -0.6180  -0.5662  -0.4823  -0.4134
    -0.3274  -0.2998  -0.1984  -0.1480  -0.0099   0.0325   0.0520   0.1344
     0.2625   0.2855   0.4109   0.4801   0.4874   0.6141   0.6628   0.8285
     0.8920   1.0044   1.0337   1.0713   1.0755   1.1250   1.1328   1.1681
     1.1875   1.1957   1.3042   1.3658   1.3987   1.4257   1.6819   1.7135
     1.7430   1.8339   1.8639   1.8831   1.8995   1.9298   1.9407   1.9632
     1.9873   2.0221   2.0554   2.0879   2.0939   2.1208   2.1714   2.2561
     2.2822   2.4635   2.4854   2.5019   2.6228   2.6340   2.6730   2.6874
     2.6935   2.7019   2.7528   2.7641   2.8181   2.8401   2.9177   2.9311
     2.9977   3.0073   3.0286   3.0319   3.0497   3.0560   3.0617   3.0622
     3.0672   3.0792   3.0973   3.0985   3.1623   3.1680   3.1831   3.2375
     4.1558   4.1777   4.1936   4.2764   4.7760   4.9170   5.0432   5.1821
     5.4313   5.4824   5.5987   5.7461   6.0449   6.0682   6.2782   6.4900
     6.8676   6.9672   7.2295   7.3392   7.3817   7.4979   7.5911   7.7719
     7.9264   8.0223   8.2241   8.2541   8.3158   8.4138   8.5060   8.6822
     8.8051   8.8302   8.8510

     occupation numbers 
     1.0000   1.0000   1.0000   1.0000   1.0000   1.0000   1.0000   1.0000
     1.0000   1.0000   1.0000   1.0000   1.0000   1.0000   1.0000   1.0000
     1.0000   1.0000   1.0000   1.0000   1.0000   1.0000   1.0000   1.0000
     1.0000   1.0000   1.0000   1.0000   1.0000   1.0000   1.0000   1.0000
     1.0000   1.0000   1.0000   1.0000   1.0000   1.0000   1.0000   1.0000
     1.0000   1.0000   1.0000   1.0000   1.0000   1.0000   1.0000   1.0000
     1.0000   1.0000   1.0000   1.0000   1.0000   1.0000   1.0000   1.0000
     1.0000   1.0000   1.0000   1.0000   1.0000   1.0000   1.0000   1.0000
     1.0000   1.0000   1.0000   1.0000   1.0000   1.0000   1.0000   1.0000
     1.0000   1.0000   1.0000   1.0000   1.0000   1.0000   1.0000   1.0000
     1.0000   1.0000   1.0000   1.0000   1.0000   1.0000   1.0000   1.0000
     1.0000   1.0000   1.0000   1.0000   1.0000   1.0000   1.0000   1.0000
     1.0000   1.0000   1.0000   1.0000   1.0000   1.0000   1.0000   1.0000
     1.0000   1.0000   1.0000   1.0000   1.0000   1.0000   1.0000   1.0000
     1.0000   1.0000   1.0000   1.0000   1.0000   1.0000   1.0000   1.0000
     1.0000   1.0000   1.0000   1.0000   1.0000   1.0000   1.0000   1.0000
     1.0000   1.0000   1.0000   1.0000   1.0000   1.0000   1.0000   1.0000
     1.0000   1.0000   1.0000   1.0000   1.0000   1.0000   1.0000   1.0000
     1.0000   1.0000   1.0000   1.0000   1.0000   1.0000   1.0000   1.0000
     1.0000   1.0000   1.0000   1.0000   1.0000   1.0000   1.0000   0.9999
     0.9999   0.9997   0.9997   0.9996   0.9996   0.9995   0.9995   0.9994
     0.9993   0.9993   0.9988   0.9984   0.9981   0.9978   0.9933   0.9923
     0.9913   0.9876   0.9861   0.9851   0.9841   0.9823   0.9815   0.9800
     0.9782   0.9753   0.9723   0.9691   0.9685   0.9656   0.9594   0.9472
     0.9429   0.9049   0.8993   0.8949   0.8585   0.8547   0.8411   0.8359
     0.8336   0.8305   0.8107   0.8062   0.7834   0.7737   0.7375   0.7310
     0.6974   0.6924   0.6812   0.6795   0.6699   0.6665   0.6634   0.6632
     0.6605   0.6539   0.6440   0.6433   0.6074   0.6042   0.5955   0.5639
     0.1145   0.1084   0.1040   0.0835   0.0168   0.0098   0.0059   0.0032
     0.0010   0.0008   0.0004   0.0002   0.0000   0.0000   0.0000   0.0000
     0.0000   0.0000   0.0000   0.0000   0.0000   0.0000   0.0000   0.0000
     0.0000   0.0000   0.0000   0.0000   0.0000   0.0000   0.0000   0.0000
     0.0000   0.0000   0.0000

          k = 0.2500 0.2500 0.0000 ( 65198 PWs)   bands (ev):

   -92.6817 -92.6296 -92.5357 -92.4887 -92.4293 -92.3880 -92.3715 -92.2521
   -56.0352 -56.0164 -55.8930 -55.8825 -55.8762 -55.8693 -55.8344 -55.8049
   -55.7904 -55.7874 -55.7793 -55.7373 -55.7189 -55.6808 -55.6621 -55.6291
   -55.6246 -55.5768 -55.5757 -55.5734 -55.5649 -55.5272 -55.5016 -55.4188
   -31.2574 -31.2415 -31.0981 -31.0306 -31.0119 -30.9532 -30.8438 -30.7335
   -29.8278 -29.7868 -29.7606 -29.6527 -14.9973 -14.9584 -14.8852 -14.7680
   -14.6493 -14.5237 -14.4510 -14.2446 -14.0897 -14.0764 -14.0401 -14.0109
   -13.9890 -13.9625 -13.9341 -13.9258 -13.8961 -13.8206 -13.8043 -13.6447
   -13.6303 -13.6009 -13.5815 -13.5281 -13.4917 -13.4309 -13.4076 -13.2752
   -13.2227 -13.2080 -13.1234 -13.0831 -13.0320 -13.0003 -12.9852 -12.9602
   -12.9282 -12.9055 -12.8931 -12.8328 -12.7840 -12.7636 -12.7309 -12.7248
   -12.6955 -12.6785 -12.6657 -12.4965 -12.4336 -12.3692 -12.2586 -12.1030
   -12.0503 -11.7806 -11.7490 -11.7381 -11.7309 -11.6685 -11.6336 -11.6271
   -11.5917 -11.5836 -11.4920 -11.4509 -11.4336  -2.6491  -2.4403  -2.3221
    -2.2285  -2.1074  -2.0425  -1.8449  -1.7002  -1.6807  -1.6516  -1.5574
    -1.5214  -1.4287  -1.4014  -1.3511  -1.2207  -1.1720  -1.0999  -1.0545
    -1.0331  -1.0079  -0.9852  -0.9611  -0.9191  -0.9038  -0.8130  -0.7632
    -0.6982  -0.6482  -0.6188  -0.5687  -0.5547  -0.4920  -0.4429  -0.3838
    -0.3502  -0.2654  -0.2138  -0.1841  -0.1452  -0.0892  -0.0202   0.0203
     0.0526   0.1289   0.2030   0.4279   0.5748   0.6103   0.6691   0.7105
     0.8011   0.8600   0.8894   0.9218   1.1940   1.2596   1.3340   1.3577
     1.4078   1.4392   1.4734   1.5097   1.5283   1.5550   1.5982   1.6084
     1.6228   1.6701   1.7130   1.7475   1.7986   1.8426   1.8515   1.8886
     1.9260   1.9803   2.0098   2.1391   2.1933   2.2279   2.2546   2.3215
     2.3874   2.4147   2.4477   2.4687   2.4799   2.5017   2.5089   2.6202
     2.6413   2.7276   2.8955   2.9124   2.9184   2.9342   2.9487   2.9625
     2.9745   2.9819   2.9932   3.0063   3.0190   3.0373   3.0443   3.0555
     3.0777   3.0892   3.0976   3.1305   3.4305   3.5237   3.5656   3.6354
     3.6659   3.8828   3.9739   4.3279   4.5310   4.7354   5.0045   5.1794
     5.6633   5.7196   5.7849   5.8546   5.9132   6.0833   6.1732   6.2281
     6.9122   6.9489   7.0933   7.2405   7.5668   7.6224   7.7297   7.8380
     7.8880   8.0141   8.1646   8.2018   8.2911   8.3501   8.4630   8.5353
     8.6128   8.6530   8.8867

     occupation numbers 
     1.0000   1.0000   1.0000   1.0000   1.0000   1.0000   1.0000   1.0000
     1.0000   1.0000   1.0000   1.0000   1.0000   1.0000   1.0000   1.0000
     1.0000   1.0000   1.0000   1.0000   1.0000   1.0000   1.0000   1.0000
     1.0000   1.0000   1.0000   1.0000   1.0000   1.0000   1.0000   1.0000
     1.0000   1.0000   1.0000   1.0000   1.0000   1.0000   1.0000   1.0000
     1.0000   1.0000   1.0000   1.0000   1.0000   1.0000   1.0000   1.0000
     1.0000   1.0000   1.0000   1.0000   1.0000   1.0000   1.0000   1.0000
     1.0000   1.0000   1.0000   1.0000   1.0000   1.0000   1.0000   1.0000
     1.0000   1.0000   1.0000   1.0000   1.0000   1.0000   1.0000   1.0000
     1.0000   1.0000   1.0000   1.0000   1.0000   1.0000   1.0000   1.0000
     1.0000   1.0000   1.0000   1.0000   1.0000   1.0000   1.0000   1.0000
     1.0000   1.0000   1.0000   1.0000   1.0000   1.0000   1.0000   1.0000
     1.0000   1.0000   1.0000   1.0000   1.0000   1.0000   1.0000   1.0000
     1.0000   1.0000   1.0000   1.0000   1.0000   1.0000   1.0000   1.0000
     1.0000   1.0000   1.0000   1.0000   1.0000   1.0000   1.0000   1.0000
     1.0000   1.0000   1.0000   1.0000   1.0000   1.0000   1.0000   1.0000
     1.0000   1.0000   1.0000   1.0000   1.0000   1.0000   1.0000   1.0000
     1.0000   1.0000   1.0000   1.0000   1.0000   1.0000   1.0000   1.0000
     1.0000   1.0000   1.0000   1.0000   1.0000   1.0000   1.0000   1.0000
     1.0000   1.0000   1.0000   1.0000   1.0000   1.0000   1.0000   1.0000
     0.9999   0.9999   0.9999   0.9998   0.9993   0.9990   0.9986   0.9984
     0.9980   0.9977   0.9973   0.9968   0.9965   0.9961   0.9953   0.9951
     0.9947   0.9936   0.9923   0.9912   0.9892   0.9872   0.9868   0.9848
     0.9825   0.9787   0.9764   0.9634   0.9565   0.9515   0.9474   0.9359
     0.9227   0.9166   0.9088   0.9036   0.9008   0.8950   0.8930   0.8594
     0.8522   0.8207   0.7482   0.7401   0.7372   0.7295   0.7223   0.7154
     0.7093   0.7056   0.6998   0.6929   0.6863   0.6766   0.6728   0.6668
     0.6548   0.6484   0.6438   0.6254   0.4500   0.3959   0.3721   0.3336
     0.3173   0.2126   0.1755   0.0724   0.0392   0.0195   0.0069   0.0032
     0.0003   0.0002   0.0001   0.0001   0.0001   0.0000   0.0000   0.0000
     0.0000   0.0000   0.0000   0.0000   0.0000   0.0000   0.0000   0.0000
     0.0000   0.0000   0.0000   0.0000   0.0000   0.0000   0.0000   0.0000
     0.0000   0.0000   0.0000

          k = 0.2500-0.5000 0.0000 ( 65138 PWs)   bands (ev):

   -92.6817 -92.6296 -92.5357 -92.4887 -92.4293 -92.3880 -92.3715 -92.2521
   -56.0352 -56.0164 -55.8930 -55.8825 -55.8762 -55.8693 -55.8344 -55.8049
   -55.7904 -55.7874 -55.7793 -55.7373 -55.7189 -55.6808 -55.6621 -55.6291
   -55.6246 -55.5768 -55.5757 -55.5734 -55.5649 -55.5272 -55.5016 -55.4188
   -31.2572 -31.2413 -31.0983 -31.0302 -31.0121 -30.9536 -30.8436 -30.7338
   -29.8272 -29.7865 -29.7612 -29.6531 -14.9605 -14.9157 -14.8463 -14.7310
   -14.6998 -14.5797 -14.4896 -14.3599 -14.0540 -14.0005 -13.9747 -13.9532
   -13.9372 -13.9302 -13.9241 -13.8876 -13.8701 -13.8367 -13.8005 -13.7722
   -13.7376 -13.6473 -13.5986 -13.5448 -13.5191 -13.4542 -13.4419 -13.3286
   -13.2732 -13.1883 -13.1236 -13.1017 -13.0161 -12.9733 -12.9657 -12.9577
   -12.9274 -12.9150 -12.8928 -12.8121 -12.7820 -12.7660 -12.7307 -12.7003
   -12.6789 -12.6365 -12.6052 -12.5028 -12.3904 -12.3021 -12.2281 -12.1684
   -12.1370 -11.7562 -11.7443 -11.7333 -11.7061 -11.6746 -11.6462 -11.6049
   -11.5775 -11.5553 -11.5101 -11.4845 -11.4734  -2.4314  -2.3644  -2.2370
    -2.1597  -2.0301  -1.9453  -1.8231  -1.6725  -1.6188  -1.5969  -1.5334
    -1.5202  -1.4234  -1.3566  -1.2718  -1.2221  -1.2126  -1.1497  -1.1075
    -1.0733  -1.0337  -1.0202  -0.9875  -0.9529  -0.9128  -0.9011  -0.8559
    -0.8269  -0.7852  -0.7530  -0.6869  -0.5847  -0.5426  -0.4677  -0.4030
    -0.3538  -0.3112  -0.2897  -0.2389  -0.0773  -0.0664   0.0440   0.0769
     0.0922   0.1401   0.1630   0.2128   0.2301   0.2937   0.5642   0.6581
     0.7677   0.8472   1.0515   1.0809   1.1659   1.1914   1.3568   1.3912
     1.4331   1.4537   1.4705   1.4906   1.5537   1.6001   1.6353   1.7225
     1.8000   1.8438   1.8663   1.8782   1.9104   1.9244   1.9300   1.9754
     1.9884   2.0037   2.0557   2.0637   2.0805   2.1171   2.1719   2.2116
     2.2885   2.4300   2.4851   2.4898   2.5770   2.5986   2.6244   2.6396
     2.6622   2.6903   2.7111   2.7271   2.7495   2.8464   2.8947   2.9141
     2.9189   2.9316   2.9522   2.9663   2.9849   2.9926   3.0247   3.0372
     3.0510   3.0617   3.0716   3.0808   3.6090   3.6143   3.7618   3.8115
     4.1632   4.1998   4.2188   4.3343   4.7936   4.9397   5.0814   5.1535
     5.3238   5.4491   5.6223   5.6568   5.7864   5.8056   6.3770   6.4116
     6.5031   6.6288   7.2000   7.4079   7.5590   7.7203   7.7521   7.8318
     7.8974   8.0575   8.2371   8.4245   8.4824   8.5487   8.5713   8.5845
     8.6912   8.7315   8.7765

     occupation numbers 
     1.0000   1.0000   1.0000   1.0000   1.0000   1.0000   1.0000   1.0000
     1.0000   1.0000   1.0000   1.0000   1.0000   1.0000   1.0000   1.0000
     1.0000   1.0000   1.0000   1.0000   1.0000   1.0000   1.0000   1.0000
     1.0000   1.0000   1.0000   1.0000   1.0000   1.0000   1.0000   1.0000
     1.0000   1.0000   1.0000   1.0000   1.0000   1.0000   1.0000   1.0000
     1.0000   1.0000   1.0000   1.0000   1.0000   1.0000   1.0000   1.0000
     1.0000   1.0000   1.0000   1.0000   1.0000   1.0000   1.0000   1.0000
     1.0000   1.0000   1.0000   1.0000   1.0000   1.0000   1.0000   1.0000
     1.0000   1.0000   1.0000   1.0000   1.0000   1.0000   1.0000   1.0000
     1.0000   1.0000   1.0000   1.0000   1.0000   1.0000   1.0000   1.0000
     1.0000   1.0000   1.0000   1.0000   1.0000   1.0000   1.0000   1.0000
     1.0000   1.0000   1.0000   1.0000   1.0000   1.0000   1.0000   1.0000
     1.0000   1.0000   1.0000   1.0000   1.0000   1.0000   1.0000   1.0000
     1.0000   1.0000   1.0000   1.0000   1.0000   1.0000   1.0000   1.0000
     1.0000   1.0000   1.0000   1.0000   1.0000   1.0000   1.0000   1.0000
     1.0000   1.0000   1.0000   1.0000   1.0000   1.0000   1.0000   1.0000
     1.0000   1.0000   1.0000   1.0000   1.0000   1.0000   1.0000   1.0000
     1.0000   1.0000   1.0000   1.0000   1.0000   1.0000   1.0000   1.0000
     1.0000   1.0000   1.0000   1.0000   1.0000   1.0000   1.0000   1.0000
     1.0000   1.0000   1.0000   1.0000   1.0000   1.0000   1.0000   1.0000
     0.9999   0.9999   0.9997   0.9996   0.9994   0.9993   0.9984   0.9981
     0.9977   0.9975   0.9973   0.9971   0.9961   0.9952   0.9945   0.9920
     0.9891   0.9871   0.9860   0.9853   0.9835   0.9826   0.9822   0.9791
     0.9781   0.9769   0.9723   0.9715   0.9699   0.9660   0.9593   0.9539
     0.9418   0.9131   0.8994   0.8982   0.8732   0.8664   0.8580   0.8528
     0.8450   0.8348   0.8271   0.8209   0.8120   0.7708   0.7485   0.7393
     0.7369   0.7308   0.7206   0.7135   0.7040   0.7000   0.6833   0.6766
     0.6692   0.6634   0.6581   0.6530   0.3480   0.3451   0.2684   0.2447
     0.1124   0.1024   0.0975   0.0711   0.0158   0.0090   0.0050   0.0036
     0.0017   0.0009   0.0004   0.0003   0.0001   0.0001   0.0000   0.0000
     0.0000   0.0000   0.0000   0.0000   0.0000   0.0000   0.0000   0.0000
     0.0000   0.0000   0.0000   0.0000   0.0000   0.0000   0.0000   0.0000
     0.0000   0.0000   0.0000

          k =-0.5000-0.5000 0.0000 ( 65132 PWs)   bands (ev):

   -92.6817 -92.6296 -92.5357 -92.4887 -92.4293 -92.3880 -92.3715 -92.2521
   -56.0352 -56.0164 -55.8930 -55.8825 -55.8762 -55.8693 -55.8344 -55.8049
   -55.7904 -55.7874 -55.7793 -55.7373 -55.7189 -55.6808 -55.6621 -55.6291
   -55.6246 -55.5768 -55.5757 -55.5734 -55.5649 -55.5272 -55.5016 -55.4188
   -31.2550 -31.2435 -31.0979 -31.0300 -31.0125 -30.9535 -30.8437 -30.7340
   -29.8262 -29.7875 -29.7608 -29.6535 -14.9141 -14.8886 -14.7710 -14.7587
   -14.6627 -14.6271 -14.5927 -14.4595 -13.9649 -13.9541 -13.9300 -13.9187
   -13.9008 -13.8828 -13.8679 -13.8411 -13.8280 -13.8141 -13.8073 -13.7907
   -13.7140 -13.7077 -13.6752 -13.6432 -13.6359 -13.5405 -13.5127 -13.3714
   -13.3114 -13.1390 -13.0990 -13.0313 -13.0069 -12.9729 -12.9659 -12.9565
   -12.9418 -12.9357 -12.8907 -12.8003 -12.7807 -12.7703 -12.7495 -12.7149
   -12.6935 -12.5865 -12.5784 -12.5192 -12.3695 -12.2985 -12.1969 -12.1579
   -12.1462 -11.7527 -11.7405 -11.7226 -11.7058 -11.6708 -11.6532 -11.6184
   -11.5578 -11.5376 -11.5324 -11.4822 -11.4792  -2.2072  -2.1321  -2.1217
    -2.0470  -2.0105  -1.9324  -1.8648  -1.7386  -1.6230  -1.5932  -1.5533
    -1.4961  -1.4242  -1.4097  -1.3393  -1.2959  -1.1798  -1.1509  -1.1021
    -1.0733  -1.0312  -1.0085  -0.9632  -0.9443  -0.9323  -0.8765  -0.8338
    -0.8185  -0.7054  -0.6478  -0.6017  -0.5522  -0.5218  -0.5121  -0.4779
    -0.4344  -0.4006  -0.3892  -0.3025  -0.2388  -0.1912  -0.1670  -0.0925
    -0.0374  -0.0230   0.0344   0.0667   0.0740   0.1187   0.5365   0.5733
     0.6953   0.7994   1.0861   1.1001   1.1296   1.1690   1.4423   1.4628
     1.4697   1.5088   1.6354   1.7309   1.7576   1.7933   1.8123   1.8425
     1.8479   1.8775   1.8857   1.9006   1.9157   1.9678   1.9716   2.0010
     2.0147   2.0394   2.0492   2.0858   2.1119   2.1312   2.1597   2.1929
     2.2504   2.3224   2.4851   2.4875   2.5938   2.6201   2.6411   2.6567
     2.6745   2.6986   2.7015   2.7209   2.7322   2.7491   2.7695   2.7807
     2.8472   2.8494   2.8717   2.8858   2.8975   2.9175   2.9213   2.9316
     3.0338   3.0378   3.0687   3.0789   4.0462   4.0691   4.0818   4.0865
     4.3406   4.4179   4.4376   4.6785   4.8005   4.8833   5.0121   5.0962
     5.1232   5.2257   5.3179   5.4310   5.8685   5.8965   5.9742   6.0457
     6.6038   6.8102   6.9982   7.0443   7.8721   7.9205   7.9336   7.9542
     7.9950   8.0384   8.1088   8.2810   8.4000   8.6034   8.6340   8.6770
     8.6996   8.8131   8.8304

     occupation numbers 
     1.0000   1.0000   1.0000   1.0000   1.0000   1.0000   1.0000   1.0000
     1.0000   1.0000   1.0000   1.0000   1.0000   1.0000   1.0000   1.0000
     1.0000   1.0000   1.0000   1.0000   1.0000   1.0000   1.0000   1.0000
     1.0000   1.0000   1.0000   1.0000   1.0000   1.0000   1.0000   1.0000
     1.0000   1.0000   1.0000   1.0000   1.0000   1.0000   1.0000   1.0000
     1.0000   1.0000   1.0000   1.0000   1.0000   1.0000   1.0000   1.0000
     1.0000   1.0000   1.0000   1.0000   1.0000   1.0000   1.0000   1.0000
     1.0000   1.0000   1.0000   1.0000   1.0000   1.0000   1.0000   1.0000
     1.0000   1.0000   1.0000   1.0000   1.0000   1.0000   1.0000   1.0000
     1.0000   1.0000   1.0000   1.0000   1.0000   1.0000   1.0000   1.0000
     1.0000   1.0000   1.0000   1.0000   1.0000   1.0000   1.0000   1.0000
     1.0000   1.0000   1.0000   1.0000   1.0000   1.0000   1.0000   1.0000
     1.0000   1.0000   1.0000   1.0000   1.0000   1.0000   1.0000   1.0000
     1.0000   1.0000   1.0000   1.0000   1.0000   1.0000   1.0000   1.0000
     1.0000   1.0000   1.0000   1.0000   1.0000   1.0000   1.0000   1.0000
     1.0000   1.0000   1.0000   1.0000   1.0000   1.0000   1.0000   1.0000
     1.0000   1.0000   1.0000   1.0000   1.0000   1.0000   1.0000   1.0000
     1.0000   1.0000   1.0000   1.0000   1.0000   1.0000   1.0000   1.0000
     1.0000   1.0000   1.0000   1.0000   1.0000   1.0000   1.0000   1.0000
     1.0000   1.0000   1.0000   1.0000   1.0000   1.0000   1.0000   1.0000
     1.0000   0.9999   0.9996   0.9996   0.9995   0.9994   0.9976   0.9974
     0.9973   0.9968   0.9945   0.9918   0.9908   0.9894   0.9886   0.9872
     0.9869   0.9854   0.9849   0.9841   0.9831   0.9796   0.9794   0.9771
     0.9760   0.9738   0.9729   0.9693   0.9665   0.9644   0.9609   0.9566
     0.9481   0.9357   0.8994   0.8988   0.8679   0.8594   0.8523   0.8469
     0.8406   0.8317   0.8307   0.8233   0.8189   0.8122   0.8039   0.7993
     0.7705   0.7695   0.7593   0.7527   0.7472   0.7376   0.7358   0.7308
     0.6784   0.6763   0.6596   0.6541   0.1492   0.1414   0.1372   0.1357
     0.0698   0.0557   0.0525   0.0239   0.0154   0.0112   0.0067   0.0047
     0.0042   0.0026   0.0017   0.0010   0.0001   0.0001   0.0000   0.0000
     0.0000   0.0000   0.0000   0.0000   0.0000   0.0000   0.0000   0.0000
     0.0000   0.0000   0.0000   0.0000   0.0000   0.0000   0.0000   0.0000
     0.0000   0.0000   0.0000

          k = 0.2500 0.0000 0.0000 ( 65257 PWs)   bands (ev):

   -92.6817 -92.6296 -92.5357 -92.4887 -92.4293 -92.3880 -92.3715 -92.2521
   -56.0352 -56.0164 -55.8930 -55.8825 -55.8762 -55.8693 -55.8344 -55.8049
   -55.7904 -55.7874 -55.7793 -55.7373 -55.7189 -55.6808 -55.6621 -55.6291
   -55.6246 -55.5768 -55.5757 -55.5734 -55.5649 -55.5272 -55.5016 -55.4188
[...]
     0.3493   0.3244   0.2052   0.0781   0.0464   0.0218   0.0060   0.0049
     0.0003   0.0001   0.0001   0.0000   0.0000   0.0000   0.0000   0.0000
     0.0000   0.0000   0.0000   0.0000   0.0000   0.0000   0.0000   0.0000
     0.0000   0.0000   0.0000   0.0000   0.0000   0.0000   0.0000   0.0000
     0.0000   0.0000   0.0000

          k =-0.5000 0.0000 0.0000 ( 65180 PWs)   bands (ev):

   -92.6817 -92.6296 -92.5357 -92.4887 -92.4293 -92.3880 -92.3715 -92.2521
   -56.0352 -56.0164 -55.8930 -55.8825 -55.8762 -55.8693 -55.8344 -55.8049
   -55.7904 -55.7874 -55.7793 -55.7373 -55.7189 -55.6808 -55.6621 -55.6291
   -55.6246 -55.5768 -55.5757 -55.5734 -55.5649 -55.5272 -55.5016 -55.4188
   -31.2554 -31.2438 -31.0975 -31.0308 -31.0122 -30.9527 -30.8443 -30.7334
   -29.8274 -29.7881 -29.7596 -29.6528 -14.9962 -14.9446 -14.8825 -14.7732
   -14.6701 -14.5251 -14.3817 -14.2367 -14.1133 -14.1006 -14.0893 -14.0286
   -13.9735 -13.9410 -13.9302 -13.8912 -13.8849 -13.8671 -13.8189 -13.7972
   -13.6932 -13.5361 -13.5087 -13.4759 -13.4681 -13.4113 -13.3457 -13.2785
   -13.2493 -13.2258 -13.1944 -13.0358 -13.0258 -13.0204 -12.9985 -12.9895
   -12.9402 -12.9246 -12.9061 -12.8428 -12.8268 -12.7499 -12.6806 -12.6527
   -12.6402 -12.6217 -12.6122 -12.5223 -12.4420 -12.3085 -12.2902 -12.1636
   -12.1228 -11.7597 -11.7382 -11.7315 -11.7168 -11.6988 -11.6575 -11.5945
   -11.5770 -11.5440 -11.4995 -11.4902 -11.4746  -2.5627  -2.5241  -2.3605
    -2.3214  -2.0082  -1.9329  -1.7850  -1.6671  -1.6285  -1.5813  -1.5344
    -1.5094  -1.3865  -1.3423  -1.3263  -1.2442  -1.2087  -1.1928  -1.1624
    -1.1042  -1.0416  -1.0258  -1.0064  -0.9772  -0.8824  -0.8353  -0.7862
    -0.7541  -0.7325  -0.7017  -0.6546  -0.6290  -0.5917  -0.4937  -0.4150
    -0.3554  -0.2923  -0.1331  -0.0727  -0.0374  -0.0049   0.0524   0.0772
     0.2168   0.2494   0.3250   0.4587   0.5579   0.6053   0.7241   0.7597
     0.8833   0.9147   1.0216   1.0498   1.1045   1.1380   1.1755   1.1822
     1.2300   1.2518   1.3190   1.3685   1.4150   1.4248   1.7227   1.7382
     1.7446   1.7637   1.8728   1.8873   1.9008   1.9122   1.9433   1.9564
     1.9958   2.0203   2.0440   2.0966   2.1131   2.1633   2.1890   2.2425
     2.3484   2.4462   2.4853   2.5136   2.5223   2.5348   2.6292   2.6456
     2.6787   2.7449   2.7518   2.7585   2.7878   2.8569   2.9005   2.9480
     2.9734   3.0205   3.0234   3.0265   3.0364   3.0537   3.0635   3.0768
     3.0819   3.1019   3.1079   3.1281   3.1483   3.1529   3.2815   3.2904
     4.1251   4.1415   4.2019   4.3411   4.8093   4.8791   5.0636   5.0726
     5.4989   5.5277   5.6144   5.6703   6.0504   6.0535   6.3313   6.4204
     6.8119   7.0192   7.2824   7.3117   7.3494   7.4342   7.7379   7.7943
     7.9018   8.0203   8.1101   8.3114   8.3713   8.4297   8.5353   8.6433
     8.7788   8.8325   8.8965

     occupation numbers 
     1.0000   1.0000   1.0000   1.0000   1.0000   1.0000   1.0000   1.0000
     1.0000   1.0000   1.0000   1.0000   1.0000   1.0000   1.0000   1.0000
     1.0000   1.0000   1.0000   1.0000   1.0000   1.0000   1.0000   1.0000
     1.0000   1.0000   1.0000   1.0000   1.0000   1.0000   1.0000   1.0000
     1.0000   1.0000   1.0000   1.0000   1.0000   1.0000   1.0000   1.0000
     1.0000   1.0000   1.0000   1.0000   1.0000   1.0000   1.0000   1.0000
     1.0000   1.0000   1.0000   1.0000   1.0000   1.0000   1.0000   1.0000
     1.0000   1.0000   1.0000   1.0000   1.0000   1.0000   1.0000   1.0000
     1.0000   1.0000   1.0000   1.0000   1.0000   1.0000   1.0000   1.0000
     1.0000   1.0000   1.0000   1.0000   1.0000   1.0000   1.0000   1.0000
     1.0000   1.0000   1.0000   1.0000   1.0000   1.0000   1.0000   1.0000
     1.0000   1.0000   1.0000   1.0000   1.0000   1.0000   1.0000   1.0000
     1.0000   1.0000   1.0000   1.0000   1.0000   1.0000   1.0000   1.0000
     1.0000   1.0000   1.0000   1.0000   1.0000   1.0000   1.0000   1.0000
     1.0000   1.0000   1.0000   1.0000   1.0000   1.0000   1.0000   1.0000
     1.0000   1.0000   1.0000   1.0000   1.0000   1.0000   1.0000   1.0000
     1.0000   1.0000   1.0000   1.0000   1.0000   1.0000   1.0000   1.0000
     1.0000   1.0000   1.0000   1.0000   1.0000   1.0000   1.0000   1.0000
     1.0000   1.0000   1.0000   1.0000   1.0000   1.0000   1.0000   1.0000
     1.0000   1.0000   1.0000   1.0000   1.0000   1.0000   1.0000   0.9999
     0.9999   0.9998   0.9997   0.9997   0.9996   0.9995   0.9994   0.9993
     0.9992   0.9991   0.9987   0.9983   0.9979   0.9978   0.9920   0.9915
     0.9913   0.9906   0.9856   0.9848   0.9841   0.9834   0.9814   0.9805
     0.9775   0.9755   0.9734   0.9682   0.9664   0.9604   0.9571   0.9493
     0.9307   0.9092   0.8994   0.8917   0.8893   0.8858   0.8564   0.8508
     0.8391   0.8139   0.8111   0.8085   0.7963   0.7661   0.7458   0.7227
     0.7099   0.6855   0.6840   0.6823   0.6771   0.6678   0.6625   0.6552
     0.6524   0.6414   0.6380   0.6268   0.6154   0.6128   0.5380   0.5328
     0.1236   0.1187   0.1018   0.0697   0.0149   0.0114   0.0054   0.0052
     0.0007   0.0006   0.0004   0.0003   0.0000   0.0000   0.0000   0.0000
     0.0000   0.0000   0.0000   0.0000   0.0000   0.0000   0.0000   0.0000
     0.0000   0.0000   0.0000   0.0000   0.0000   0.0000   0.0000   0.0000
     0.0000   0.0000   0.0000

          k =-0.2500 0.2500 0.0000 ( 65198 PWs)   bands (ev):

   -92.6817 -92.6296 -92.5357 -92.4887 -92.4293 -92.3880 -92.3715 -92.2521
   -56.0352 -56.0164 -55.8930 -55.8825 -55.8762 -55.8693 -55.8344 -55.8049
   -55.7904 -55.7874 -55.7793 -55.7373 -55.7189 -55.6808 -55.6621 -55.6291
   -55.6246 -55.5768 -55.5757 -55.5734 -55.5649 -55.5272 -55.5016 -55.4188
   -31.2574 -31.2415 -31.0981 -31.0306 -31.0119 -30.9532 -30.8438 -30.7335
   -29.8278 -29.7868 -29.7606 -29.6527 -14.9986 -14.9573 -14.8837 -14.7664
   -14.6553 -14.5285 -14.4430 -14.2357 -14.0962 -14.0671 -14.0533 -14.0063
   -13.9820 -13.9627 -13.9464 -13.9312 -13.8974 -13.8160 -13.8049 -13.6536
   -13.6267 -13.5982 -13.5776 -13.5318 -13.4781 -13.4239 -13.4162 -13.2833
   -13.2200 -13.2025 -13.1276 -13.0848 -13.0214 -12.9936 -12.9797 -12.9677
   -12.9310 -12.9081 -12.8837 -12.8510 -12.7923 -12.7740 -12.7517 -12.7252
   -12.6807 -12.6703 -12.6548 -12.4765 -12.4234 -12.3888 -12.2643 -12.1063
   -12.0457 -11.7799 -11.7583 -11.7312 -11.7190 -11.6780 -11.6433 -11.6203
   -11.5987 -11.5762 -11.4917 -11.4464 -11.4367  -2.6475  -2.4392  -2.3179
    -2.2302  -2.1116  -2.0452  -1.8425  -1.6971  -1.6784  -1.6495  -1.5580
    -1.5202  -1.4285  -1.3947  -1.3687  -1.2265  -1.1700  -1.1021  -1.0738
    -1.0352  -1.0100  -0.9906  -0.9514  -0.9227  -0.8828  -0.8192  -0.7720
    -0.7091  -0.6399  -0.6146  -0.5634  -0.5346  -0.4891  -0.4325  -0.3876
    -0.3451  -0.2474  -0.2123  -0.2029  -0.1579  -0.0920  -0.0238   0.0243
     0.0573   0.1320   0.2031   0.4090   0.5791   0.6182   0.6571   0.7176
     0.7989   0.8659   0.8939   0.9205   1.2020   1.3104   1.3502   1.3823
     1.3896   1.4316   1.4478   1.4928   1.5227   1.5383   1.5634   1.6072
     1.6224   1.6686   1.6874   1.7320   1.8112   1.8328   1.8519   1.8959
     1.9209   1.9595   2.0192   2.1272   2.2218   2.2531   2.2999   2.3200
     2.3866   2.4272   2.4503   2.4712   2.4806   2.5041   2.5138   2.6203
     2.6398   2.7273   2.9019   2.9107   2.9238   2.9339   2.9446   2.9584
     2.9648   2.9834   2.9930   3.0064   3.0165   3.0285   3.0384   3.0470
     3.0792   3.0893   3.0971   3.1323   3.4238   3.5056   3.5682   3.6454
     3.6676   3.8686   3.9826   4.3273   4.5288   4.7363   5.0145   5.1794
     5.6646   5.7169   5.7876   5.8516   5.9142   6.0842   6.1834   6.2160
     6.9077   6.9608   7.0886   7.2366   7.5813   7.6291   7.6900   7.8471
     7.9127   7.9902   8.1609   8.2072   8.3119   8.3514   8.4658   8.5220
     8.6054   8.6656   8.8862

     occupation numbers 
     1.0000   1.0000   1.0000   1.0000   1.0000   1.0000   1.0000   1.0000
     1.0000   1.0000   1.0000   1.0000   1.0000   1.0000   1.0000   1.0000
     1.0000   1.0000   1.0000   1.0000   1.0000   1.0000   1.0000   1.0000
     1.0000   1.0000   1.0000   1.0000   1.0000   1.0000   1.0000   1.0000
     1.0000   1.0000   1.0000   1.0000   1.0000   1.0000   1.0000   1.0000
     1.0000   1.0000   1.0000   1.0000   1.0000   1.0000   1.0000   1.0000
     1.0000   1.0000   1.0000   1.0000   1.0000   1.0000   1.0000   1.0000
     1.0000   1.0000   1.0000   1.0000   1.0000   1.0000   1.0000   1.0000
     1.0000   1.0000   1.0000   1.0000   1.0000   1.0000   1.0000   1.0000
     1.0000   1.0000   1.0000   1.0000   1.0000   1.0000   1.0000   1.0000
     1.0000   1.0000   1.0000   1.0000   1.0000   1.0000   1.0000   1.0000
     1.0000   1.0000   1.0000   1.0000   1.0000   1.0000   1.0000   1.0000
     1.0000   1.0000   1.0000   1.0000   1.0000   1.0000   1.0000   1.0000
     1.0000   1.0000   1.0000   1.0000   1.0000   1.0000   1.0000   1.0000
     1.0000   1.0000   1.0000   1.0000   1.0000   1.0000   1.0000   1.0000
     1.0000   1.0000   1.0000   1.0000   1.0000   1.0000   1.0000   1.0000
     1.0000   1.0000   1.0000   1.0000   1.0000   1.0000   1.0000   1.0000
     1.0000   1.0000   1.0000   1.0000   1.0000   1.0000   1.0000   1.0000
     1.0000   1.0000   1.0000   1.0000   1.0000   1.0000   1.0000   1.0000
     1.0000   1.0000   1.0000   1.0000   1.0000   1.0000   1.0000   1.0000
     0.9999   0.9999   0.9999   0.9998   0.9993   0.9987   0.9985   0.9982
     0.9982   0.9978   0.9976   0.9970   0.9966   0.9964   0.9959   0.9951
     0.9948   0.9936   0.9931   0.9917   0.9887   0.9877   0.9867   0.9843
     0.9828   0.9802   0.9756   0.9648   0.9524   0.9477   0.9398   0.9362
     0.9228   0.9137   0.9082   0.9030   0.9006   0.8943   0.8917   0.8593
     0.8528   0.8208   0.7451   0.7409   0.7346   0.7296   0.7243   0.7175
     0.7142   0.7048   0.6998   0.6929   0.6876   0.6813   0.6760   0.6714
     0.6539   0.6484   0.6440   0.6244   0.4539   0.4062   0.3706   0.3282
     0.3164   0.2188   0.1722   0.0725   0.0395   0.0195   0.0066   0.0032
     0.0003   0.0002   0.0001   0.0001   0.0001   0.0000   0.0000   0.0000
     0.0000   0.0000   0.0000   0.0000   0.0000   0.0000   0.0000   0.0000
     0.0000   0.0000   0.0000   0.0000   0.0000   0.0000   0.0000   0.0000
     0.0000   0.0000   0.0000

          k =-0.5000 0.2500 0.0000 ( 65138 PWs)   bands (ev):

   -92.6817 -92.6296 -92.5357 -92.4887 -92.4293 -92.3880 -92.3715 -92.2521
   -56.0352 -56.0164 -55.8930 -55.8825 -55.8762 -55.8693 -55.8344 -55.8049
   -55.7904 -55.7874 -55.7793 -55.7373 -55.7189 -55.6808 -55.6621 -55.6291
   -55.6246 -55.5768 -55.5757 -55.5734 -55.5649 -55.5272 -55.5016 -55.4188
   -31.2552 -31.2437 -31.0977 -31.0304 -31.0123 -30.9531 -30.8440 -30.7337
   -29.8268 -29.7878 -29.7602 -29.6531 -14.9634 -14.9183 -14.8396 -14.7397
   -14.6987 -14.5720 -14.4849 -14.3539 -14.0466 -14.0159 -14.0043 -13.9603
   -13.9383 -13.9298 -13.9135 -13.8772 -13.8701 -13.8457 -13.8065 -13.7947
   -13.6856 -13.6188 -13.5698 -13.5667 -13.5527 -13.4637 -13.4499 -13.3214
   -13.2590 -13.1816 -13.1455 -13.0489 -13.0087 -12.9972 -12.9798 -12.9648
   -12.9340 -12.9208 -12.8921 -12.8636 -12.7854 -12.7627 -12.7111 -12.6831
   -12.6667 -12.6035 -12.5956 -12.5205 -12.4022 -12.3038 -12.2475 -12.1577
   -12.1320 -11.7525 -11.7398 -11.7256 -11.7137 -11.6924 -11.6623 -11.5815
   -11.5730 -11.5497 -11.5139 -11.4859 -11.4771  -2.4205  -2.3784  -2.2302
    -2.1880  -2.0274  -1.9513  -1.8091  -1.6732  -1.6168  -1.5890  -1.5507
    -1.5119  -1.4317  -1.3163  -1.2592  -1.2358  -1.2100  -1.1331  -1.1052
    -1.0670  -1.0496  -1.0302  -0.9883  -0.9593  -0.9204  -0.8849  -0.8563
    -0.7981  -0.7714  -0.7299  -0.6949  -0.5899  -0.5648  -0.4753  -0.4112
    -0.3816  -0.3250  -0.2375  -0.2080  -0.1048  -0.0725  -0.0069   0.0383
     0.0653   0.1381   0.1761   0.2252   0.2542   0.2899   0.6070   0.6535
     0.7410   0.8237   1.0326   1.0980   1.1666   1.1932   1.3714   1.4059
     1.4440   1.4565   1.4752   1.4923   1.5605   1.6050   1.6431   1.6749
     1.7887   1.8301   1.8641   1.8798   1.9133   1.9352   1.9525   1.9722
     1.9882   2.0104   2.0601   2.0715   2.1089   2.1317   2.1638   2.2224
     2.3393   2.4381   2.4644   2.4873   2.5050   2.5360   2.5726   2.6461
     2.6723   2.6800   2.7174   2.7488   2.7727   2.8571   2.8985   2.9108
     2.9165   2.9375   2.9603   2.9731   2.9871   2.9997   3.0212   3.0354
     3.0445   3.0527   3.0656   3.0783   3.6090   3.6410   3.7964   3.8145
     4.1246   4.1645   4.2150   4.4249   4.8040   4.8973   5.0661   5.0976
     5.4252   5.4506   5.6039   5.6382   5.7644   5.8118   6.4033   6.4325
     6.5040   6.5483   7.2888   7.3577   7.5682   7.7268   7.7517   7.8153
     7.9084   8.0425   8.2223   8.4469   8.5226   8.5318   8.5885   8.6165
     8.6600   8.6879   8.7705

     occupation numbers 
     1.0000   1.0000   1.0000   1.0000   1.0000   1.0000   1.0000   1.0000
     1.0000   1.0000   1.0000   1.0000   1.0000   1.0000   1.0000   1.0000
     1.0000   1.0000   1.0000   1.0000   1.0000   1.0000   1.0000   1.0000
     1.0000   1.0000   1.0000   1.0000   1.0000   1.0000   1.0000   1.0000
     1.0000   1.0000   1.0000   1.0000   1.0000   1.0000   1.0000   1.0000
     1.0000   1.0000   1.0000   1.0000   1.0000   1.0000   1.0000   1.0000
     1.0000   1.0000   1.0000   1.0000   1.0000   1.0000   1.0000   1.0000
     1.0000   1.0000   1.0000   1.0000   1.0000   1.0000   1.0000   1.0000
     1.0000   1.0000   1.0000   1.0000   1.0000   1.0000   1.0000   1.0000
     1.0000   1.0000   1.0000   1.0000   1.0000   1.0000   1.0000   1.0000
     1.0000   1.0000   1.0000   1.0000   1.0000   1.0000   1.0000   1.0000
     1.0000   1.0000   1.0000   1.0000   1.0000   1.0000   1.0000   1.0000
     1.0000   1.0000   1.0000   1.0000   1.0000   1.0000   1.0000   1.0000
     1.0000   1.0000   1.0000   1.0000   1.0000   1.0000   1.0000   1.0000
     1.0000   1.0000   1.0000   1.0000   1.0000   1.0000   1.0000   1.0000
     1.0000   1.0000   1.0000   1.0000   1.0000   1.0000   1.0000   1.0000
     1.0000   1.0000   1.0000   1.0000   1.0000   1.0000   1.0000   1.0000
     1.0000   1.0000   1.0000   1.0000   1.0000   1.0000   1.0000   1.0000
     1.0000   1.0000   1.0000   1.0000   1.0000   1.0000   1.0000   1.0000
     1.0000   1.0000   1.0000   1.0000   1.0000   1.0000   1.0000   1.0000
     0.9999   0.9999   0.9997   0.9996   0.9994   0.9993   0.9983   0.9980
     0.9976   0.9975   0.9973   0.9970   0.9960   0.9951   0.9943   0.9935
     0.9896   0.9878   0.9861   0.9853   0.9833   0.9819   0.9807   0.9793
     0.9781   0.9763   0.9719   0.9708   0.9669   0.9643   0.9604   0.9524
     0.9325   0.9111   0.9047   0.8988   0.8941   0.8854   0.8745   0.8506
     0.8414   0.8386   0.8246   0.8123   0.8026   0.7660   0.7467   0.7409
     0.7381   0.7278   0.7165   0.7100   0.7029   0.6963   0.6851   0.6776
     0.6727   0.6683   0.6614   0.6544   0.3480   0.3306   0.2517   0.2432
     0.1238   0.1121   0.0984   0.0545   0.0152   0.0106   0.0053   0.0046
     0.0010   0.0009   0.0004   0.0003   0.0002   0.0001   0.0000   0.0000
     0.0000   0.0000   0.0000   0.0000   0.0000   0.0000   0.0000   0.0000
     0.0000   0.0000   0.0000   0.0000   0.0000   0.0000   0.0000   0.0000
     0.0000   0.0000   0.0000

     the Fermi energy is     3.3458 ev

!    total energy              =   -4441.64847126 Ry
     estimated scf accuracy    <          1.9E-09 Ry
     smearing contrib. (-TS)   =      -1.15482080 Ry
     internal energy E=F+TS    =   -4440.49365047 Ry

     The total energy is F=E-TS. E is the sum of the following terms:
     one-electron contribution =  -20804.02246276 Ry
     hartree contribution      =   10534.25225094 Ry
     xc contribution           =    -694.17820671 Ry
     ewald contribution        =    6799.62662971 Ry
     one-center paw contrib.   =    -276.17186165 Ry
      -> PAW hartree energy AE =      25.17886724 Ry
      -> PAW hartree energy PS =     -25.06260501 Ry
      -> PAW xc energy AE      =     -16.51974743 Ry
      -> PAW xc energy PS      =       6.87932421 Ry
      -> total E_H with PAW    =   10534.36851317 Ry
      -> total E_XC with PAW   =    -703.81862993 Ry

     convergence has been achieved in  48 iterations

     Writing all to output data dir /bsuhome/zayahcortright/scratch/pwscf.save/
 
     init_run     :      7.86s CPU      8.55s WALL (       1 calls)
     electrons    :    760.73s CPU    843.15s WALL (       1 calls)

     Called by init_run:
     wfcinit      :      6.25s CPU      6.45s WALL (       1 calls)
     wfcinit:atom :      0.04s CPU      0.06s WALL (       5 calls)
     wfcinit:wfcr :      5.94s CPU      6.05s WALL (       5 calls)
     potinit      :      0.16s CPU      0.20s WALL (       1 calls)
     hinit0       :      0.58s CPU      0.77s WALL (       1 calls)

     Called by electrons:
     c_bands      :    612.56s CPU    624.38s WALL (      48 calls)
     sum_band     :    110.35s CPU    149.23s WALL (      48 calls)
     v_of_rho     :      5.24s CPU      5.64s WALL (      49 calls)
     v_h          :      0.46s CPU      0.46s WALL (      49 calls)
     v_xc         :      4.78s CPU      5.18s WALL (      49 calls)
     newd         :     18.08s CPU     48.98s WALL (      49 calls)
     PAW_pot      :      1.59s CPU      1.62s WALL (      49 calls)
     mix_rho      :     12.58s CPU     13.02s WALL (      48 calls)

     Called by c_bands:
     init_us_2    :      6.74s CPU      6.84s WALL (     485 calls)
     init_us_2:cp :      6.74s CPU      6.84s WALL (     485 calls)
     cegterg      :    582.96s CPU    594.42s WALL (     240 calls)

     Called by sum_band:
     sum_band:wei :      0.34s CPU      0.35s WALL (      48 calls)
     sum_band:loo :     89.40s CPU     90.14s WALL (      48 calls)
     sum_band:buf :      1.37s CPU      1.45s WALL (     240 calls)
     sum_band:ini :      3.07s CPU      3.08s WALL (     240 calls)
     sum_band:cal :     18.92s CPU     18.99s WALL (     240 calls)
     sum_band:bec :      0.57s CPU      0.60s WALL (     240 calls)
     addusdens    :     17.02s CPU     55.08s WALL (      48 calls)
                                        0.00s GPU  (      48 calls)
     addusd:skk   :      0.29s CPU      2.33s WALL (     192 calls)
                                        0.00s GPU  (     192 calls)

     Called by *egterg:
     cdiaghg      :     56.36s CPU     56.61s WALL (    1252 calls)
     cegterg:over :     44.13s CPU     44.33s WALL (    1012 calls)
     cegterg:upda :     49.33s CPU     50.14s WALL (    1012 calls)
     cegterg:last :     66.99s CPU     67.23s WALL (     431 calls)
     cdiaghg:chol :      3.24s CPU      3.27s WALL (    1252 calls)
     cdiaghg:inve :      3.47s CPU      3.49s WALL (    1252 calls)
     cdiaghg:para :      7.32s CPU      7.36s WALL (    2504 calls)
     h_psi        :    296.72s CPU    301.39s WALL (    1257 calls)
     s_psi        :     42.41s CPU     42.55s WALL (    1257 calls)
     g_psi        :      2.25s CPU      2.26s WALL (    1012 calls)

     Called by h_psi:
     h_psi:calbec :     44.48s CPU     44.70s WALL (    1257 calls)
     vloc_psi     :    204.95s CPU    206.85s WALL (    1257 calls)
     add_vuspsi   :     42.15s CPU     42.40s WALL (    1257 calls)

     General routines
     calbec       :     63.39s CPU     63.68s WALL (    1497 calls)
     fft          :      5.78s CPU      5.83s WALL (     635 calls)
     ffts         :      4.69s CPU      4.75s WALL (    5196 calls)
     fftw         :    168.80s CPU    170.19s WALL (  325686 calls)
     interpolate  :      0.40s CPU      0.41s WALL (      49 calls)
 
     Parallel routines

     PAW routines
     PAW_pot      :      1.59s CPU      1.62s WALL (      49 calls)
 
     PWSCF        :  12m50.79s CPU  14m16.45s WALL

 
   This run was terminated on:   5:41:44  22Jun2024            

=------------------------------------------------------------------------------=
   JOB DONE.
=------------------------------------------------------------------------------=
