
     Program PWSCF v.7.2 starts on 21Jun2024 at 16:11:29 

     This program is part of the open-source Quantum ESPRESSO suite
     for quantum simulation of materials; please cite
         "P. Giannozzi et al., J. Phys.:Condens. Matter 21 395502 (2009);
         "P. Giannozzi et al., J. Phys.:Condens. Matter 29 465901 (2017);
         "P. Giannozzi et al., J. Chem. Phys. 152 154105 (2020);
          URL http://www.quantum-espresso.org", 
     in publications or presentations arising from this work. More details at
     http://www.quantum-espresso.org/quote

     Parallel version (MPI & OpenMP), running on      48 processor cores
     Number of MPI processes:                48
     Threads/MPI process:                     1

     MPI processes distributed on     1 nodes
     33234 MiB available memory on the printing compute node when the environment starts
 
     Reading input from espresso.pwi
Warning: card &CELL ignored
Warning: card / ignored
Warning: card &FCP ignored
Warning: card / ignored
Warning: card &RISM ignored
Warning: card / ignored

     Current dimensions of program PWSCF are:
     Max number of different atomic species (ntypx) = 10
     Max number of k-points (npk) =  40000
     Max angular momentum in pseudopotentials (lmaxx) =  4
     file O.pbe-n-kjpaw_psl.0.1.UPF: wavefunction(s)  2P renormalized
     signal trapping enabled: kill the code with -SIGUSR1 to stop cleanly the simulation 
 
     K-points division:     npool     =       2
     R & G space division:  proc/nbgrp/npool/nimage =      24
     Subspace diagonalization in iterative solution of the eigenvalue problem:
     one sub-group per band group will be used
     scalapack distributed-memory algorithm (size of sub-group:  3*  3 procs)

 
     Parallelization info
     --------------------
     sticks:   dense  smooth     PW     G-vecs:    dense   smooth      PW
     Min         350     175     47                61430    21716    3036
     Max         351     177     48                61449    21727    3041
     Sum        8421    4205   1137              1474595   521381   72913
 
     Using Slab Decomposition
 


     bravais-lattice index     =            0
     lattice parameter (alat)  =      14.8599  a.u.
     unit-cell volume          =    8305.1283 (a.u.)^3
     number of atoms/cell      =           50
     number of atomic types    =            4
     number of electrons       =       431.00
     number of Kohn-Sham states=          259
     kinetic-energy cutoff     =      60.0000  Ry
     charge density cutoff     =     480.0000  Ry
     scf convergence threshold =      1.0E-08
     mixing beta               =       0.1500
     number of iterations used =            8  local-TF  mixing
     Exchange-correlation= PBE
                           (   1   4   3   4   0   0   0)

     celldm(1)=  14.859904  celldm(2)=   0.000000  celldm(3)=   0.000000
     celldm(4)=   0.000000  celldm(5)=   0.000000  celldm(6)=   0.000000

     crystal axes: (cart. coord. in units of alat)
               a(1) = (   1.000000   0.000000   0.000000 )  
               a(2) = (   0.000000   1.000000   0.000000 )  
               a(3) = (   0.000000   0.000000   2.531036 )  

     reciprocal axes: (cart. coord. in units 2 pi/alat)
               b(1) = (  1.000000  0.000000  0.000000 )  
               b(2) = (  0.000000  1.000000  0.000000 )  
               b(3) = (  0.000000  0.000000  0.395095 )  


     PseudoPot. # 1 for Sr read from file:
     /bsuhome/zayahcortright/q-e/pseudo/Sr_pbe_v1.uspp.F.UPF
     MD5 check sum: 6b418c05fbe9db5448babca5e47b7a5b
     Pseudo is Ultrasoft + core correction, Zval = 10.0
     Generated by new atomic code, or converted to UPF format
     Using radial grid of  883 points,  6 beta functions with: 
                l(1) =   0
                l(2) =   0
                l(3) =   1
                l(4) =   1
                l(5) =   2
                l(6) =   2
     Q(r) pseudized with  6 coefficients,  rinner =    1.400   1.400   1.400
                                                       1.400   1.400

     PseudoPot. # 2 for O  read from file:
     /bsuhome/zayahcortright/q-e/pseudo/O.pbe-n-kjpaw_psl.0.1.UPF
     MD5 check sum: 0234752ac141de4415c5fc33072bef88
     Pseudo is Projector augmented-wave + core cor, Zval =  6.0
     Generated using "atomic" code by A. Dal Corso  v.5.0.99 svn rev. 10869
     Shape of augmentation charge: BESSEL
     Using radial grid of 1095 points,  4 beta functions with: 
                l(1) =   0
                l(2) =   0
                l(3) =   1
                l(4) =   1
     Q(r) pseudized with 0 coefficients 


     PseudoPot. # 3 for Co read from file:
     /bsuhome/zayahcortright/q-e/pseudo/Co_pbe_v1.2.uspp.F.UPF
     MD5 check sum: 5f91765df6ddd3222702df6e7b74a16d
     Pseudo is Ultrasoft + core correction, Zval = 17.0
     Generated by new atomic code, or converted to UPF format
     Using radial grid of  863 points,  6 beta functions with: 
                l(1) =   0
                l(2) =   0
                l(3) =   1
                l(4) =   1
                l(5) =   2
                l(6) =   2
     Q(r) pseudized with  8 coefficients,  rinner =    1.200   1.200   1.200
                                                       1.200   1.200

     PseudoPot. # 4 for H  read from file:
     /bsuhome/zayahcortright/q-e/pseudo/H.pbe-rrkjus_psl.1.0.0.UPF
     MD5 check sum: f52b6d4d1c606e5624b1dc7b2218f220
     Pseudo is Ultrasoft, Zval =  1.0
     Generated using "atomic" code by A. Dal Corso  v.5.1
     Using radial grid of  929 points,  2 beta functions with: 
                l(1) =   0
                l(2) =   0
     Q(r) pseudized with 0 coefficients 


     atomic species   valence    mass     pseudopotential
        Sr            10.00    87.62000     Sr( 1.00)
        O              6.00    15.99900     O ( 1.00)
        Co            17.00    58.93319     Co( 1.00)
        H              1.00     1.00800     H ( 1.00)

     No symmetry found


                                    s                        frac. trans.

      isym =  1     identity                                     

 cryst.   s( 1) = (     1          0          0      )
                  (     0          1          0      )
                  (     0          0          1      )

 cart.    s( 1) = (  1.0000000  0.0000000  0.0000000 )
                  (  0.0000000  1.0000000  0.0000000 )
                  (  0.0000000  0.0000000  1.0000000 )


   Cartesian axes

     site n.     atom                  positions (alat units)
         1           Sr  tau(   1) = (   0.2508693   0.7491307   1.7574407  )
         2           O   tau(   2) = (   0.4985141   0.5014859   1.7715967  )
         3           Sr  tau(   3) = (   0.7482398   0.7454518   1.7648669  )
         4           Sr  tau(   4) = (   0.7441748   0.2558252   1.7667843  )
         5           Sr  tau(   5) = (   0.2508693   0.7491307   1.2696799  )
         6           Sr  tau(   6) = (   0.2508693   0.7491307   0.7632319  )
         7           Co  tau(   7) = (   0.4998914   0.5001086   1.0164559  )
         8           Co  tau(   8) = (   0.4936915   0.5063085   1.5135603  )
         9           O   tau(   9) = (   0.4988895   0.7610401   1.0164559  )
        10           O   tau(  10) = (   0.2389599   0.5011105   1.0164559  )
        11           O   tau(  11) = (   0.0070918   0.7374880   1.0164559  )
        12           O   tau(  12) = (   0.0088340   0.7405089   1.5135603  )
        13           O   tau(  13) = (   0.5066944   0.7415376   1.5135603  )
        14           O   tau(  14) = (   0.2584624   0.4933056   1.5135603  )
        15           O   tau(  15) = (   0.4985141   0.5014859   0.7773880  )
        16           O   tau(  16) = (   0.4985141   0.5014859   1.2555238  )
        17           Sr  tau(  17) = (   0.7482398   0.7454518   0.7706582  )
        18           Sr  tau(  18) = (   0.7482398   0.7454518   1.2622536  )
        19           Sr  tau(  19) = (   0.7441748   0.2558252   0.7725755  )
        20           Sr  tau(  20) = (   0.7441748   0.2558252   1.2603363  )
        21           O   tau(  21) = (   0.7322655   0.0078049   1.5135603  )
        22           O   tau(  22) = (   0.7558175   0.4996027   1.5135603  )
        23           O   tau(  23) = (   0.5003973   0.2441825   1.5135603  )
        24           O   tau(  24) = (   0.7527966   0.4978604   1.0164559  )
        25           O   tau(  25) = (   0.5021396   0.2472034   1.0164559  )
        26           O   tau(  26) = (   0.7517679   0.0000000   1.0164559  )
        27           O   tau(  27) = (   0.0114961   0.4948124   1.7455321  )
        28           O   tau(  28) = (   0.0048226   0.0077944   1.7715967  )
        29           Sr  tau(  29) = (   0.2545482   0.2517602   1.7648669  )
        30           O   tau(  30) = (   0.5048017   0.0015068   1.7786929  )
        31           Co  tau(  31) = (   0.0056869   0.5006215   1.0164559  )
        32           Co  tau(  32) = (   0.0065315   0.4997770   1.5135603  )
        33           Co  tau(  33) = (   0.0061999   0.0064171   1.0164559  )
        34           Co  tau(  34) = (   0.0000000   0.0126169   1.5135603  )
        35           O   tau(  35) = (   0.0114961   0.4948124   1.2815885  )
        36           O   tau(  36) = (   0.0114961   0.4948124   0.7513233  )
        37           O   tau(  37) = (   0.0051979   0.2673486   1.0164559  )
        38           O   tau(  38) = (   0.0130029   0.2478461   1.5135603  )
        39           O   tau(  39) = (   0.0048226   0.0077944   0.7773880  )
        40           O   tau(  40) = (   0.0048226   0.0077944   1.2555238  )
        41           Sr  tau(  41) = (   0.2545482   0.2517602   0.7706582  )
        42           Sr  tau(  42) = (   0.2545482   0.2517602   1.2622536  )
        43           Co  tau(  43) = (   0.4989925   0.0073160   1.5135603  )
        44           Co  tau(  44) = (   0.4998370   0.0064714   1.0164559  )
        45           O   tau(  45) = (   0.5048017   0.0015068   0.7844841  )
        46           O   tau(  46) = (   0.5048017   0.0015068   1.2484277  )
        47           O   tau(  47) = (   0.2621260   0.0059111   1.5135603  )
        48           O   tau(  48) = (   0.2591051   0.0041689   1.0164559  )
        49           O   tau(  49) = (   0.1421646   0.0000000   2.1602013  )
        50           H   tau(  50) = (   0.1421646   0.0000000   2.2847091  )

   Crystallographic axes

     site n.     atom                  positions (cryst. coord.)
         1           Sr  tau(   1) = (  0.2508693  0.7491307  0.6943562  )
         2           O   tau(   2) = (  0.4985141  0.5014859  0.6999492  )
         3           Sr  tau(   3) = (  0.7482398  0.7454518  0.6972903  )
         4           Sr  tau(   4) = (  0.7441748  0.2558252  0.6980478  )
         5           Sr  tau(   5) = (  0.2508693  0.7491307  0.5016443  )
         6           Sr  tau(   6) = (  0.2508693  0.7491307  0.3015492  )
         7           Co  tau(   7) = (  0.4998914  0.5001086  0.4015968  )
         8           Co  tau(   8) = (  0.4936915  0.5063085  0.5980003  )
         9           O   tau(   9) = (  0.4988895  0.7610401  0.4015968  )
        10           O   tau(  10) = (  0.2389599  0.5011105  0.4015968  )
        11           O   tau(  11) = (  0.0070918  0.7374880  0.4015968  )
        12           O   tau(  12) = (  0.0088340  0.7405089  0.5980003  )
        13           O   tau(  13) = (  0.5066944  0.7415376  0.5980003  )
        14           O   tau(  14) = (  0.2584624  0.4933056  0.5980003  )
        15           O   tau(  15) = (  0.4985141  0.5014859  0.3071422  )
        16           O   tau(  16) = (  0.4985141  0.5014859  0.4960513  )
        17           Sr  tau(  17) = (  0.7482398  0.7454518  0.3044833  )
        18           Sr  tau(  18) = (  0.7482398  0.7454518  0.4987103  )
        19           Sr  tau(  19) = (  0.7441748  0.2558252  0.3052408  )
        20           Sr  tau(  20) = (  0.7441748  0.2558252  0.4979527  )
        21           O   tau(  21) = (  0.7322655  0.0078049  0.5980003  )
        22           O   tau(  22) = (  0.7558175  0.4996027  0.5980003  )
        23           O   tau(  23) = (  0.5003973  0.2441825  0.5980003  )
        24           O   tau(  24) = (  0.7527966  0.4978604  0.4015968  )
        25           O   tau(  25) = (  0.5021396  0.2472034  0.4015968  )
        26           O   tau(  26) = (  0.7517679  0.0000000  0.4015968  )
        27           O   tau(  27) = (  0.0114961  0.4948124  0.6896512  )
        28           O   tau(  28) = (  0.0048226  0.0077944  0.6999492  )
        29           Sr  tau(  29) = (  0.2545482  0.2517602  0.6972903  )
        30           O   tau(  30) = (  0.5048017  0.0015068  0.7027529  )
        31           Co  tau(  31) = (  0.0056869  0.5006215  0.4015968  )
        32           Co  tau(  32) = (  0.0065315  0.4997770  0.5980003  )
        33           Co  tau(  33) = (  0.0061999  0.0064171  0.4015968  )
        34           Co  tau(  34) = (  0.0000000  0.0126169  0.5980003  )
        35           O   tau(  35) = (  0.0114961  0.4948124  0.5063494  )
        36           O   tau(  36) = (  0.0114961  0.4948124  0.2968442  )
        37           O   tau(  37) = (  0.0051979  0.2673486  0.4015968  )
        38           O   tau(  38) = (  0.0130029  0.2478461  0.5980003  )
        39           O   tau(  39) = (  0.0048226  0.0077944  0.3071422  )
        40           O   tau(  40) = (  0.0048226  0.0077944  0.4960513  )
        41           Sr  tau(  41) = (  0.2545482  0.2517602  0.3044833  )
        42           Sr  tau(  42) = (  0.2545482  0.2517602  0.4987103  )
        43           Co  tau(  43) = (  0.4989925  0.0073160  0.5980003  )
        44           Co  tau(  44) = (  0.4998370  0.0064714  0.4015968  )
        45           O   tau(  45) = (  0.5048017  0.0015068  0.3099459  )
        46           O   tau(  46) = (  0.5048017  0.0015068  0.4932477  )
        47           O   tau(  47) = (  0.2621260  0.0059111  0.5980003  )
        48           O   tau(  48) = (  0.2591051  0.0041689  0.4015968  )
        49           O   tau(  49) = (  0.1421646  0.0000000  0.8534850  )
        50           H   tau(  50) = (  0.1421646  0.0000000  0.9026774  )

     number of k points=    10  Gaussian smearing, width (Ry)=  0.0700
                       cart. coord. in units 2pi/alat
        k(    1) = (   0.0000000   0.0000000   0.0000000), wk =   0.1250000
        k(    2) = (   0.0000000   0.2500000   0.0000000), wk =   0.2500000
        k(    3) = (   0.0000000  -0.5000000   0.0000000), wk =   0.1250000
        k(    4) = (   0.2500000   0.2500000   0.0000000), wk =   0.2500000
        k(    5) = (   0.2500000  -0.5000000   0.0000000), wk =   0.2500000
        k(    6) = (  -0.5000000  -0.5000000   0.0000000), wk =   0.1250000
        k(    7) = (   0.2500000   0.0000000   0.0000000), wk =   0.2500000
        k(    8) = (  -0.5000000   0.0000000   0.0000000), wk =   0.1250000
        k(    9) = (  -0.2500000   0.2500000   0.0000000), wk =   0.2500000
        k(   10) = (  -0.5000000   0.2500000   0.0000000), wk =   0.2500000

                       cryst. coord.
        k(    1) = (   0.0000000   0.0000000   0.0000000), wk =   0.1250000
        k(    2) = (   0.0000000   0.2500000   0.0000000), wk =   0.2500000
        k(    3) = (   0.0000000  -0.5000000   0.0000000), wk =   0.1250000
        k(    4) = (   0.2500000   0.2500000   0.0000000), wk =   0.2500000
        k(    5) = (   0.2500000  -0.5000000   0.0000000), wk =   0.2500000
        k(    6) = (  -0.5000000  -0.5000000   0.0000000), wk =   0.1250000
        k(    7) = (   0.2500000   0.0000000   0.0000000), wk =   0.2500000
        k(    8) = (  -0.5000000   0.0000000   0.0000000), wk =   0.1250000
        k(    9) = (  -0.2500000   0.2500000   0.0000000), wk =   0.2500000
        k(   10) = (  -0.5000000   0.2500000   0.0000000), wk =   0.2500000

     Dense  grid:  1474595 G-vectors     FFT dimensions: ( 108, 108, 270)

     Smooth grid:   521381 G-vectors     FFT dimensions: (  75,  75, 192)

     Dynamical RAM for                 wfc:      10.73 MB

     Dynamical RAM for     wfc (w. buffer):      64.38 MB

     Dynamical RAM for           str. fact:       3.75 MB

     Dynamical RAM for           local pot:       0.00 MB

     Dynamical RAM for          nlocal pot:      24.61 MB

     Dynamical RAM for                qrad:       7.03 MB

     Dynamical RAM for          rho,v,vnew:       6.02 MB

     Dynamical RAM for               rhoin:       2.01 MB

     Dynamical RAM for            rho*nmix:      15.00 MB

     Dynamical RAM for           G-vectors:       3.68 MB

     Dynamical RAM for          h,s,v(r/c):       1.35 MB

     Dynamical RAM for          <psi|beta>:       2.35 MB

     Dynamical RAM for                 psi:      21.46 MB

     Dynamical RAM for                hpsi:      21.46 MB

     Dynamical RAM for                spsi:      21.46 MB

     Dynamical RAM for      wfcinit/wfcrot:      34.49 MB

     Dynamical RAM for           addusdens:     101.26 MB

     Estimated static dynamical RAM per process >     121.50 MB

     Estimated max dynamical RAM per process >     237.76 MB

     Estimated total dynamical RAM >      10.79 GB

     Check: negative core charge=   -0.000004

     Initial potential from superposition of free atoms

     starting charge     422.5961, renormalised to     431.0000

     negative rho (up, down):  7.820E-01 0.000E+00
     Starting wfcs are  377 randomized atomic wfcs
     Checking if some PAW data can be deallocated... 
       PAW data deallocated on   19 nodes for type:  2

     total cpu time spent up to now is        9.5 secs

     Self-consistent Calculation

     iteration #  1     ecut=    60.00 Ry     beta= 0.15
     Davidson diagonalization with overlap

---- Real-time Memory Report at c_bands before calling an iterative solver
             0 MiB given to the printing process from OS
             0 MiB allocation reported by mallinfo(arena+hblkhd)
         23999 MiB available memory on the node where the printing process lives
------------------
     ethr =  1.00E-02,  avg # of iterations =  2.0

     negative rho (up, down):  7.717E-01 0.000E+00

     total cpu time spent up to now is       26.1 secs

     total energy              =   -4446.65784465 Ry
     estimated scf accuracy    <      44.80754593 Ry

     iteration #  2     ecut=    60.00 Ry     beta= 0.15
     Davidson diagonalization with overlap

---- Real-time Memory Report at c_bands before calling an iterative solver
             0 MiB given to the printing process from OS
             0 MiB allocation reported by mallinfo(arena+hblkhd)
         24256 MiB available memory on the node where the printing process lives
------------------
     ethr =  1.00E-02,  avg # of iterations =  1.0

     negative rho (up, down):  7.581E-01 0.000E+00

     total cpu time spent up to now is       40.5 secs

     total energy              =   -4443.24664593 Ry
     estimated scf accuracy    <      29.77817983 Ry

     iteration #  3     ecut=    60.00 Ry     beta= 0.15
     Davidson diagonalization with overlap

---- Real-time Memory Report at c_bands before calling an iterative solver
             0 MiB given to the printing process from OS
             0 MiB allocation reported by mallinfo(arena+hblkhd)
         23425 MiB available memory on the node where the printing process lives
------------------
     ethr =  6.91E-03,  avg # of iterations =  1.0

     negative rho (up, down):  7.554E-01 0.000E+00

     total cpu time spent up to now is       54.8 secs

     total energy              =   -4444.26484463 Ry
     estimated scf accuracy    <      29.05847453 Ry

     iteration #  4     ecut=    60.00 Ry     beta= 0.15
     Davidson diagonalization with overlap

---- Real-time Memory Report at c_bands before calling an iterative solver
             0 MiB given to the printing process from OS
             0 MiB allocation reported by mallinfo(arena+hblkhd)
         23398 MiB available memory on the node where the printing process lives
------------------
     ethr =  6.74E-03,  avg # of iterations =  1.0

     negative rho (up, down):  7.494E-01 0.000E+00

     total cpu time spent up to now is       69.5 secs

     total energy              =   -4443.06327164 Ry
     estimated scf accuracy    <      20.96450452 Ry

     iteration #  5     ecut=    60.00 Ry     beta= 0.15
     Davidson diagonalization with overlap

---- Real-time Memory Report at c_bands before calling an iterative solver
             0 MiB given to the printing process from OS
             0 MiB allocation reported by mallinfo(arena+hblkhd)
         23374 MiB available memory on the node where the printing process lives
------------------
     ethr =  4.86E-03,  avg # of iterations =  1.0

     negative rho (up, down):  7.406E-01 0.000E+00

     total cpu time spent up to now is       84.0 secs

     total energy              =   -4442.59148347 Ry
     estimated scf accuracy    <      10.33418781 Ry

     iteration #  6     ecut=    60.00 Ry     beta= 0.15
     Davidson diagonalization with overlap

---- Real-time Memory Report at c_bands before calling an iterative solver
             0 MiB given to the printing process from OS
             0 MiB allocation reported by mallinfo(arena+hblkhd)
         23360 MiB available memory on the node where the printing process lives
------------------
     ethr =  2.40E-03,  avg # of iterations =  1.1

     negative rho (up, down):  7.428E-01 0.000E+00

     total cpu time spent up to now is       98.6 secs

     total energy              =   -4442.81187951 Ry
     estimated scf accuracy    <       4.90991248 Ry

     iteration #  7     ecut=    60.00 Ry     beta= 0.15
     Davidson diagonalization with overlap

---- Real-time Memory Report at c_bands before calling an iterative solver
             0 MiB given to the printing process from OS
             0 MiB allocation reported by mallinfo(arena+hblkhd)
         23344 MiB available memory on the node where the printing process lives
------------------
     ethr =  1.14E-03,  avg # of iterations =  1.7

     negative rho (up, down):  7.656E-01 0.000E+00

     total cpu time spent up to now is      113.4 secs

     total energy              =   -4441.65295879 Ry
     estimated scf accuracy    <       3.95346083 Ry

     iteration #  8     ecut=    60.00 Ry     beta= 0.15
     Davidson diagonalization with overlap

---- Real-time Memory Report at c_bands before calling an iterative solver
             0 MiB given to the printing process from OS
             0 MiB allocation reported by mallinfo(arena+hblkhd)
         23322 MiB available memory on the node where the printing process lives
------------------
     ethr =  9.17E-04,  avg # of iterations =  4.2

     negative rho (up, down):  7.723E-01 0.000E+00

     total cpu time spent up to now is      132.5 secs

     total energy              =   -4441.55714525 Ry
     estimated scf accuracy    <      14.80323098 Ry

     iteration #  9     ecut=    60.00 Ry     beta= 0.15
     Davidson diagonalization with overlap

---- Real-time Memory Report at c_bands before calling an iterative solver
             0 MiB given to the printing process from OS
             0 MiB allocation reported by mallinfo(arena+hblkhd)
         23177 MiB available memory on the node where the printing process lives
------------------
     ethr =  9.17E-04,  avg # of iterations = 10.1

     negative rho (up, down):  7.704E-01 0.000E+00

     total cpu time spent up to now is      154.2 secs

     total energy              =   -4441.78314390 Ry
     estimated scf accuracy    <       2.43699260 Ry

     iteration # 10     ecut=    60.00 Ry     beta= 0.15
     Davidson diagonalization with overlap

---- Real-time Memory Report at c_bands before calling an iterative solver
             0 MiB given to the printing process from OS
             0 MiB allocation reported by mallinfo(arena+hblkhd)
         22862 MiB available memory on the node where the printing process lives
------------------
     ethr =  5.65E-04,  avg # of iterations =  1.7

     negative rho (up, down):  7.774E-01 0.000E+00

     total cpu time spent up to now is      170.1 secs

     total energy              =   -4441.92261089 Ry
     estimated scf accuracy    <       1.14394338 Ry

     iteration # 11     ecut=    60.00 Ry     beta= 0.15
     Davidson diagonalization with overlap

---- Real-time Memory Report at c_bands before calling an iterative solver
             0 MiB given to the printing process from OS
             0 MiB allocation reported by mallinfo(arena+hblkhd)
         22847 MiB available memory on the node where the printing process lives
------------------
     ethr =  2.65E-04,  avg # of iterations =  2.0

     negative rho (up, down):  8.120E-01 0.000E+00

     total cpu time spent up to now is      186.3 secs

     total energy              =   -4441.69761890 Ry
     estimated scf accuracy    <       1.32293359 Ry

     iteration # 12     ecut=    60.00 Ry     beta= 0.15
     Davidson diagonalization with overlap

---- Real-time Memory Report at c_bands before calling an iterative solver
             0 MiB given to the printing process from OS
             0 MiB allocation reported by mallinfo(arena+hblkhd)
         22846 MiB available memory on the node where the printing process lives
------------------
     ethr =  2.65E-04,  avg # of iterations =  9.4

     negative rho (up, down):  8.170E-01 0.000E+00

     total cpu time spent up to now is      207.1 secs

     total energy              =   -4441.84548948 Ry
     estimated scf accuracy    <       1.22542685 Ry

     iteration # 13     ecut=    60.00 Ry     beta= 0.15
     Davidson diagonalization with overlap

---- Real-time Memory Report at c_bands before calling an iterative solver
             0 MiB given to the printing process from OS
             0 MiB allocation reported by mallinfo(arena+hblkhd)
         22796 MiB available memory on the node where the printing process lives
------------------
     ethr =  2.65E-04,  avg # of iterations =  1.6

     negative rho (up, down):  8.180E-01 0.000E+00

     total cpu time spent up to now is      222.8 secs

     total energy              =   -4441.78815373 Ry
     estimated scf accuracy    <       0.76125830 Ry

     iteration # 14     ecut=    60.00 Ry     beta= 0.15
     Davidson diagonalization with overlap

---- Real-time Memory Report at c_bands before calling an iterative solver
             0 MiB given to the printing process from OS
             0 MiB allocation reported by mallinfo(arena+hblkhd)
         22806 MiB available memory on the node where the printing process lives
------------------
     ethr =  1.77E-04,  avg # of iterations =  4.4

     negative rho (up, down):  8.238E-01 0.000E+00

     total cpu time spent up to now is      240.7 secs

     total energy              =   -4441.73569397 Ry
     estimated scf accuracy    <       0.35516710 Ry

     iteration # 15     ecut=    60.00 Ry     beta= 0.15
     Davidson diagonalization with overlap

---- Real-time Memory Report at c_bands before calling an iterative solver
             0 MiB given to the printing process from OS
             0 MiB allocation reported by mallinfo(arena+hblkhd)
         22781 MiB available memory on the node where the printing process lives
------------------
     ethr =  8.24E-05,  avg # of iterations = 12.1

     negative rho (up, down):  8.330E-01 0.000E+00

     total cpu time spent up to now is      262.9 secs

     total energy              =   -4441.71991828 Ry
     estimated scf accuracy    <       0.29469471 Ry

     iteration # 16     ecut=    60.00 Ry     beta= 0.15
     Davidson diagonalization with overlap

---- Real-time Memory Report at c_bands before calling an iterative solver
             0 MiB given to the printing process from OS
             0 MiB allocation reported by mallinfo(arena+hblkhd)
         22730 MiB available memory on the node where the printing process lives
------------------
     ethr =  6.84E-05,  avg # of iterations =  4.3

     negative rho (up, down):  8.325E-01 0.000E+00

     total cpu time spent up to now is      281.4 secs

     total energy              =   -4441.71644594 Ry
     estimated scf accuracy    <       0.26447465 Ry

     iteration # 17     ecut=    60.00 Ry     beta= 0.15
     Davidson diagonalization with overlap

---- Real-time Memory Report at c_bands before calling an iterative solver
             0 MiB given to the printing process from OS
             0 MiB allocation reported by mallinfo(arena+hblkhd)
         22729 MiB available memory on the node where the printing process lives
------------------
     ethr =  6.14E-05,  avg # of iterations =  1.0

     negative rho (up, down):  8.221E-01 0.000E+00

     total cpu time spent up to now is      296.2 secs

     total energy              =   -4441.70025385 Ry
     estimated scf accuracy    <       0.21136241 Ry

     iteration # 18     ecut=    60.00 Ry     beta= 0.15
     Davidson diagonalization with overlap

---- Real-time Memory Report at c_bands before calling an iterative solver
             0 MiB given to the printing process from OS
             0 MiB allocation reported by mallinfo(arena+hblkhd)
         22729 MiB available memory on the node where the printing process lives
------------------
     ethr =  4.90E-05,  avg # of iterations =  3.3

     negative rho (up, down):  8.153E-01 0.000E+00

     total cpu time spent up to now is      313.3 secs

     total energy              =   -4441.68521100 Ry
     estimated scf accuracy    <       0.16298317 Ry

     iteration # 19     ecut=    60.00 Ry     beta= 0.15
     Davidson diagonalization with overlap

---- Real-time Memory Report at c_bands before calling an iterative solver
             0 MiB given to the printing process from OS
             0 MiB allocation reported by mallinfo(arena+hblkhd)
         22727 MiB available memory on the node where the printing process lives
------------------
     ethr =  3.78E-05,  avg # of iterations =  9.5

     negative rho (up, down):  7.989E-01 0.000E+00

     total cpu time spent up to now is      334.0 secs

     total energy              =   -4441.66313880 Ry
     estimated scf accuracy    <       0.12275424 Ry

     iteration # 20     ecut=    60.00 Ry     beta= 0.15
     Davidson diagonalization with overlap

---- Real-time Memory Report at c_bands before calling an iterative solver
             0 MiB given to the printing process from OS
             0 MiB allocation reported by mallinfo(arena+hblkhd)
         22721 MiB available memory on the node where the printing process lives
------------------
     ethr =  2.85E-05,  avg # of iterations =  9.4

     negative rho (up, down):  8.382E-01 0.000E+00

     total cpu time spent up to now is      355.4 secs

     total energy              =   -4441.65576113 Ry
     estimated scf accuracy    <       0.05869132 Ry

     iteration # 21     ecut=    60.00 Ry     beta= 0.15
     Davidson diagonalization with overlap

---- Real-time Memory Report at c_bands before calling an iterative solver
             0 MiB given to the printing process from OS
             0 MiB allocation reported by mallinfo(arena+hblkhd)
         22703 MiB available memory on the node where the printing process lives
------------------
     ethr =  1.36E-05,  avg # of iterations = 13.0

     negative rho (up, down):  8.265E-01 0.000E+00

     total cpu time spent up to now is      380.3 secs

     total energy              =   -4441.65883641 Ry
     estimated scf accuracy    <       0.02421724 Ry

     iteration # 22     ecut=    60.00 Ry     beta= 0.15
     Davidson diagonalization with overlap

---- Real-time Memory Report at c_bands before calling an iterative solver
             0 MiB given to the printing process from OS
             0 MiB allocation reported by mallinfo(arena+hblkhd)
         22624 MiB available memory on the node where the printing process lives
------------------
     ethr =  5.62E-06,  avg # of iterations =  1.6

     negative rho (up, down):  7.976E-01 0.000E+00

     total cpu time spent up to now is      396.6 secs

     total energy              =   -4441.65517285 Ry
     estimated scf accuracy    <       0.01977832 Ry

     iteration # 23     ecut=    60.00 Ry     beta= 0.15
     Davidson diagonalization with overlap

---- Real-time Memory Report at c_bands before calling an iterative solver
             0 MiB given to the printing process from OS
             0 MiB allocation reported by mallinfo(arena+hblkhd)
         22630 MiB available memory on the node where the printing process lives
------------------
     ethr =  4.59E-06,  avg # of iterations =  6.7

     negative rho (up, down):  7.944E-01 0.000E+00

     total cpu time spent up to now is      416.3 secs

     total energy              =   -4441.65433392 Ry
     estimated scf accuracy    <       0.01275846 Ry

     iteration # 24     ecut=    60.00 Ry     beta= 0.15
     Davidson diagonalization with overlap

---- Real-time Memory Report at c_bands before calling an iterative solver
             0 MiB given to the printing process from OS
             0 MiB allocation reported by mallinfo(arena+hblkhd)
         22609 MiB available memory on the node where the printing process lives
------------------
     ethr =  2.96E-06,  avg # of iterations =  5.4

     negative rho (up, down):  7.953E-01 0.000E+00

     total cpu time spent up to now is      434.8 secs

     total energy              =   -4441.65346446 Ry
     estimated scf accuracy    <       0.00778420 Ry

     iteration # 25     ecut=    60.00 Ry     beta= 0.15
     Davidson diagonalization with overlap

---- Real-time Memory Report at c_bands before calling an iterative solver
             0 MiB given to the printing process from OS
             0 MiB allocation reported by mallinfo(arena+hblkhd)
         22603 MiB available memory on the node where the printing process lives
------------------
     c_bands:  1 eigenvalues not converged
     ethr =  1.81E-06,  avg # of iterations = 11.2

     negative rho (up, down):  7.989E-01 0.000E+00

     total cpu time spent up to now is      458.0 secs

     total energy              =   -4441.65335465 Ry
     estimated scf accuracy    <       0.00411012 Ry

     iteration # 26     ecut=    60.00 Ry     beta= 0.15
     Davidson diagonalization with overlap

---- Real-time Memory Report at c_bands before calling an iterative solver
             0 MiB given to the printing process from OS
             0 MiB allocation reported by mallinfo(arena+hblkhd)
         22583 MiB available memory on the node where the printing process lives
------------------
     ethr =  9.54E-07,  avg # of iterations =  4.7

     negative rho (up, down):  7.993E-01 0.000E+00

     total cpu time spent up to now is      476.3 secs

     total energy              =   -4441.65324192 Ry
     estimated scf accuracy    <       0.00207335 Ry

     iteration # 27     ecut=    60.00 Ry     beta= 0.15
     Davidson diagonalization with overlap

---- Real-time Memory Report at c_bands before calling an iterative solver
             0 MiB given to the printing process from OS
             0 MiB allocation reported by mallinfo(arena+hblkhd)
         22560 MiB available memory on the node where the printing process lives
------------------
     c_bands:  1 eigenvalues not converged
     ethr =  4.81E-07,  avg # of iterations = 12.0

     negative rho (up, down):  7.982E-01 0.000E+00

     total cpu time spent up to now is      499.7 secs

     total energy              =   -4441.65333095 Ry
     estimated scf accuracy    <       0.00052692 Ry

     iteration # 28     ecut=    60.00 Ry     beta= 0.15
     Davidson diagonalization with overlap

---- Real-time Memory Report at c_bands before calling an iterative solver
             0 MiB given to the printing process from OS
             0 MiB allocation reported by mallinfo(arena+hblkhd)
         22541 MiB available memory on the node where the printing process lives
------------------
     ethr =  1.22E-07,  avg # of iterations =  5.2

     negative rho (up, down):  7.970E-01 0.000E+00

     total cpu time spent up to now is      518.3 secs

     total energy              =   -4441.65328770 Ry
     estimated scf accuracy    <       0.00032056 Ry

     iteration # 29     ecut=    60.00 Ry     beta= 0.15
     Davidson diagonalization with overlap

---- Real-time Memory Report at c_bands before calling an iterative solver
             0 MiB given to the printing process from OS
             0 MiB allocation reported by mallinfo(arena+hblkhd)
         22557 MiB available memory on the node where the printing process lives
------------------
     ethr =  7.44E-08,  avg # of iterations =  6.1

     negative rho (up, down):  7.952E-01 0.000E+00

     total cpu time spent up to now is      537.2 secs

     total energy              =   -4441.65326828 Ry
     estimated scf accuracy    <       0.00015748 Ry

     iteration # 30     ecut=    60.00 Ry     beta= 0.15
     Davidson diagonalization with overlap

---- Real-time Memory Report at c_bands before calling an iterative solver
             0 MiB given to the printing process from OS
             0 MiB allocation reported by mallinfo(arena+hblkhd)
         22619 MiB available memory on the node where the printing process lives
------------------
     ethr =  3.65E-08,  avg # of iterations =  3.6

     negative rho (up, down):  7.933E-01 0.000E+00

     total cpu time spent up to now is      555.0 secs

     total energy              =   -4441.65325476 Ry
     estimated scf accuracy    <       0.00008333 Ry

     iteration # 31     ecut=    60.00 Ry     beta= 0.15
     Davidson diagonalization with overlap

---- Real-time Memory Report at c_bands before calling an iterative solver
             0 MiB given to the printing process from OS
             0 MiB allocation reported by mallinfo(arena+hblkhd)
         22633 MiB available memory on the node where the printing process lives
------------------
     ethr =  1.93E-08,  avg # of iterations =  5.8

     negative rho (up, down):  7.925E-01 0.000E+00

     total cpu time spent up to now is      573.4 secs

     total energy              =   -4441.65325276 Ry
     estimated scf accuracy    <       0.00003688 Ry

     iteration # 32     ecut=    60.00 Ry     beta= 0.15
     Davidson diagonalization with overlap

---- Real-time Memory Report at c_bands before calling an iterative solver
             0 MiB given to the printing process from OS
             0 MiB allocation reported by mallinfo(arena+hblkhd)
         22634 MiB available memory on the node where the printing process lives
------------------
     ethr =  8.56E-09,  avg # of iterations =  3.2

     negative rho (up, down):  7.922E-01 0.000E+00

     total cpu time spent up to now is      591.5 secs

     total energy              =   -4441.65325425 Ry
     estimated scf accuracy    <       0.00001883 Ry

     iteration # 33     ecut=    60.00 Ry     beta= 0.15
     Davidson diagonalization with overlap

---- Real-time Memory Report at c_bands before calling an iterative solver
             0 MiB given to the printing process from OS
             0 MiB allocation reported by mallinfo(arena+hblkhd)
         22632 MiB available memory on the node where the printing process lives
------------------
     ethr =  4.37E-09,  avg # of iterations =  2.1

     negative rho (up, down):  7.922E-01 0.000E+00

     total cpu time spent up to now is      608.3 secs

     total energy              =   -4441.65325243 Ry
     estimated scf accuracy    <       0.00001253 Ry

     iteration # 34     ecut=    60.00 Ry     beta= 0.15
     Davidson diagonalization with overlap

---- Real-time Memory Report at c_bands before calling an iterative solver
             0 MiB given to the printing process from OS
             0 MiB allocation reported by mallinfo(arena+hblkhd)
         22630 MiB available memory on the node where the printing process lives
------------------
     ethr =  2.91E-09,  avg # of iterations =  1.7

     negative rho (up, down):  7.923E-01 0.000E+00

     total cpu time spent up to now is      624.3 secs

     total energy              =   -4441.65325101 Ry
     estimated scf accuracy    <       0.00000838 Ry

     iteration # 35     ecut=    60.00 Ry     beta= 0.15
     Davidson diagonalization with overlap

---- Real-time Memory Report at c_bands before calling an iterative solver
             0 MiB given to the printing process from OS
             0 MiB allocation reported by mallinfo(arena+hblkhd)
         22634 MiB available memory on the node where the printing process lives
------------------
     ethr =  1.94E-09,  avg # of iterations =  2.0

     negative rho (up, down):  7.925E-01 0.000E+00

     total cpu time spent up to now is      641.2 secs

     total energy              =   -4441.65325050 Ry
     estimated scf accuracy    <       0.00000472 Ry

     iteration # 36     ecut=    60.00 Ry     beta= 0.15
     Davidson diagonalization with overlap

---- Real-time Memory Report at c_bands before calling an iterative solver
             0 MiB given to the printing process from OS
             0 MiB allocation reported by mallinfo(arena+hblkhd)
         22637 MiB available memory on the node where the printing process lives
------------------
     ethr =  1.10E-09,  avg # of iterations =  2.1

     negative rho (up, down):  7.926E-01 0.000E+00

     total cpu time spent up to now is      657.9 secs

     total energy              =   -4441.65325069 Ry
     estimated scf accuracy    <       0.00000336 Ry

     iteration # 37     ecut=    60.00 Ry     beta= 0.15
     Davidson diagonalization with overlap

---- Real-time Memory Report at c_bands before calling an iterative solver
             0 MiB given to the printing process from OS
             0 MiB allocation reported by mallinfo(arena+hblkhd)
         22641 MiB available memory on the node where the printing process lives
------------------
     ethr =  7.80E-10,  avg # of iterations =  2.1

     negative rho (up, down):  7.926E-01 0.000E+00

     total cpu time spent up to now is      674.5 secs

     total energy              =   -4441.65325115 Ry
     estimated scf accuracy    <       0.00000253 Ry

     iteration # 38     ecut=    60.00 Ry     beta= 0.15
     Davidson diagonalization with overlap

---- Real-time Memory Report at c_bands before calling an iterative solver
             0 MiB given to the printing process from OS
             0 MiB allocation reported by mallinfo(arena+hblkhd)
         22659 MiB available memory on the node where the printing process lives
------------------
     ethr =  5.88E-10,  avg # of iterations =  2.2

     negative rho (up, down):  7.926E-01 0.000E+00

     total cpu time spent up to now is      691.2 secs

     total energy              =   -4441.65325159 Ry
     estimated scf accuracy    <       0.00000191 Ry

     iteration # 39     ecut=    60.00 Ry     beta= 0.15
     Davidson diagonalization with overlap

---- Real-time Memory Report at c_bands before calling an iterative solver
             0 MiB given to the printing process from OS
             0 MiB allocation reported by mallinfo(arena+hblkhd)
         22665 MiB available memory on the node where the printing process lives
------------------
     ethr =  4.42E-10,  avg # of iterations =  2.4

     negative rho (up, down):  7.926E-01 0.000E+00

     total cpu time spent up to now is      708.1 secs

     total energy              =   -4441.65325168 Ry
     estimated scf accuracy    <       0.00000121 Ry

     iteration # 40     ecut=    60.00 Ry     beta= 0.15
     Davidson diagonalization with overlap

---- Real-time Memory Report at c_bands before calling an iterative solver
             0 MiB given to the printing process from OS
             0 MiB allocation reported by mallinfo(arena+hblkhd)
         22675 MiB available memory on the node where the printing process lives
------------------
     ethr =  2.82E-10,  avg # of iterations =  2.2

     negative rho (up, down):  7.926E-01 0.000E+00

     total cpu time spent up to now is      724.8 secs

     total energy              =   -4441.65325168 Ry
     estimated scf accuracy    <       0.00000090 Ry

     iteration # 41     ecut=    60.00 Ry     beta= 0.15
     Davidson diagonalization with overlap

---- Real-time Memory Report at c_bands before calling an iterative solver
             0 MiB given to the printing process from OS
             0 MiB allocation reported by mallinfo(arena+hblkhd)
         22680 MiB available memory on the node where the printing process lives
------------------
     ethr =  2.09E-10,  avg # of iterations =  2.0

     negative rho (up, down):  7.926E-01 0.000E+00

     total cpu time spent up to now is      741.5 secs

     total energy              =   -4441.65325165 Ry
     estimated scf accuracy    <       0.00000073 Ry

     iteration # 42     ecut=    60.00 Ry     beta= 0.15
     Davidson diagonalization with overlap

---- Real-time Memory Report at c_bands before calling an iterative solver
             0 MiB given to the printing process from OS
             0 MiB allocation reported by mallinfo(arena+hblkhd)
         22677 MiB available memory on the node where the printing process lives
------------------
     ethr =  1.69E-10,  avg # of iterations =  1.8

     negative rho (up, down):  7.925E-01 0.000E+00

     total cpu time spent up to now is      757.5 secs

     total energy              =   -4441.65325168 Ry
     estimated scf accuracy    <       0.00000052 Ry

     iteration # 43     ecut=    60.00 Ry     beta= 0.15
     Davidson diagonalization with overlap

---- Real-time Memory Report at c_bands before calling an iterative solver
             0 MiB given to the printing process from OS
             0 MiB allocation reported by mallinfo(arena+hblkhd)
         22682 MiB available memory on the node where the printing process lives
------------------
     ethr =  1.20E-10,  avg # of iterations =  2.9

     negative rho (up, down):  7.925E-01 0.000E+00

     total cpu time spent up to now is      774.8 secs

     total energy              =   -4441.65325171 Ry
     estimated scf accuracy    <       0.00000027 Ry

     iteration # 44     ecut=    60.00 Ry     beta= 0.15
     Davidson diagonalization with overlap

---- Real-time Memory Report at c_bands before calling an iterative solver
             0 MiB given to the printing process from OS
             0 MiB allocation reported by mallinfo(arena+hblkhd)
         22686 MiB available memory on the node where the printing process lives
------------------
     ethr =  6.15E-11,  avg # of iterations =  3.5

     negative rho (up, down):  7.925E-01 0.000E+00

     total cpu time spent up to now is      792.6 secs

     total energy              =   -4441.65325175 Ry
     estimated scf accuracy    <       0.00000004 Ry

     iteration # 45     ecut=    60.00 Ry     beta= 0.15
     Davidson diagonalization with overlap

---- Real-time Memory Report at c_bands before calling an iterative solver
             0 MiB given to the printing process from OS
             0 MiB allocation reported by mallinfo(arena+hblkhd)
         22678 MiB available memory on the node where the printing process lives
------------------
     ethr =  1.02E-11,  avg # of iterations =  3.0

     negative rho (up, down):  7.925E-01 0.000E+00

     total cpu time spent up to now is      810.2 secs

     total energy              =   -4441.65325176 Ry
     estimated scf accuracy    <       0.00000002 Ry

     iteration # 46     ecut=    60.00 Ry     beta= 0.15
     Davidson diagonalization with overlap

---- Real-time Memory Report at c_bands before calling an iterative solver
             0 MiB given to the printing process from OS
             0 MiB allocation reported by mallinfo(arena+hblkhd)
         22676 MiB available memory on the node where the printing process lives
------------------
     ethr =  4.45E-12,  avg # of iterations =  2.9

     negative rho (up, down):  7.925E-01 0.000E+00

     total cpu time spent up to now is      827.6 secs

     End of self-consistent calculation

          k = 0.0000 0.0000 0.0000 ( 65197 PWs)   bands (ev):

   -92.6831 -92.6307 -92.5369 -92.4905 -92.4313 -92.3893 -92.3726 -92.2532
   -56.0365 -56.0174 -55.8943 -55.8838 -55.8776 -55.8706 -55.8355 -55.8062
   -55.7914 -55.7887 -55.7805 -55.7391 -55.7208 -55.6826 -55.6633 -55.6310
   -55.6262 -55.5780 -55.5771 -55.5746 -55.5662 -55.5282 -55.5028 -55.4199
   -31.2609 -31.2413 -31.0999 -31.0947 -31.0128 -31.0088 -30.7679 -30.6458
   -29.8309 -29.7868 -29.7619 -29.6526 -15.0635 -15.0176 -14.9391 -14.8085
   -14.6162 -14.4916 -14.2014 -14.1814 -14.1520 -14.1071 -14.0605 -14.0508
   -14.0398 -14.0222 -13.9988 -13.9697 -13.9402 -13.9120 -13.7616 -13.5844
   -13.5497 -13.5191 -13.4889 -13.4710 -13.4171 -13.3838 -13.3054 -13.2335
   -13.1185 -13.0976 -13.0928 -13.0728 -13.0575 -13.0399 -12.9923 -12.9851
   -12.9558 -12.9377 -12.9110 -12.9058 -12.8894 -12.8814 -12.8625 -12.7605
   -12.7356 -12.6995 -12.5909 -12.5739 -12.5516 -12.3252 -12.1797 -11.9936
   -11.9166 -11.8438 -11.7698 -11.7589 -11.7356 -11.7181 -11.6545 -11.6373
   -11.6025 -11.5740 -11.4614 -11.3820 -11.3783  -2.9235  -2.6913  -2.4616
    -2.3150  -2.2517  -2.1098  -1.8028  -1.7887  -1.7689  -1.6849  -1.6649
    -1.5970  -1.5807  -1.5401  -1.4941  -1.3135  -1.0916  -1.0817  -1.0555
    -0.9131  -0.8985  -0.8518  -0.8341  -0.7878  -0.7720  -0.7156  -0.6895
    -0.6173  -0.6021  -0.5292  -0.3979  -0.3848  -0.3557  -0.2748  -0.2584
    -0.2486  -0.1793  -0.1101  -0.0671  -0.0117   0.0144   0.0859   0.1643
     0.1991   0.2253   0.2492   0.4900   0.5048   0.6788   0.7429   0.8088
     0.8731   0.9468   0.9611   0.9837   1.0400   1.0674   1.1026   1.1596
     1.2913   1.3503   1.3732   1.3943   1.4026   1.4679   1.5393   1.6439
     1.6581   1.7213   1.7332   1.7753   1.7980   1.8027   1.8617   1.9150
     1.9326   1.9677   2.0258   2.0465   2.1773   2.2582   2.3019   2.3280
     2.4524   2.4837   2.4942   2.5173   2.5300   2.5343   2.6491   2.6759
     2.7045   2.7225   2.7359   2.8167   2.9252   2.9565   2.9689   2.9756
     3.0431   3.0466   3.0715   3.0793   3.0885   3.1021   3.1068   3.1207
     3.1262   3.1396   3.1483   3.1558   3.1746   3.1954   3.2009   3.2124
     3.2383   3.3534   3.4360   4.1277   4.4482   4.7838   4.8764   5.0646
     5.7391   5.9499   6.0015   6.0352   6.3317   6.3791   6.4928   6.4998
     6.7296   7.0189   7.1069   7.3318   7.4847   7.5453   7.6576   7.6783
     7.6948   7.8438   7.9529   8.0556   8.1252   8.1736   8.3530   8.4251
     8.7284   8.8578   8.9136

     occupation numbers 
     1.0000   1.0000   1.0000   1.0000   1.0000   1.0000   1.0000   1.0000
     1.0000   1.0000   1.0000   1.0000   1.0000   1.0000   1.0000   1.0000
     1.0000   1.0000   1.0000   1.0000   1.0000   1.0000   1.0000   1.0000
     1.0000   1.0000   1.0000   1.0000   1.0000   1.0000   1.0000   1.0000
     1.0000   1.0000   1.0000   1.0000   1.0000   1.0000   1.0000   1.0000
     1.0000   1.0000   1.0000   1.0000   1.0000   1.0000   1.0000   1.0000
     1.0000   1.0000   1.0000   1.0000   1.0000   1.0000   1.0000   1.0000
     1.0000   1.0000   1.0000   1.0000   1.0000   1.0000   1.0000   1.0000
     1.0000   1.0000   1.0000   1.0000   1.0000   1.0000   1.0000   1.0000
     1.0000   1.0000   1.0000   1.0000   1.0000   1.0000   1.0000   1.0000
     1.0000   1.0000   1.0000   1.0000   1.0000   1.0000   1.0000   1.0000
     1.0000   1.0000   1.0000   1.0000   1.0000   1.0000   1.0000   1.0000
     1.0000   1.0000   1.0000   1.0000   1.0000   1.0000   1.0000   1.0000
     1.0000   1.0000   1.0000   1.0000   1.0000   1.0000   1.0000   1.0000
     1.0000   1.0000   1.0000   1.0000   1.0000   1.0000   1.0000   1.0000
     1.0000   1.0000   1.0000   1.0000   1.0000   1.0000   1.0000   1.0000
     1.0000   1.0000   1.0000   1.0000   1.0000   1.0000   1.0000   1.0000
     1.0000   1.0000   1.0000   1.0000   1.0000   1.0000   1.0000   1.0000
     1.0000   1.0000   1.0000   1.0000   1.0000   1.0000   1.0000   1.0000
     1.0000   1.0000   1.0000   1.0000   1.0000   1.0000   0.9999   0.9999
     0.9999   0.9998   0.9998   0.9998   0.9997   0.9996   0.9996   0.9994
     0.9989   0.9985   0.9983   0.9981   0.9980   0.9973   0.9963   0.9942
     0.9939   0.9920   0.9916   0.9901   0.9892   0.9890   0.9862   0.9831
     0.9820   0.9795   0.9749   0.9730   0.9585   0.9466   0.9392   0.9344
     0.9074   0.8994   0.8967   0.8904   0.8868   0.8855   0.8491   0.8396
     0.8291   0.8222   0.8170   0.7834   0.7333   0.7178   0.7115   0.7081
     0.6728   0.6709   0.6575   0.6532   0.6481   0.6406   0.6380   0.6302
     0.6271   0.6196   0.6147   0.6104   0.5996   0.5877   0.5844   0.5778
     0.5627   0.4948   0.4460   0.1224   0.0506   0.0163   0.0115   0.0053
     0.0002   0.0001   0.0000   0.0000   0.0000   0.0000   0.0000   0.0000
     0.0000   0.0000   0.0000   0.0000   0.0000   0.0000   0.0000   0.0000
     0.0000   0.0000   0.0000   0.0000   0.0000   0.0000   0.0000   0.0000
     0.0000   0.0000   0.0000

          k = 0.0000 0.2500 0.0000 ( 65257 PWs)   bands (ev):

   -92.6831 -92.6307 -92.5369 -92.4905 -92.4313 -92.3893 -92.3726 -92.2532
   -56.0365 -56.0174 -55.8943 -55.8838 -55.8776 -55.8706 -55.8355 -55.8062
   -55.7914 -55.7887 -55.7805 -55.7391 -55.7208 -55.6826 -55.6633 -55.6310
   -55.6262 -55.5780 -55.5771 -55.5746 -55.5662 -55.5282 -55.5028 -55.4199
   -31.2607 -31.2412 -31.1001 -31.0944 -31.0129 -31.0092 -30.7676 -30.6461
   -29.8302 -29.7865 -29.7625 -29.6530 -15.0271 -14.9912 -14.9139 -14.7793
   -14.6564 -14.4831 -14.3463 -14.1676 -14.1316 -14.1121 -14.0836 -14.0244
   -14.0188 -14.0029 -13.9846 -13.9467 -13.9339 -13.8307 -13.7920 -13.6304
   -13.6095 -13.5608 -13.5247 -13.4797 -13.4366 -13.3947 -13.3256 -13.2910
   -13.2274 -13.1508 -13.1301 -13.0933 -13.0841 -13.0537 -12.9786 -12.9561
   -12.9257 -12.9130 -12.8847 -12.8498 -12.8299 -12.8039 -12.7815 -12.7433
   -12.7190 -12.6768 -12.5886 -12.4946 -12.4298 -12.3866 -12.2309 -12.0496
   -11.9821 -11.8092 -11.7666 -11.7387 -11.7105 -11.6938 -11.6463 -11.6351
   -11.6127 -11.5784 -11.4758 -11.4236 -11.4130  -2.7881  -2.5669  -2.4290
    -2.2474  -2.2039  -2.0402  -1.8213  -1.7363  -1.7234  -1.6660  -1.5635
    -1.5470  -1.5125  -1.4865  -1.4426  -1.2449  -1.1167  -1.1089  -1.0757
    -1.0272  -1.0172  -0.9127  -0.8839  -0.8260  -0.8007  -0.7600  -0.6960
    -0.6694  -0.6373  -0.6052  -0.5874  -0.5558  -0.4827  -0.4308  -0.3633
    -0.2552  -0.2346  -0.1925  -0.0745  -0.0402   0.0298   0.0736   0.1455
     0.1732   0.1867   0.2391   0.5404   0.6251   0.6537   0.7487   0.7944
     0.8319   0.9317   0.9555   1.0439   1.0693   1.0947   1.2106   1.3037
     1.3252   1.3487   1.3688   1.3937   1.4531   1.4806   1.5068   1.5553
     1.5911   1.6201   1.7017   1.7366   1.7792   1.8286   1.8804   1.9245
     1.9576   1.9885   1.9985   2.1013   2.2093   2.2842   2.3102   2.3774
     2.4239   2.4581   2.4717   2.4775   2.5209   2.5377   2.5724   2.6663
     2.6972   2.7135   2.8830   2.9052   2.9376   2.9593   2.9763   2.9846
     2.9920   3.0018   3.0310   3.0342   3.0525   3.0557   3.0662   3.0839
     3.0955   3.1034   3.1259   3.1368   3.1417   3.1762   3.1926   3.2542
     3.6211   3.6600   3.9014   4.3216   4.4422   4.7240   5.0288   5.0905
     5.6551   5.8135   5.9193   5.9972   6.0997   6.1262   6.2000   6.6082
     6.8272   7.0724   7.1381   7.3432   7.4965   7.5113   7.5763   7.6590
     7.8454   7.9518   8.0192   8.1796   8.2480   8.3240   8.3761   8.4229
     8.6195   8.8423   8.9450

     occupation numbers 
     1.0000   1.0000   1.0000   1.0000   1.0000   1.0000   1.0000   1.0000
     1.0000   1.0000   1.0000   1.0000   1.0000   1.0000   1.0000   1.0000
     1.0000   1.0000   1.0000   1.0000   1.0000   1.0000   1.0000   1.0000
     1.0000   1.0000   1.0000   1.0000   1.0000   1.0000   1.0000   1.0000
     1.0000   1.0000   1.0000   1.0000   1.0000   1.0000   1.0000   1.0000
     1.0000   1.0000   1.0000   1.0000   1.0000   1.0000   1.0000   1.0000
     1.0000   1.0000   1.0000   1.0000   1.0000   1.0000   1.0000   1.0000
     1.0000   1.0000   1.0000   1.0000   1.0000   1.0000   1.0000   1.0000
     1.0000   1.0000   1.0000   1.0000   1.0000   1.0000   1.0000   1.0000
     1.0000   1.0000   1.0000   1.0000   1.0000   1.0000   1.0000   1.0000
     1.0000   1.0000   1.0000   1.0000   1.0000   1.0000   1.0000   1.0000
     1.0000   1.0000   1.0000   1.0000   1.0000   1.0000   1.0000   1.0000
     1.0000   1.0000   1.0000   1.0000   1.0000   1.0000   1.0000   1.0000
     1.0000   1.0000   1.0000   1.0000   1.0000   1.0000   1.0000   1.0000
     1.0000   1.0000   1.0000   1.0000   1.0000   1.0000   1.0000   1.0000
     1.0000   1.0000   1.0000   1.0000   1.0000   1.0000   1.0000   1.0000
     1.0000   1.0000   1.0000   1.0000   1.0000   1.0000   1.0000   1.0000
     1.0000   1.0000   1.0000   1.0000   1.0000   1.0000   1.0000   1.0000
     1.0000   1.0000   1.0000   1.0000   1.0000   1.0000   1.0000   1.0000
     1.0000   1.0000   1.0000   1.0000   1.0000   1.0000   0.9999   0.9999
     0.9999   0.9998   0.9998   0.9997   0.9996   0.9996   0.9992   0.9988
     0.9986   0.9985   0.9983   0.9981   0.9975   0.9972   0.9968   0.9961
     0.9954   0.9948   0.9926   0.9915   0.9899   0.9878   0.9852   0.9825
     0.9803   0.9780   0.9772   0.9676   0.9541   0.9423   0.9377   0.9245
     0.9142   0.9060   0.9025   0.9011   0.8893   0.8846   0.8742   0.8431
     0.8318   0.8256   0.7534   0.7429   0.7272   0.7164   0.7077   0.7035
     0.6997   0.6946   0.6793   0.6776   0.6678   0.6660   0.6603   0.6506
     0.6443   0.6399   0.6273   0.6212   0.6184   0.5987   0.5893   0.5534
     0.3407   0.3197   0.2042   0.0734   0.0516   0.0203   0.0062   0.0048
     0.0003   0.0001   0.0001   0.0000   0.0000   0.0000   0.0000   0.0000
     0.0000   0.0000   0.0000   0.0000   0.0000   0.0000   0.0000   0.0000
     0.0000   0.0000   0.0000   0.0000   0.0000   0.0000   0.0000   0.0000
     0.0000   0.0000   0.0000

          k = 0.0000-0.5000 0.0000 ( 65180 PWs)   bands (ev):

   -92.6831 -92.6307 -92.5369 -92.4905 -92.4313 -92.3893 -92.3726 -92.2532
   -56.0365 -56.0174 -55.8943 -55.8838 -55.8776 -55.8706 -55.8355 -55.8062
   -55.7914 -55.7887 -55.7805 -55.7391 -55.7209 -55.6826 -55.6633 -55.6310
   -55.6262 -55.5780 -55.5771 -55.5746 -55.5662 -55.5282 -55.5028 -55.4199
   -31.2605 -31.2411 -31.1003 -31.0940 -31.0131 -31.0095 -30.7673 -30.6464
   -29.8296 -29.7862 -29.7631 -29.6533 -14.9910 -14.9427 -14.8886 -14.7607
   -14.6779 -14.5402 -14.3872 -14.2628 -14.1398 -14.0692 -14.0249 -14.0201
   -13.9698 -13.9531 -13.9416 -13.9040 -13.8828 -13.8585 -13.8246 -13.7869
   -13.7453 -13.5660 -13.5074 -13.4863 -13.4388 -13.3988 -13.3409 -13.2938
   -13.2662 -13.2334 -13.2009 -13.0947 -13.0850 -13.0336 -12.9966 -12.9490
   -12.9329 -12.9116 -12.8649 -12.8132 -12.7969 -12.7457 -12.7058 -12.6883
   -12.6563 -12.6349 -12.5914 -12.4976 -12.3674 -12.3060 -12.2358 -12.1537
   -12.1067 -11.7635 -11.7609 -11.7335 -11.6965 -11.6621 -11.6510 -11.6082
   -11.6043 -11.5597 -11.4977 -11.4841 -11.4700  -2.5739  -2.5135  -2.3638
    -2.2919  -2.0108  -1.9265  -1.7996  -1.6624  -1.6250  -1.6056  -1.5260
    -1.4955  -1.4135  -1.3783  -1.3009  -1.2615  -1.2226  -1.1955  -1.1355
    -1.1010  -1.0803  -1.0525  -1.0164  -0.9840  -0.9481  -0.8407  -0.7959
    -0.7604  -0.7592  -0.6732  -0.6401  -0.6187  -0.5661  -0.4838  -0.4135
    -0.3279  -0.3009  -0.1982  -0.1480  -0.0111   0.0298   0.0515   0.1274
     0.2576   0.2844   0.4097   0.4792   0.4871   0.6131   0.6620   0.8084
     0.8919   1.0040   1.0329   1.0708   1.0752   1.1245   1.1347   1.1669
     1.1862   1.1940   1.3043   1.3660   1.3970   1.4235   1.6801   1.7139
     1.7389   1.8344   1.8706   1.8835   1.9010   1.9299   1.9430   1.9668
     1.9906   2.0210   2.0544   2.0877   2.0913   2.1223   2.1720   2.2558
     2.2826   2.4574   2.4725   2.5173   2.6213   2.6328   2.6616   2.6862
     2.6915   2.7011   2.7513   2.7632   2.8169   2.8393   2.9165   2.9297
     2.9965   3.0061   3.0272   3.0303   3.0485   3.0554   3.0593   3.0611
     3.0651   3.0771   3.0959   3.0971   3.1614   3.1667   3.1823   3.2363
     4.1617   4.1720   4.1951   4.2739   4.7705   4.9166   5.0413   5.1787
     5.4293   5.4807   5.5971   5.7426   6.0425   6.0678   6.2547   6.4780
     6.8644   6.9647   7.2281   7.3169   7.3605   7.4817   7.6873   7.7728
     7.9246   8.0144   8.1891   8.2349   8.2916   8.4607   8.5246   8.6886
     8.8154   8.8294   8.8842

     occupation numbers 
     1.0000   1.0000   1.0000   1.0000   1.0000   1.0000   1.0000   1.0000
     1.0000   1.0000   1.0000   1.0000   1.0000   1.0000   1.0000   1.0000
     1.0000   1.0000   1.0000   1.0000   1.0000   1.0000   1.0000   1.0000
     1.0000   1.0000   1.0000   1.0000   1.0000   1.0000   1.0000   1.0000
     1.0000   1.0000   1.0000   1.0000   1.0000   1.0000   1.0000   1.0000
     1.0000   1.0000   1.0000   1.0000   1.0000   1.0000   1.0000   1.0000
     1.0000   1.0000   1.0000   1.0000   1.0000   1.0000   1.0000   1.0000
     1.0000   1.0000   1.0000   1.0000   1.0000   1.0000   1.0000   1.0000
     1.0000   1.0000   1.0000   1.0000   1.0000   1.0000   1.0000   1.0000
     1.0000   1.0000   1.0000   1.0000   1.0000   1.0000   1.0000   1.0000
     1.0000   1.0000   1.0000   1.0000   1.0000   1.0000   1.0000   1.0000
     1.0000   1.0000   1.0000   1.0000   1.0000   1.0000   1.0000   1.0000
     1.0000   1.0000   1.0000   1.0000   1.0000   1.0000   1.0000   1.0000
     1.0000   1.0000   1.0000   1.0000   1.0000   1.0000   1.0000   1.0000
     1.0000   1.0000   1.0000   1.0000   1.0000   1.0000   1.0000   1.0000
     1.0000   1.0000   1.0000   1.0000   1.0000   1.0000   1.0000   1.0000
     1.0000   1.0000   1.0000   1.0000   1.0000   1.0000   1.0000   1.0000
     1.0000   1.0000   1.0000   1.0000   1.0000   1.0000   1.0000   1.0000
     1.0000   1.0000   1.0000   1.0000   1.0000   1.0000   1.0000   1.0000
     1.0000   1.0000   1.0000   1.0000   1.0000   1.0000   1.0000   0.9999
     0.9999   0.9997   0.9997   0.9996   0.9996   0.9995   0.9995   0.9994
     0.9993   0.9993   0.9988   0.9983   0.9981   0.9978   0.9933   0.9923
     0.9914   0.9875   0.9857   0.9850   0.9840   0.9822   0.9813   0.9796
     0.9778   0.9753   0.9723   0.9690   0.9686   0.9652   0.9592   0.9470
     0.9426   0.9061   0.9023   0.8904   0.8586   0.8547   0.8447   0.8359
     0.8339   0.8303   0.8108   0.8060   0.7833   0.7734   0.7375   0.7311
     0.6974   0.6924   0.6813   0.6796   0.6699   0.6662   0.6641   0.6631
     0.6609   0.6544   0.6440   0.6434   0.6072   0.6041   0.5952   0.5639
     0.1125   0.1096   0.1033   0.0838   0.0171   0.0098   0.0059   0.0032
     0.0010   0.0008   0.0004   0.0002   0.0000   0.0000   0.0000   0.0000
     0.0000   0.0000   0.0000   0.0000   0.0000   0.0000   0.0000   0.0000
     0.0000   0.0000   0.0000   0.0000   0.0000   0.0000   0.0000   0.0000
     0.0000   0.0000   0.0000

          k = 0.2500 0.2500 0.0000 ( 65198 PWs)   bands (ev):

   -92.6831 -92.6307 -92.5369 -92.4905 -92.4313 -92.3893 -92.3726 -92.2532
   -56.0365 -56.0174 -55.8943 -55.8838 -55.8776 -55.8706 -55.8355 -55.8062
   -55.7914 -55.7887 -55.7805 -55.7391 -55.7208 -55.6826 -55.6633 -55.6310
   -55.6262 -55.5780 -55.5771 -55.5746 -55.5662 -55.5282 -55.5028 -55.4199
   -31.2590 -31.2429 -31.0997 -31.0943 -31.0133 -31.0091 -30.7677 -30.6462
   -29.8293 -29.7875 -29.7621 -29.6534 -14.9982 -14.9561 -14.8859 -14.7689
   -14.6494 -14.5232 -14.4524 -14.2459 -14.0912 -14.0779 -14.0417 -14.0121
   -13.9892 -13.9606 -13.9414 -13.9292 -13.9043 -13.8222 -13.8057 -13.6465
   -13.6317 -13.6021 -13.5828 -13.5305 -13.4932 -13.4330 -13.4092 -13.2781
   -13.2289 -13.2113 -13.1254 -13.0858 -13.0469 -13.0264 -13.0010 -12.9728
   -12.9332 -12.9278 -12.9012 -12.8545 -12.8082 -12.7277 -12.7181 -12.6997
   -12.6954 -12.6485 -12.5894 -12.4581 -12.4351 -12.3431 -12.2600 -12.0771
   -12.0290 -11.7816 -11.7499 -11.7391 -11.7322 -11.6693 -11.6347 -11.6280
   -11.5925 -11.5851 -11.4924 -11.4518 -11.4344  -2.6499  -2.4411  -2.3231
    -2.2293  -2.1082  -2.0434  -1.8460  -1.7010  -1.6819  -1.6527  -1.5585
    -1.5227  -1.4297  -1.4017  -1.3522  -1.2220  -1.1721  -1.1015  -1.0766
    -1.0536  -1.0107  -0.9869  -0.9628  -0.9203  -0.9048  -0.8138  -0.7637
    -0.6991  -0.6496  -0.6196  -0.5697  -0.5545  -0.4924  -0.4438  -0.3856
    -0.3516  -0.2669  -0.2140  -0.1847  -0.1462  -0.0907  -0.0185   0.0206
     0.0511   0.1297   0.1861   0.4274   0.5740   0.6093   0.6691   0.7094
     0.7917   0.8562   0.8860   0.9220   1.1933   1.2590   1.3327   1.3568
     1.4069   1.4381   1.4731   1.5093   1.5275   1.5539   1.5983   1.6072
     1.6216   1.6684   1.7129   1.7462   1.8008   1.8453   1.8519   1.8915
     1.9238   1.9820   2.0132   2.1400   2.1943   2.2273   2.2537   2.3237
     2.3891   2.4144   2.4484   2.4653   2.4797   2.4900   2.5149   2.6112
     2.6374   2.7261   2.8941   2.9109   2.9172   2.9333   2.9475   2.9611
     2.9739   2.9811   2.9919   3.0050   3.0177   3.0362   3.0428   3.0541
     3.0761   3.0878   3.0966   3.1287   3.4292   3.5229   3.5643   3.6362
     3.6646   3.8796   3.9725   4.3261   4.5320   4.7341   5.0020   5.1769
     5.6611   5.7177   5.7797   5.8536   5.9117   6.0627   6.1699   6.2274
     6.9022   6.9111   7.1416   7.2280   7.5651   7.6195   7.7264   7.8531
     7.8834   8.0038   8.1701   8.2152   8.2723   8.3505   8.4598   8.4621
     8.5613   8.7665   8.9218

     occupation numbers 
     1.0000   1.0000   1.0000   1.0000   1.0000   1.0000   1.0000   1.0000
     1.0000   1.0000   1.0000   1.0000   1.0000   1.0000   1.0000   1.0000
     1.0000   1.0000   1.0000   1.0000   1.0000   1.0000   1.0000   1.0000
     1.0000   1.0000   1.0000   1.0000   1.0000   1.0000   1.0000   1.0000
     1.0000   1.0000   1.0000   1.0000   1.0000   1.0000   1.0000   1.0000
     1.0000   1.0000   1.0000   1.0000   1.0000   1.0000   1.0000   1.0000
     1.0000   1.0000   1.0000   1.0000   1.0000   1.0000   1.0000   1.0000
     1.0000   1.0000   1.0000   1.0000   1.0000   1.0000   1.0000   1.0000
     1.0000   1.0000   1.0000   1.0000   1.0000   1.0000   1.0000   1.0000
     1.0000   1.0000   1.0000   1.0000   1.0000   1.0000   1.0000   1.0000
     1.0000   1.0000   1.0000   1.0000   1.0000   1.0000   1.0000   1.0000
     1.0000   1.0000   1.0000   1.0000   1.0000   1.0000   1.0000   1.0000
     1.0000   1.0000   1.0000   1.0000   1.0000   1.0000   1.0000   1.0000
     1.0000   1.0000   1.0000   1.0000   1.0000   1.0000   1.0000   1.0000
     1.0000   1.0000   1.0000   1.0000   1.0000   1.0000   1.0000   1.0000
     1.0000   1.0000   1.0000   1.0000   1.0000   1.0000   1.0000   1.0000
     1.0000   1.0000   1.0000   1.0000   1.0000   1.0000   1.0000   1.0000
     1.0000   1.0000   1.0000   1.0000   1.0000   1.0000   1.0000   1.0000
     1.0000   1.0000   1.0000   1.0000   1.0000   1.0000   1.0000   1.0000
     1.0000   1.0000   1.0000   1.0000   1.0000   1.0000   1.0000   1.0000
     0.9999   0.9999   0.9999   0.9998   0.9993   0.9990   0.9986   0.9984
     0.9980   0.9977   0.9973   0.9968   0.9965   0.9961   0.9952   0.9951
     0.9947   0.9936   0.9923   0.9912   0.9891   0.9870   0.9867   0.9845
     0.9826   0.9785   0.9760   0.9632   0.9562   0.9514   0.9474   0.9352
     0.9220   0.9164   0.9084   0.9042   0.9005   0.8978   0.8910   0.8619
     0.8532   0.8208   0.7482   0.7402   0.7372   0.7293   0.7223   0.7155
     0.7090   0.7053   0.6998   0.6930   0.6863   0.6765   0.6730   0.6669
     0.6549   0.6485   0.6436   0.6257   0.4500   0.3956   0.3721   0.3325
     0.3173   0.2135   0.1756   0.0725   0.0389   0.0195   0.0069   0.0033
     0.0003   0.0002   0.0001   0.0001   0.0001   0.0000   0.0000   0.0000
     0.0000   0.0000   0.0000   0.0000   0.0000   0.0000   0.0000   0.0000
     0.0000   0.0000   0.0000   0.0000   0.0000   0.0000   0.0000   0.0000
     0.0000   0.0000   0.0000

          k = 0.2500-0.5000 0.0000 ( 65138 PWs)   bands (ev):

   -92.6831 -92.6307 -92.5369 -92.4905 -92.4313 -92.3893 -92.3726 -92.2532
   -56.0365 -56.0174 -55.8943 -55.8838 -55.8776 -55.8706 -55.8355 -55.8062
   -55.7914 -55.7887 -55.7805 -55.7391 -55.7208 -55.6826 -55.6633 -55.6310
   -55.6262 -55.5780 -55.5771 -55.5746 -55.5662 -55.5282 -55.5028 -55.4199
   -31.2588 -31.2427 -31.0999 -31.0940 -31.0135 -31.0095 -30.7674 -30.6465
   -29.8287 -29.7872 -29.7627 -29.6537 -14.9602 -14.9158 -14.8453 -14.7311
   -14.7008 -14.5808 -14.4908 -14.3602 -14.0557 -14.0025 -13.9758 -13.9542
   -13.9415 -13.9388 -13.9250 -13.8884 -13.8712 -13.8384 -13.8019 -13.7744
   -13.7388 -13.6485 -13.6000 -13.5473 -13.5206 -13.4568 -13.4447 -13.3350
   -13.2806 -13.1896 -13.1252 -13.1058 -13.0272 -13.0026 -12.9839 -12.9669
   -12.9441 -12.9245 -12.8941 -12.8146 -12.7916 -12.7428 -12.7217 -12.6695
   -12.6390 -12.6101 -12.5931 -12.5042 -12.3469 -12.3034 -12.2107 -12.1431
   -12.1111 -11.7573 -11.7452 -11.7343 -11.7073 -11.6757 -11.6474 -11.6060
   -11.5783 -11.5563 -11.5107 -11.4854 -11.4740  -2.4321  -2.3652  -2.2376
    -2.1606  -2.0312  -1.9462  -1.8239  -1.6736  -1.6199  -1.5978  -1.5344
    -1.5214  -1.4243  -1.3575  -1.2728  -1.2227  -1.2136  -1.1505  -1.1067
    -1.0799  -1.0722  -1.0253  -0.9888  -0.9537  -0.9135  -0.9019  -0.8563
    -0.8273  -0.7863  -0.7543  -0.6879  -0.5861  -0.5435  -0.4684  -0.4036
    -0.3544  -0.3119  -0.2908  -0.2392  -0.0778  -0.0660   0.0414   0.0770
     0.0885   0.1364   0.1603   0.2095   0.2280   0.2928   0.5631   0.6589
     0.7617   0.8326   1.0512   1.0819   1.1652   1.1911   1.3559   1.3900
     1.4322   1.4525   1.4699   1.4897   1.5529   1.5986   1.6342   1.7216
     1.8010   1.8445   1.8657   1.8801   1.9118   1.9256   1.9300   1.9784
     1.9894   2.0070   2.0536   2.0629   2.0792   2.1209   2.1725   2.2100
     2.2886   2.4351   2.4575   2.5100   2.5751   2.5953   2.6167   2.6371
     2.6612   2.6893   2.7099   2.7255   2.7486   2.8453   2.8936   2.9129
     2.9173   2.9305   2.9509   2.9650   2.9837   2.9915   3.0234   3.0359
     3.0499   3.0603   3.0694   3.0789   3.6078   3.6124   3.7606   3.8104
     4.1660   4.2003   4.2158   4.3326   4.7886   4.9392   5.0794   5.1510
     5.3228   5.4472   5.6196   5.6520   5.7846   5.8040   6.3423   6.4098
     6.5014   6.6081   7.2546   7.3484   7.5676   7.7173   7.8119   7.8411
     7.8961   8.0558   8.2297   8.4068   8.4442   8.5306   8.5612   8.5814
     8.7255   8.7419   8.8075

     occupation numbers 
     1.0000   1.0000   1.0000   1.0000   1.0000   1.0000   1.0000   1.0000
     1.0000   1.0000   1.0000   1.0000   1.0000   1.0000   1.0000   1.0000
     1.0000   1.0000   1.0000   1.0000   1.0000   1.0000   1.0000   1.0000
     1.0000   1.0000   1.0000   1.0000   1.0000   1.0000   1.0000   1.0000
     1.0000   1.0000   1.0000   1.0000   1.0000   1.0000   1.0000   1.0000
     1.0000   1.0000   1.0000   1.0000   1.0000   1.0000   1.0000   1.0000
     1.0000   1.0000   1.0000   1.0000   1.0000   1.0000   1.0000   1.0000
     1.0000   1.0000   1.0000   1.0000   1.0000   1.0000   1.0000   1.0000
     1.0000   1.0000   1.0000   1.0000   1.0000   1.0000   1.0000   1.0000
     1.0000   1.0000   1.0000   1.0000   1.0000   1.0000   1.0000   1.0000
     1.0000   1.0000   1.0000   1.0000   1.0000   1.0000   1.0000   1.0000
     1.0000   1.0000   1.0000   1.0000   1.0000   1.0000   1.0000   1.0000
     1.0000   1.0000   1.0000   1.0000   1.0000   1.0000   1.0000   1.0000
     1.0000   1.0000   1.0000   1.0000   1.0000   1.0000   1.0000   1.0000
     1.0000   1.0000   1.0000   1.0000   1.0000   1.0000   1.0000   1.0000
     1.0000   1.0000   1.0000   1.0000   1.0000   1.0000   1.0000   1.0000
     1.0000   1.0000   1.0000   1.0000   1.0000   1.0000   1.0000   1.0000
     1.0000   1.0000   1.0000   1.0000   1.0000   1.0000   1.0000   1.0000
     1.0000   1.0000   1.0000   1.0000   1.0000   1.0000   1.0000   1.0000
     1.0000   1.0000   1.0000   1.0000   1.0000   1.0000   1.0000   1.0000
     0.9999   0.9999   0.9997   0.9996   0.9994   0.9993   0.9984   0.9981
     0.9977   0.9975   0.9973   0.9971   0.9961   0.9952   0.9945   0.9920
     0.9890   0.9870   0.9860   0.9852   0.9833   0.9824   0.9822   0.9787
     0.9779   0.9765   0.9724   0.9715   0.9699   0.9654   0.9591   0.9540
     0.9416   0.9116   0.9061   0.8924   0.8734   0.8671   0.8601   0.8532
     0.8449   0.8347   0.8270   0.8210   0.8119   0.7708   0.7484   0.7392
     0.7371   0.7307   0.7206   0.7135   0.7040   0.6999   0.6833   0.6766
     0.6691   0.6635   0.6586   0.6534   0.3479   0.3454   0.2684   0.2445
     0.1113   0.1019   0.0979   0.0712   0.0160   0.0089   0.0050   0.0037
     0.0017   0.0009   0.0004   0.0003   0.0001   0.0001   0.0000   0.0000
     0.0000   0.0000   0.0000   0.0000   0.0000   0.0000   0.0000   0.0000
     0.0000   0.0000   0.0000   0.0000   0.0000   0.0000   0.0000   0.0000
     0.0000   0.0000   0.0000

          k =-0.5000-0.5000 0.0000 ( 65132 PWs)   bands (ev):

   -92.6831 -92.6307 -92.5369 -92.4905 -92.4313 -92.3893 -92.3726 -92.2532
   -56.0365 -56.0174 -55.8943 -55.8838 -55.8776 -55.8706 -55.8355 -55.8062
   -55.7914 -55.7887 -55.7805 -55.7391 -55.7208 -55.6826 -55.6633 -55.6310
   -55.6262 -55.5780 -55.5771 -55.5746 -55.5662 -55.5282 -55.5028 -55.4199
   -31.2567 -31.2449 -31.0995 -31.0939 -31.0138 -31.0094 -30.7675 -30.6466
   -29.8277 -29.7882 -29.7624 -29.6541 -14.9127 -14.8888 -14.7711 -14.7579
   -14.6642 -14.6272 -14.5955 -14.4600 -13.9657 -13.9553 -13.9413 -13.9192
   -13.9031 -13.8833 -13.8687 -13.8416 -13.8286 -13.8170 -13.8088 -13.7942
   -13.7160 -13.7083 -13.6812 -13.6450 -13.6342 -13.5414 -13.5167 -13.3762
   -13.3191 -13.1398 -13.1036 -13.0337 -13.0085 -12.9952 -12.9782 -12.9668
   -12.9575 -12.9412 -12.9302 -12.8169 -12.7783 -12.7470 -12.7269 -12.6885
   -12.6087 -12.5862 -12.5776 -12.5206 -12.3278 -12.2997 -12.1835 -12.1291
   -12.1212 -11.7536 -11.7417 -11.7238 -11.7069 -11.6720 -11.6537 -11.6200
   -11.5584 -11.5389 -11.5329 -11.4831 -11.4798  -2.2079  -2.1329  -2.1222
    -2.0481  -2.0112  -1.9332  -1.8655  -1.7396  -1.6241  -1.5939  -1.5543
    -1.4968  -1.4254  -1.4107  -1.3403  -1.2971  -1.1809  -1.1511  -1.1029
    -1.0778  -1.0741  -1.0100  -0.9638  -0.9449  -0.9327  -0.8787  -0.8350
    -0.8202  -0.7062  -0.6472  -0.6011  -0.5533  -0.5240  -0.5135  -0.4790
    -0.4356  -0.4016  -0.3908  -0.3031  -0.2391  -0.1924  -0.1667  -0.0935
    -0.0380  -0.0211   0.0341   0.0634   0.0744   0.1067   0.5349   0.5758
     0.6972   0.7755   1.0863   1.0990   1.1294   1.1699   1.4412   1.4612
     1.4683   1.5085   1.6347   1.7307   1.7569   1.7931   1.8128   1.8428
     1.8475   1.8766   1.8860   1.9026   1.9155   1.9667   1.9702   1.9998
     2.0212   2.0379   2.0512   2.0888   2.1117   2.1310   2.1635   2.1930
     2.2491   2.3205   2.4579   2.5029   2.5910   2.6184   2.6398   2.6556
     2.6732   2.6970   2.7002   2.7203   2.7314   2.7482   2.7691   2.7802
     2.8462   2.8485   2.8703   2.8852   2.8956   2.9155   2.9202   2.9298
     3.0322   3.0366   3.0662   3.0765   4.0449   4.0618   4.0848   4.0907
     4.3388   4.4153   4.4363   4.6771   4.7994   4.8821   5.0107   5.0961
     5.1184   5.2240   5.3177   5.4242   5.8658   5.8940   5.9723   6.0428
     6.5026   6.8738   6.9432   7.1158   7.9012   7.9281   7.9416   7.9628
     7.9941   8.0350   8.1053   8.2776   8.3789   8.6025   8.6304   8.6443
     8.6786   8.7498   8.7626

     occupation numbers 
     1.0000   1.0000   1.0000   1.0000   1.0000   1.0000   1.0000   1.0000
     1.0000   1.0000   1.0000   1.0000   1.0000   1.0000   1.0000   1.0000
     1.0000   1.0000   1.0000   1.0000   1.0000   1.0000   1.0000   1.0000
     1.0000   1.0000   1.0000   1.0000   1.0000   1.0000   1.0000   1.0000
     1.0000   1.0000   1.0000   1.0000   1.0000   1.0000   1.0000   1.0000
     1.0000   1.0000   1.0000   1.0000   1.0000   1.0000   1.0000   1.0000
     1.0000   1.0000   1.0000   1.0000   1.0000   1.0000   1.0000   1.0000
     1.0000   1.0000   1.0000   1.0000   1.0000   1.0000   1.0000   1.0000
     1.0000   1.0000   1.0000   1.0000   1.0000   1.0000   1.0000   1.0000
     1.0000   1.0000   1.0000   1.0000   1.0000   1.0000   1.0000   1.0000
     1.0000   1.0000   1.0000   1.0000   1.0000   1.0000   1.0000   1.0000
     1.0000   1.0000   1.0000   1.0000   1.0000   1.0000   1.0000   1.0000
     1.0000   1.0000   1.0000   1.0000   1.0000   1.0000   1.0000   1.0000
     1.0000   1.0000   1.0000   1.0000   1.0000   1.0000   1.0000   1.0000
     1.0000   1.0000   1.0000   1.0000   1.0000   1.0000   1.0000   1.0000
     1.0000   1.0000   1.0000   1.0000   1.0000   1.0000   1.0000   1.0000
     1.0000   1.0000   1.0000   1.0000   1.0000   1.0000   1.0000   1.0000
     1.0000   1.0000   1.0000   1.0000   1.0000   1.0000   1.0000   1.0000
     1.0000   1.0000   1.0000   1.0000   1.0000   1.0000   1.0000   1.0000
     1.0000   1.0000   1.0000   1.0000   1.0000   1.0000   1.0000   1.0000
     1.0000   0.9999   0.9996   0.9996   0.9995   0.9994   0.9976   0.9974
     0.9973   0.9968   0.9944   0.9917   0.9908   0.9894   0.9885   0.9871
     0.9869   0.9854   0.9848   0.9839   0.9831   0.9796   0.9794   0.9771
     0.9753   0.9738   0.9726   0.9689   0.9664   0.9642   0.9603   0.9564
     0.9481   0.9358   0.9060   0.8943   0.8684   0.8595   0.8523   0.8469
     0.8406   0.8319   0.8307   0.8230   0.8187   0.8121   0.8036   0.7990
     0.7704   0.7693   0.7594   0.7524   0.7475   0.7380   0.7357   0.7310
     0.6786   0.6763   0.6603   0.6547   0.1492   0.1435   0.1359   0.1339
     0.0699   0.0559   0.0525   0.0239   0.0154   0.0112   0.0067   0.0047
     0.0042   0.0026   0.0017   0.0010   0.0001   0.0001   0.0000   0.0000
     0.0000   0.0000   0.0000   0.0000   0.0000   0.0000   0.0000   0.0000
     0.0000   0.0000   0.0000   0.0000   0.0000   0.0000   0.0000   0.0000
     0.0000   0.0000   0.0000

          k = 0.2500 0.0000 0.0000 ( 65257 PWs)   bands (ev):

   -92.6831 -92.6307 -92.5369 -92.4905 -92.4313 -92.3893 -92.3726 -92.2532
   -56.0365 -56.0174 -55.8943 -55.8838 -55.8776 -55.8706 -55.8355 -55.8062
   -55.7914 -55.7887 -55.7805 -55.7391 -55.7208 -55.6826 -55.6633 -55.6310
   -55.6262 -55.5780 -55.5771 -55.5746 -55.5662 -55.5282 -55.5028 -55.4199
   -31.2592 -31.2430 -31.0995 -31.0946 -31.0132 -31.0088 -30.7680 -30.6459
   -29.8299 -29.7878 -29.7615 -29.6530 -15.0308 -14.9862 -14.9197 -14.7719
   -14.6665 -14.4688 -14.3388 -14.1582 -14.1412 -14.1119 -14.0805 -14.0550
   -14.0202 -14.0058 -13.9850 -13.9477 -13.9368 -13.8226 -13.7925 -13.6421
   -13.5750 -13.5631 -13.5019 -13.4750 -13.4624 -13.4072 -13.3284 -13.2959
   -13.2023 -13.1422 -13.1245 -13.0836 -13.0433 -13.0271 -13.0104 -12.9955
   -12.9602 -12.9326 -12.9162 -12.8908 -12.8756 -12.8026 -12.7543 -12.7066
   -12.6157 -12.5972 -12.5834 -12.5476 -12.4950 -12.3887 -12.2319 -12.0449
   -11.9791 -11.8087 -11.7570 -11.7396 -11.7258 -11.6993 -11.6489 -11.6256
   -11.6176 -11.5674 -11.4772 -11.4218 -11.4159  -2.7877  -2.5660  -2.4360
    -2.2636  -2.1996  -2.0299  -1.8226  -1.7454  -1.7014  -1.6667  -1.5660
    -1.5514  -1.5158  -1.4966  -1.4285  -1.2475  -1.1392  -1.1022  -1.0775
    -1.0026  -0.9898  -0.9116  -0.8848  -0.8337  -0.7928  -0.7406  -0.7123
    -0.6629  -0.6362  -0.6179  -0.5618  -0.5454  -0.4569  -0.4476  -0.3841
    -0.2856  -0.2350  -0.1146  -0.0990  -0.0373   0.0075   0.0648   0.0886
     0.1247   0.2048   0.2458   0.5141   0.6481   0.6868   0.7655   0.7984
     0.8420   0.8625   0.9260   1.0413   1.0844   1.1105   1.1476   1.2989
     1.3289   1.3631   1.3695   1.4091   1.4553   1.4984   1.5326   1.5842
     1.6360   1.6524   1.7073   1.7470   1.7915   1.8113   1.8998   1.9055
     1.9331   1.9800   2.0015   2.1224   2.1794   2.2402   2.3214   2.3348
[...]
     0.3495   0.3256   0.2052   0.0784   0.0459   0.0217   0.0061   0.0049
     0.0003   0.0001   0.0001   0.0000   0.0000   0.0000   0.0000   0.0000
     0.0000   0.0000   0.0000   0.0000   0.0000   0.0000   0.0000   0.0000
     0.0000   0.0000   0.0000   0.0000   0.0000   0.0000   0.0000   0.0000
     0.0000   0.0000   0.0000

          k =-0.5000 0.0000 0.0000 ( 65180 PWs)   bands (ev):

   -92.6831 -92.6307 -92.5369 -92.4905 -92.4313 -92.3893 -92.3726 -92.2532
   -56.0365 -56.0174 -55.8943 -55.8838 -55.8776 -55.8706 -55.8355 -55.8062
   -55.7914 -55.7887 -55.7805 -55.7391 -55.7208 -55.6826 -55.6633 -55.6310
   -55.6262 -55.5780 -55.5771 -55.5746 -55.5662 -55.5282 -55.5028 -55.4199
   -31.2570 -31.2452 -31.0991 -31.0946 -31.0136 -31.0087 -30.7681 -30.6460
   -29.8289 -29.7888 -29.7611 -29.6534 -14.9968 -14.9430 -14.8815 -14.7760
   -14.6701 -14.5265 -14.3773 -14.2429 -14.1144 -14.1031 -14.0907 -14.0261
   -13.9744 -13.9440 -13.9372 -13.8907 -13.8885 -13.8695 -13.8205 -13.8062
   -13.6931 -13.5372 -13.5090 -13.4770 -13.4698 -13.4142 -13.3469 -13.2717
   -13.2507 -13.2272 -13.1962 -13.0789 -13.0374 -13.0254 -13.0032 -12.9932
   -12.9576 -12.9293 -12.9105 -12.8922 -12.8788 -12.7010 -12.6233 -12.6147
   -12.5948 -12.5875 -12.5661 -12.5237 -12.4452 -12.3167 -12.3097 -12.1268
   -12.0822 -11.7611 -11.7391 -11.7327 -11.7173 -11.6995 -11.6581 -11.5958
   -11.5786 -11.5461 -11.4997 -11.4905 -11.4752  -2.5635  -2.5252  -2.3613
    -2.3224  -2.0087  -1.9341  -1.7850  -1.6681  -1.6296  -1.5828  -1.5350
    -1.5107  -1.3874  -1.3433  -1.3270  -1.2450  -1.2103  -1.1928  -1.1633
    -1.1087  -1.0782  -1.0317  -1.0077  -0.9783  -0.8838  -0.8362  -0.7864
    -0.7549  -0.7331  -0.7032  -0.6560  -0.6305  -0.5917  -0.4947  -0.4166
    -0.3568  -0.2944  -0.1291  -0.0803  -0.0384  -0.0064   0.0555   0.0752
     0.2141   0.2482   0.3149   0.4579   0.5569   0.6043   0.7087   0.7678
     0.8864   0.9054   1.0228   1.0489   1.1042   1.1353   1.1747   1.1810
     1.2262   1.2526   1.3181   1.3671   1.4144   1.4247   1.7257   1.7345
     1.7488   1.7633   1.8732   1.8873   1.9036   1.9142   1.9426   1.9554
     1.9990   2.0192   2.0429   2.0955   2.1121   2.1625   2.1912   2.2412
     2.3522   2.4476   2.4791   2.5005   2.5252   2.5339   2.6273   2.6444
     2.6768   2.7434   2.7504   2.7570   2.7867   2.8564   2.8992   2.9455
     2.9732   3.0190   3.0222   3.0246   3.0349   3.0519   3.0621   3.0760
     3.0807   3.1013   3.1067   3.1268   3.1471   3.1519   3.2821   3.2885
     4.1173   4.1406   4.2010   4.3453   4.8084   4.8787   5.0639   5.0664
     5.4967   5.5258   5.6124   5.6687   6.0452   6.0507   6.2350   6.5073
     6.8098   7.0168   7.2948   7.3329   7.3585   7.4124   7.6864   7.7924
     7.8958   7.9328   8.1441   8.2128   8.3838   8.5302   8.5702   8.6574
     8.7764   8.8140   8.9518

     occupation numbers 
     1.0000   1.0000   1.0000   1.0000   1.0000   1.0000   1.0000   1.0000
     1.0000   1.0000   1.0000   1.0000   1.0000   1.0000   1.0000   1.0000
     1.0000   1.0000   1.0000   1.0000   1.0000   1.0000   1.0000   1.0000
     1.0000   1.0000   1.0000   1.0000   1.0000   1.0000   1.0000   1.0000
     1.0000   1.0000   1.0000   1.0000   1.0000   1.0000   1.0000   1.0000
     1.0000   1.0000   1.0000   1.0000   1.0000   1.0000   1.0000   1.0000
     1.0000   1.0000   1.0000   1.0000   1.0000   1.0000   1.0000   1.0000
     1.0000   1.0000   1.0000   1.0000   1.0000   1.0000   1.0000   1.0000
     1.0000   1.0000   1.0000   1.0000   1.0000   1.0000   1.0000   1.0000
     1.0000   1.0000   1.0000   1.0000   1.0000   1.0000   1.0000   1.0000
     1.0000   1.0000   1.0000   1.0000   1.0000   1.0000   1.0000   1.0000
     1.0000   1.0000   1.0000   1.0000   1.0000   1.0000   1.0000   1.0000
     1.0000   1.0000   1.0000   1.0000   1.0000   1.0000   1.0000   1.0000
     1.0000   1.0000   1.0000   1.0000   1.0000   1.0000   1.0000   1.0000
     1.0000   1.0000   1.0000   1.0000   1.0000   1.0000   1.0000   1.0000
     1.0000   1.0000   1.0000   1.0000   1.0000   1.0000   1.0000   1.0000
     1.0000   1.0000   1.0000   1.0000   1.0000   1.0000   1.0000   1.0000
     1.0000   1.0000   1.0000   1.0000   1.0000   1.0000   1.0000   1.0000
     1.0000   1.0000   1.0000   1.0000   1.0000   1.0000   1.0000   1.0000
     1.0000   1.0000   1.0000   1.0000   1.0000   1.0000   1.0000   0.9999
     0.9999   0.9999   0.9997   0.9997   0.9996   0.9995   0.9994   0.9993
     0.9992   0.9991   0.9987   0.9983   0.9979   0.9978   0.9919   0.9916
     0.9911   0.9906   0.9856   0.9848   0.9838   0.9832   0.9813   0.9804
     0.9771   0.9755   0.9734   0.9682   0.9664   0.9604   0.9566   0.9493
     0.9297   0.9086   0.9006   0.8950   0.8881   0.8857   0.8566   0.8508
     0.8393   0.8140   0.8112   0.8085   0.7963   0.7657   0.7458   0.7233
     0.7093   0.6856   0.6839   0.6827   0.6772   0.6681   0.6625   0.6550
     0.6524   0.6410   0.6380   0.6268   0.6153   0.6126   0.5370   0.5332
     0.1256   0.1186   0.1017   0.0686   0.0149   0.0114   0.0053   0.0053
     0.0007   0.0006   0.0004   0.0003   0.0000   0.0000   0.0000   0.0000
     0.0000   0.0000   0.0000   0.0000   0.0000   0.0000   0.0000   0.0000
     0.0000   0.0000   0.0000   0.0000   0.0000   0.0000   0.0000   0.0000
     0.0000   0.0000   0.0000

          k =-0.2500 0.2500 0.0000 ( 65198 PWs)   bands (ev):

   -92.6831 -92.6307 -92.5369 -92.4905 -92.4313 -92.3893 -92.3726 -92.2532
   -56.0365 -56.0174 -55.8943 -55.8838 -55.8776 -55.8706 -55.8355 -55.8062
   -55.7914 -55.7887 -55.7805 -55.7391 -55.7208 -55.6826 -55.6633 -55.6310
   -55.6262 -55.5780 -55.5771 -55.5746 -55.5662 -55.5282 -55.5028 -55.4199
   -31.2590 -31.2429 -31.0997 -31.0943 -31.0133 -31.0091 -30.7677 -30.6462
   -29.8293 -29.7875 -29.7621 -29.6534 -14.9995 -14.9550 -14.8845 -14.7673
   -14.6555 -14.5277 -14.4444 -14.2369 -14.0977 -14.0681 -14.0556 -14.0064
   -13.9835 -13.9636 -13.9452 -13.9409 -13.9043 -13.8179 -13.8067 -13.6550
   -13.6285 -13.5990 -13.5789 -13.5333 -13.4795 -13.4265 -13.4181 -13.2877
   -13.2269 -13.2053 -13.1293 -13.0880 -13.0352 -13.0216 -12.9933 -12.9731
   -12.9423 -12.9118 -12.9093 -12.8692 -12.8253 -12.7541 -12.7356 -12.6876
   -12.6750 -12.6294 -12.5870 -12.4356 -12.4248 -12.3697 -12.2657 -12.0819
   -12.0225 -11.7808 -11.7594 -11.7321 -11.7201 -11.6789 -11.6444 -11.6211
   -11.6001 -11.5773 -11.4922 -11.4472 -11.4375  -2.6483  -2.4401  -2.3189
    -2.2309  -2.1124  -2.0461  -1.8437  -1.6978  -1.6797  -1.6507  -1.5591
    -1.5215  -1.4293  -1.3955  -1.3692  -1.2274  -1.1714  -1.1031  -1.0838
    -1.0676  -1.0126  -0.9923  -0.9527  -0.9240  -0.8838  -0.8204  -0.7729
    -0.7104  -0.6409  -0.6152  -0.5641  -0.5351  -0.4897  -0.4337  -0.3890
    -0.3466  -0.2487  -0.2129  -0.2034  -0.1593  -0.0926  -0.0224   0.0255
     0.0559   0.1332   0.1848   0.4087   0.5773   0.6174   0.6562   0.7171
     0.7970   0.8515   0.8952   0.9205   1.2006   1.3093   1.3497   1.3814
     1.3883   1.4317   1.4473   1.4921   1.5218   1.5372   1.5623   1.6067
     1.6221   1.6672   1.6857   1.7303   1.8137   1.8355   1.8527   1.8978
     1.9208   1.9604   2.0232   2.1303   2.2212   2.2521   2.3003   2.3205
     2.3882   2.4270   2.4500   2.4680   2.4777   2.5000   2.5160   2.6111
     2.6358   2.7261   2.9007   2.9093   2.9227   2.9327   2.9436   2.9575
     2.9639   2.9819   2.9915   3.0053   3.0153   3.0276   3.0373   3.0452
     3.0777   3.0878   3.0958   3.1308   3.4225   3.5045   3.5673   3.6485
     3.6642   3.8649   3.9812   4.3253   4.5300   4.7349   5.0122   5.1769
     5.6627   5.7145   5.7820   5.8509   5.9127   6.0631   6.1816   6.2130
     6.8978   6.9278   7.1123   7.2503   7.5796   7.6261   7.6867   7.8517
     7.9165   7.9731   8.1740   8.2227   8.3126   8.3557   8.4128   8.4639
     8.5453   8.7953   8.9243

     occupation numbers 
     1.0000   1.0000   1.0000   1.0000   1.0000   1.0000   1.0000   1.0000
     1.0000   1.0000   1.0000   1.0000   1.0000   1.0000   1.0000   1.0000
     1.0000   1.0000   1.0000   1.0000   1.0000   1.0000   1.0000   1.0000
     1.0000   1.0000   1.0000   1.0000   1.0000   1.0000   1.0000   1.0000
     1.0000   1.0000   1.0000   1.0000   1.0000   1.0000   1.0000   1.0000
     1.0000   1.0000   1.0000   1.0000   1.0000   1.0000   1.0000   1.0000
     1.0000   1.0000   1.0000   1.0000   1.0000   1.0000   1.0000   1.0000
     1.0000   1.0000   1.0000   1.0000   1.0000   1.0000   1.0000   1.0000
     1.0000   1.0000   1.0000   1.0000   1.0000   1.0000   1.0000   1.0000
     1.0000   1.0000   1.0000   1.0000   1.0000   1.0000   1.0000   1.0000
     1.0000   1.0000   1.0000   1.0000   1.0000   1.0000   1.0000   1.0000
     1.0000   1.0000   1.0000   1.0000   1.0000   1.0000   1.0000   1.0000
     1.0000   1.0000   1.0000   1.0000   1.0000   1.0000   1.0000   1.0000
     1.0000   1.0000   1.0000   1.0000   1.0000   1.0000   1.0000   1.0000
     1.0000   1.0000   1.0000   1.0000   1.0000   1.0000   1.0000   1.0000
     1.0000   1.0000   1.0000   1.0000   1.0000   1.0000   1.0000   1.0000
     1.0000   1.0000   1.0000   1.0000   1.0000   1.0000   1.0000   1.0000
     1.0000   1.0000   1.0000   1.0000   1.0000   1.0000   1.0000   1.0000
     1.0000   1.0000   1.0000   1.0000   1.0000   1.0000   1.0000   1.0000
     1.0000   1.0000   1.0000   1.0000   1.0000   1.0000   1.0000   1.0000
     0.9999   0.9999   0.9999   0.9998   0.9993   0.9987   0.9985   0.9982
     0.9982   0.9977   0.9976   0.9970   0.9966   0.9964   0.9959   0.9951
     0.9947   0.9936   0.9931   0.9917   0.9885   0.9875   0.9866   0.9842
     0.9828   0.9801   0.9751   0.9643   0.9523   0.9476   0.9395   0.9358
     0.9222   0.9135   0.9080   0.9035   0.9010   0.8951   0.8907   0.8620
     0.8537   0.8208   0.7451   0.7410   0.7345   0.7296   0.7242   0.7173
     0.7141   0.7049   0.7000   0.6928   0.6876   0.6811   0.6759   0.6716
     0.6540   0.6485   0.6441   0.6245   0.4540   0.4061   0.3705   0.3259
     0.3175   0.2199   0.1723   0.0727   0.0392   0.0195   0.0066   0.0033
     0.0003   0.0002   0.0001   0.0001   0.0001   0.0000   0.0000   0.0000
     0.0000   0.0000   0.0000   0.0000   0.0000   0.0000   0.0000   0.0000
     0.0000   0.0000   0.0000   0.0000   0.0000   0.0000   0.0000   0.0000
     0.0000   0.0000   0.0000

          k =-0.5000 0.2500 0.0000 ( 65138 PWs)   bands (ev):

   -92.6831 -92.6307 -92.5369 -92.4905 -92.4313 -92.3893 -92.3726 -92.2532
   -56.0365 -56.0174 -55.8943 -55.8838 -55.8776 -55.8706 -55.8355 -55.8062
   -55.7914 -55.7887 -55.7805 -55.7391 -55.7208 -55.6826 -55.6633 -55.6310
   -55.6262 -55.5780 -55.5771 -55.5746 -55.5662 -55.5282 -55.5028 -55.4199
   -31.2569 -31.2450 -31.0993 -31.0942 -31.0137 -31.0090 -30.7678 -30.6463
   -29.8283 -29.7885 -29.7617 -29.6538 -14.9636 -14.9171 -14.8384 -14.7417
   -14.7000 -14.5731 -14.4824 -14.3572 -14.0481 -14.0171 -14.0053 -13.9596
   -13.9414 -13.9380 -13.9136 -13.8770 -13.8745 -13.8469 -13.8109 -13.7996
   -13.6867 -13.6200 -13.5710 -13.5677 -13.5535 -13.4670 -13.4512 -13.3198
   -13.2678 -13.1827 -13.1477 -13.0538 -13.0321 -13.0085 -12.9986 -12.9749
   -12.9443 -12.9249 -12.9141 -12.8841 -12.8300 -12.7109 -12.6550 -12.6498
   -12.6069 -12.6005 -12.5846 -12.5219 -12.3766 -12.3052 -12.2504 -12.1258
   -12.0965 -11.7537 -11.7407 -11.7266 -11.7150 -11.6931 -11.6630 -11.5831
   -11.5740 -11.5514 -11.5142 -11.4863 -11.4778  -2.4212  -2.3794  -2.2309
    -2.1890  -2.0280  -1.9525  -1.8093  -1.6744  -1.6178  -1.5904  -1.5514
    -1.5130  -1.4324  -1.3174  -1.2601  -1.2371  -1.2113  -1.1327  -1.1068
    -1.0845  -1.0606  -1.0491  -0.9888  -0.9601  -0.9211  -0.8859  -0.8572
    -0.7992  -0.7725  -0.7311  -0.6964  -0.5916  -0.5650  -0.4768  -0.4130
    -0.3817  -0.3269  -0.2395  -0.2079  -0.1056  -0.0708  -0.0088   0.0404
     0.0634   0.1372   0.1721   0.2166   0.2514   0.2892   0.6036   0.6558
     0.7426   0.8054   1.0337   1.0960   1.1648   1.1947   1.3698   1.4053
     1.4438   1.4554   1.4737   1.4919   1.5606   1.6030   1.6432   1.6729
     1.7927   1.8290   1.8636   1.8786   1.9185   1.9355   1.9535   1.9741
     1.9898   2.0101   2.0585   2.0702   2.1088   2.1312   2.1670   2.2220
     2.3406   2.4381   2.4619   2.4734   2.5084   2.5336   2.5716   2.6434
     2.6711   2.6779   2.7164   2.7480   2.7719   2.8566   2.8965   2.9099
     2.9151   2.9361   2.9593   2.9718   2.9866   2.9983   3.0200   3.0338
     3.0435   3.0512   3.0636   3.0758   3.6062   3.6436   3.7946   3.8141
     4.1189   4.1630   4.2139   4.4268   4.8031   4.8966   5.0645   5.0934
     5.4233   5.4494   5.6016   5.6352   5.7634   5.8074   6.3212   6.4073
     6.5079   6.6405   7.2215   7.3823   7.5497   7.7257   7.8032   7.8431
     7.9117   8.0408   8.1958   8.4226   8.4509   8.5277   8.5573   8.5908
     8.6689   8.7562   8.8263

     occupation numbers 
     1.0000   1.0000   1.0000   1.0000   1.0000   1.0000   1.0000   1.0000
     1.0000   1.0000   1.0000   1.0000   1.0000   1.0000   1.0000   1.0000
     1.0000   1.0000   1.0000   1.0000   1.0000   1.0000   1.0000   1.0000
     1.0000   1.0000   1.0000   1.0000   1.0000   1.0000   1.0000   1.0000
     1.0000   1.0000   1.0000   1.0000   1.0000   1.0000   1.0000   1.0000
     1.0000   1.0000   1.0000   1.0000   1.0000   1.0000   1.0000   1.0000
     1.0000   1.0000   1.0000   1.0000   1.0000   1.0000   1.0000   1.0000
     1.0000   1.0000   1.0000   1.0000   1.0000   1.0000   1.0000   1.0000
     1.0000   1.0000   1.0000   1.0000   1.0000   1.0000   1.0000   1.0000
     1.0000   1.0000   1.0000   1.0000   1.0000   1.0000   1.0000   1.0000
     1.0000   1.0000   1.0000   1.0000   1.0000   1.0000   1.0000   1.0000
     1.0000   1.0000   1.0000   1.0000   1.0000   1.0000   1.0000   1.0000
     1.0000   1.0000   1.0000   1.0000   1.0000   1.0000   1.0000   1.0000
     1.0000   1.0000   1.0000   1.0000   1.0000   1.0000   1.0000   1.0000
     1.0000   1.0000   1.0000   1.0000   1.0000   1.0000   1.0000   1.0000
     1.0000   1.0000   1.0000   1.0000   1.0000   1.0000   1.0000   1.0000
     1.0000   1.0000   1.0000   1.0000   1.0000   1.0000   1.0000   1.0000
     1.0000   1.0000   1.0000   1.0000   1.0000   1.0000   1.0000   1.0000
     1.0000   1.0000   1.0000   1.0000   1.0000   1.0000   1.0000   1.0000
     1.0000   1.0000   1.0000   1.0000   1.0000   1.0000   1.0000   1.0000
     0.9999   0.9999   0.9997   0.9996   0.9994   0.9993   0.9983   0.9980
     0.9976   0.9975   0.9973   0.9970   0.9960   0.9951   0.9942   0.9935
     0.9894   0.9878   0.9861   0.9853   0.9829   0.9818   0.9806   0.9791
     0.9779   0.9762   0.9719   0.9708   0.9667   0.9642   0.9598   0.9522
     0.9320   0.9108   0.9050   0.9021   0.8928   0.8857   0.8745   0.8511
     0.8414   0.8389   0.8245   0.8121   0.8024   0.7656   0.7471   0.7407
     0.7382   0.7279   0.7164   0.7100   0.7025   0.6965   0.6851   0.6778
     0.6726   0.6684   0.6617   0.6551   0.3488   0.3285   0.2520   0.2428
     0.1251   0.1121   0.0984   0.0540   0.0152   0.0106   0.0053   0.0047
     0.0010   0.0009   0.0004   0.0003   0.0002   0.0001   0.0000   0.0000
     0.0000   0.0000   0.0000   0.0000   0.0000   0.0000   0.0000   0.0000
     0.0000   0.0000   0.0000   0.0000   0.0000   0.0000   0.0000   0.0000
     0.0000   0.0000   0.0000

     the Fermi energy is     3.3446 ev

!    total energy              =   -4441.65325180 Ry
     estimated scf accuracy    <          7.9E-09 Ry
     smearing contrib. (-TS)   =      -1.15500941 Ry
     internal energy E=F+TS    =   -4440.49824238 Ry

     The total energy is F=E-TS. E is the sum of the following terms:
     one-electron contribution =  -20804.31250288 Ry
     hartree contribution      =   10534.39058828 Ry
     xc contribution           =    -694.18037493 Ry
     ewald contribution        =    6799.77485134 Ry
     one-center paw contrib.   =    -276.17080419 Ry
      -> PAW hartree energy AE =      25.17542875 Ry
      -> PAW hartree energy PS =     -25.05919930 Ry
      -> PAW xc energy AE      =     -16.51926681 Ry
      -> PAW xc energy PS      =       6.87881749 Ry
      -> total E_H with PAW    =   10534.50681773 Ry
      -> total E_XC with PAW   =    -703.82082426 Ry

     convergence has been achieved in  46 iterations

     Writing all to output data dir /bsuhome/zayahcortright/scratch/pwscf.save/
 
     init_run     :      8.21s CPU      9.13s WALL (       1 calls)
     electrons    :    737.58s CPU    818.29s WALL (       1 calls)

     Called by init_run:
     wfcinit      :      6.79s CPU      7.00s WALL (       1 calls)
     wfcinit:atom :      0.05s CPU      0.07s WALL (       5 calls)
     wfcinit:wfcr :      6.47s CPU      6.60s WALL (       5 calls)
     potinit      :      0.15s CPU      0.18s WALL (       1 calls)
     hinit0       :      0.39s CPU      0.80s WALL (       1 calls)

     Called by electrons:
     c_bands      :    595.79s CPU    607.43s WALL (      46 calls)
     sum_band     :    105.13s CPU    142.96s WALL (      46 calls)
     v_of_rho     :      5.11s CPU      5.47s WALL (      47 calls)
     v_h          :      0.47s CPU      0.48s WALL (      47 calls)
     v_xc         :      4.64s CPU      5.00s WALL (      47 calls)
     newd         :     17.71s CPU     48.20s WALL (      47 calls)
     PAW_pot      :      1.53s CPU      1.56s WALL (      47 calls)
     mix_rho      :     11.97s CPU     12.40s WALL (      46 calls)

     Called by c_bands:
     init_us_2    :      6.45s CPU      6.54s WALL (     465 calls)
     init_us_2:cp :      6.44s CPU      6.54s WALL (     465 calls)
     cegterg      :    562.99s CPU    574.29s WALL (     230 calls)

     Called by sum_band:
     sum_band:wei :      0.33s CPU      0.34s WALL (      46 calls)
     sum_band:loo :     84.37s CPU     85.09s WALL (      46 calls)
     sum_band:buf :      1.36s CPU      1.45s WALL (     230 calls)
     sum_band:ini :      2.99s CPU      3.01s WALL (     230 calls)
     sum_band:cal :     18.33s CPU     18.39s WALL (     230 calls)
     sum_band:bec :      0.53s CPU      0.55s WALL (     230 calls)
     addusdens    :     17.82s CPU     54.85s WALL (      46 calls)
                                        0.00s GPU  (      46 calls)
     addusd:skk   :      0.28s CPU      2.30s WALL (     184 calls)
                                        0.00s GPU  (     184 calls)

     Called by *egterg:
     cdiaghg      :     56.25s CPU     56.50s WALL (    1223 calls)
     cegterg:over :     41.63s CPU     41.81s WALL (     993 calls)
     cegterg:upda :     46.97s CPU     47.80s WALL (     993 calls)
     cegterg:last :     65.19s CPU     65.48s WALL (     416 calls)
     cdiaghg:chol :      3.17s CPU      3.19s WALL (    1223 calls)
     cdiaghg:inve :      3.48s CPU      3.50s WALL (    1223 calls)
     cdiaghg:para :      7.29s CPU      7.34s WALL (    2446 calls)
     h_psi        :    286.51s CPU    291.15s WALL (    1228 calls)
     s_psi        :     41.59s CPU     41.72s WALL (    1228 calls)
     g_psi        :      2.16s CPU      2.17s WALL (     993 calls)

     Called by h_psi:
     h_psi:calbec :     42.79s CPU     43.02s WALL (    1228 calls)
     vloc_psi     :    197.19s CPU    199.12s WALL (    1228 calls)
     add_vuspsi   :     41.38s CPU     41.63s WALL (    1228 calls)

     General routines
     calbec       :     61.11s CPU     61.41s WALL (    1458 calls)
     fft          :      4.44s CPU      4.49s WALL (     609 calls)
     ffts         :      4.42s CPU      4.48s WALL (    4948 calls)
     fftw         :    164.73s CPU    166.12s WALL (  312702 calls)
     interpolate  :      0.39s CPU      0.40s WALL (      47 calls)
 
     Parallel routines

     PAW routines
     PAW_pot      :      1.53s CPU      1.56s WALL (      47 calls)
 
     PWSCF        :  12m27.41s CPU  13m52.14s WALL

 
   This run was terminated on:  16:25:21  21Jun2024            

=------------------------------------------------------------------------------=
   JOB DONE.
=------------------------------------------------------------------------------=
