
     Program PWSCF v.7.2 starts on 21Jun2024 at 15:22:17 

     This program is part of the open-source Quantum ESPRESSO suite
     for quantum simulation of materials; please cite
         "P. Giannozzi et al., J. Phys.:Condens. Matter 21 395502 (2009);
         "P. Giannozzi et al., J. Phys.:Condens. Matter 29 465901 (2017);
         "P. Giannozzi et al., J. Chem. Phys. 152 154105 (2020);
          URL http://www.quantum-espresso.org", 
     in publications or presentations arising from this work. More details at
     http://www.quantum-espresso.org/quote

     Parallel version (MPI & OpenMP), running on      48 processor cores
     Number of MPI processes:                48
     Threads/MPI process:                     1

     MPI processes distributed on     1 nodes
     60580 MiB available memory on the printing compute node when the environment starts
 
     Reading input from espresso.pwi
Warning: card &CELL ignored
Warning: card / ignored
Warning: card &FCP ignored
Warning: card / ignored
Warning: card &RISM ignored
Warning: card / ignored

     Current dimensions of program PWSCF are:
     Max number of different atomic species (ntypx) = 10
     Max number of k-points (npk) =  40000
     Max angular momentum in pseudopotentials (lmaxx) =  4
     file O.pbe-n-kjpaw_psl.0.1.UPF: wavefunction(s)  2P renormalized
     signal trapping enabled: kill the code with -SIGUSR1 to stop cleanly the simulation 
 
     K-points division:     npool     =       2
     R & G space division:  proc/nbgrp/npool/nimage =      24
     Subspace diagonalization in iterative solution of the eigenvalue problem:
     one sub-group per band group will be used
     scalapack distributed-memory algorithm (size of sub-group:  3*  3 procs)

 
     Parallelization info
     --------------------
     sticks:   dense  smooth     PW     G-vecs:    dense   smooth      PW
     Min         350     175     47                61430    21716    3036
     Max         351     177     48                61449    21727    3041
     Sum        8421    4205   1137              1474595   521381   72913
 
     Using Slab Decomposition
 


     bravais-lattice index     =            0
     lattice parameter (alat)  =      14.8599  a.u.
     unit-cell volume          =    8305.1283 (a.u.)^3
     number of atoms/cell      =           49
     number of atomic types    =            3
     number of electrons       =       430.00
     number of Kohn-Sham states=          258
     kinetic-energy cutoff     =      60.0000  Ry
     charge density cutoff     =     480.0000  Ry
     scf convergence threshold =      1.0E-08
     mixing beta               =       0.1500
     number of iterations used =            8  local-TF  mixing
     Exchange-correlation= SLA  PW   PBE  PBE
                           (   1   4   3   4   0   0   0)

     celldm(1)=  14.859904  celldm(2)=   0.000000  celldm(3)=   0.000000
     celldm(4)=   0.000000  celldm(5)=   0.000000  celldm(6)=   0.000000

     crystal axes: (cart. coord. in units of alat)
               a(1) = (   1.000000   0.000000   0.000000 )  
               a(2) = (   0.000000   1.000000   0.000000 )  
               a(3) = (   0.000000   0.000000   2.531036 )  

     reciprocal axes: (cart. coord. in units 2 pi/alat)
               b(1) = (  1.000000  0.000000  0.000000 )  
               b(2) = (  0.000000  1.000000  0.000000 )  
               b(3) = (  0.000000  0.000000  0.395095 )  


     PseudoPot. # 1 for Sr read from file:
     /bsuhome/zayahcortright/q-e/pseudo/Sr_pbe_v1.uspp.F.UPF
     MD5 check sum: 6b418c05fbe9db5448babca5e47b7a5b
     Pseudo is Ultrasoft + core correction, Zval = 10.0
     Generated by new atomic code, or converted to UPF format
     Using radial grid of  883 points,  6 beta functions with: 
                l(1) =   0
                l(2) =   0
                l(3) =   1
                l(4) =   1
                l(5) =   2
                l(6) =   2
     Q(r) pseudized with  6 coefficients,  rinner =    1.400   1.400   1.400
                                                       1.400   1.400

     PseudoPot. # 2 for O  read from file:
     /bsuhome/zayahcortright/q-e/pseudo/O.pbe-n-kjpaw_psl.0.1.UPF
     MD5 check sum: 0234752ac141de4415c5fc33072bef88
     Pseudo is Projector augmented-wave + core cor, Zval =  6.0
     Generated using "atomic" code by A. Dal Corso  v.5.0.99 svn rev. 10869
     Shape of augmentation charge: BESSEL
     Using radial grid of 1095 points,  4 beta functions with: 
                l(1) =   0
                l(2) =   0
                l(3) =   1
                l(4) =   1
     Q(r) pseudized with 0 coefficients 


     PseudoPot. # 3 for Co read from file:
     /bsuhome/zayahcortright/q-e/pseudo/Co_pbe_v1.2.uspp.F.UPF
     MD5 check sum: 5f91765df6ddd3222702df6e7b74a16d
     Pseudo is Ultrasoft + core correction, Zval = 17.0
     Generated by new atomic code, or converted to UPF format
     Using radial grid of  863 points,  6 beta functions with: 
                l(1) =   0
                l(2) =   0
                l(3) =   1
                l(4) =   1
                l(5) =   2
                l(6) =   2
     Q(r) pseudized with  8 coefficients,  rinner =    1.200   1.200   1.200
                                                       1.200   1.200

     atomic species   valence    mass     pseudopotential
        Sr            10.00    87.62000     Sr( 1.00)
        O              6.00    15.99900     O ( 1.00)
        Co            17.00    58.93319     Co( 1.00)

     No symmetry found


                                    s                        frac. trans.

      isym =  1     identity                                     

 cryst.   s( 1) = (     1          0          0      )
                  (     0          1          0      )
                  (     0          0          1      )

 cart.    s( 1) = (  1.0000000  0.0000000  0.0000000 )
                  (  0.0000000  1.0000000  0.0000000 )
                  (  0.0000000  0.0000000  1.0000000 )


   Cartesian axes

     site n.     atom                  positions (alat units)
         1           Sr  tau(   1) = (   0.2508693   0.7491307   1.7574407  )
         2           O   tau(   2) = (   0.4985141   0.5014859   1.7715967  )
         3           Sr  tau(   3) = (   0.7482398   0.7454518   1.7648669  )
         4           Sr  tau(   4) = (   0.7441748   0.2558252   1.7667843  )
         5           Sr  tau(   5) = (   0.2508693   0.7491307   1.2696799  )
         6           Sr  tau(   6) = (   0.2508693   0.7491307   0.7632319  )
         7           Co  tau(   7) = (   0.4998914   0.5001086   1.0164559  )
         8           Co  tau(   8) = (   0.4936915   0.5063085   1.5135603  )
         9           O   tau(   9) = (   0.4988895   0.7610401   1.0164559  )
        10           O   tau(  10) = (   0.2389599   0.5011105   1.0164559  )
        11           O   tau(  11) = (   0.0070918   0.7374880   1.0164559  )
        12           O   tau(  12) = (   0.0088340   0.7405089   1.5135603  )
        13           O   tau(  13) = (   0.5066944   0.7415376   1.5135603  )
        14           O   tau(  14) = (   0.2584624   0.4933056   1.5135603  )
        15           O   tau(  15) = (   0.4985141   0.5014859   0.7773880  )
        16           O   tau(  16) = (   0.4985141   0.5014859   1.2555238  )
        17           Sr  tau(  17) = (   0.7482398   0.7454518   0.7706582  )
        18           Sr  tau(  18) = (   0.7482398   0.7454518   1.2622536  )
        19           Sr  tau(  19) = (   0.7441748   0.2558252   0.7725755  )
        20           Sr  tau(  20) = (   0.7441748   0.2558252   1.2603363  )
        21           O   tau(  21) = (   0.7322655   0.0078049   1.5135603  )
        22           O   tau(  22) = (   0.7558175   0.4996027   1.5135603  )
        23           O   tau(  23) = (   0.5003973   0.2441825   1.5135603  )
        24           O   tau(  24) = (   0.7527966   0.4978604   1.0164559  )
        25           O   tau(  25) = (   0.5021396   0.2472034   1.0164559  )
        26           O   tau(  26) = (   0.7517679   0.0000000   1.0164559  )
        27           O   tau(  27) = (   0.0114961   0.4948124   1.7455321  )
        28           O   tau(  28) = (   0.0048226   0.0077944   1.7715967  )
        29           Sr  tau(  29) = (   0.2545482   0.2517602   1.7648669  )
        30           O   tau(  30) = (   0.5048017   0.0015068   1.7786929  )
        31           Co  tau(  31) = (   0.0056869   0.5006215   1.0164559  )
        32           Co  tau(  32) = (   0.0065315   0.4997770   1.5135603  )
        33           Co  tau(  33) = (   0.0061999   0.0064171   1.0164559  )
        34           Co  tau(  34) = (   0.0000000   0.0126169   1.5135603  )
        35           O   tau(  35) = (   0.0114961   0.4948124   1.2815885  )
        36           O   tau(  36) = (   0.0114961   0.4948124   0.7513233  )
        37           O   tau(  37) = (   0.0051979   0.2673486   1.0164559  )
        38           O   tau(  38) = (   0.0130029   0.2478461   1.5135603  )
        39           O   tau(  39) = (   0.0048226   0.0077944   0.7773880  )
        40           O   tau(  40) = (   0.0048226   0.0077944   1.2555238  )
        41           Sr  tau(  41) = (   0.2545482   0.2517602   0.7706582  )
        42           Sr  tau(  42) = (   0.2545482   0.2517602   1.2622536  )
        43           Co  tau(  43) = (   0.4989925   0.0073160   1.5135603  )
        44           Co  tau(  44) = (   0.4998370   0.0064714   1.0164559  )
        45           O   tau(  45) = (   0.5048017   0.0015068   0.7844841  )
        46           O   tau(  46) = (   0.5048017   0.0015068   1.2484277  )
        47           O   tau(  47) = (   0.2621260   0.0059111   1.5135603  )
        48           O   tau(  48) = (   0.2591051   0.0041689   1.0164559  )
        49           O   tau(  49) = (   0.0000000   0.7108228   2.1602013  )

   Crystallographic axes

     site n.     atom                  positions (cryst. coord.)
         1           Sr  tau(   1) = (  0.2508693  0.7491307  0.6943562  )
         2           O   tau(   2) = (  0.4985141  0.5014859  0.6999492  )
         3           Sr  tau(   3) = (  0.7482398  0.7454518  0.6972903  )
         4           Sr  tau(   4) = (  0.7441748  0.2558252  0.6980478  )
         5           Sr  tau(   5) = (  0.2508693  0.7491307  0.5016443  )
         6           Sr  tau(   6) = (  0.2508693  0.7491307  0.3015492  )
         7           Co  tau(   7) = (  0.4998914  0.5001086  0.4015968  )
         8           Co  tau(   8) = (  0.4936915  0.5063085  0.5980003  )
         9           O   tau(   9) = (  0.4988895  0.7610401  0.4015968  )
        10           O   tau(  10) = (  0.2389599  0.5011105  0.4015968  )
        11           O   tau(  11) = (  0.0070918  0.7374880  0.4015968  )
        12           O   tau(  12) = (  0.0088340  0.7405089  0.5980003  )
        13           O   tau(  13) = (  0.5066944  0.7415376  0.5980003  )
        14           O   tau(  14) = (  0.2584624  0.4933056  0.5980003  )
        15           O   tau(  15) = (  0.4985141  0.5014859  0.3071422  )
        16           O   tau(  16) = (  0.4985141  0.5014859  0.4960513  )
        17           Sr  tau(  17) = (  0.7482398  0.7454518  0.3044833  )
        18           Sr  tau(  18) = (  0.7482398  0.7454518  0.4987103  )
        19           Sr  tau(  19) = (  0.7441748  0.2558252  0.3052408  )
        20           Sr  tau(  20) = (  0.7441748  0.2558252  0.4979527  )
        21           O   tau(  21) = (  0.7322655  0.0078049  0.5980003  )
        22           O   tau(  22) = (  0.7558175  0.4996027  0.5980003  )
        23           O   tau(  23) = (  0.5003973  0.2441825  0.5980003  )
        24           O   tau(  24) = (  0.7527966  0.4978604  0.4015968  )
        25           O   tau(  25) = (  0.5021396  0.2472034  0.4015968  )
        26           O   tau(  26) = (  0.7517679  0.0000000  0.4015968  )
        27           O   tau(  27) = (  0.0114961  0.4948124  0.6896512  )
        28           O   tau(  28) = (  0.0048226  0.0077944  0.6999492  )
        29           Sr  tau(  29) = (  0.2545482  0.2517602  0.6972903  )
        30           O   tau(  30) = (  0.5048017  0.0015068  0.7027529  )
        31           Co  tau(  31) = (  0.0056869  0.5006215  0.4015968  )
        32           Co  tau(  32) = (  0.0065315  0.4997770  0.5980003  )
        33           Co  tau(  33) = (  0.0061999  0.0064171  0.4015968  )
        34           Co  tau(  34) = (  0.0000000  0.0126169  0.5980003  )
        35           O   tau(  35) = (  0.0114961  0.4948124  0.5063494  )
        36           O   tau(  36) = (  0.0114961  0.4948124  0.2968442  )
        37           O   tau(  37) = (  0.0051979  0.2673486  0.4015968  )
        38           O   tau(  38) = (  0.0130029  0.2478461  0.5980003  )
        39           O   tau(  39) = (  0.0048226  0.0077944  0.3071422  )
        40           O   tau(  40) = (  0.0048226  0.0077944  0.4960513  )
        41           Sr  tau(  41) = (  0.2545482  0.2517602  0.3044833  )
        42           Sr  tau(  42) = (  0.2545482  0.2517602  0.4987103  )
        43           Co  tau(  43) = (  0.4989925  0.0073160  0.5980003  )
        44           Co  tau(  44) = (  0.4998370  0.0064714  0.4015968  )
        45           O   tau(  45) = (  0.5048017  0.0015068  0.3099459  )
        46           O   tau(  46) = (  0.5048017  0.0015068  0.4932477  )
        47           O   tau(  47) = (  0.2621260  0.0059111  0.5980003  )
        48           O   tau(  48) = (  0.2591051  0.0041689  0.4015968  )
        49           O   tau(  49) = (  0.0000000  0.7108228  0.8534850  )

     number of k points=    10  Gaussian smearing, width (Ry)=  0.0700
                       cart. coord. in units 2pi/alat
        k(    1) = (   0.0000000   0.0000000   0.0000000), wk =   0.1250000
        k(    2) = (   0.0000000   0.2500000   0.0000000), wk =   0.2500000
        k(    3) = (   0.0000000  -0.5000000   0.0000000), wk =   0.1250000
        k(    4) = (   0.2500000   0.2500000   0.0000000), wk =   0.2500000
        k(    5) = (   0.2500000  -0.5000000   0.0000000), wk =   0.2500000
        k(    6) = (  -0.5000000  -0.5000000   0.0000000), wk =   0.1250000
        k(    7) = (   0.2500000   0.0000000   0.0000000), wk =   0.2500000
        k(    8) = (  -0.5000000   0.0000000   0.0000000), wk =   0.1250000
        k(    9) = (  -0.2500000   0.2500000   0.0000000), wk =   0.2500000
        k(   10) = (  -0.5000000   0.2500000   0.0000000), wk =   0.2500000

                       cryst. coord.
        k(    1) = (   0.0000000   0.0000000   0.0000000), wk =   0.1250000
        k(    2) = (   0.0000000   0.2500000   0.0000000), wk =   0.2500000
        k(    3) = (   0.0000000  -0.5000000   0.0000000), wk =   0.1250000
        k(    4) = (   0.2500000   0.2500000   0.0000000), wk =   0.2500000
        k(    5) = (   0.2500000  -0.5000000   0.0000000), wk =   0.2500000
        k(    6) = (  -0.5000000  -0.5000000   0.0000000), wk =   0.1250000
        k(    7) = (   0.2500000   0.0000000   0.0000000), wk =   0.2500000
        k(    8) = (  -0.5000000   0.0000000   0.0000000), wk =   0.1250000
        k(    9) = (  -0.2500000   0.2500000   0.0000000), wk =   0.2500000
        k(   10) = (  -0.5000000   0.2500000   0.0000000), wk =   0.2500000

     Dense  grid:  1474595 G-vectors     FFT dimensions: ( 108, 108, 270)

     Smooth grid:   521381 G-vectors     FFT dimensions: (  75,  75, 192)

     Dynamical RAM for                 wfc:      10.69 MB

     Dynamical RAM for     wfc (w. buffer):      64.13 MB

     Dynamical RAM for           str. fact:       2.81 MB

     Dynamical RAM for           local pot:       0.00 MB

     Dynamical RAM for          nlocal pot:      24.53 MB

     Dynamical RAM for                qrad:       5.27 MB

     Dynamical RAM for          rho,v,vnew:       6.02 MB

     Dynamical RAM for               rhoin:       2.01 MB

     Dynamical RAM for            rho*nmix:      15.00 MB

     Dynamical RAM for           G-vectors:       3.68 MB

     Dynamical RAM for          h,s,v(r/c):       1.35 MB

     Dynamical RAM for          <psi|beta>:       2.33 MB

     Dynamical RAM for                 psi:      21.38 MB

     Dynamical RAM for                hpsi:      21.38 MB

     Dynamical RAM for                spsi:      21.38 MB

     Dynamical RAM for      wfcinit/wfcrot:      34.39 MB

     Dynamical RAM for           addusdens:     101.26 MB

     Estimated static dynamical RAM per process >     117.53 MB

     Estimated max dynamical RAM per process >     233.79 MB

     Estimated total dynamical RAM >      10.61 GB

     Check: negative core charge=   -0.000004

     Initial potential from superposition of free atoms

     starting charge     421.5961, renormalised to     430.0000

     negative rho (up, down):  7.826E-01 0.000E+00
     Starting wfcs are  376 randomized atomic wfcs
     Checking if some PAW data can be deallocated... 
       PAW data deallocated on   19 nodes for type:  2

     total cpu time spent up to now is        9.1 secs

     Self-consistent Calculation

     iteration #  1     ecut=    60.00 Ry     beta= 0.15
     Davidson diagonalization with overlap

---- Real-time Memory Report at c_bands before calling an iterative solver
             0 MiB given to the printing process from OS
             0 MiB allocation reported by mallinfo(arena+hblkhd)
         51475 MiB available memory on the node where the printing process lives
------------------
     ethr =  1.00E-02,  avg # of iterations =  2.0

     negative rho (up, down):  7.716E-01 0.000E+00

     total cpu time spent up to now is       24.2 secs

     total energy              =   -4445.20251771 Ry
     estimated scf accuracy    <      53.99961983 Ry

     iteration #  2     ecut=    60.00 Ry     beta= 0.15
     Davidson diagonalization with overlap

---- Real-time Memory Report at c_bands before calling an iterative solver
             0 MiB given to the printing process from OS
             0 MiB allocation reported by mallinfo(arena+hblkhd)
         51837 MiB available memory on the node where the printing process lives
------------------
     ethr =  1.00E-02,  avg # of iterations =  1.0

     negative rho (up, down):  7.592E-01 0.000E+00

     total cpu time spent up to now is       36.9 secs

     total energy              =   -4441.97769656 Ry
     estimated scf accuracy    <      28.18305901 Ry

     iteration #  3     ecut=    60.00 Ry     beta= 0.15
     Davidson diagonalization with overlap

---- Real-time Memory Report at c_bands before calling an iterative solver
             0 MiB given to the printing process from OS
             0 MiB allocation reported by mallinfo(arena+hblkhd)
         51072 MiB available memory on the node where the printing process lives
------------------
     ethr =  6.55E-03,  avg # of iterations =  1.0

     negative rho (up, down):  7.530E-01 0.000E+00

     total cpu time spent up to now is       50.1 secs

     total energy              =   -4442.58198189 Ry
     estimated scf accuracy    <      29.51854813 Ry

     iteration #  4     ecut=    60.00 Ry     beta= 0.15
     Davidson diagonalization with overlap

---- Real-time Memory Report at c_bands before calling an iterative solver
             0 MiB given to the printing process from OS
             0 MiB allocation reported by mallinfo(arena+hblkhd)
         51027 MiB available memory on the node where the printing process lives
------------------
     ethr =  6.55E-03,  avg # of iterations =  1.0

     negative rho (up, down):  7.532E-01 0.000E+00

     total cpu time spent up to now is       63.2 secs

     total energy              =   -4442.75477613 Ry
     estimated scf accuracy    <      27.82204178 Ry

     iteration #  5     ecut=    60.00 Ry     beta= 0.15
     Davidson diagonalization with overlap

---- Real-time Memory Report at c_bands before calling an iterative solver
             0 MiB given to the printing process from OS
             0 MiB allocation reported by mallinfo(arena+hblkhd)
         51010 MiB available memory on the node where the printing process lives
------------------
     ethr =  6.47E-03,  avg # of iterations =  1.0

     negative rho (up, down):  7.409E-01 0.000E+00

     total cpu time spent up to now is       76.2 secs

     total energy              =   -4442.22149399 Ry
     estimated scf accuracy    <      25.09566783 Ry

     iteration #  6     ecut=    60.00 Ry     beta= 0.15
     Davidson diagonalization with overlap

---- Real-time Memory Report at c_bands before calling an iterative solver
             0 MiB given to the printing process from OS
             0 MiB allocation reported by mallinfo(arena+hblkhd)
         50989 MiB available memory on the node where the printing process lives
------------------
     ethr =  5.84E-03,  avg # of iterations =  1.0

     negative rho (up, down):  7.465E-01 0.000E+00

     total cpu time spent up to now is       88.9 secs

     total energy              =   -4442.18142113 Ry
     estimated scf accuracy    <      49.24401559 Ry

     iteration #  7     ecut=    60.00 Ry     beta= 0.15
     Davidson diagonalization with overlap

---- Real-time Memory Report at c_bands before calling an iterative solver
             0 MiB given to the printing process from OS
             0 MiB allocation reported by mallinfo(arena+hblkhd)
         50967 MiB available memory on the node where the printing process lives
------------------
     ethr =  5.84E-03,  avg # of iterations =  1.0

     negative rho (up, down):  7.506E-01 0.000E+00

     total cpu time spent up to now is      101.4 secs

     total energy              =   -4440.28351868 Ry
     estimated scf accuracy    <      28.35439333 Ry

     iteration #  8     ecut=    60.00 Ry     beta= 0.15
     Davidson diagonalization with overlap

---- Real-time Memory Report at c_bands before calling an iterative solver
             0 MiB given to the printing process from OS
             0 MiB allocation reported by mallinfo(arena+hblkhd)
         50957 MiB available memory on the node where the printing process lives
------------------
     ethr =  5.84E-03,  avg # of iterations =  1.0

     negative rho (up, down):  7.467E-01 0.000E+00

     total cpu time spent up to now is      114.0 secs

     total energy              =   -4440.68006446 Ry
     estimated scf accuracy    <       6.80590303 Ry

     iteration #  9     ecut=    60.00 Ry     beta= 0.15
     Davidson diagonalization with overlap

---- Real-time Memory Report at c_bands before calling an iterative solver
             0 MiB given to the printing process from OS
             0 MiB allocation reported by mallinfo(arena+hblkhd)
         50933 MiB available memory on the node where the printing process lives
------------------
     ethr =  1.58E-03,  avg # of iterations =  1.7

     negative rho (up, down):  7.570E-01 0.000E+00

     total cpu time spent up to now is      127.2 secs

     total energy              =   -4441.38389289 Ry
     estimated scf accuracy    <      11.06252872 Ry

     iteration # 10     ecut=    60.00 Ry     beta= 0.15
     Davidson diagonalization with overlap

---- Real-time Memory Report at c_bands before calling an iterative solver
             0 MiB given to the printing process from OS
             0 MiB allocation reported by mallinfo(arena+hblkhd)
         50912 MiB available memory on the node where the printing process lives
------------------
     ethr =  1.58E-03,  avg # of iterations =  2.0

     negative rho (up, down):  7.681E-01 0.000E+00

     total cpu time spent up to now is      141.1 secs

     total energy              =   -4439.44783753 Ry
     estimated scf accuracy    <      46.22005400 Ry

     iteration # 11     ecut=    60.00 Ry     beta= 0.15
     Davidson diagonalization with overlap

---- Real-time Memory Report at c_bands before calling an iterative solver
             0 MiB given to the printing process from OS
             0 MiB allocation reported by mallinfo(arena+hblkhd)
         50902 MiB available memory on the node where the printing process lives
------------------
     ethr =  1.58E-03,  avg # of iterations =  6.6

     negative rho (up, down):  7.764E-01 0.000E+00

     total cpu time spent up to now is      157.0 secs

     total energy              =   -4440.48112721 Ry
     estimated scf accuracy    <       1.84354068 Ry

     iteration # 12     ecut=    60.00 Ry     beta= 0.15
     Davidson diagonalization with overlap

---- Real-time Memory Report at c_bands before calling an iterative solver
             0 MiB given to the printing process from OS
             0 MiB allocation reported by mallinfo(arena+hblkhd)
         50734 MiB available memory on the node where the printing process lives
------------------
     ethr =  4.29E-04,  avg # of iterations = 12.8

     negative rho (up, down):  7.818E-01 0.000E+00

     total cpu time spent up to now is      176.5 secs

     total energy              =   -4440.50274017 Ry
     estimated scf accuracy    <       1.02193496 Ry

     iteration # 13     ecut=    60.00 Ry     beta= 0.15
     Davidson diagonalization with overlap

---- Real-time Memory Report at c_bands before calling an iterative solver
             0 MiB given to the printing process from OS
             0 MiB allocation reported by mallinfo(arena+hblkhd)
         50360 MiB available memory on the node where the printing process lives
------------------
     ethr =  2.38E-04,  avg # of iterations =  1.3

     negative rho (up, down):  7.978E-01 0.000E+00

     total cpu time spent up to now is      189.8 secs

     total energy              =   -4440.46929104 Ry
     estimated scf accuracy    <       0.68309519 Ry

     iteration # 14     ecut=    60.00 Ry     beta= 0.15
     Davidson diagonalization with overlap

---- Real-time Memory Report at c_bands before calling an iterative solver
             0 MiB given to the printing process from OS
             0 MiB allocation reported by mallinfo(arena+hblkhd)
         50374 MiB available memory on the node where the printing process lives
------------------
     ethr =  1.59E-04,  avg # of iterations =  2.8

     negative rho (up, down):  8.157E-01 0.000E+00

     total cpu time spent up to now is      204.0 secs

     total energy              =   -4440.36945647 Ry
     estimated scf accuracy    <       2.05586575 Ry

     iteration # 15     ecut=    60.00 Ry     beta= 0.15
     Davidson diagonalization with overlap

---- Real-time Memory Report at c_bands before calling an iterative solver
             0 MiB given to the printing process from OS
             0 MiB allocation reported by mallinfo(arena+hblkhd)
         50390 MiB available memory on the node where the printing process lives
------------------
     ethr =  1.59E-04,  avg # of iterations = 10.4

     negative rho (up, down):  8.242E-01 0.000E+00

     total cpu time spent up to now is      221.8 secs

     total energy              =   -4440.38845712 Ry
     estimated scf accuracy    <       0.40266130 Ry

     iteration # 16     ecut=    60.00 Ry     beta= 0.15
     Davidson diagonalization with overlap

---- Real-time Memory Report at c_bands before calling an iterative solver
             0 MiB given to the printing process from OS
             0 MiB allocation reported by mallinfo(arena+hblkhd)
         50409 MiB available memory on the node where the printing process lives
------------------
     ethr =  9.36E-05,  avg # of iterations =  6.9

     negative rho (up, down):  8.247E-01 0.000E+00

     total cpu time spent up to now is      238.7 secs

     total energy              =   -4440.38131919 Ry
     estimated scf accuracy    <       0.25775382 Ry

     iteration # 17     ecut=    60.00 Ry     beta= 0.15
     Davidson diagonalization with overlap

---- Real-time Memory Report at c_bands before calling an iterative solver
             0 MiB given to the printing process from OS
             0 MiB allocation reported by mallinfo(arena+hblkhd)
         50384 MiB available memory on the node where the printing process lives
------------------
     ethr =  5.99E-05,  avg # of iterations =  9.1

     negative rho (up, down):  8.151E-01 0.000E+00

     total cpu time spent up to now is      255.7 secs

     total energy              =   -4440.35334709 Ry
     estimated scf accuracy    <       0.23379764 Ry

     iteration # 18     ecut=    60.00 Ry     beta= 0.15
     Davidson diagonalization with overlap

---- Real-time Memory Report at c_bands before calling an iterative solver
             0 MiB given to the printing process from OS
             0 MiB allocation reported by mallinfo(arena+hblkhd)
         50385 MiB available memory on the node where the printing process lives
------------------
     ethr =  5.44E-05,  avg # of iterations =  4.9

     negative rho (up, down):  8.133E-01 0.000E+00

     total cpu time spent up to now is      271.5 secs

     total energy              =   -4440.34394719 Ry
     estimated scf accuracy    <       0.14756319 Ry

     iteration # 19     ecut=    60.00 Ry     beta= 0.15
     Davidson diagonalization with overlap

---- Real-time Memory Report at c_bands before calling an iterative solver
             0 MiB given to the printing process from OS
             0 MiB allocation reported by mallinfo(arena+hblkhd)
         50383 MiB available memory on the node where the printing process lives
------------------
     ethr =  3.43E-05,  avg # of iterations =  5.9

     negative rho (up, down):  8.103E-01 0.000E+00

     total cpu time spent up to now is      287.9 secs

     total energy              =   -4440.32308705 Ry
     estimated scf accuracy    <       0.21266863 Ry

     iteration # 20     ecut=    60.00 Ry     beta= 0.15
     Davidson diagonalization with overlap

---- Real-time Memory Report at c_bands before calling an iterative solver
             0 MiB given to the printing process from OS
             0 MiB allocation reported by mallinfo(arena+hblkhd)
         50381 MiB available memory on the node where the printing process lives
------------------
     ethr =  3.43E-05,  avg # of iterations = 10.4

     negative rho (up, down):  8.160E-01 0.000E+00

     total cpu time spent up to now is      306.2 secs

     total energy              =   -4440.31604553 Ry
     estimated scf accuracy    <       0.13673387 Ry

     iteration # 21     ecut=    60.00 Ry     beta= 0.15
     Davidson diagonalization with overlap

---- Real-time Memory Report at c_bands before calling an iterative solver
             0 MiB given to the printing process from OS
             0 MiB allocation reported by mallinfo(arena+hblkhd)
         50372 MiB available memory on the node where the printing process lives
------------------
     ethr =  3.18E-05,  avg # of iterations =  7.4

     negative rho (up, down):  8.234E-01 0.000E+00

     total cpu time spent up to now is      322.8 secs

     total energy              =   -4440.30997329 Ry
     estimated scf accuracy    <       0.05054445 Ry

     iteration # 22     ecut=    60.00 Ry     beta= 0.15
     Davidson diagonalization with overlap

---- Real-time Memory Report at c_bands before calling an iterative solver
             0 MiB given to the printing process from OS
             0 MiB allocation reported by mallinfo(arena+hblkhd)
         50375 MiB available memory on the node where the printing process lives
------------------
     ethr =  1.18E-05,  avg # of iterations =  9.2

     negative rho (up, down):  8.208E-01 0.000E+00

     total cpu time spent up to now is      340.9 secs

     total energy              =   -4440.31058706 Ry
     estimated scf accuracy    <       0.02089438 Ry

     iteration # 23     ecut=    60.00 Ry     beta= 0.15
     Davidson diagonalization with overlap

---- Real-time Memory Report at c_bands before calling an iterative solver
             0 MiB given to the printing process from OS
             0 MiB allocation reported by mallinfo(arena+hblkhd)
         50417 MiB available memory on the node where the printing process lives
------------------
     ethr =  4.86E-06,  avg # of iterations =  2.0

     negative rho (up, down):  8.100E-01 0.000E+00

     total cpu time spent up to now is      355.2 secs

     total energy              =   -4440.30888430 Ry
     estimated scf accuracy    <       0.01645431 Ry

     iteration # 24     ecut=    60.00 Ry     beta= 0.15
     Davidson diagonalization with overlap

---- Real-time Memory Report at c_bands before calling an iterative solver
             0 MiB given to the printing process from OS
             0 MiB allocation reported by mallinfo(arena+hblkhd)
         50393 MiB available memory on the node where the printing process lives
------------------
     c_bands:  1 eigenvalues not converged
     ethr =  3.83E-06,  avg # of iterations =  6.7

     negative rho (up, down):  7.956E-01 0.000E+00

     total cpu time spent up to now is      371.0 secs

     total energy              =   -4440.30653990 Ry
     estimated scf accuracy    <       0.01272851 Ry

     iteration # 25     ecut=    60.00 Ry     beta= 0.15
     Davidson diagonalization with overlap

---- Real-time Memory Report at c_bands before calling an iterative solver
             0 MiB given to the printing process from OS
             0 MiB allocation reported by mallinfo(arena+hblkhd)
         50398 MiB available memory on the node where the printing process lives
------------------
     ethr =  2.96E-06,  avg # of iterations =  6.6

     negative rho (up, down):  7.983E-01 0.000E+00

     total cpu time spent up to now is      387.3 secs

     total energy              =   -4440.30638322 Ry
     estimated scf accuracy    <       0.00589445 Ry

     iteration # 26     ecut=    60.00 Ry     beta= 0.15
     Davidson diagonalization with overlap

---- Real-time Memory Report at c_bands before calling an iterative solver
             0 MiB given to the printing process from OS
             0 MiB allocation reported by mallinfo(arena+hblkhd)
         50369 MiB available memory on the node where the printing process lives
------------------
     c_bands:  2 eigenvalues not converged
     c_bands:  1 eigenvalues not converged
     ethr =  1.37E-06,  avg # of iterations = 11.5

     negative rho (up, down):  8.001E-01 0.000E+00

     total cpu time spent up to now is      406.2 secs

     total energy              =   -4440.30645192 Ry
     estimated scf accuracy    <       0.00323786 Ry

     iteration # 27     ecut=    60.00 Ry     beta= 0.15
     Davidson diagonalization with overlap

---- Real-time Memory Report at c_bands before calling an iterative solver
             0 MiB given to the printing process from OS
             0 MiB allocation reported by mallinfo(arena+hblkhd)
         50408 MiB available memory on the node where the printing process lives
------------------
     ethr =  7.53E-07,  avg # of iterations =  2.8

     negative rho (up, down):  8.015E-01 0.000E+00

     total cpu time spent up to now is      420.6 secs

     total energy              =   -4440.30643344 Ry
     estimated scf accuracy    <       0.00225186 Ry

     iteration # 28     ecut=    60.00 Ry     beta= 0.15
     Davidson diagonalization with overlap

---- Real-time Memory Report at c_bands before calling an iterative solver
             0 MiB given to the printing process from OS
             0 MiB allocation reported by mallinfo(arena+hblkhd)
         50391 MiB available memory on the node where the printing process lives
------------------
     ethr =  5.24E-07,  avg # of iterations =  7.9

     negative rho (up, down):  7.999E-01 0.000E+00

     total cpu time spent up to now is      437.6 secs

     total energy              =   -4440.30623062 Ry
     estimated scf accuracy    <       0.00175889 Ry

     iteration # 29     ecut=    60.00 Ry     beta= 0.15
     Davidson diagonalization with overlap

---- Real-time Memory Report at c_bands before calling an iterative solver
             0 MiB given to the printing process from OS
             0 MiB allocation reported by mallinfo(arena+hblkhd)
         50379 MiB available memory on the node where the printing process lives
------------------
     c_bands:  1 eigenvalues not converged
     ethr =  4.09E-07,  avg # of iterations =  8.8

     negative rho (up, down):  7.968E-01 0.000E+00

     total cpu time spent up to now is      454.8 secs

     total energy              =   -4440.30606639 Ry
     estimated scf accuracy    <       0.00077327 Ry

     iteration # 30     ecut=    60.00 Ry     beta= 0.15
     Davidson diagonalization with overlap

---- Real-time Memory Report at c_bands before calling an iterative solver
             0 MiB given to the printing process from OS
             0 MiB allocation reported by mallinfo(arena+hblkhd)
         50430 MiB available memory on the node where the printing process lives
------------------
     c_bands:  1 eigenvalues not converged
     ethr =  1.80E-07,  avg # of iterations =  6.9

     negative rho (up, down):  7.980E-01 0.000E+00

     total cpu time spent up to now is      471.5 secs

     total energy              =   -4440.30615088 Ry
     estimated scf accuracy    <       0.00030077 Ry

     iteration # 31     ecut=    60.00 Ry     beta= 0.15
     Davidson diagonalization with overlap

---- Real-time Memory Report at c_bands before calling an iterative solver
             0 MiB given to the printing process from OS
             0 MiB allocation reported by mallinfo(arena+hblkhd)
         50405 MiB available memory on the node where the printing process lives
------------------
     ethr =  6.99E-08,  avg # of iterations =  3.2

     negative rho (up, down):  7.946E-01 0.000E+00

     total cpu time spent up to now is      486.0 secs

     total energy              =   -4440.30602826 Ry
     estimated scf accuracy    <       0.00018194 Ry

     iteration # 32     ecut=    60.00 Ry     beta= 0.15
     Davidson diagonalization with overlap

---- Real-time Memory Report at c_bands before calling an iterative solver
             0 MiB given to the printing process from OS
             0 MiB allocation reported by mallinfo(arena+hblkhd)
         50417 MiB available memory on the node where the printing process lives
------------------
     ethr =  4.23E-08,  avg # of iterations =  4.7

     negative rho (up, down):  7.940E-01 0.000E+00

     total cpu time spent up to now is      502.5 secs

     total energy              =   -4440.30599751 Ry
     estimated scf accuracy    <       0.00005848 Ry

     iteration # 33     ecut=    60.00 Ry     beta= 0.15
     Davidson diagonalization with overlap

---- Real-time Memory Report at c_bands before calling an iterative solver
             0 MiB given to the printing process from OS
             0 MiB allocation reported by mallinfo(arena+hblkhd)
         50437 MiB available memory on the node where the printing process lives
------------------
     ethr =  1.36E-08,  avg # of iterations =  2.7

     negative rho (up, down):  7.926E-01 0.000E+00

     total cpu time spent up to now is      518.5 secs

     total energy              =   -4440.30598043 Ry
     estimated scf accuracy    <       0.00002490 Ry

     iteration # 34     ecut=    60.00 Ry     beta= 0.15
     Davidson diagonalization with overlap

---- Real-time Memory Report at c_bands before calling an iterative solver
             0 MiB given to the printing process from OS
             0 MiB allocation reported by mallinfo(arena+hblkhd)
         50421 MiB available memory on the node where the printing process lives
------------------
     ethr =  5.79E-09,  avg # of iterations =  3.4

     negative rho (up, down):  7.924E-01 0.000E+00

     total cpu time spent up to now is      533.4 secs

     total energy              =   -4440.30598173 Ry
     estimated scf accuracy    <       0.00000754 Ry

     iteration # 35     ecut=    60.00 Ry     beta= 0.15
     Davidson diagonalization with overlap

---- Real-time Memory Report at c_bands before calling an iterative solver
             0 MiB given to the printing process from OS
             0 MiB allocation reported by mallinfo(arena+hblkhd)
         50405 MiB available memory on the node where the printing process lives
------------------
     ethr =  1.75E-09,  avg # of iterations =  2.0

     negative rho (up, down):  7.923E-01 0.000E+00

     total cpu time spent up to now is      547.5 secs

     total energy              =   -4440.30598905 Ry
     estimated scf accuracy    <       0.00000480 Ry

     iteration # 36     ecut=    60.00 Ry     beta= 0.15
     Davidson diagonalization with overlap

---- Real-time Memory Report at c_bands before calling an iterative solver
             0 MiB given to the printing process from OS
             0 MiB allocation reported by mallinfo(arena+hblkhd)
         50430 MiB available memory on the node where the printing process lives
------------------
     ethr =  1.12E-09,  avg # of iterations =  2.9

     negative rho (up, down):  7.924E-01 0.000E+00

     total cpu time spent up to now is      562.3 secs

     total energy              =   -4440.30599280 Ry
     estimated scf accuracy    <       0.00000270 Ry

     iteration # 37     ecut=    60.00 Ry     beta= 0.15
     Davidson diagonalization with overlap

---- Real-time Memory Report at c_bands before calling an iterative solver
             0 MiB given to the printing process from OS
             0 MiB allocation reported by mallinfo(arena+hblkhd)
         50437 MiB available memory on the node where the printing process lives
------------------
     ethr =  6.28E-10,  avg # of iterations =  5.5

     negative rho (up, down):  7.926E-01 0.000E+00

     total cpu time spent up to now is      577.6 secs

     total energy              =   -4440.30599381 Ry
     estimated scf accuracy    <       0.00000123 Ry

     iteration # 38     ecut=    60.00 Ry     beta= 0.15
     Davidson diagonalization with overlap

---- Real-time Memory Report at c_bands before calling an iterative solver
             0 MiB given to the printing process from OS
             0 MiB allocation reported by mallinfo(arena+hblkhd)
         50427 MiB available memory on the node where the printing process lives
------------------
     ethr =  2.86E-10,  avg # of iterations =  3.6

     negative rho (up, down):  7.927E-01 0.000E+00

     total cpu time spent up to now is      592.8 secs

     total energy              =   -4440.30599377 Ry
     estimated scf accuracy    <       0.00000119 Ry

     iteration # 39     ecut=    60.00 Ry     beta= 0.15
     Davidson diagonalization with overlap

---- Real-time Memory Report at c_bands before calling an iterative solver
             0 MiB given to the printing process from OS
             0 MiB allocation reported by mallinfo(arena+hblkhd)
         50439 MiB available memory on the node where the printing process lives
------------------
     ethr =  2.77E-10,  avg # of iterations =  3.5

     negative rho (up, down):  7.927E-01 0.000E+00

     total cpu time spent up to now is      607.9 secs

     total energy              =   -4440.30599383 Ry
     estimated scf accuracy    <       0.00000045 Ry

     iteration # 40     ecut=    60.00 Ry     beta= 0.15
     Davidson diagonalization with overlap

---- Real-time Memory Report at c_bands before calling an iterative solver
             0 MiB given to the printing process from OS
             0 MiB allocation reported by mallinfo(arena+hblkhd)
         50418 MiB available memory on the node where the printing process lives
------------------
     ethr =  1.05E-10,  avg # of iterations =  1.8

     negative rho (up, down):  7.926E-01 0.000E+00

     total cpu time spent up to now is      622.0 secs

     total energy              =   -4440.30599375 Ry
     estimated scf accuracy    <       0.00000039 Ry

     iteration # 41     ecut=    60.00 Ry     beta= 0.15
     Davidson diagonalization with overlap

---- Real-time Memory Report at c_bands before calling an iterative solver
             0 MiB given to the printing process from OS
             0 MiB allocation reported by mallinfo(arena+hblkhd)
         50424 MiB available memory on the node where the printing process lives
------------------
     ethr =  8.98E-11,  avg # of iterations =  2.0

     negative rho (up, down):  7.926E-01 0.000E+00

     total cpu time spent up to now is      636.4 secs

     total energy              =   -4440.30599383 Ry
     estimated scf accuracy    <       0.00000020 Ry

     iteration # 42     ecut=    60.00 Ry     beta= 0.15
     Davidson diagonalization with overlap

---- Real-time Memory Report at c_bands before calling an iterative solver
             0 MiB given to the printing process from OS
             0 MiB allocation reported by mallinfo(arena+hblkhd)
         50433 MiB available memory on the node where the printing process lives
------------------
     ethr =  4.56E-11,  avg # of iterations =  2.1

     negative rho (up, down):  7.926E-01 0.000E+00

     total cpu time spent up to now is      650.8 secs

     total energy              =   -4440.30599386 Ry
     estimated scf accuracy    <       0.00000012 Ry

     iteration # 43     ecut=    60.00 Ry     beta= 0.15
     Davidson diagonalization with overlap

---- Real-time Memory Report at c_bands before calling an iterative solver
             0 MiB given to the printing process from OS
             0 MiB allocation reported by mallinfo(arena+hblkhd)
         50434 MiB available memory on the node where the printing process lives
------------------
     ethr =  2.78E-11,  avg # of iterations =  2.5

     negative rho (up, down):  7.926E-01 0.000E+00

     total cpu time spent up to now is      664.8 secs

     total energy              =   -4440.30599388 Ry
     estimated scf accuracy    <       0.00000007 Ry

     iteration # 44     ecut=    60.00 Ry     beta= 0.15
     Davidson diagonalization with overlap

---- Real-time Memory Report at c_bands before calling an iterative solver
             0 MiB given to the printing process from OS
             0 MiB allocation reported by mallinfo(arena+hblkhd)
         50438 MiB available memory on the node where the printing process lives
------------------
     ethr =  1.51E-11,  avg # of iterations =  2.5

     negative rho (up, down):  7.926E-01 0.000E+00

     total cpu time spent up to now is      679.2 secs

     total energy              =   -4440.30599388 Ry
     estimated scf accuracy    <       0.00000004 Ry

     iteration # 45     ecut=    60.00 Ry     beta= 0.15
     Davidson diagonalization with overlap

---- Real-time Memory Report at c_bands before calling an iterative solver
             0 MiB given to the printing process from OS
             0 MiB allocation reported by mallinfo(arena+hblkhd)
         50451 MiB available memory on the node where the printing process lives
------------------
     ethr =  1.03E-11,  avg # of iterations =  3.5

     negative rho (up, down):  7.926E-01 0.000E+00

     total cpu time spent up to now is      693.8 secs

     total energy              =   -4440.30599384 Ry
     estimated scf accuracy    <       0.00000003 Ry

     iteration # 46     ecut=    60.00 Ry     beta= 0.15
     Davidson diagonalization with overlap

---- Real-time Memory Report at c_bands before calling an iterative solver
             0 MiB given to the printing process from OS
             0 MiB allocation reported by mallinfo(arena+hblkhd)
         50454 MiB available memory on the node where the printing process lives
------------------
     ethr =  6.25E-12,  avg # of iterations =  3.1

     negative rho (up, down):  7.926E-01 0.000E+00

     total cpu time spent up to now is      709.0 secs

     total energy              =   -4440.30599384 Ry
     estimated scf accuracy    <       0.00000001 Ry

     iteration # 47     ecut=    60.00 Ry     beta= 0.15
     Davidson diagonalization with overlap

---- Real-time Memory Report at c_bands before calling an iterative solver
             0 MiB given to the printing process from OS
             0 MiB allocation reported by mallinfo(arena+hblkhd)
         50433 MiB available memory on the node where the printing process lives
------------------
     ethr =  2.39E-12,  avg # of iterations =  1.7

     negative rho (up, down):  7.926E-01 0.000E+00

     total cpu time spent up to now is      722.5 secs

     End of self-consistent calculation

          k = 0.0000 0.0000 0.0000 ( 65197 PWs)   bands (ev):

   -92.8898 -92.8418 -92.7444 -92.6968 -92.6403 -92.5964 -92.5792 -92.4584
   -56.2434 -56.2284 -56.1010 -56.0902 -56.0841 -56.0771 -56.0458 -56.0131
   -55.9982 -55.9962 -55.9908 -55.9472 -55.9270 -55.8910 -55.8713 -55.8402
   -55.8324 -55.7843 -55.7835 -55.7813 -55.7729 -55.7336 -55.7092 -55.6243
   -31.4524 -31.4325 -31.2922 -31.2052 -31.1910 -31.0575 -30.9671 -30.8860
   -30.0334 -29.9899 -29.9656 -29.8575 -15.2661 -15.2179 -15.1398 -15.0106
   -14.8091 -14.6890 -14.4013 -14.3762 -14.3515 -14.3049 -14.2598 -14.2474
   -14.2327 -14.2163 -14.1864 -14.1554 -14.1133 -13.9604 -13.7748 -13.7481
   -13.7194 -13.6807 -13.6645 -13.6104 -13.5792 -13.4951 -13.4275 -13.2961
   -13.2845 -13.2724 -13.2504 -13.2328 -13.1946 -13.1761 -13.1639 -13.1438
   -13.1256 -13.0985 -13.0759 -13.0024 -12.9871 -12.9695 -12.9262 -12.8895
   -12.8857 -12.7960 -12.7804 -12.7687 -12.5195 -12.3732 -12.1834 -12.1078
   -12.0466 -11.9909 -11.9726 -11.9621 -11.9387 -11.9211 -11.8578 -11.8411
   -11.8053 -11.7765 -11.6657 -11.5859 -11.5823  -3.1267  -2.8955  -2.6660
    -2.5172  -2.4563  -2.3146  -2.0063  -1.9915  -1.9734  -1.8849  -1.8671
    -1.7995  -1.7823  -1.7425  -1.6979  -1.5165  -1.2883  -1.2595  -1.1169
    -1.1020  -1.0527  -1.0350  -0.9883  -0.9703  -0.9194  -0.8926  -0.8168
    -0.8053  -0.7328  -0.5978  -0.5845  -0.5560  -0.4765  -0.4502  -0.4078
    -0.3772  -0.3112  -0.2639  -0.2083  -0.1866  -0.1183  -0.0425  -0.0053
     0.0227   0.0326   0.2928   0.3075   0.4837   0.5419   0.6073   0.6618
     0.7455   0.7577   0.7752   0.8407   0.8675   0.9013   0.9579   1.0875
     1.1491   1.1711   1.1988   1.2087   1.2689   1.3336   1.4499   1.4686
     1.5262   1.5308   1.5778   1.5985   1.6093   1.6630   1.7257   1.7344
     1.7737   1.8036   1.8441   1.9767   2.0630   2.1023   2.1293   2.2691
     2.2853   2.3246   2.3291   2.4441   2.4727   2.4986   2.5183   2.5204
     2.5816   2.5937   2.6371   2.6530   2.7235   2.7571   2.7648   2.7712
     2.8387   2.8482   2.8667   2.8738   2.8847   2.8996   2.9040   2.9191
     2.9250   2.9350   2.9428   2.9506   2.9698   2.9911   2.9959   3.0081
     3.0321   3.1484   3.2512   3.9319   4.2461   4.6033   4.8243   4.8619
     5.7612   5.8087   5.8280   5.8998   6.1287   6.1742   6.4283   6.4395
     6.9382   6.9888   7.0816   7.1556   7.4882   7.5390   7.5528   7.5764
     7.6266   7.8652   7.9076   7.9887   8.0264   8.1464   8.2750   8.6328
     8.7765   8.9286

     occupation numbers 
     1.0000   1.0000   1.0000   1.0000   1.0000   1.0000   1.0000   1.0000
     1.0000   1.0000   1.0000   1.0000   1.0000   1.0000   1.0000   1.0000
     1.0000   1.0000   1.0000   1.0000   1.0000   1.0000   1.0000   1.0000
     1.0000   1.0000   1.0000   1.0000   1.0000   1.0000   1.0000   1.0000
     1.0000   1.0000   1.0000   1.0000   1.0000   1.0000   1.0000   1.0000
     1.0000   1.0000   1.0000   1.0000   1.0000   1.0000   1.0000   1.0000
     1.0000   1.0000   1.0000   1.0000   1.0000   1.0000   1.0000   1.0000
     1.0000   1.0000   1.0000   1.0000   1.0000   1.0000   1.0000   1.0000
     1.0000   1.0000   1.0000   1.0000   1.0000   1.0000   1.0000   1.0000
     1.0000   1.0000   1.0000   1.0000   1.0000   1.0000   1.0000   1.0000
     1.0000   1.0000   1.0000   1.0000   1.0000   1.0000   1.0000   1.0000
     1.0000   1.0000   1.0000   1.0000   1.0000   1.0000   1.0000   1.0000
     1.0000   1.0000   1.0000   1.0000   1.0000   1.0000   1.0000   1.0000
     1.0000   1.0000   1.0000   1.0000   1.0000   1.0000   1.0000   1.0000
     1.0000   1.0000   1.0000   1.0000   1.0000   1.0000   1.0000   1.0000
     1.0000   1.0000   1.0000   1.0000   1.0000   1.0000   1.0000   1.0000
     1.0000   1.0000   1.0000   1.0000   1.0000   1.0000   1.0000   1.0000
     1.0000   1.0000   1.0000   1.0000   1.0000   1.0000   1.0000   1.0000
     1.0000   1.0000   1.0000   1.0000   1.0000   1.0000   1.0000   1.0000
     1.0000   1.0000   1.0000   1.0000   1.0000   0.9999   0.9999   0.9999
     0.9998   0.9998   0.9998   0.9997   0.9996   0.9996   0.9994   0.9988
     0.9984   0.9983   0.9980   0.9979   0.9973   0.9963   0.9939   0.9934
     0.9917   0.9915   0.9898   0.9889   0.9884   0.9858   0.9821   0.9815
     0.9787   0.9763   0.9727   0.9578   0.9449   0.9381   0.9331   0.9017
     0.8975   0.8867   0.8854   0.8489   0.8387   0.8291   0.8216   0.8208
     0.7960   0.7909   0.7719   0.7647   0.7313   0.7146   0.7107   0.7075
     0.6721   0.6670   0.6570   0.6530   0.6471   0.6388   0.6364   0.6279
     0.6246   0.6189   0.6145   0.6101   0.5991   0.5869   0.5841   0.5770
     0.5630   0.4944   0.4338   0.1195   0.0501   0.0148   0.0062   0.0053
     0.0000   0.0000   0.0000   0.0000   0.0000   0.0000   0.0000   0.0000
     0.0000   0.0000   0.0000   0.0000   0.0000   0.0000   0.0000   0.0000
     0.0000   0.0000   0.0000   0.0000   0.0000   0.0000   0.0000   0.0000
     0.0000   0.0000

          k = 0.0000 0.2500 0.0000 ( 65257 PWs)   bands (ev):

   -92.8898 -92.8418 -92.7444 -92.6968 -92.6403 -92.5964 -92.5792 -92.4584
   -56.2434 -56.2284 -56.1010 -56.0902 -56.0841 -56.0771 -56.0458 -56.0131
   -55.9982 -55.9962 -55.9908 -55.9472 -55.9270 -55.8910 -55.8713 -55.8402
   -55.8324 -55.7843 -55.7835 -55.7813 -55.7729 -55.7336 -55.7092 -55.6243
   -31.4522 -31.4323 -31.2924 -31.2053 -31.1907 -31.0577 -30.9667 -30.8864
   -30.0328 -29.9896 -29.9663 -29.8578 -15.2297 -15.1918 -15.1150 -14.9807
   -14.8525 -14.6783 -14.5475 -14.3677 -14.3255 -14.3076 -14.2809 -14.2201
   -14.2161 -14.2007 -14.1726 -14.1217 -14.0320 -13.9895 -13.8282 -13.7993
   -13.7594 -13.7231 -13.6646 -13.6331 -13.5836 -13.5208 -13.4811 -13.4001
   -13.3259 -13.3186 -13.2833 -13.2631 -13.1772 -13.1614 -13.1313 -13.1100
   -13.0777 -13.0432 -13.0250 -12.9759 -12.9553 -12.9394 -12.9206 -12.8583
   -12.8376 -12.7917 -12.6986 -12.6308 -12.5808 -12.4243 -12.2418 -12.1765
   -12.0122 -11.9909 -11.9694 -11.9416 -11.9139 -11.8973 -11.8493 -11.8384
   -11.8158 -11.7805 -11.6803 -11.6277 -11.6170  -2.9912  -2.7713  -2.6330
    -2.4506  -2.4074  -2.2449  -2.0220  -1.9414  -1.9284  -1.8654  -1.7666
    -1.7496  -1.7162  -1.6888  -1.6443  -1.4479  -1.3177  -1.3065  -1.2284
    -1.2190  -1.1158  -1.0872  -1.0281  -1.0007  -0.9636  -0.8965  -0.8684
    -0.8383  -0.8063  -0.7901  -0.7567  -0.6835  -0.6331  -0.5535  -0.4492
    -0.4186  -0.3790  -0.2738  -0.2344  -0.1652  -0.1247  -0.0570  -0.0446
    -0.0230   0.0355   0.3404   0.4280   0.4610   0.5496   0.5954   0.6187
     0.7278   0.7459   0.8429   0.8694   0.8923   1.0071   1.1067   1.1241
     1.1499   1.1728   1.1917   1.2503   1.2803   1.3069   1.3536   1.3924
     1.4252   1.5140   1.5499   1.5796   1.6329   1.6862   1.7281   1.7571
     1.7824   1.7923   1.8978   2.0124   2.0865   2.1124   2.1753   2.2218
     2.2635   2.2718   2.3340   2.3686   2.4586   2.4897   2.5096   2.5873
     2.5961   2.6440   2.6843   2.7034   2.7347   2.7596   2.7733   2.7816
     2.7875   2.7969   2.8266   2.8308   2.8472   2.8599   2.8613   2.8830
     2.8950   2.9011   2.9208   2.9322   2.9391   2.9723   2.9887   3.0485
     3.4181   3.4681   3.6990   4.1236   4.2435   4.5425   4.8799   4.9870
     5.5069   5.6448   5.8043   5.9063   5.9527   6.0396   6.0706   6.5441
     7.0271   7.1216   7.2303   7.2550   7.3411   7.4017   7.5406   7.6064
     7.7255   7.9176   8.0647   8.1670   8.2810   8.3011   8.3579   8.3975
     8.6608   8.8103

     occupation numbers 
     1.0000   1.0000   1.0000   1.0000   1.0000   1.0000   1.0000   1.0000
     1.0000   1.0000   1.0000   1.0000   1.0000   1.0000   1.0000   1.0000
     1.0000   1.0000   1.0000   1.0000   1.0000   1.0000   1.0000   1.0000
     1.0000   1.0000   1.0000   1.0000   1.0000   1.0000   1.0000   1.0000
     1.0000   1.0000   1.0000   1.0000   1.0000   1.0000   1.0000   1.0000
     1.0000   1.0000   1.0000   1.0000   1.0000   1.0000   1.0000   1.0000
     1.0000   1.0000   1.0000   1.0000   1.0000   1.0000   1.0000   1.0000
     1.0000   1.0000   1.0000   1.0000   1.0000   1.0000   1.0000   1.0000
     1.0000   1.0000   1.0000   1.0000   1.0000   1.0000   1.0000   1.0000
     1.0000   1.0000   1.0000   1.0000   1.0000   1.0000   1.0000   1.0000
     1.0000   1.0000   1.0000   1.0000   1.0000   1.0000   1.0000   1.0000
     1.0000   1.0000   1.0000   1.0000   1.0000   1.0000   1.0000   1.0000
     1.0000   1.0000   1.0000   1.0000   1.0000   1.0000   1.0000   1.0000
     1.0000   1.0000   1.0000   1.0000   1.0000   1.0000   1.0000   1.0000
     1.0000   1.0000   1.0000   1.0000   1.0000   1.0000   1.0000   1.0000
     1.0000   1.0000   1.0000   1.0000   1.0000   1.0000   1.0000   1.0000
     1.0000   1.0000   1.0000   1.0000   1.0000   1.0000   1.0000   1.0000
     1.0000   1.0000   1.0000   1.0000   1.0000   1.0000   1.0000   1.0000
     1.0000   1.0000   1.0000   1.0000   1.0000   1.0000   1.0000   1.0000
     1.0000   1.0000   1.0000   1.0000   1.0000   0.9999   0.9999   0.9999
     0.9998   0.9998   0.9997   0.9996   0.9996   0.9992   0.9987   0.9986
     0.9984   0.9982   0.9981   0.9975   0.9971   0.9967   0.9960   0.9952
     0.9945   0.9921   0.9908   0.9897   0.9873   0.9845   0.9819   0.9799
     0.9780   0.9772   0.9673   0.9528   0.9409   0.9363   0.9237   0.9134
     0.9032   0.9010   0.8840   0.8736   0.8438   0.8325   0.8250   0.7936
     0.7898   0.7688   0.7502   0.7410   0.7258   0.7133   0.7064   0.7021
     0.6991   0.6942   0.6786   0.6763   0.6675   0.6606   0.6599   0.6480
     0.6414   0.6380   0.6269   0.6205   0.6167   0.5977   0.5882   0.5534
     0.3392   0.3125   0.2028   0.0718   0.0505   0.0186   0.0049   0.0030
     0.0002   0.0001   0.0000   0.0000   0.0000   0.0000   0.0000   0.0000
     0.0000   0.0000   0.0000   0.0000   0.0000   0.0000   0.0000   0.0000
     0.0000   0.0000   0.0000   0.0000   0.0000   0.0000   0.0000   0.0000
     0.0000   0.0000

          k = 0.0000-0.5000 0.0000 ( 65180 PWs)   bands (ev):

   -92.8898 -92.8418 -92.7444 -92.6968 -92.6403 -92.5964 -92.5792 -92.4584
   -56.2434 -56.2284 -56.1010 -56.0902 -56.0841 -56.0771 -56.0458 -56.0131
   -55.9982 -55.9962 -55.9908 -55.9472 -55.9270 -55.8910 -55.8713 -55.8402
   -55.8324 -55.7843 -55.7835 -55.7813 -55.7729 -55.7336 -55.7092 -55.6243
   -31.4520 -31.4322 -31.2926 -31.2055 -31.1905 -31.0579 -30.9663 -30.8868
   -30.0321 -29.9893 -29.9669 -29.8581 -15.1931 -15.1440 -15.0918 -14.9558
   -14.8806 -14.7380 -14.5883 -14.4508 -14.3410 -14.2626 -14.2241 -14.2147
   -14.1642 -14.1519 -14.1065 -14.0764 -14.0560 -14.0151 -13.9569 -13.9434
   -13.7672 -13.7076 -13.6668 -13.6391 -13.5765 -13.5392 -13.4754 -13.4567
   -13.4107 -13.3920 -13.2840 -13.2631 -13.1722 -13.1444 -13.1242 -13.1047
   -13.0655 -13.0545 -12.9547 -12.9385 -12.9081 -12.8824 -12.8426 -12.8291
   -12.8270 -12.7948 -12.6917 -12.5491 -12.4992 -12.4024 -12.3532 -12.3282
   -11.9908 -11.9663 -11.9637 -11.9365 -11.9006 -11.8655 -11.8542 -11.8105
   -11.8064 -11.7616 -11.7027 -11.6888 -11.6745  -2.7764  -2.7176  -2.5682
    -2.4963  -2.2112  -2.1297  -2.0037  -1.8669  -1.8242  -1.8092  -1.7311
    -1.6970  -1.6184  -1.5815  -1.5023  -1.4642  -1.4264  -1.3985  -1.3378
    -1.3035  -1.2522  -1.2169  -1.1882  -1.1511  -1.0440  -0.9995  -0.9613
    -0.9588  -0.8725  -0.8411  -0.8195  -0.7709  -0.6806  -0.6119  -0.5198
    -0.4783  -0.3882  -0.3519  -0.2147  -0.1499  -0.1444  -0.0846   0.0361
     0.0876   0.2062   0.2790   0.2868   0.4120   0.4792   0.5794   0.6916
     0.7984   0.8316   0.8705   0.8852   0.9206   0.9313   0.9659   0.9848
     0.9945   1.1046   1.1657   1.2027   1.2326   1.4994   1.5168   1.5422
     1.6369   1.6602   1.6906   1.7052   1.7280   1.7501   1.7626   1.7821
     1.8245   1.8516   1.8832   1.8916   1.9186   1.9694   2.0610   2.0924
     2.2641   2.4176   2.4247   2.4502   2.4830   2.4930   2.4976   2.5308
     2.5564   2.5852   2.5948   2.6104   2.6303   2.6490   2.7198   2.7380
     2.7987   2.8006   2.8255   2.8334   2.8440   2.8494   2.8533   2.8604
     2.8650   2.8779   2.8915   2.8935   2.9568   2.9626   2.9783   3.0324
     3.9483   3.9671   4.0022   4.0945   4.5630   4.7253   4.8999   5.0077
     5.2803   5.3586   5.4860   5.5883   5.8568   5.8684   6.3051   6.7467
     6.7890   6.8870   7.1413   7.3013   7.5791   7.6556   7.6853   7.7483
     7.7691   7.9208   8.0592   8.1900   8.2379   8.3435   8.5121   8.6016
     8.6824   8.7328

     occupation numbers 
     1.0000   1.0000   1.0000   1.0000   1.0000   1.0000   1.0000   1.0000
     1.0000   1.0000   1.0000   1.0000   1.0000   1.0000   1.0000   1.0000
     1.0000   1.0000   1.0000   1.0000   1.0000   1.0000   1.0000   1.0000
     1.0000   1.0000   1.0000   1.0000   1.0000   1.0000   1.0000   1.0000
     1.0000   1.0000   1.0000   1.0000   1.0000   1.0000   1.0000   1.0000
     1.0000   1.0000   1.0000   1.0000   1.0000   1.0000   1.0000   1.0000
     1.0000   1.0000   1.0000   1.0000   1.0000   1.0000   1.0000   1.0000
     1.0000   1.0000   1.0000   1.0000   1.0000   1.0000   1.0000   1.0000
     1.0000   1.0000   1.0000   1.0000   1.0000   1.0000   1.0000   1.0000
     1.0000   1.0000   1.0000   1.0000   1.0000   1.0000   1.0000   1.0000
     1.0000   1.0000   1.0000   1.0000   1.0000   1.0000   1.0000   1.0000
     1.0000   1.0000   1.0000   1.0000   1.0000   1.0000   1.0000   1.0000
     1.0000   1.0000   1.0000   1.0000   1.0000   1.0000   1.0000   1.0000
     1.0000   1.0000   1.0000   1.0000   1.0000   1.0000   1.0000   1.0000
     1.0000   1.0000   1.0000   1.0000   1.0000   1.0000   1.0000   1.0000
     1.0000   1.0000   1.0000   1.0000   1.0000   1.0000   1.0000   1.0000
     1.0000   1.0000   1.0000   1.0000   1.0000   1.0000   1.0000   1.0000
     1.0000   1.0000   1.0000   1.0000   1.0000   1.0000   1.0000   1.0000
     1.0000   1.0000   1.0000   1.0000   1.0000   1.0000   1.0000   1.0000
     1.0000   1.0000   1.0000   1.0000   1.0000   1.0000   0.9999   0.9999
     0.9997   0.9997   0.9996   0.9996   0.9995   0.9995   0.9994   0.9993
     0.9993   0.9987   0.9983   0.9980   0.9977   0.9925   0.9920   0.9911
     0.9871   0.9859   0.9842   0.9834   0.9819   0.9804   0.9795   0.9780
     0.9745   0.9720   0.9689   0.9680   0.9650   0.9588   0.9453   0.9399
     0.9030   0.8579   0.8555   0.8467   0.8350   0.8312   0.8295   0.8167
     0.8064   0.7945   0.7904   0.7837   0.7749   0.7665   0.7331   0.7241
     0.6932   0.6922   0.6791   0.6749   0.6692   0.6663   0.6643   0.6604
     0.6579   0.6508   0.6433   0.6422   0.6065   0.6032   0.5942   0.5628
     0.1147   0.1094   0.0999   0.0780   0.0172   0.0092   0.0045   0.0028
     0.0007   0.0005   0.0002   0.0001   0.0000   0.0000   0.0000   0.0000
     0.0000   0.0000   0.0000   0.0000   0.0000   0.0000   0.0000   0.0000
     0.0000   0.0000   0.0000   0.0000   0.0000   0.0000   0.0000   0.0000
     0.0000   0.0000

          k = 0.2500 0.2500 0.0000 ( 65198 PWs)   bands (ev):

   -92.8898 -92.8418 -92.7444 -92.6968 -92.6403 -92.5964 -92.5792 -92.4584
   -56.2434 -56.2284 -56.1010 -56.0902 -56.0841 -56.0771 -56.0458 -56.0131
   -55.9982 -55.9962 -55.9908 -55.9472 -55.9270 -55.8910 -55.8713 -55.8402
   -55.8324 -55.7843 -55.7835 -55.7813 -55.7729 -55.7336 -55.7092 -55.6243
   -31.4505 -31.4340 -31.2920 -31.2057 -31.1906 -31.0575 -30.9669 -30.8866
   -30.0318 -29.9906 -29.9659 -29.8582 -15.2007 -15.1571 -15.0871 -14.9701
   -14.8453 -14.7209 -14.6532 -14.4392 -14.2904 -14.2744 -14.2387 -14.2079
   -14.1886 -14.1592 -14.1193 -14.0831 -14.0224 -14.0023 -13.8443 -13.8289
   -13.8008 -13.7801 -13.7034 -13.6900 -13.6107 -13.6042 -13.4580 -13.4118
   -13.3992 -13.3163 -13.2766 -13.2246 -13.1939 -13.1622 -13.1379 -13.1217
   -13.0907 -13.0012 -12.9845 -12.9328 -12.9209 -12.9190 -12.8907 -12.8772
   -12.8082 -12.7881 -12.6316 -12.6291 -12.5455 -12.4533 -12.2743 -12.2227
   -11.9914 -11.9840 -11.9531 -11.9420 -11.9350 -11.8720 -11.8381 -11.8313
   -11.7957 -11.7876 -11.6969 -11.6559 -11.6385  -2.8527  -2.6454  -2.5270
    -2.4311  -2.3125  -2.2481  -2.0465  -1.9057  -1.8870  -1.8530  -1.7609
    -1.7268  -1.6321  -1.6044  -1.5541  -1.4238  -1.3752  -1.3003  -1.2568
    -1.2115  -1.1887  -1.1659  -1.1229  -1.1077  -1.0162  -0.9662  -0.8963
    -0.8481  -0.8196  -0.7735  -0.7570  -0.6930  -0.6435  -0.5775  -0.5510
    -0.4571  -0.4119  -0.3794  -0.3455  -0.2890  -0.2112  -0.1779  -0.1429
    -0.0707  -0.0324   0.2284   0.3791   0.4100   0.4751   0.5124   0.5817
     0.6250   0.6887   0.7260   0.9977   1.0587   1.1318   1.1544   1.2122
     1.2361   1.2735   1.3100   1.3262   1.3532   1.4016   1.4082   1.4261
     1.4748   1.5112   1.5471   1.6092   1.6481   1.6596   1.6918   1.7261
     1.7844   1.8078   1.9353   1.9953   2.0290   2.0492   2.1271   2.1851
     2.2117   2.2465   2.2739   2.2849   2.4010   2.4376   2.5115   2.5850
     2.5967   2.6487   2.6905   2.7104   2.7142   2.7302   2.7455   2.7597
     2.7709   2.7765   2.7889   2.8023   2.8194   2.8321   2.8380   2.8516
     2.8776   2.8845   2.8925   2.9246   3.2239   3.3169   3.3693   3.4375
     3.4554   3.6846   3.7680   4.1262   4.3358   4.5511   4.8010   5.1259
     5.4944   5.5577   5.6109   5.6531   5.7163   6.0852   6.1516   6.1903
     6.8314   7.1450   7.2289   7.3851   7.4486   7.4775   7.5881   7.7540
     7.8820   7.9912   8.1981   8.2919   8.3212   8.3555   8.4518   8.4794
     8.5471   8.7411

     occupation numbers 
     1.0000   1.0000   1.0000   1.0000   1.0000   1.0000   1.0000   1.0000
     1.0000   1.0000   1.0000   1.0000   1.0000   1.0000   1.0000   1.0000
     1.0000   1.0000   1.0000   1.0000   1.0000   1.0000   1.0000   1.0000
     1.0000   1.0000   1.0000   1.0000   1.0000   1.0000   1.0000   1.0000
     1.0000   1.0000   1.0000   1.0000   1.0000   1.0000   1.0000   1.0000
     1.0000   1.0000   1.0000   1.0000   1.0000   1.0000   1.0000   1.0000
     1.0000   1.0000   1.0000   1.0000   1.0000   1.0000   1.0000   1.0000
     1.0000   1.0000   1.0000   1.0000   1.0000   1.0000   1.0000   1.0000
     1.0000   1.0000   1.0000   1.0000   1.0000   1.0000   1.0000   1.0000
     1.0000   1.0000   1.0000   1.0000   1.0000   1.0000   1.0000   1.0000
     1.0000   1.0000   1.0000   1.0000   1.0000   1.0000   1.0000   1.0000
     1.0000   1.0000   1.0000   1.0000   1.0000   1.0000   1.0000   1.0000
     1.0000   1.0000   1.0000   1.0000   1.0000   1.0000   1.0000   1.0000
     1.0000   1.0000   1.0000   1.0000   1.0000   1.0000   1.0000   1.0000
     1.0000   1.0000   1.0000   1.0000   1.0000   1.0000   1.0000   1.0000
     1.0000   1.0000   1.0000   1.0000   1.0000   1.0000   1.0000   1.0000
     1.0000   1.0000   1.0000   1.0000   1.0000   1.0000   1.0000   1.0000
     1.0000   1.0000   1.0000   1.0000   1.0000   1.0000   1.0000   1.0000
     1.0000   1.0000   1.0000   1.0000   1.0000   1.0000   1.0000   1.0000
     1.0000   1.0000   1.0000   1.0000   1.0000   1.0000   1.0000   0.9999
     0.9999   0.9999   0.9998   0.9993   0.9990   0.9986   0.9984   0.9979
     0.9976   0.9972   0.9967   0.9964   0.9960   0.9951   0.9949   0.9945
     0.9933   0.9922   0.9910   0.9884   0.9866   0.9860   0.9842   0.9820
     0.9779   0.9760   0.9630   0.9553   0.9503   0.9472   0.9335   0.9216
     0.9157   0.9074   0.9005   0.8976   0.8634   0.8511   0.8242   0.7946
     0.7896   0.7666   0.7472   0.7377   0.7358   0.7280   0.7204   0.7133
     0.7076   0.7047   0.6984   0.6914   0.6824   0.6756   0.6724   0.6652
     0.6510   0.6472   0.6428   0.6248   0.4498   0.3957   0.3661   0.3287
     0.3192   0.2089   0.1751   0.0713   0.0378   0.0180   0.0068   0.0016
     0.0002   0.0002   0.0001   0.0001   0.0001   0.0000   0.0000   0.0000
     0.0000   0.0000   0.0000   0.0000   0.0000   0.0000   0.0000   0.0000
     0.0000   0.0000   0.0000   0.0000   0.0000   0.0000   0.0000   0.0000
     0.0000   0.0000

          k = 0.2500-0.5000 0.0000 ( 65138 PWs)   bands (ev):

   -92.8898 -92.8418 -92.7444 -92.6968 -92.6403 -92.5964 -92.5792 -92.4584
   -56.2434 -56.2284 -56.1010 -56.0902 -56.0841 -56.0771 -56.0458 -56.0131
   -55.9982 -55.9962 -55.9908 -55.9472 -55.9270 -55.8910 -55.8713 -55.8402
   -55.8324 -55.7843 -55.7835 -55.7813 -55.7729 -55.7336 -55.7092 -55.6243
   -31.4504 -31.4339 -31.2922 -31.2059 -31.1904 -31.0577 -30.9665 -30.8870
   -30.0312 -29.9903 -29.9665 -29.8585 -15.1625 -15.1171 -15.0487 -14.9271
   -14.9016 -14.7803 -14.6897 -14.5521 -14.2558 -14.1983 -14.1742 -14.1511
   -14.1331 -14.1257 -14.0902 -14.0658 -14.0283 -13.9984 -13.9615 -13.9233
   -13.8482 -13.7982 -13.7216 -13.7181 -13.6470 -13.6188 -13.5100 -13.4659
   -13.3822 -13.3176 -13.2932 -13.2089 -13.1709 -13.1567 -13.1330 -13.1181
   -13.0883 -13.0115 -12.9517 -12.9368 -12.9175 -12.8635 -12.8533 -12.8323
   -12.8019 -12.7920 -12.6980 -12.5326 -12.4965 -12.3847 -12.3428 -12.3220
   -11.9911 -11.9601 -11.9479 -11.9375 -11.9105 -11.8781 -11.8509 -11.8076
   -11.7821 -11.7588 -11.7155 -11.6900 -11.6784  -2.6338  -2.5693  -2.4419
    -2.3649  -2.2316  -2.1494  -2.0280  -1.8774  -1.8214  -1.7998  -1.7378
    -1.7254  -1.6293  -1.5599  -1.4766  -1.4245  -1.4148  -1.3539  -1.3088
    -1.2765  -1.2278  -1.1895  -1.1557  -1.1173  -1.1053  -1.0593  -1.0293
    -0.9848  -0.9556  -0.8884  -0.7834  -0.7470  -0.6663  -0.5999  -0.5467
    -0.5096  -0.4911  -0.4283  -0.2750  -0.2657  -0.1412  -0.1254  -0.1160
    -0.0712  -0.0374  -0.0008   0.0260   0.0913   0.3802   0.4764   0.5438
     0.5961   0.8627   0.8800   0.9712   0.9930   1.1558   1.1963   1.2311
     1.2533   1.2662   1.2891   1.3545   1.4067   1.4396   1.5165   1.6140
     1.6474   1.6691   1.6757   1.7134   1.7269   1.7332   1.7783   1.7898
     1.8079   1.8498   1.8615   1.8767   1.9139   1.9698   2.0147   2.0942
     2.2271   2.3689   2.3888   2.4073   2.4367   2.4574   2.4837   2.5043
     2.5147   2.5313   2.5792   2.5900   2.6350   2.6535   2.6958   2.7096
     2.7253   2.7293   2.7472   2.7609   2.7794   2.7910   2.8281   2.8387
     2.8477   2.8554   2.8678   2.8747   3.3998   3.4182   3.5557   3.6084
     3.9517   4.0091   4.0110   4.1439   4.5812   4.7462   4.9193   4.9654
     5.1284   5.3030   5.5070   5.5324   5.6281   5.6613   6.3425   6.4100
     6.4384   6.8675   7.2437   7.5831   7.6599   7.7161   7.7707   7.8097
     7.8950   7.9210   8.1955   8.3569   8.3831   8.4104   8.5434   8.5838
     8.6322   8.7321

     occupation numbers 
     1.0000   1.0000   1.0000   1.0000   1.0000   1.0000   1.0000   1.0000
     1.0000   1.0000   1.0000   1.0000   1.0000   1.0000   1.0000   1.0000
     1.0000   1.0000   1.0000   1.0000   1.0000   1.0000   1.0000   1.0000
     1.0000   1.0000   1.0000   1.0000   1.0000   1.0000   1.0000   1.0000
     1.0000   1.0000   1.0000   1.0000   1.0000   1.0000   1.0000   1.0000
     1.0000   1.0000   1.0000   1.0000   1.0000   1.0000   1.0000   1.0000
     1.0000   1.0000   1.0000   1.0000   1.0000   1.0000   1.0000   1.0000
     1.0000   1.0000   1.0000   1.0000   1.0000   1.0000   1.0000   1.0000
     1.0000   1.0000   1.0000   1.0000   1.0000   1.0000   1.0000   1.0000
     1.0000   1.0000   1.0000   1.0000   1.0000   1.0000   1.0000   1.0000
     1.0000   1.0000   1.0000   1.0000   1.0000   1.0000   1.0000   1.0000
     1.0000   1.0000   1.0000   1.0000   1.0000   1.0000   1.0000   1.0000
     1.0000   1.0000   1.0000   1.0000   1.0000   1.0000   1.0000   1.0000
     1.0000   1.0000   1.0000   1.0000   1.0000   1.0000   1.0000   1.0000
     1.0000   1.0000   1.0000   1.0000   1.0000   1.0000   1.0000   1.0000
     1.0000   1.0000   1.0000   1.0000   1.0000   1.0000   1.0000   1.0000
     1.0000   1.0000   1.0000   1.0000   1.0000   1.0000   1.0000   1.0000
     1.0000   1.0000   1.0000   1.0000   1.0000   1.0000   1.0000   1.0000
     1.0000   1.0000   1.0000   1.0000   1.0000   1.0000   1.0000   1.0000
     1.0000   1.0000   1.0000   1.0000   1.0000   1.0000   1.0000   0.9999
     0.9999   0.9996   0.9996   0.9994   0.9993   0.9984   0.9980   0.9977
     0.9974   0.9973   0.9970   0.9960   0.9949   0.9942   0.9920   0.9882
     0.9866   0.9855   0.9851   0.9829   0.9820   0.9816   0.9783   0.9774
     0.9759   0.9722   0.9711   0.9696   0.9655   0.9587   0.9525   0.9396
     0.9121   0.8735   0.8673   0.8613   0.8514   0.8442   0.8347   0.8270
     0.8230   0.8165   0.7970   0.7925   0.7728   0.7645   0.7447   0.7381
     0.7304   0.7285   0.7196   0.7127   0.7033   0.6973   0.6777   0.6721
     0.6672   0.6631   0.6563   0.6526   0.3492   0.3391   0.2680   0.2428
     0.1137   0.0981   0.0977   0.0678   0.0161   0.0085   0.0041   0.0033
     0.0016   0.0007   0.0002   0.0002   0.0001   0.0001   0.0000   0.0000
     0.0000   0.0000   0.0000   0.0000   0.0000   0.0000   0.0000   0.0000
     0.0000   0.0000   0.0000   0.0000   0.0000   0.0000   0.0000   0.0000
     0.0000   0.0000

          k =-0.5000-0.5000 0.0000 ( 65132 PWs)   bands (ev):

   -92.8898 -92.8418 -92.7444 -92.6968 -92.6403 -92.5964 -92.5792 -92.4584
   -56.2434 -56.2284 -56.1010 -56.0902 -56.0841 -56.0771 -56.0458 -56.0131
   -55.9982 -55.9962 -55.9908 -55.9472 -55.9270 -55.8910 -55.8713 -55.8402
   -55.8324 -55.7843 -55.7835 -55.7813 -55.7729 -55.7336 -55.7092 -55.6243
   -31.4483 -31.4359 -31.2919 -31.2063 -31.1902 -31.0576 -30.9666 -30.8872
   -30.0301 -29.9913 -29.9661 -29.8590 -15.1158 -15.0904 -14.9719 -14.9601
   -14.8634 -14.8292 -14.7875 -14.6544 -14.1665 -14.1514 -14.1186 -14.1008
   -14.0855 -14.0646 -14.0413 -14.0304 -14.0182 -13.9999 -13.9819 -13.9146
   -13.9056 -13.8678 -13.8393 -13.8017 -13.7326 -13.6708 -13.5485 -13.5096
   -13.3318 -13.2912 -13.2268 -13.2019 -13.1700 -13.1605 -13.1512 -13.1346
   -13.1158 -12.9803 -12.9445 -12.9324 -12.9110 -12.8798 -12.8720 -12.8164
   -12.7813 -12.7739 -12.7141 -12.5173 -12.4925 -12.3662 -12.3323 -12.3164
   -11.9911 -11.9572 -11.9445 -11.9261 -11.9099 -11.8739 -11.8560 -11.8231
   -11.7628 -11.7418 -11.7375 -11.6875 -11.6841  -2.4074  -2.3342  -2.3258
    -2.2528  -2.2148  -2.1368  -2.0691  -1.9415  -1.8281  -1.7980  -1.7548
    -1.7019  -1.6288  -1.6150  -1.5440  -1.5013  -1.3824  -1.3513  -1.3032
    -1.2791  -1.2145  -1.1662  -1.1478  -1.1347  -1.0787  -1.0390  -1.0177
    -0.9078  -0.8500  -0.8060  -0.7551  -0.7234  -0.7077  -0.6784  -0.6365
    -0.5961  -0.5898  -0.5051  -0.4375  -0.3961  -0.3659  -0.2946  -0.2302
    -0.2227  -0.1628  -0.1303  -0.1117  -0.1026   0.3582   0.3957   0.4880
     0.5186   0.8904   0.9025   0.9374   0.9779   1.2441   1.2634   1.2688
     1.3151   1.4331   1.5287   1.5561   1.5926   1.6218   1.6401   1.6481
     1.6784   1.6927   1.7095   1.7205   1.7664   1.7676   1.7980   1.8183
     1.8364   1.8511   1.8865   1.9118   1.9291   1.9562   1.9945   2.0491
     2.1190   2.3824   2.4121   2.4325   2.4506   2.4638   2.4889   2.4942
     2.5148   2.5212   2.5390   2.5511   2.5735   2.5835   2.5890   2.6380
     2.6458   2.6520   2.6663   2.6826   2.6993   2.7168   2.7238   2.7346
     2.8365   2.8431   2.8606   2.8773   3.8390   3.8671   3.8779   3.9035
     4.1324   4.2110   4.2310   4.4713   4.5944   4.6765   4.8099   4.9161
     4.9262   5.0223   5.1576   5.2805   5.8061   5.8489   5.8830   6.0067
     6.6417   6.8451   7.0856   7.4854   7.8327   7.8462   7.9253   8.0734
     8.1335   8.1748   8.2568   8.2699   8.3612   8.4562   8.4959   8.5212
     8.5771   8.6287

     occupation numbers 
     1.0000   1.0000   1.0000   1.0000   1.0000   1.0000   1.0000   1.0000
     1.0000   1.0000   1.0000   1.0000   1.0000   1.0000   1.0000   1.0000
     1.0000   1.0000   1.0000   1.0000   1.0000   1.0000   1.0000   1.0000
     1.0000   1.0000   1.0000   1.0000   1.0000   1.0000   1.0000   1.0000
     1.0000   1.0000   1.0000   1.0000   1.0000   1.0000   1.0000   1.0000
     1.0000   1.0000   1.0000   1.0000   1.0000   1.0000   1.0000   1.0000
     1.0000   1.0000   1.0000   1.0000   1.0000   1.0000   1.0000   1.0000
     1.0000   1.0000   1.0000   1.0000   1.0000   1.0000   1.0000   1.0000
     1.0000   1.0000   1.0000   1.0000   1.0000   1.0000   1.0000   1.0000
     1.0000   1.0000   1.0000   1.0000   1.0000   1.0000   1.0000   1.0000
     1.0000   1.0000   1.0000   1.0000   1.0000   1.0000   1.0000   1.0000
     1.0000   1.0000   1.0000   1.0000   1.0000   1.0000   1.0000   1.0000
     1.0000   1.0000   1.0000   1.0000   1.0000   1.0000   1.0000   1.0000
     1.0000   1.0000   1.0000   1.0000   1.0000   1.0000   1.0000   1.0000
     1.0000   1.0000   1.0000   1.0000   1.0000   1.0000   1.0000   1.0000
     1.0000   1.0000   1.0000   1.0000   1.0000   1.0000   1.0000   1.0000
     1.0000   1.0000   1.0000   1.0000   1.0000   1.0000   1.0000   1.0000
     1.0000   1.0000   1.0000   1.0000   1.0000   1.0000   1.0000   1.0000
     1.0000   1.0000   1.0000   1.0000   1.0000   1.0000   1.0000   1.0000
     1.0000   1.0000   1.0000   1.0000   1.0000   1.0000   1.0000   1.0000
     1.0000   0.9996   0.9996   0.9995   0.9993   0.9976   0.9973   0.9973
     0.9966   0.9943   0.9916   0.9906   0.9892   0.9879   0.9870   0.9866
     0.9849   0.9841   0.9831   0.9824   0.9792   0.9791   0.9768   0.9751
     0.9734   0.9721   0.9685   0.9658   0.9638   0.9605   0.9554   0.9472
     0.9350   0.8693   0.8598   0.8529   0.8466   0.8419   0.8328   0.8308
     0.8230   0.8205   0.8135   0.8086   0.7994   0.7952   0.7929   0.7715
     0.7680   0.7651   0.7586   0.7510   0.7430   0.7346   0.7312   0.7258
     0.6733   0.6697   0.6603   0.6511   0.1493   0.1398   0.1362   0.1281
     0.0701   0.0557   0.0524   0.0239   0.0153   0.0112   0.0065   0.0042
     0.0040   0.0026   0.0014   0.0007   0.0000   0.0000   0.0000   0.0000
     0.0000   0.0000   0.0000   0.0000   0.0000   0.0000   0.0000   0.0000
     0.0000   0.0000   0.0000   0.0000   0.0000   0.0000   0.0000   0.0000
     0.0000   0.0000

          k = 0.2500 0.0000 0.0000 ( 65257 PWs)   bands (ev):

   -92.8898 -92.8418 -92.7444 -92.6968 -92.6403 -92.5964 -92.5792 -92.4584
   -56.2434 -56.2284 -56.1010 -56.0902 -56.0841 -56.0771 -56.0458 -56.0131
   -55.9982 -55.9962 -55.9908 -55.9472 -55.9270 -55.8910 -55.8713 -55.8402
   -55.8324 -55.7843 -55.7835 -55.7813 -55.7729 -55.7336 -55.7092 -55.6243
   -31.4507 -31.4341 -31.2918 -31.2056 -31.1908 -31.0573 -30.9673 -30.8862
   -30.0324 -29.9909 -29.9652 -29.8579 -15.2334 -15.1869 -15.1202 -14.9741
   -14.8612 -14.6677 -14.5383 -14.3533 -14.3402 -14.3091 -14.2762 -14.2505
   -14.2205 -14.2001 -14.1718 -14.1249 -14.0239 -13.9900 -13.8412 -13.7712
   -13.7557 -13.6870 -13.6740 -13.6576 -13.5920 -13.5239 -13.4858 -13.3878
   -13.3341 -13.3174 -13.2364 -13.2197 -13.2032 -13.1929 -13.1668 -13.1478
   -13.1082 -13.0287 -12.9970 -12.9725 -12.9556 -12.9473 -12.9143 -12.8130
   -12.7938 -12.7741 -12.7418 -12.6661 -12.5829 -12.4253 -12.2393 -12.1735
   -12.0116 -11.9909 -11.9599 -11.9422 -11.9292 -11.9022 -11.8524 -11.8287
   -11.8210 -11.7700 -11.6816 -11.6259 -11.6200  -2.9908  -2.7703  -2.6399
    -2.4669  -2.4031  -2.2346  -2.0229  -1.9503  -1.9065  -1.8670  -1.7690
    -1.7540  -1.7185  -1.6995  -1.6302  -1.4505  -1.3386  -1.3030  -1.2058
    -1.1906  -1.1154  -1.0884  -1.0342  -0.9946  -0.9426  -0.9093  -0.8627
    -0.8382  -0.8181  -0.7641  -0.7487  -0.6578  -0.6489  -0.5762  -0.4771
    -0.4143  -0.3126  -0.3002  -0.2262  -0.1936  -0.1368  -0.1127  -0.0720
    -0.0047   0.0342   0.3189   0.4487   0.4901   0.5708   0.5973   0.6326
     0.6440   0.7226   0.8359   0.8843   0.9105   0.9457   1.1034   1.1287
     1.1653   1.1713   1.2074   1.2553   1.3010   1.3296   1.3893   1.4366
     1.4510   1.5108   1.5550   1.5935   1.6188   1.7037   1.7093   1.7433
[...]
     0.6333   0.6210   0.6184   0.6145   0.6092   0.6047   0.5993   0.5261
     0.3494   0.3171   0.2032   0.0764   0.0446   0.0204   0.0049   0.0030
     0.0002   0.0001   0.0000   0.0000   0.0000   0.0000   0.0000   0.0000
     0.0000   0.0000   0.0000   0.0000   0.0000   0.0000   0.0000   0.0000
     0.0000   0.0000   0.0000   0.0000   0.0000   0.0000   0.0000   0.0000
     0.0000   0.0000

          k =-0.5000 0.0000 0.0000 ( 65180 PWs)   bands (ev):

   -92.8898 -92.8418 -92.7444 -92.6968 -92.6403 -92.5964 -92.5792 -92.4584
   -56.2434 -56.2284 -56.1010 -56.0902 -56.0841 -56.0771 -56.0458 -56.0131
   -55.9982 -55.9962 -55.9908 -55.9472 -55.9270 -55.8910 -55.8713 -55.8402
   -55.8324 -55.7843 -55.7835 -55.7813 -55.7729 -55.7336 -55.7092 -55.6243
   -31.4487 -31.4362 -31.2914 -31.2060 -31.1907 -31.0571 -30.9674 -30.8863
   -30.0314 -29.9919 -29.9648 -29.8583 -15.1991 -15.1449 -15.0832 -14.9709
   -14.8724 -14.7276 -14.5787 -14.4298 -14.3154 -14.2942 -14.2910 -14.2191
   -14.1716 -14.1410 -14.0893 -14.0755 -14.0635 -14.0171 -13.9876 -13.8848
   -13.7385 -13.6924 -13.6759 -13.6668 -13.5850 -13.5451 -13.4706 -13.4419
   -13.4179 -13.3961 -13.2299 -13.2178 -13.1986 -13.1856 -13.1577 -13.1223
   -13.1011 -13.0610 -12.9720 -12.9544 -12.9067 -12.8179 -12.8107 -12.8011
   -12.7881 -12.7746 -12.7177 -12.5971 -12.5031 -12.4633 -12.3381 -12.2922
   -11.9912 -11.9638 -11.9417 -11.9353 -11.9209 -11.9023 -11.8607 -11.7995
   -11.7816 -11.7481 -11.7043 -11.6952 -11.6797  -2.7666  -2.7284  -2.5659
    -2.5265  -2.2111  -2.1344  -1.9898  -1.8720  -1.8317  -1.7847  -1.7388
    -1.7153  -1.5907  -1.5472  -1.5292  -1.4483  -1.4133  -1.3943  -1.3666
    -1.3057  -1.2388  -1.2113  -1.1783  -1.0832  -1.0391  -0.9881  -0.9566
    -0.9360  -0.9010  -0.8566  -0.8314  -0.7926  -0.6862  -0.6218  -0.5440
    -0.4859  -0.3274  -0.2820  -0.2410  -0.1887  -0.1391  -0.1233   0.0188
     0.0499   0.0974   0.2545   0.3547   0.4032   0.5084   0.5623   0.6795
     0.6898   0.8232   0.8482   0.9033   0.9399   0.9763   0.9803   1.0304
     1.0506   1.1210   1.1691   1.2167   1.2275   1.5269   1.5384   1.5546
     1.5799   1.6760   1.6918   1.7055   1.7140   1.7451   1.7569   1.7938
     1.8159   1.8395   1.8922   1.9128   1.9618   1.9866   2.0401   2.1591
     2.2470   2.3175   2.3315   2.4140   2.4393   2.4679   2.5145   2.5441
     2.5509   2.5814   2.5839   2.6247   2.6450   2.6608   2.6971   2.7536
     2.7692   2.8145   2.8197   2.8243   2.8308   2.8483   2.8607   2.8715
     2.8806   2.8977   2.9002   2.9236   2.9422   2.9473   3.0762   3.0851
     3.8987   3.9539   4.0135   4.1426   4.6116   4.6918   4.8910   4.9166
     5.3707   5.4001   5.4811   5.5172   5.8543   5.8718   6.3973   6.5915
     6.7259   6.9453   7.1939   7.2542   7.6109   7.6258   7.6895   7.7867
     7.8292   7.9509   8.1279   8.1936   8.2266   8.3647   8.4804   8.5413
     8.6296   8.7685

     occupation numbers 
     1.0000   1.0000   1.0000   1.0000   1.0000   1.0000   1.0000   1.0000
     1.0000   1.0000   1.0000   1.0000   1.0000   1.0000   1.0000   1.0000
     1.0000   1.0000   1.0000   1.0000   1.0000   1.0000   1.0000   1.0000
     1.0000   1.0000   1.0000   1.0000   1.0000   1.0000   1.0000   1.0000
     1.0000   1.0000   1.0000   1.0000   1.0000   1.0000   1.0000   1.0000
     1.0000   1.0000   1.0000   1.0000   1.0000   1.0000   1.0000   1.0000
     1.0000   1.0000   1.0000   1.0000   1.0000   1.0000   1.0000   1.0000
     1.0000   1.0000   1.0000   1.0000   1.0000   1.0000   1.0000   1.0000
     1.0000   1.0000   1.0000   1.0000   1.0000   1.0000   1.0000   1.0000
     1.0000   1.0000   1.0000   1.0000   1.0000   1.0000   1.0000   1.0000
     1.0000   1.0000   1.0000   1.0000   1.0000   1.0000   1.0000   1.0000
     1.0000   1.0000   1.0000   1.0000   1.0000   1.0000   1.0000   1.0000
     1.0000   1.0000   1.0000   1.0000   1.0000   1.0000   1.0000   1.0000
     1.0000   1.0000   1.0000   1.0000   1.0000   1.0000   1.0000   1.0000
     1.0000   1.0000   1.0000   1.0000   1.0000   1.0000   1.0000   1.0000
     1.0000   1.0000   1.0000   1.0000   1.0000   1.0000   1.0000   1.0000
     1.0000   1.0000   1.0000   1.0000   1.0000   1.0000   1.0000   1.0000
     1.0000   1.0000   1.0000   1.0000   1.0000   1.0000   1.0000   1.0000
     1.0000   1.0000   1.0000   1.0000   1.0000   1.0000   1.0000   1.0000
     1.0000   1.0000   1.0000   1.0000   1.0000   1.0000   0.9999   0.9999
     0.9999   0.9997   0.9997   0.9995   0.9995   0.9993   0.9993   0.9991
     0.9990   0.9986   0.9983   0.9978   0.9977   0.9917   0.9913   0.9907
     0.9897   0.9851   0.9842   0.9834   0.9828   0.9808   0.9799   0.9771
     0.9753   0.9732   0.9679   0.9657   0.9598   0.9565   0.9486   0.9271
     0.9073   0.8887   0.8847   0.8591   0.8506   0.8405   0.8231   0.8114
     0.8087   0.7961   0.7950   0.7774   0.7683   0.7611   0.7441   0.7164
     0.7085   0.6850   0.6822   0.6798   0.6763   0.6669   0.6602   0.6543
     0.6493   0.6398   0.6385   0.6254   0.6148   0.6120   0.5371   0.5318
     0.1296   0.1131   0.0970   0.0681   0.0144   0.0106   0.0046   0.0041
     0.0005   0.0004   0.0003   0.0002   0.0000   0.0000   0.0000   0.0000
     0.0000   0.0000   0.0000   0.0000   0.0000   0.0000   0.0000   0.0000
     0.0000   0.0000   0.0000   0.0000   0.0000   0.0000   0.0000   0.0000
     0.0000   0.0000

          k =-0.2500 0.2500 0.0000 ( 65198 PWs)   bands (ev):

   -92.8898 -92.8418 -92.7444 -92.6968 -92.6403 -92.5964 -92.5792 -92.4584
   -56.2434 -56.2284 -56.1010 -56.0902 -56.0841 -56.0771 -56.0458 -56.0131
   -55.9982 -55.9962 -55.9908 -55.9472 -55.9270 -55.8910 -55.8713 -55.8402
   -55.8324 -55.7843 -55.7835 -55.7813 -55.7729 -55.7336 -55.7092 -55.6243
   -31.4505 -31.4340 -31.2920 -31.2057 -31.1906 -31.0575 -30.9669 -30.8866
   -30.0318 -29.9906 -29.9659 -29.8582 -15.2020 -15.1562 -15.0852 -14.9692
   -14.8509 -14.7256 -14.6454 -14.4300 -14.2964 -14.2671 -14.2503 -14.2052
   -14.1806 -14.1621 -14.1308 -14.0879 -14.0178 -14.0028 -13.8519 -13.8267
   -13.7948 -13.7768 -13.7088 -13.6791 -13.6130 -13.6008 -13.4610 -13.4142
   -13.3962 -13.3206 -13.2775 -13.2150 -13.1847 -13.1665 -13.1458 -13.1173
   -13.1033 -13.0068 -12.9701 -12.9483 -12.9408 -12.9096 -12.8719 -12.8676
   -12.8151 -12.7881 -12.6397 -12.6189 -12.5427 -12.4590 -12.2748 -12.2216
   -11.9914 -11.9832 -11.9622 -11.9354 -11.9232 -11.8814 -11.8479 -11.8239
   -11.8031 -11.7803 -11.6967 -11.6513 -11.6418  -2.8511  -2.6444  -2.5230
    -2.4324  -2.3168  -2.2508  -2.0440  -1.9028  -1.8846  -1.8509  -1.7616
    -1.7257  -1.6321  -1.5973  -1.5714  -1.4302  -1.3729  -1.3030  -1.2762
    -1.2148  -1.1954  -1.1555  -1.1270  -1.0866  -1.0220  -0.9748  -0.9054
    -0.8412  -0.8156  -0.7669  -0.7370  -0.6916  -0.6327  -0.5804  -0.5461
    -0.4399  -0.4140  -0.3959  -0.3560  -0.2923  -0.2169  -0.1759  -0.1338
    -0.0661  -0.0343   0.2079   0.3847   0.4173   0.4616   0.5206   0.5816
     0.6283   0.6954   0.7236   1.0054   1.1094   1.1489   1.1814   1.1919
     1.2301   1.2447   1.2923   1.3225   1.3347   1.3608   1.4110   1.4270
     1.4671   1.4925   1.5340   1.6217   1.6398   1.6593   1.6953   1.7241
     1.7630   1.8181   1.9236   2.0259   2.0503   2.0998   2.1217   2.1834
     2.2232   2.2493   2.2741   2.2961   2.4010   2.4357   2.5131   2.5839
     2.5962   2.6483   2.6989   2.7067   2.7204   2.7286   2.7399   2.7544
     2.7630   2.7805   2.7915   2.8018   2.8144   2.8236   2.8342   2.8414
     2.8767   2.8864   2.8916   2.9268   3.2173   3.2986   3.3713   3.4456
     3.4602   3.6699   3.7765   4.1255   4.3331   4.5530   4.8103   5.1261
     5.4958   5.5548   5.6146   5.6497   5.7172   6.1009   6.1339   6.1900
     6.8326   7.1308   7.2475   7.3905   7.4577   7.4829   7.5647   7.7641
     7.8532   8.0223   8.1978   8.2619   8.3226   8.3605   8.4602   8.4687
     8.5513   8.7530

     occupation numbers 
     1.0000   1.0000   1.0000   1.0000   1.0000   1.0000   1.0000   1.0000
     1.0000   1.0000   1.0000   1.0000   1.0000   1.0000   1.0000   1.0000
     1.0000   1.0000   1.0000   1.0000   1.0000   1.0000   1.0000   1.0000
     1.0000   1.0000   1.0000   1.0000   1.0000   1.0000   1.0000   1.0000
     1.0000   1.0000   1.0000   1.0000   1.0000   1.0000   1.0000   1.0000
     1.0000   1.0000   1.0000   1.0000   1.0000   1.0000   1.0000   1.0000
     1.0000   1.0000   1.0000   1.0000   1.0000   1.0000   1.0000   1.0000
     1.0000   1.0000   1.0000   1.0000   1.0000   1.0000   1.0000   1.0000
     1.0000   1.0000   1.0000   1.0000   1.0000   1.0000   1.0000   1.0000
     1.0000   1.0000   1.0000   1.0000   1.0000   1.0000   1.0000   1.0000
     1.0000   1.0000   1.0000   1.0000   1.0000   1.0000   1.0000   1.0000
     1.0000   1.0000   1.0000   1.0000   1.0000   1.0000   1.0000   1.0000
     1.0000   1.0000   1.0000   1.0000   1.0000   1.0000   1.0000   1.0000
     1.0000   1.0000   1.0000   1.0000   1.0000   1.0000   1.0000   1.0000
     1.0000   1.0000   1.0000   1.0000   1.0000   1.0000   1.0000   1.0000
     1.0000   1.0000   1.0000   1.0000   1.0000   1.0000   1.0000   1.0000
     1.0000   1.0000   1.0000   1.0000   1.0000   1.0000   1.0000   1.0000
     1.0000   1.0000   1.0000   1.0000   1.0000   1.0000   1.0000   1.0000
     1.0000   1.0000   1.0000   1.0000   1.0000   1.0000   1.0000   1.0000
     1.0000   1.0000   1.0000   1.0000   1.0000   1.0000   0.9999   0.9999
     0.9999   0.9999   0.9998   0.9992   0.9987   0.9984   0.9982   0.9981
     0.9977   0.9975   0.9969   0.9965   0.9963   0.9959   0.9949   0.9945
     0.9935   0.9928   0.9914   0.9879   0.9870   0.9860   0.9840   0.9822
     0.9795   0.9751   0.9644   0.9508   0.9470   0.9386   0.9345   0.9220
     0.9130   0.9067   0.9005   0.8946   0.8634   0.8518   0.8236   0.7951
     0.7898   0.7668   0.7432   0.7395   0.7328   0.7288   0.7232   0.7160
     0.7116   0.7027   0.6970   0.6917   0.6850   0.6802   0.6745   0.6706
     0.6515   0.6461   0.6432   0.6236   0.4536   0.4063   0.3650   0.3244
     0.3167   0.2152   0.1719   0.0715   0.0381   0.0179   0.0065   0.0016
     0.0002   0.0002   0.0001   0.0001   0.0001   0.0000   0.0000   0.0000
     0.0000   0.0000   0.0000   0.0000   0.0000   0.0000   0.0000   0.0000
     0.0000   0.0000   0.0000   0.0000   0.0000   0.0000   0.0000   0.0000
     0.0000   0.0000

          k =-0.5000 0.2500 0.0000 ( 65138 PWs)   bands (ev):

   -92.8898 -92.8418 -92.7444 -92.6968 -92.6403 -92.5964 -92.5792 -92.4584
   -56.2434 -56.2284 -56.1010 -56.0902 -56.0841 -56.0771 -56.0458 -56.0131
   -55.9982 -55.9962 -55.9908 -55.9472 -55.9270 -55.8910 -55.8713 -55.8402
   -55.8324 -55.7843 -55.7835 -55.7813 -55.7729 -55.7336 -55.7092 -55.6243
   -31.4485 -31.4361 -31.2917 -31.2061 -31.1905 -31.0573 -30.9670 -30.8868
   -30.0308 -29.9916 -29.9655 -29.8586 -15.1660 -15.1189 -15.0404 -14.9378
   -14.9004 -14.7746 -14.6816 -14.5485 -14.2476 -14.2152 -14.2019 -14.1587
   -14.1331 -14.1141 -14.0761 -14.0580 -14.0446 -14.0045 -13.9871 -13.8792
   -13.8190 -13.7705 -13.7621 -13.7296 -13.6474 -13.6283 -13.5056 -13.4580
   -13.3749 -13.3398 -13.2425 -13.2022 -13.1918 -13.1664 -13.1415 -13.1217
   -13.1137 -13.0187 -12.9765 -12.9306 -12.9194 -12.8364 -12.8251 -12.8033
   -12.7980 -12.7878 -12.7156 -12.5527 -12.4982 -12.4185 -12.3321 -12.3014
   -11.9912 -11.9567 -11.9439 -11.9294 -11.9174 -11.8958 -11.8655 -11.7859
   -11.7780 -11.7539 -11.7188 -11.6908 -11.6823  -2.6236  -2.5822  -2.4354
    -2.3930  -2.2307  -2.1528  -2.0139  -1.8778  -1.8195  -1.7931  -1.7547
    -1.7180  -1.6365  -1.5206  -1.4632  -1.4404  -1.4126  -1.3341  -1.3091
    -1.2685  -1.2532  -1.1923  -1.1606  -1.1236  -1.0886  -1.0597  -1.0007
    -0.9734  -0.9323  -0.8958  -0.7901  -0.7656  -0.6680  -0.6148  -0.5804
    -0.5177  -0.4418  -0.4080  -0.3060  -0.2671  -0.2048  -0.1577  -0.1167
    -0.0621  -0.0306   0.0041   0.0478   0.0872   0.4204   0.4691   0.5343
     0.5593   0.8369   0.9022   0.9707   1.0001   1.1710   1.2052   1.2433
     1.2539   1.2720   1.2893   1.3595   1.4062   1.4469   1.4832   1.5977
     1.6422   1.6668   1.6799   1.7141   1.7396   1.7575   1.7709   1.7865
     1.8097   1.8554   1.8684   1.9066   1.9304   1.9641   2.0182   2.1455
     2.2358   2.2641   2.3300   2.3660   2.4312   2.4640   2.4714   2.5048
     2.5427   2.5621   2.5817   2.5972   2.6448   2.6600   2.6986   2.7078
     2.7139   2.7355   2.7559   2.7674   2.7846   2.7957   2.8202   2.8327
     2.8416   2.8538   2.8586   2.8728   3.4070   3.4410   3.5910   3.6086
     3.9055   3.9667   4.0237   4.2244   4.6041   4.7043   4.8816   4.9316
     5.2361   5.2596   5.4836   5.5787   5.6054   5.6487   6.3247   6.4540
     6.4880   6.6944   7.4009   7.5969   7.6665   7.7136   7.7352   7.7855
     7.8537   7.9544   8.1676   8.4038   8.4134   8.4473   8.4993   8.5575
     8.6856   8.8139

     occupation numbers 
     1.0000   1.0000   1.0000   1.0000   1.0000   1.0000   1.0000   1.0000
     1.0000   1.0000   1.0000   1.0000   1.0000   1.0000   1.0000   1.0000
     1.0000   1.0000   1.0000   1.0000   1.0000   1.0000   1.0000   1.0000
     1.0000   1.0000   1.0000   1.0000   1.0000   1.0000   1.0000   1.0000
     1.0000   1.0000   1.0000   1.0000   1.0000   1.0000   1.0000   1.0000
     1.0000   1.0000   1.0000   1.0000   1.0000   1.0000   1.0000   1.0000
     1.0000   1.0000   1.0000   1.0000   1.0000   1.0000   1.0000   1.0000
     1.0000   1.0000   1.0000   1.0000   1.0000   1.0000   1.0000   1.0000
     1.0000   1.0000   1.0000   1.0000   1.0000   1.0000   1.0000   1.0000
     1.0000   1.0000   1.0000   1.0000   1.0000   1.0000   1.0000   1.0000
     1.0000   1.0000   1.0000   1.0000   1.0000   1.0000   1.0000   1.0000
     1.0000   1.0000   1.0000   1.0000   1.0000   1.0000   1.0000   1.0000
     1.0000   1.0000   1.0000   1.0000   1.0000   1.0000   1.0000   1.0000
     1.0000   1.0000   1.0000   1.0000   1.0000   1.0000   1.0000   1.0000
     1.0000   1.0000   1.0000   1.0000   1.0000   1.0000   1.0000   1.0000
     1.0000   1.0000   1.0000   1.0000   1.0000   1.0000   1.0000   1.0000
     1.0000   1.0000   1.0000   1.0000   1.0000   1.0000   1.0000   1.0000
     1.0000   1.0000   1.0000   1.0000   1.0000   1.0000   1.0000   1.0000
     1.0000   1.0000   1.0000   1.0000   1.0000   1.0000   1.0000   1.0000
     1.0000   1.0000   1.0000   1.0000   1.0000   1.0000   1.0000   0.9999
     0.9999   0.9997   0.9996   0.9994   0.9993   0.9983   0.9980   0.9976
     0.9974   0.9972   0.9970   0.9959   0.9950   0.9940   0.9930   0.9889
     0.9869   0.9856   0.9849   0.9828   0.9811   0.9799   0.9789   0.9777
     0.9758   0.9717   0.9704   0.9664   0.9636   0.9595   0.9519   0.9299
     0.9100   0.9030   0.8851   0.8744   0.8533   0.8419   0.8392   0.8268
     0.8120   0.8041   0.7960   0.7894   0.7684   0.7615   0.7434   0.7389
     0.7360   0.7254   0.7152   0.7094   0.7006   0.6948   0.6819   0.6753
     0.6705   0.6640   0.6613   0.6536   0.3452   0.3269   0.2510   0.2427
     0.1275   0.1095   0.0944   0.0535   0.0148   0.0101   0.0048   0.0039
     0.0009   0.0008   0.0002   0.0001   0.0001   0.0001   0.0000   0.0000
     0.0000   0.0000   0.0000   0.0000   0.0000   0.0000   0.0000   0.0000
     0.0000   0.0000   0.0000   0.0000   0.0000   0.0000   0.0000   0.0000
     0.0000   0.0000

     the Fermi energy is     3.1389 ev

!    total energy              =   -4440.30599388 Ry
     estimated scf accuracy    <          6.6E-09 Ry
     smearing contrib. (-TS)   =      -1.20817010 Ry
     internal energy E=F+TS    =   -4439.09782379 Ry

     The total energy is F=E-TS. E is the sum of the following terms:
     one-electron contribution =  -20888.45477925 Ry
     hartree contribution      =   10573.13330833 Ry
     xc contribution           =    -693.24683548 Ry
     ewald contribution        =    6845.66150337 Ry
     one-center paw contrib.   =    -276.19102076 Ry
      -> PAW hartree energy AE =      25.16009697 Ry
      -> PAW hartree energy PS =     -25.04400569 Ry
      -> PAW xc energy AE      =     -16.51714408 Ry
      -> PAW xc energy PS      =       6.87657208 Ry
      -> total E_H with PAW    =   10573.24939962 Ry
      -> total E_XC with PAW   =    -702.88740748 Ry

     convergence has been achieved in  47 iterations

     Writing all to output data dir /bsuhome/zayahcortright/scratch/pwscf.save/
 
     init_run     :      7.61s CPU      8.39s WALL (       1 calls)
     electrons    :    681.14s CPU    713.63s WALL (       1 calls)

     Called by init_run:
     wfcinit      :      6.10s CPU      6.34s WALL (       1 calls)
     wfcinit:atom :      0.05s CPU      0.07s WALL (       5 calls)
     wfcinit:wfcr :      5.77s CPU      5.91s WALL (       5 calls)
     potinit      :      0.16s CPU      0.18s WALL (       1 calls)
     hinit0       :      0.50s CPU      0.72s WALL (       1 calls)

     Called by electrons:
     c_bands      :    541.78s CPU    548.46s WALL (      47 calls)
     sum_band     :    104.63s CPU    118.86s WALL (      47 calls)
     v_of_rho     :      5.11s CPU      5.47s WALL (      48 calls)
     v_h          :      0.45s CPU      0.46s WALL (      48 calls)
     v_xc         :      4.65s CPU      5.01s WALL (      48 calls)
     newd         :     15.60s CPU     26.45s WALL (      48 calls)
     PAW_pot      :      1.54s CPU      1.57s WALL (      48 calls)
     mix_rho      :     12.09s CPU     12.49s WALL (      47 calls)

     Called by c_bands:
     init_us_2    :      6.78s CPU      6.86s WALL (     475 calls)
     init_us_2:cp :      6.78s CPU      6.86s WALL (     475 calls)
     cegterg      :    506.44s CPU    512.86s WALL (     235 calls)

     Called by sum_band:
     sum_band:wei :      0.34s CPU      0.34s WALL (      47 calls)
     sum_band:loo :     87.53s CPU     88.26s WALL (      47 calls)
     sum_band:buf :      1.43s CPU      1.52s WALL (     235 calls)
     sum_band:ini :      3.20s CPU      3.22s WALL (     235 calls)
     sum_band:cal :     18.33s CPU     18.40s WALL (     235 calls)
     sum_band:bec :      0.51s CPU      0.51s WALL (     235 calls)
     addusdens    :     15.00s CPU     28.43s WALL (      47 calls)
                                        0.00s GPU  (      47 calls)
     addusd:skk   :      0.29s CPU      0.94s WALL (     141 calls)
                                        0.00s GPU  (     141 calls)

     Called by *egterg:
     cdiaghg      :     50.55s CPU     50.77s WALL (    1283 calls)
     cegterg:over :     37.26s CPU     37.48s WALL (    1048 calls)
     cegterg:upda :     27.35s CPU     27.83s WALL (    1048 calls)
     cegterg:last :     55.24s CPU     55.49s WALL (     422 calls)
     cdiaghg:chol :      3.00s CPU      3.02s WALL (    1283 calls)
     cdiaghg:inve :      2.64s CPU      2.65s WALL (    1283 calls)
     cdiaghg:para :      6.12s CPU      6.16s WALL (    2566 calls)
     h_psi        :    282.28s CPU    285.30s WALL (    1288 calls)
     s_psi        :     38.93s CPU     39.06s WALL (    1288 calls)
     g_psi        :      1.03s CPU      1.03s WALL (    1048 calls)

     Called by h_psi:
     h_psi:calbec :     42.47s CPU     42.68s WALL (    1288 calls)
     vloc_psi     :    198.34s CPU    200.29s WALL (    1288 calls)
     add_vuspsi   :     38.61s CPU     38.79s WALL (    1288 calls)

     General routines
     calbec       :     60.79s CPU     61.08s WALL (    1523 calls)
     fft          :      3.63s CPU      3.67s WALL (     622 calls)
     ffts         :      4.36s CPU      4.41s WALL (    5005 calls)
     fftw         :    168.20s CPU    169.60s WALL (  317632 calls)
     interpolate  :      0.40s CPU      0.41s WALL (      48 calls)
 
     Parallel routines

     PAW routines
     PAW_pot      :      1.54s CPU      1.57s WALL (      48 calls)
 
     PWSCF        :  11m30.66s CPU  12m 6.92s WALL

 
   This run was terminated on:  15:34:24  21Jun2024            

=------------------------------------------------------------------------------=
   JOB DONE.
=------------------------------------------------------------------------------=
