
     Program PWSCF v.7.2 starts on 21Jun2024 at 18:22: 8 

     This program is part of the open-source Quantum ESPRESSO suite
     for quantum simulation of materials; please cite
         "P. Giannozzi et al., J. Phys.:Condens. Matter 21 395502 (2009);
         "P. Giannozzi et al., J. Phys.:Condens. Matter 29 465901 (2017);
         "P. Giannozzi et al., J. Chem. Phys. 152 154105 (2020);
          URL http://www.quantum-espresso.org", 
     in publications or presentations arising from this work. More details at
     http://www.quantum-espresso.org/quote

     Parallel version (MPI & OpenMP), running on      48 processor cores
     Number of MPI processes:                48
     Threads/MPI process:                     1

     MPI processes distributed on     1 nodes
     33229 MiB available memory on the printing compute node when the environment starts
 
     Reading input from espresso.pwi
Warning: card &CELL ignored
Warning: card / ignored
Warning: card &FCP ignored
Warning: card / ignored
Warning: card &RISM ignored
Warning: card / ignored

     Current dimensions of program PWSCF are:
     Max number of different atomic species (ntypx) = 10
     Max number of k-points (npk) =  40000
     Max angular momentum in pseudopotentials (lmaxx) =  4
     file O.pbe-n-kjpaw_psl.0.1.UPF: wavefunction(s)  2P renormalized
     signal trapping enabled: kill the code with -SIGUSR1 to stop cleanly the simulation 
 
     K-points division:     npool     =       2
     R & G space division:  proc/nbgrp/npool/nimage =      24
     Subspace diagonalization in iterative solution of the eigenvalue problem:
     one sub-group per band group will be used
     scalapack distributed-memory algorithm (size of sub-group:  3*  3 procs)

 
     Parallelization info
     --------------------
     sticks:   dense  smooth     PW     G-vecs:    dense   smooth      PW
     Min         350     175     47                61430    21716    3036
     Max         351     177     48                61449    21727    3041
     Sum        8421    4205   1137              1474595   521381   72913
 
     Using Slab Decomposition
 


     bravais-lattice index     =            0
     lattice parameter (alat)  =      14.8599  a.u.
     unit-cell volume          =    8305.1283 (a.u.)^3
     number of atoms/cell      =           50
     number of atomic types    =            4
     number of electrons       =       431.00
     number of Kohn-Sham states=          259
     kinetic-energy cutoff     =      60.0000  Ry
     charge density cutoff     =     480.0000  Ry
     scf convergence threshold =      1.0E-08
     mixing beta               =       0.1500
     number of iterations used =            8  local-TF  mixing
     Exchange-correlation= PBE
                           (   1   4   3   4   0   0   0)

     celldm(1)=  14.859904  celldm(2)=   0.000000  celldm(3)=   0.000000
     celldm(4)=   0.000000  celldm(5)=   0.000000  celldm(6)=   0.000000

     crystal axes: (cart. coord. in units of alat)
               a(1) = (   1.000000   0.000000   0.000000 )  
               a(2) = (   0.000000   1.000000   0.000000 )  
               a(3) = (   0.000000   0.000000   2.531036 )  

     reciprocal axes: (cart. coord. in units 2 pi/alat)
               b(1) = (  1.000000  0.000000  0.000000 )  
               b(2) = (  0.000000  1.000000  0.000000 )  
               b(3) = (  0.000000  0.000000  0.395095 )  


     PseudoPot. # 1 for Sr read from file:
     /bsuhome/zayahcortright/q-e/pseudo/Sr_pbe_v1.uspp.F.UPF
     MD5 check sum: 6b418c05fbe9db5448babca5e47b7a5b
     Pseudo is Ultrasoft + core correction, Zval = 10.0
     Generated by new atomic code, or converted to UPF format
     Using radial grid of  883 points,  6 beta functions with: 
                l(1) =   0
                l(2) =   0
                l(3) =   1
                l(4) =   1
                l(5) =   2
                l(6) =   2
     Q(r) pseudized with  6 coefficients,  rinner =    1.400   1.400   1.400
                                                       1.400   1.400

     PseudoPot. # 2 for O  read from file:
     /bsuhome/zayahcortright/q-e/pseudo/O.pbe-n-kjpaw_psl.0.1.UPF
     MD5 check sum: 0234752ac141de4415c5fc33072bef88
     Pseudo is Projector augmented-wave + core cor, Zval =  6.0
     Generated using "atomic" code by A. Dal Corso  v.5.0.99 svn rev. 10869
     Shape of augmentation charge: BESSEL
     Using radial grid of 1095 points,  4 beta functions with: 
                l(1) =   0
                l(2) =   0
                l(3) =   1
                l(4) =   1
     Q(r) pseudized with 0 coefficients 


     PseudoPot. # 3 for Co read from file:
     /bsuhome/zayahcortright/q-e/pseudo/Co_pbe_v1.2.uspp.F.UPF
     MD5 check sum: 5f91765df6ddd3222702df6e7b74a16d
     Pseudo is Ultrasoft + core correction, Zval = 17.0
     Generated by new atomic code, or converted to UPF format
     Using radial grid of  863 points,  6 beta functions with: 
                l(1) =   0
                l(2) =   0
                l(3) =   1
                l(4) =   1
                l(5) =   2
                l(6) =   2
     Q(r) pseudized with  8 coefficients,  rinner =    1.200   1.200   1.200
                                                       1.200   1.200

     PseudoPot. # 4 for H  read from file:
     /bsuhome/zayahcortright/q-e/pseudo/H.pbe-rrkjus_psl.1.0.0.UPF
     MD5 check sum: f52b6d4d1c606e5624b1dc7b2218f220
     Pseudo is Ultrasoft, Zval =  1.0
     Generated using "atomic" code by A. Dal Corso  v.5.1
     Using radial grid of  929 points,  2 beta functions with: 
                l(1) =   0
                l(2) =   0
     Q(r) pseudized with 0 coefficients 


     atomic species   valence    mass     pseudopotential
        Sr            10.00    87.62000     Sr( 1.00)
        O              6.00    15.99900     O ( 1.00)
        Co            17.00    58.93319     Co( 1.00)
        H              1.00     1.00800     H ( 1.00)

     No symmetry found


                                    s                        frac. trans.

      isym =  1     identity                                     

 cryst.   s( 1) = (     1          0          0      )
                  (     0          1          0      )
                  (     0          0          1      )

 cart.    s( 1) = (  1.0000000  0.0000000  0.0000000 )
                  (  0.0000000  1.0000000  0.0000000 )
                  (  0.0000000  0.0000000  1.0000000 )


   Cartesian axes

     site n.     atom                  positions (alat units)
         1           Sr  tau(   1) = (   0.2508693   0.7491307   1.7574407  )
         2           O   tau(   2) = (   0.4985141   0.5014859   1.7715967  )
         3           Sr  tau(   3) = (   0.7482398   0.7454518   1.7648669  )
         4           Sr  tau(   4) = (   0.7441748   0.2558252   1.7667843  )
         5           Sr  tau(   5) = (   0.2508693   0.7491307   1.2696799  )
         6           Sr  tau(   6) = (   0.2508693   0.7491307   0.7632319  )
         7           Co  tau(   7) = (   0.4998914   0.5001086   1.0164559  )
         8           Co  tau(   8) = (   0.4936915   0.5063085   1.5135603  )
         9           O   tau(   9) = (   0.4988895   0.7610401   1.0164559  )
        10           O   tau(  10) = (   0.2389599   0.5011105   1.0164559  )
        11           O   tau(  11) = (   0.0070918   0.7374880   1.0164559  )
        12           O   tau(  12) = (   0.0088340   0.7405089   1.5135603  )
        13           O   tau(  13) = (   0.5066944   0.7415376   1.5135603  )
        14           O   tau(  14) = (   0.2584624   0.4933056   1.5135603  )
        15           O   tau(  15) = (   0.4985141   0.5014859   0.7773880  )
        16           O   tau(  16) = (   0.4985141   0.5014859   1.2555238  )
        17           Sr  tau(  17) = (   0.7482398   0.7454518   0.7706582  )
        18           Sr  tau(  18) = (   0.7482398   0.7454518   1.2622536  )
        19           Sr  tau(  19) = (   0.7441748   0.2558252   0.7725755  )
        20           Sr  tau(  20) = (   0.7441748   0.2558252   1.2603363  )
        21           O   tau(  21) = (   0.7322655   0.0078049   1.5135603  )
        22           O   tau(  22) = (   0.7558175   0.4996027   1.5135603  )
        23           O   tau(  23) = (   0.5003973   0.2441825   1.5135603  )
        24           O   tau(  24) = (   0.7527966   0.4978604   1.0164559  )
        25           O   tau(  25) = (   0.5021396   0.2472034   1.0164559  )
        26           O   tau(  26) = (   0.7517679   0.0000000   1.0164559  )
        27           O   tau(  27) = (   0.0114961   0.4948124   1.7455321  )
        28           O   tau(  28) = (   0.0048226   0.0077944   1.7715967  )
        29           Sr  tau(  29) = (   0.2545482   0.2517602   1.7648669  )
        30           O   tau(  30) = (   0.5048017   0.0015068   1.7786929  )
        31           Co  tau(  31) = (   0.0056869   0.5006215   1.0164559  )
        32           Co  tau(  32) = (   0.0065315   0.4997770   1.5135603  )
        33           Co  tau(  33) = (   0.0061999   0.0064171   1.0164559  )
        34           Co  tau(  34) = (   0.0000000   0.0126169   1.5135603  )
        35           O   tau(  35) = (   0.0114961   0.4948124   1.2815885  )
        36           O   tau(  36) = (   0.0114961   0.4948124   0.7513233  )
        37           O   tau(  37) = (   0.0051979   0.2673486   1.0164559  )
        38           O   tau(  38) = (   0.0130029   0.2478461   1.5135603  )
        39           O   tau(  39) = (   0.0048226   0.0077944   0.7773880  )
        40           O   tau(  40) = (   0.0048226   0.0077944   1.2555238  )
        41           Sr  tau(  41) = (   0.2545482   0.2517602   0.7706582  )
        42           Sr  tau(  42) = (   0.2545482   0.2517602   1.2622536  )
        43           Co  tau(  43) = (   0.4989925   0.0073160   1.5135603  )
        44           Co  tau(  44) = (   0.4998370   0.0064714   1.0164559  )
        45           O   tau(  45) = (   0.5048017   0.0015068   0.7844841  )
        46           O   tau(  46) = (   0.5048017   0.0015068   1.2484277  )
        47           O   tau(  47) = (   0.2621260   0.0059111   1.5135603  )
        48           O   tau(  48) = (   0.2591051   0.0041689   1.0164559  )
        49           O   tau(  49) = (   0.2843291   0.1421646   2.1602013  )
        50           H   tau(  50) = (   0.2843291   0.1421646   2.2847091  )

   Crystallographic axes

     site n.     atom                  positions (cryst. coord.)
         1           Sr  tau(   1) = (  0.2508693  0.7491307  0.6943562  )
         2           O   tau(   2) = (  0.4985141  0.5014859  0.6999492  )
         3           Sr  tau(   3) = (  0.7482398  0.7454518  0.6972903  )
         4           Sr  tau(   4) = (  0.7441748  0.2558252  0.6980478  )
         5           Sr  tau(   5) = (  0.2508693  0.7491307  0.5016443  )
         6           Sr  tau(   6) = (  0.2508693  0.7491307  0.3015492  )
         7           Co  tau(   7) = (  0.4998914  0.5001086  0.4015968  )
         8           Co  tau(   8) = (  0.4936915  0.5063085  0.5980003  )
         9           O   tau(   9) = (  0.4988895  0.7610401  0.4015968  )
        10           O   tau(  10) = (  0.2389599  0.5011105  0.4015968  )
        11           O   tau(  11) = (  0.0070918  0.7374880  0.4015968  )
        12           O   tau(  12) = (  0.0088340  0.7405089  0.5980003  )
        13           O   tau(  13) = (  0.5066944  0.7415376  0.5980003  )
        14           O   tau(  14) = (  0.2584624  0.4933056  0.5980003  )
        15           O   tau(  15) = (  0.4985141  0.5014859  0.3071422  )
        16           O   tau(  16) = (  0.4985141  0.5014859  0.4960513  )
        17           Sr  tau(  17) = (  0.7482398  0.7454518  0.3044833  )
        18           Sr  tau(  18) = (  0.7482398  0.7454518  0.4987103  )
        19           Sr  tau(  19) = (  0.7441748  0.2558252  0.3052408  )
        20           Sr  tau(  20) = (  0.7441748  0.2558252  0.4979527  )
        21           O   tau(  21) = (  0.7322655  0.0078049  0.5980003  )
        22           O   tau(  22) = (  0.7558175  0.4996027  0.5980003  )
        23           O   tau(  23) = (  0.5003973  0.2441825  0.5980003  )
        24           O   tau(  24) = (  0.7527966  0.4978604  0.4015968  )
        25           O   tau(  25) = (  0.5021396  0.2472034  0.4015968  )
        26           O   tau(  26) = (  0.7517679  0.0000000  0.4015968  )
        27           O   tau(  27) = (  0.0114961  0.4948124  0.6896512  )
        28           O   tau(  28) = (  0.0048226  0.0077944  0.6999492  )
        29           Sr  tau(  29) = (  0.2545482  0.2517602  0.6972903  )
        30           O   tau(  30) = (  0.5048017  0.0015068  0.7027529  )
        31           Co  tau(  31) = (  0.0056869  0.5006215  0.4015968  )
        32           Co  tau(  32) = (  0.0065315  0.4997770  0.5980003  )
        33           Co  tau(  33) = (  0.0061999  0.0064171  0.4015968  )
        34           Co  tau(  34) = (  0.0000000  0.0126169  0.5980003  )
        35           O   tau(  35) = (  0.0114961  0.4948124  0.5063494  )
        36           O   tau(  36) = (  0.0114961  0.4948124  0.2968442  )
        37           O   tau(  37) = (  0.0051979  0.2673486  0.4015968  )
        38           O   tau(  38) = (  0.0130029  0.2478461  0.5980003  )
        39           O   tau(  39) = (  0.0048226  0.0077944  0.3071422  )
        40           O   tau(  40) = (  0.0048226  0.0077944  0.4960513  )
        41           Sr  tau(  41) = (  0.2545482  0.2517602  0.3044833  )
        42           Sr  tau(  42) = (  0.2545482  0.2517602  0.4987103  )
        43           Co  tau(  43) = (  0.4989925  0.0073160  0.5980003  )
        44           Co  tau(  44) = (  0.4998370  0.0064714  0.4015968  )
        45           O   tau(  45) = (  0.5048017  0.0015068  0.3099459  )
        46           O   tau(  46) = (  0.5048017  0.0015068  0.4932477  )
        47           O   tau(  47) = (  0.2621260  0.0059111  0.5980003  )
        48           O   tau(  48) = (  0.2591051  0.0041689  0.4015968  )
        49           O   tau(  49) = (  0.2843291  0.1421646  0.8534850  )
        50           H   tau(  50) = (  0.2843291  0.1421646  0.9026774  )

     number of k points=    10  Gaussian smearing, width (Ry)=  0.0700
                       cart. coord. in units 2pi/alat
        k(    1) = (   0.0000000   0.0000000   0.0000000), wk =   0.1250000
        k(    2) = (   0.0000000   0.2500000   0.0000000), wk =   0.2500000
        k(    3) = (   0.0000000  -0.5000000   0.0000000), wk =   0.1250000
        k(    4) = (   0.2500000   0.2500000   0.0000000), wk =   0.2500000
        k(    5) = (   0.2500000  -0.5000000   0.0000000), wk =   0.2500000
        k(    6) = (  -0.5000000  -0.5000000   0.0000000), wk =   0.1250000
        k(    7) = (   0.2500000   0.0000000   0.0000000), wk =   0.2500000
        k(    8) = (  -0.5000000   0.0000000   0.0000000), wk =   0.1250000
        k(    9) = (  -0.2500000   0.2500000   0.0000000), wk =   0.2500000
        k(   10) = (  -0.5000000   0.2500000   0.0000000), wk =   0.2500000

                       cryst. coord.
        k(    1) = (   0.0000000   0.0000000   0.0000000), wk =   0.1250000
        k(    2) = (   0.0000000   0.2500000   0.0000000), wk =   0.2500000
        k(    3) = (   0.0000000  -0.5000000   0.0000000), wk =   0.1250000
        k(    4) = (   0.2500000   0.2500000   0.0000000), wk =   0.2500000
        k(    5) = (   0.2500000  -0.5000000   0.0000000), wk =   0.2500000
        k(    6) = (  -0.5000000  -0.5000000   0.0000000), wk =   0.1250000
        k(    7) = (   0.2500000   0.0000000   0.0000000), wk =   0.2500000
        k(    8) = (  -0.5000000   0.0000000   0.0000000), wk =   0.1250000
        k(    9) = (  -0.2500000   0.2500000   0.0000000), wk =   0.2500000
        k(   10) = (  -0.5000000   0.2500000   0.0000000), wk =   0.2500000

     Dense  grid:  1474595 G-vectors     FFT dimensions: ( 108, 108, 270)

     Smooth grid:   521381 G-vectors     FFT dimensions: (  75,  75, 192)

     Dynamical RAM for                 wfc:      10.73 MB

     Dynamical RAM for     wfc (w. buffer):      64.38 MB

     Dynamical RAM for           str. fact:       3.75 MB

     Dynamical RAM for           local pot:       0.00 MB

     Dynamical RAM for          nlocal pot:      24.61 MB

     Dynamical RAM for                qrad:       7.03 MB

     Dynamical RAM for          rho,v,vnew:       6.02 MB

     Dynamical RAM for               rhoin:       2.01 MB

     Dynamical RAM for            rho*nmix:      15.00 MB

     Dynamical RAM for           G-vectors:       3.68 MB

     Dynamical RAM for          h,s,v(r/c):       1.35 MB

     Dynamical RAM for          <psi|beta>:       2.35 MB

     Dynamical RAM for                 psi:      21.46 MB

     Dynamical RAM for                hpsi:      21.46 MB

     Dynamical RAM for                spsi:      21.46 MB

     Dynamical RAM for      wfcinit/wfcrot:      34.49 MB

     Dynamical RAM for           addusdens:     101.26 MB

     Estimated static dynamical RAM per process >     121.50 MB

     Estimated max dynamical RAM per process >     237.76 MB

     Estimated total dynamical RAM >      10.79 GB

     Check: negative core charge=   -0.000004

     Initial potential from superposition of free atoms

     starting charge     422.5961, renormalised to     431.0000

     negative rho (up, down):  7.819E-01 0.000E+00
     Starting wfcs are  377 randomized atomic wfcs
     Checking if some PAW data can be deallocated... 
       PAW data deallocated on   19 nodes for type:  2

     total cpu time spent up to now is        9.1 secs

     Self-consistent Calculation

     iteration #  1     ecut=    60.00 Ry     beta= 0.15
     Davidson diagonalization with overlap

---- Real-time Memory Report at c_bands before calling an iterative solver
             0 MiB given to the printing process from OS
             0 MiB allocation reported by mallinfo(arena+hblkhd)
         24012 MiB available memory on the node where the printing process lives
------------------
     ethr =  1.00E-02,  avg # of iterations =  2.0

     negative rho (up, down):  7.714E-01 0.000E+00

     total cpu time spent up to now is       25.6 secs

     total energy              =   -4446.57062590 Ry
     estimated scf accuracy    <      44.50881755 Ry

     iteration #  2     ecut=    60.00 Ry     beta= 0.15
     Davidson diagonalization with overlap

---- Real-time Memory Report at c_bands before calling an iterative solver
             0 MiB given to the printing process from OS
             0 MiB allocation reported by mallinfo(arena+hblkhd)
         24258 MiB available memory on the node where the printing process lives
------------------
     ethr =  1.00E-02,  avg # of iterations =  1.0

     negative rho (up, down):  7.584E-01 0.000E+00

     total cpu time spent up to now is       39.9 secs

     total energy              =   -4443.35936041 Ry
     estimated scf accuracy    <      29.49625453 Ry

     iteration #  3     ecut=    60.00 Ry     beta= 0.15
     Davidson diagonalization with overlap

---- Real-time Memory Report at c_bands before calling an iterative solver
             0 MiB given to the printing process from OS
             0 MiB allocation reported by mallinfo(arena+hblkhd)
         23428 MiB available memory on the node where the printing process lives
------------------
     ethr =  6.84E-03,  avg # of iterations =  1.0

     negative rho (up, down):  7.556E-01 0.000E+00

     total cpu time spent up to now is       54.6 secs

     total energy              =   -4444.26707263 Ry
     estimated scf accuracy    <      27.79738216 Ry

     iteration #  4     ecut=    60.00 Ry     beta= 0.15
     Davidson diagonalization with overlap

---- Real-time Memory Report at c_bands before calling an iterative solver
             0 MiB given to the printing process from OS
             0 MiB allocation reported by mallinfo(arena+hblkhd)
         23406 MiB available memory on the node where the printing process lives
------------------
     ethr =  6.45E-03,  avg # of iterations =  1.0

     negative rho (up, down):  7.498E-01 0.000E+00

     total cpu time spent up to now is       69.3 secs

     total energy              =   -4443.07990537 Ry
     estimated scf accuracy    <      20.15294325 Ry

     iteration #  5     ecut=    60.00 Ry     beta= 0.15
     Davidson diagonalization with overlap

---- Real-time Memory Report at c_bands before calling an iterative solver
             0 MiB given to the printing process from OS
             0 MiB allocation reported by mallinfo(arena+hblkhd)
         23381 MiB available memory on the node where the printing process lives
------------------
     ethr =  4.68E-03,  avg # of iterations =  1.0

     negative rho (up, down):  7.402E-01 0.000E+00

     total cpu time spent up to now is       84.1 secs

     total energy              =   -4442.52673586 Ry
     estimated scf accuracy    <      11.13366302 Ry

     iteration #  6     ecut=    60.00 Ry     beta= 0.15
     Davidson diagonalization with overlap

---- Real-time Memory Report at c_bands before calling an iterative solver
             0 MiB given to the printing process from OS
             0 MiB allocation reported by mallinfo(arena+hblkhd)
         23363 MiB available memory on the node where the printing process lives
------------------
     ethr =  2.58E-03,  avg # of iterations =  1.1

     negative rho (up, down):  7.431E-01 0.000E+00

     total cpu time spent up to now is       98.7 secs

     total energy              =   -4442.81351894 Ry
     estimated scf accuracy    <       4.91292497 Ry

     iteration #  7     ecut=    60.00 Ry     beta= 0.15
     Davidson diagonalization with overlap

---- Real-time Memory Report at c_bands before calling an iterative solver
             0 MiB given to the printing process from OS
             0 MiB allocation reported by mallinfo(arena+hblkhd)
         23345 MiB available memory on the node where the printing process lives
------------------
     ethr =  1.14E-03,  avg # of iterations =  1.7

     negative rho (up, down):  7.649E-01 0.000E+00

     total cpu time spent up to now is      113.6 secs

     total energy              =   -4441.60895490 Ry
     estimated scf accuracy    <       3.91159286 Ry

     iteration #  8     ecut=    60.00 Ry     beta= 0.15
     Davidson diagonalization with overlap

---- Real-time Memory Report at c_bands before calling an iterative solver
             0 MiB given to the printing process from OS
             0 MiB allocation reported by mallinfo(arena+hblkhd)
         23323 MiB available memory on the node where the printing process lives
------------------
     ethr =  9.08E-04,  avg # of iterations =  5.5

     negative rho (up, down):  7.728E-01 0.000E+00

     total cpu time spent up to now is      133.4 secs

     total energy              =   -4441.37504831 Ry
     estimated scf accuracy    <      17.90927903 Ry

     iteration #  9     ecut=    60.00 Ry     beta= 0.15
     Davidson diagonalization with overlap

---- Real-time Memory Report at c_bands before calling an iterative solver
             0 MiB given to the printing process from OS
             0 MiB allocation reported by mallinfo(arena+hblkhd)
         23094 MiB available memory on the node where the printing process lives
------------------
     ethr =  9.08E-04,  avg # of iterations =  9.8

     negative rho (up, down):  7.704E-01 0.000E+00

     total cpu time spent up to now is      154.8 secs

     total energy              =   -4441.75542121 Ry
     estimated scf accuracy    <       2.94764111 Ry

     iteration # 10     ecut=    60.00 Ry     beta= 0.15
     Davidson diagonalization with overlap

---- Real-time Memory Report at c_bands before calling an iterative solver
             0 MiB given to the printing process from OS
             0 MiB allocation reported by mallinfo(arena+hblkhd)
         22857 MiB available memory on the node where the printing process lives
------------------
     ethr =  6.84E-04,  avg # of iterations =  1.3

     negative rho (up, down):  7.770E-01 0.000E+00

     total cpu time spent up to now is      170.2 secs

     total energy              =   -4441.91164090 Ry
     estimated scf accuracy    <       1.30597416 Ry

     iteration # 11     ecut=    60.00 Ry     beta= 0.15
     Davidson diagonalization with overlap

---- Real-time Memory Report at c_bands before calling an iterative solver
             0 MiB given to the printing process from OS
             0 MiB allocation reported by mallinfo(arena+hblkhd)
         22836 MiB available memory on the node where the printing process lives
------------------
     ethr =  3.03E-04,  avg # of iterations =  4.3

     negative rho (up, down):  8.043E-01 0.000E+00

     total cpu time spent up to now is      188.3 secs

     total energy              =   -4441.74390196 Ry
     estimated scf accuracy    <       1.34083681 Ry

     iteration # 12     ecut=    60.00 Ry     beta= 0.15
     Davidson diagonalization with overlap

---- Real-time Memory Report at c_bands before calling an iterative solver
             0 MiB given to the printing process from OS
             0 MiB allocation reported by mallinfo(arena+hblkhd)
         22801 MiB available memory on the node where the printing process lives
------------------
     ethr =  3.03E-04,  avg # of iterations =  5.0

     negative rho (up, down):  8.127E-01 0.000E+00

     total cpu time spent up to now is      206.6 secs

     total energy              =   -4441.85897196 Ry
     estimated scf accuracy    <       1.05210485 Ry

     iteration # 13     ecut=    60.00 Ry     beta= 0.15
     Davidson diagonalization with overlap

---- Real-time Memory Report at c_bands before calling an iterative solver
             0 MiB given to the printing process from OS
             0 MiB allocation reported by mallinfo(arena+hblkhd)
         22788 MiB available memory on the node where the printing process lives
------------------
     ethr =  2.44E-04,  avg # of iterations =  4.9

     negative rho (up, down):  8.188E-01 0.000E+00

     total cpu time spent up to now is      224.9 secs

     total energy              =   -4441.80387910 Ry
     estimated scf accuracy    <       0.68834568 Ry

     iteration # 14     ecut=    60.00 Ry     beta= 0.15
     Davidson diagonalization with overlap

---- Real-time Memory Report at c_bands before calling an iterative solver
             0 MiB given to the printing process from OS
             0 MiB allocation reported by mallinfo(arena+hblkhd)
         22775 MiB available memory on the node where the printing process lives
------------------
     ethr =  1.60E-04,  avg # of iterations =  9.2

     negative rho (up, down):  8.243E-01 0.000E+00

     total cpu time spent up to now is      245.9 secs

     total energy              =   -4441.74577124 Ry
     estimated scf accuracy    <       0.36356187 Ry

     iteration # 15     ecut=    60.00 Ry     beta= 0.15
     Davidson diagonalization with overlap

---- Real-time Memory Report at c_bands before calling an iterative solver
             0 MiB given to the printing process from OS
             0 MiB allocation reported by mallinfo(arena+hblkhd)
         22807 MiB available memory on the node where the printing process lives
------------------
     ethr =  8.44E-05,  avg # of iterations = 11.3

     negative rho (up, down):  8.322E-01 0.000E+00

     total cpu time spent up to now is      268.0 secs

     total energy              =   -4441.73171078 Ry
     estimated scf accuracy    <       0.35390418 Ry

     iteration # 16     ecut=    60.00 Ry     beta= 0.15
     Davidson diagonalization with overlap

---- Real-time Memory Report at c_bands before calling an iterative solver
             0 MiB given to the printing process from OS
             0 MiB allocation reported by mallinfo(arena+hblkhd)
         22786 MiB available memory on the node where the printing process lives
------------------
     ethr =  8.21E-05,  avg # of iterations =  3.0

     negative rho (up, down):  8.306E-01 0.000E+00

     total cpu time spent up to now is      285.7 secs

     total energy              =   -4441.71664561 Ry
     estimated scf accuracy    <       0.29426153 Ry

     iteration # 17     ecut=    60.00 Ry     beta= 0.15
     Davidson diagonalization with overlap

---- Real-time Memory Report at c_bands before calling an iterative solver
             0 MiB given to the printing process from OS
             0 MiB allocation reported by mallinfo(arena+hblkhd)
         22804 MiB available memory on the node where the printing process lives
------------------
     ethr =  6.83E-05,  avg # of iterations =  5.4

     negative rho (up, down):  8.069E-01 0.000E+00

     total cpu time spent up to now is      304.2 secs

     total energy              =   -4441.68524467 Ry
     estimated scf accuracy    <       0.17252029 Ry

     iteration # 18     ecut=    60.00 Ry     beta= 0.15
     Davidson diagonalization with overlap

---- Real-time Memory Report at c_bands before calling an iterative solver
             0 MiB given to the printing process from OS
             0 MiB allocation reported by mallinfo(arena+hblkhd)
         22795 MiB available memory on the node where the printing process lives
------------------
     ethr =  4.00E-05,  avg # of iterations = 10.2

     negative rho (up, down):  8.406E-01 0.000E+00

     total cpu time spent up to now is      326.3 secs

     total energy              =   -4441.66911475 Ry
     estimated scf accuracy    <       0.16705603 Ry

     iteration # 19     ecut=    60.00 Ry     beta= 0.15
     Davidson diagonalization with overlap

---- Real-time Memory Report at c_bands before calling an iterative solver
             0 MiB given to the printing process from OS
             0 MiB allocation reported by mallinfo(arena+hblkhd)
         22679 MiB available memory on the node where the printing process lives
------------------
     ethr =  3.88E-05,  avg # of iterations =  5.8

     negative rho (up, down):  8.391E-01 0.000E+00

     total cpu time spent up to now is      345.5 secs

     total energy              =   -4441.67279169 Ry
     estimated scf accuracy    <       0.04770758 Ry

     iteration # 20     ecut=    60.00 Ry     beta= 0.15
     Davidson diagonalization with overlap

---- Real-time Memory Report at c_bands before calling an iterative solver
             0 MiB given to the printing process from OS
             0 MiB allocation reported by mallinfo(arena+hblkhd)
         22683 MiB available memory on the node where the printing process lives
------------------
     c_bands:  1 eigenvalues not converged
     ethr =  1.11E-05,  avg # of iterations = 11.2

     negative rho (up, down):  8.163E-01 0.000E+00

     total cpu time spent up to now is      368.6 secs

     total energy              =   -4441.67216285 Ry
     estimated scf accuracy    <       0.02887483 Ry

     iteration # 21     ecut=    60.00 Ry     beta= 0.15
     Davidson diagonalization with overlap

---- Real-time Memory Report at c_bands before calling an iterative solver
             0 MiB given to the printing process from OS
             0 MiB allocation reported by mallinfo(arena+hblkhd)
         22643 MiB available memory on the node where the printing process lives
------------------
     ethr =  6.70E-06,  avg # of iterations =  1.8

     negative rho (up, down):  8.087E-01 0.000E+00

     total cpu time spent up to now is      385.2 secs

     total energy              =   -4441.66951340 Ry
     estimated scf accuracy    <       0.02541725 Ry

     iteration # 22     ecut=    60.00 Ry     beta= 0.15
     Davidson diagonalization with overlap

---- Real-time Memory Report at c_bands before calling an iterative solver
             0 MiB given to the printing process from OS
             0 MiB allocation reported by mallinfo(arena+hblkhd)
         22651 MiB available memory on the node where the printing process lives
------------------
     ethr =  5.90E-06,  avg # of iterations =  3.5

     negative rho (up, down):  7.935E-01 0.000E+00

     total cpu time spent up to now is      402.7 secs

     total energy              =   -4441.66622023 Ry
     estimated scf accuracy    <       0.01829881 Ry

     iteration # 23     ecut=    60.00 Ry     beta= 0.15
     Davidson diagonalization with overlap

---- Real-time Memory Report at c_bands before calling an iterative solver
             0 MiB given to the printing process from OS
             0 MiB allocation reported by mallinfo(arena+hblkhd)
         22660 MiB available memory on the node where the printing process lives
------------------
     c_bands:  1 eigenvalues not converged
     c_bands:  1 eigenvalues not converged
     ethr =  4.25E-06,  avg # of iterations = 14.1

     negative rho (up, down):  7.989E-01 0.000E+00

     total cpu time spent up to now is      426.4 secs

     total energy              =   -4441.66516288 Ry
     estimated scf accuracy    <       0.01083383 Ry

     iteration # 24     ecut=    60.00 Ry     beta= 0.15
     Davidson diagonalization with overlap

---- Real-time Memory Report at c_bands before calling an iterative solver
             0 MiB given to the printing process from OS
             0 MiB allocation reported by mallinfo(arena+hblkhd)
         22643 MiB available memory on the node where the printing process lives
------------------
     ethr =  2.51E-06,  avg # of iterations = 12.7

     negative rho (up, down):  7.967E-01 0.000E+00

     total cpu time spent up to now is      449.7 secs

     total energy              =   -4441.66535253 Ry
     estimated scf accuracy    <       0.00717149 Ry

     iteration # 25     ecut=    60.00 Ry     beta= 0.15
     Davidson diagonalization with overlap

---- Real-time Memory Report at c_bands before calling an iterative solver
             0 MiB given to the printing process from OS
             0 MiB allocation reported by mallinfo(arena+hblkhd)
         22597 MiB available memory on the node where the printing process lives
------------------
     ethr =  1.66E-06,  avg # of iterations =  2.0

     negative rho (up, down):  7.951E-01 0.000E+00

     total cpu time spent up to now is      466.2 secs

     total energy              =   -4441.66480886 Ry
     estimated scf accuracy    <       0.00435142 Ry

     iteration # 26     ecut=    60.00 Ry     beta= 0.15
     Davidson diagonalization with overlap

---- Real-time Memory Report at c_bands before calling an iterative solver
             0 MiB given to the printing process from OS
             0 MiB allocation reported by mallinfo(arena+hblkhd)
         22666 MiB available memory on the node where the printing process lives
------------------
     c_bands:  1 eigenvalues not converged
     ethr =  1.01E-06,  avg # of iterations = 11.2

     negative rho (up, down):  7.954E-01 0.000E+00

     total cpu time spent up to now is      487.6 secs

     total energy              =   -4441.66465821 Ry
     estimated scf accuracy    <       0.00219856 Ry

     iteration # 27     ecut=    60.00 Ry     beta= 0.15
     Davidson diagonalization with overlap

---- Real-time Memory Report at c_bands before calling an iterative solver
             0 MiB given to the printing process from OS
             0 MiB allocation reported by mallinfo(arena+hblkhd)
         22650 MiB available memory on the node where the printing process lives
------------------
     ethr =  5.10E-07,  avg # of iterations =  9.4

     negative rho (up, down):  7.941E-01 0.000E+00

     total cpu time spent up to now is      508.9 secs

     total energy              =   -4441.66458686 Ry
     estimated scf accuracy    <       0.00079837 Ry

     iteration # 28     ecut=    60.00 Ry     beta= 0.15
     Davidson diagonalization with overlap

---- Real-time Memory Report at c_bands before calling an iterative solver
             0 MiB given to the printing process from OS
             0 MiB allocation reported by mallinfo(arena+hblkhd)
         22651 MiB available memory on the node where the printing process lives
------------------
     ethr =  1.85E-07,  avg # of iterations = 10.5

     negative rho (up, down):  7.939E-01 0.000E+00

     total cpu time spent up to now is      532.9 secs

     total energy              =   -4441.66465679 Ry
     estimated scf accuracy    <       0.00023580 Ry

     iteration # 29     ecut=    60.00 Ry     beta= 0.15
     Davidson diagonalization with overlap

---- Real-time Memory Report at c_bands before calling an iterative solver
             0 MiB given to the printing process from OS
             0 MiB allocation reported by mallinfo(arena+hblkhd)
         22597 MiB available memory on the node where the printing process lives
------------------
     ethr =  5.47E-08,  avg # of iterations =  3.5

     negative rho (up, down):  7.931E-01 0.000E+00

     total cpu time spent up to now is      551.0 secs

     total energy              =   -4441.66466443 Ry
     estimated scf accuracy    <       0.00015068 Ry

     iteration # 30     ecut=    60.00 Ry     beta= 0.15
     Davidson diagonalization with overlap

---- Real-time Memory Report at c_bands before calling an iterative solver
             0 MiB given to the printing process from OS
             0 MiB allocation reported by mallinfo(arena+hblkhd)
         22591 MiB available memory on the node where the printing process lives
------------------
     ethr =  3.50E-08,  avg # of iterations =  2.1

     negative rho (up, down):  7.928E-01 0.000E+00

     total cpu time spent up to now is      567.7 secs

     total energy              =   -4441.66467856 Ry
     estimated scf accuracy    <       0.00006125 Ry

     iteration # 31     ecut=    60.00 Ry     beta= 0.15
     Davidson diagonalization with overlap

---- Real-time Memory Report at c_bands before calling an iterative solver
             0 MiB given to the printing process from OS
             0 MiB allocation reported by mallinfo(arena+hblkhd)
         22585 MiB available memory on the node where the printing process lives
------------------
     ethr =  1.42E-08,  avg # of iterations =  2.3

     negative rho (up, down):  7.924E-01 0.000E+00

     total cpu time spent up to now is      584.4 secs

     total energy              =   -4441.66468800 Ry
     estimated scf accuracy    <       0.00002647 Ry

     iteration # 32     ecut=    60.00 Ry     beta= 0.15
     Davidson diagonalization with overlap

---- Real-time Memory Report at c_bands before calling an iterative solver
             0 MiB given to the printing process from OS
             0 MiB allocation reported by mallinfo(arena+hblkhd)
         22587 MiB available memory on the node where the printing process lives
------------------
     ethr =  6.14E-09,  avg # of iterations =  2.2

     negative rho (up, down):  7.924E-01 0.000E+00

     total cpu time spent up to now is      601.1 secs

     total energy              =   -4441.66469346 Ry
     estimated scf accuracy    <       0.00001418 Ry

     iteration # 33     ecut=    60.00 Ry     beta= 0.15
     Davidson diagonalization with overlap

---- Real-time Memory Report at c_bands before calling an iterative solver
             0 MiB given to the printing process from OS
             0 MiB allocation reported by mallinfo(arena+hblkhd)
         22591 MiB available memory on the node where the printing process lives
------------------
     ethr =  3.29E-09,  avg # of iterations =  2.5

     negative rho (up, down):  7.923E-01 0.000E+00

     total cpu time spent up to now is      617.6 secs

     total energy              =   -4441.66469600 Ry
     estimated scf accuracy    <       0.00000452 Ry

     iteration # 34     ecut=    60.00 Ry     beta= 0.15
     Davidson diagonalization with overlap

---- Real-time Memory Report at c_bands before calling an iterative solver
             0 MiB given to the printing process from OS
             0 MiB allocation reported by mallinfo(arena+hblkhd)
         22598 MiB available memory on the node where the printing process lives
------------------
     ethr =  1.05E-09,  avg # of iterations =  3.3

     negative rho (up, down):  7.924E-01 0.000E+00

     total cpu time spent up to now is      634.6 secs

     total energy              =   -4441.66469651 Ry
     estimated scf accuracy    <       0.00000246 Ry

     iteration # 35     ecut=    60.00 Ry     beta= 0.15
     Davidson diagonalization with overlap

---- Real-time Memory Report at c_bands before calling an iterative solver
             0 MiB given to the printing process from OS
             0 MiB allocation reported by mallinfo(arena+hblkhd)
         22598 MiB available memory on the node where the printing process lives
------------------
     ethr =  5.70E-10,  avg # of iterations =  2.2

     negative rho (up, down):  7.924E-01 0.000E+00

     total cpu time spent up to now is      651.1 secs

     total energy              =   -4441.66469658 Ry
     estimated scf accuracy    <       0.00000163 Ry

     iteration # 36     ecut=    60.00 Ry     beta= 0.15
     Davidson diagonalization with overlap

---- Real-time Memory Report at c_bands before calling an iterative solver
             0 MiB given to the printing process from OS
             0 MiB allocation reported by mallinfo(arena+hblkhd)
         22608 MiB available memory on the node where the printing process lives
------------------
     ethr =  3.78E-10,  avg # of iterations =  2.2

     negative rho (up, down):  7.924E-01 0.000E+00

     total cpu time spent up to now is      667.6 secs

     total energy              =   -4441.66469653 Ry
     estimated scf accuracy    <       0.00000120 Ry

     iteration # 37     ecut=    60.00 Ry     beta= 0.15
     Davidson diagonalization with overlap

---- Real-time Memory Report at c_bands before calling an iterative solver
             0 MiB given to the printing process from OS
             0 MiB allocation reported by mallinfo(arena+hblkhd)
         22611 MiB available memory on the node where the printing process lives
------------------
     ethr =  2.78E-10,  avg # of iterations =  2.1

     negative rho (up, down):  7.925E-01 0.000E+00

     total cpu time spent up to now is      684.1 secs

     total energy              =   -4441.66469662 Ry
     estimated scf accuracy    <       0.00000074 Ry

     iteration # 38     ecut=    60.00 Ry     beta= 0.15
     Davidson diagonalization with overlap

---- Real-time Memory Report at c_bands before calling an iterative solver
             0 MiB given to the printing process from OS
             0 MiB allocation reported by mallinfo(arena+hblkhd)
         22612 MiB available memory on the node where the printing process lives
------------------
     ethr =  1.72E-10,  avg # of iterations =  2.1

     negative rho (up, down):  7.925E-01 0.000E+00

     total cpu time spent up to now is      700.6 secs

     total energy              =   -4441.66469671 Ry
     estimated scf accuracy    <       0.00000061 Ry

     iteration # 39     ecut=    60.00 Ry     beta= 0.15
     Davidson diagonalization with overlap

---- Real-time Memory Report at c_bands before calling an iterative solver
             0 MiB given to the printing process from OS
             0 MiB allocation reported by mallinfo(arena+hblkhd)
         22612 MiB available memory on the node where the printing process lives
------------------
     ethr =  1.41E-10,  avg # of iterations =  1.9

     negative rho (up, down):  7.925E-01 0.000E+00

     total cpu time spent up to now is      717.0 secs

     total energy              =   -4441.66469678 Ry
     estimated scf accuracy    <       0.00000045 Ry

     iteration # 40     ecut=    60.00 Ry     beta= 0.15
     Davidson diagonalization with overlap

---- Real-time Memory Report at c_bands before calling an iterative solver
             0 MiB given to the printing process from OS
             0 MiB allocation reported by mallinfo(arena+hblkhd)
         22614 MiB available memory on the node where the printing process lives
------------------
     ethr =  1.05E-10,  avg # of iterations =  3.0

     negative rho (up, down):  7.925E-01 0.000E+00

     total cpu time spent up to now is      734.0 secs

     total energy              =   -4441.66469675 Ry
     estimated scf accuracy    <       0.00000024 Ry

     iteration # 41     ecut=    60.00 Ry     beta= 0.15
     Davidson diagonalization with overlap

---- Real-time Memory Report at c_bands before calling an iterative solver
             0 MiB given to the printing process from OS
             0 MiB allocation reported by mallinfo(arena+hblkhd)
         22613 MiB available memory on the node where the printing process lives
------------------
     ethr =  5.49E-11,  avg # of iterations =  3.3

     negative rho (up, down):  7.925E-01 0.000E+00

     total cpu time spent up to now is      751.5 secs

     total energy              =   -4441.66469675 Ry
     estimated scf accuracy    <       0.00000007 Ry

     iteration # 42     ecut=    60.00 Ry     beta= 0.15
     Davidson diagonalization with overlap

---- Real-time Memory Report at c_bands before calling an iterative solver
             0 MiB given to the printing process from OS
             0 MiB allocation reported by mallinfo(arena+hblkhd)
         22606 MiB available memory on the node where the printing process lives
------------------
     ethr =  1.53E-11,  avg # of iterations =  2.1

     negative rho (up, down):  7.925E-01 0.000E+00

     total cpu time spent up to now is      768.3 secs

     total energy              =   -4441.66469675 Ry
     estimated scf accuracy    <       0.00000004 Ry

     iteration # 43     ecut=    60.00 Ry     beta= 0.15
     Davidson diagonalization with overlap

---- Real-time Memory Report at c_bands before calling an iterative solver
             0 MiB given to the printing process from OS
             0 MiB allocation reported by mallinfo(arena+hblkhd)
         22611 MiB available memory on the node where the printing process lives
------------------
     ethr =  9.55E-12,  avg # of iterations =  1.2

     negative rho (up, down):  7.925E-01 0.000E+00

     total cpu time spent up to now is      783.5 secs

     total energy              =   -4441.66469676 Ry
     estimated scf accuracy    <       0.00000003 Ry

     iteration # 44     ecut=    60.00 Ry     beta= 0.15
     Davidson diagonalization with overlap

---- Real-time Memory Report at c_bands before calling an iterative solver
             0 MiB given to the printing process from OS
             0 MiB allocation reported by mallinfo(arena+hblkhd)
         22614 MiB available memory on the node where the printing process lives
------------------
     ethr =  7.04E-12,  avg # of iterations =  1.9

     negative rho (up, down):  7.925E-01 0.000E+00

     total cpu time spent up to now is      799.9 secs

     total energy              =   -4441.66469677 Ry
     estimated scf accuracy    <       0.00000003 Ry

     iteration # 45     ecut=    60.00 Ry     beta= 0.15
     Davidson diagonalization with overlap

---- Real-time Memory Report at c_bands before calling an iterative solver
             0 MiB given to the printing process from OS
             0 MiB allocation reported by mallinfo(arena+hblkhd)
         22615 MiB available memory on the node where the printing process lives
------------------
     ethr =  5.93E-12,  avg # of iterations =  2.8

     negative rho (up, down):  7.925E-01 0.000E+00

     total cpu time spent up to now is      816.8 secs

     total energy              =   -4441.66469677 Ry
     estimated scf accuracy    <       0.00000001 Ry

     iteration # 46     ecut=    60.00 Ry     beta= 0.15
     Davidson diagonalization with overlap

---- Real-time Memory Report at c_bands before calling an iterative solver
             0 MiB given to the printing process from OS
             0 MiB allocation reported by mallinfo(arena+hblkhd)
         22610 MiB available memory on the node where the printing process lives
------------------
     ethr =  3.44E-12,  avg # of iterations =  2.5

     negative rho (up, down):  7.925E-01 0.000E+00

     total cpu time spent up to now is      833.8 secs

     total energy              =   -4441.66469677 Ry
     estimated scf accuracy    <       0.00000001 Ry

     iteration # 47     ecut=    60.00 Ry     beta= 0.15
     Davidson diagonalization with overlap

---- Real-time Memory Report at c_bands before calling an iterative solver
             0 MiB given to the printing process from OS
             0 MiB allocation reported by mallinfo(arena+hblkhd)
         22610 MiB available memory on the node where the printing process lives
------------------
     ethr =  2.33E-12,  avg # of iterations =  1.8

     negative rho (up, down):  7.925E-01 0.000E+00

     total cpu time spent up to now is      849.9 secs

     End of self-consistent calculation

          k = 0.0000 0.0000 0.0000 ( 65197 PWs)   bands (ev):

   -92.6904 -92.6378 -92.5441 -92.4988 -92.4400 -92.3967 -92.3793 -92.2600
   -56.0438 -56.0245 -55.9015 -55.8910 -55.8847 -55.8778 -55.8420 -55.8133
   -55.7979 -55.7962 -55.7883 -55.7474 -55.7302 -55.6907 -55.6705 -55.6400
   -55.6341 -55.5853 -55.5850 -55.5819 -55.5735 -55.5350 -55.5097 -55.4261
   -31.2681 -31.2486 -31.1292 -31.1068 -31.0198 -30.9956 -30.8599 -30.4356
   -29.8382 -29.7931 -29.7678 -29.6588 -15.0703 -15.0206 -14.9449 -14.8147
   -14.6197 -14.4954 -14.2089 -14.1865 -14.1591 -14.1137 -14.0647 -14.0517
   -14.0470 -14.0259 -14.0089 -13.9773 -13.9723 -13.9198 -13.7676 -13.5885
   -13.5561 -13.5256 -13.4946 -13.4772 -13.4217 -13.3881 -13.3126 -13.2404
   -13.1268 -13.1107 -13.0993 -13.0838 -13.0645 -13.0467 -12.9992 -12.9935
   -12.9696 -12.9474 -12.9214 -12.9141 -12.9056 -12.8884 -12.8670 -12.7951
   -12.7791 -12.7496 -12.4940 -12.4906 -12.3619 -12.3324 -12.1866 -11.9400
   -11.8768 -11.8496 -11.7769 -11.7655 -11.7409 -11.7233 -11.6607 -11.6433
   -11.6089 -11.5808 -11.4664 -11.3882 -11.3846  -2.9299  -2.6978  -2.4685
    -2.3210  -2.2582  -2.1165  -1.8092  -1.7950  -1.7760  -1.6914  -1.6713
    -1.6035  -1.5871  -1.5465  -1.5023  -1.3222  -1.2096  -1.0950  -1.0645
    -0.9201  -0.9054  -0.8579  -0.8391  -0.7937  -0.7773  -0.7227  -0.6962
    -0.6211  -0.6070  -0.5360  -0.4040  -0.3916  -0.3619  -0.2814  -0.2611
    -0.2546  -0.1886  -0.1166  -0.0616  -0.0180   0.0124   0.0805   0.1469
     0.1926   0.2194   0.2262   0.4868   0.4984   0.6744   0.7393   0.8084
     0.8572   0.9378   0.9529   0.9706   1.0339   1.0625   1.0959   1.1540
     1.2847   1.3458   1.3652   1.3866   1.3969   1.4616   1.5324   1.6410
     1.6521   1.7187   1.7321   1.7724   1.7895   1.7979   1.8552   1.9114
     1.9297   1.9652   2.0212   2.0403   2.1721   2.2563   2.2968   2.3170
     2.4536   2.4681   2.4734   2.5075   2.5241   2.5270   2.6389   2.6698
     2.6958   2.7148   2.7288   2.8105   2.9183   2.9497   2.9622   2.9685
     3.0370   3.0404   3.0641   3.0723   3.0811   3.0930   3.1001   3.1136
     3.1195   3.1322   3.1409   3.1485   3.1682   3.1887   3.1940   3.2060
     3.2367   3.3467   3.4230   4.1171   4.4465   4.7798   4.8705   5.0560
     5.7400   5.9475   5.9969   6.0192   6.3249   6.3719   6.4838   6.4914
     6.7147   7.0126   7.0967   7.3198   7.3841   7.6428   7.6715   7.6908
     7.7092   7.8510   7.9327   8.0098   8.1176   8.1808   8.4370   8.4984
     8.7104   8.8089   8.8708

     occupation numbers 
     1.0000   1.0000   1.0000   1.0000   1.0000   1.0000   1.0000   1.0000
     1.0000   1.0000   1.0000   1.0000   1.0000   1.0000   1.0000   1.0000
     1.0000   1.0000   1.0000   1.0000   1.0000   1.0000   1.0000   1.0000
     1.0000   1.0000   1.0000   1.0000   1.0000   1.0000   1.0000   1.0000
     1.0000   1.0000   1.0000   1.0000   1.0000   1.0000   1.0000   1.0000
     1.0000   1.0000   1.0000   1.0000   1.0000   1.0000   1.0000   1.0000
     1.0000   1.0000   1.0000   1.0000   1.0000   1.0000   1.0000   1.0000
     1.0000   1.0000   1.0000   1.0000   1.0000   1.0000   1.0000   1.0000
     1.0000   1.0000   1.0000   1.0000   1.0000   1.0000   1.0000   1.0000
     1.0000   1.0000   1.0000   1.0000   1.0000   1.0000   1.0000   1.0000
     1.0000   1.0000   1.0000   1.0000   1.0000   1.0000   1.0000   1.0000
     1.0000   1.0000   1.0000   1.0000   1.0000   1.0000   1.0000   1.0000
     1.0000   1.0000   1.0000   1.0000   1.0000   1.0000   1.0000   1.0000
     1.0000   1.0000   1.0000   1.0000   1.0000   1.0000   1.0000   1.0000
     1.0000   1.0000   1.0000   1.0000   1.0000   1.0000   1.0000   1.0000
     1.0000   1.0000   1.0000   1.0000   1.0000   1.0000   1.0000   1.0000
     1.0000   1.0000   1.0000   1.0000   1.0000   1.0000   1.0000   1.0000
     1.0000   1.0000   1.0000   1.0000   1.0000   1.0000   1.0000   1.0000
     1.0000   1.0000   1.0000   1.0000   1.0000   1.0000   1.0000   1.0000
     1.0000   1.0000   1.0000   1.0000   1.0000   1.0000   0.9999   0.9999
     0.9999   0.9998   0.9998   0.9998   0.9997   0.9996   0.9996   0.9994
     0.9988   0.9984   0.9983   0.9981   0.9980   0.9973   0.9963   0.9941
     0.9938   0.9919   0.9914   0.9899   0.9892   0.9889   0.9861   0.9829
     0.9817   0.9792   0.9747   0.9730   0.9582   0.9458   0.9388   0.9351
     0.9053   0.9016   0.9003   0.8911   0.8864   0.8856   0.8502   0.8392
     0.8296   0.8224   0.8170   0.7830   0.7331   0.7176   0.7113   0.7081
     0.6722   0.6704   0.6576   0.6531   0.6482   0.6417   0.6377   0.6302
     0.6269   0.6197   0.6148   0.6104   0.5992   0.5874   0.5843   0.5774
     0.5594   0.4945   0.4494   0.1235   0.0498   0.0161   0.0114   0.0054
     0.0002   0.0001   0.0000   0.0000   0.0000   0.0000   0.0000   0.0000
     0.0000   0.0000   0.0000   0.0000   0.0000   0.0000   0.0000   0.0000
     0.0000   0.0000   0.0000   0.0000   0.0000   0.0000   0.0000   0.0000
     0.0000   0.0000   0.0000

          k = 0.0000 0.2500 0.0000 ( 65257 PWs)   bands (ev):

   -92.6904 -92.6378 -92.5441 -92.4988 -92.4400 -92.3967 -92.3793 -92.2600
   -56.0438 -56.0245 -55.9015 -55.8910 -55.8847 -55.8778 -55.8420 -55.8133
   -55.7979 -55.7962 -55.7883 -55.7474 -55.7302 -55.6907 -55.6705 -55.6400
   -55.6341 -55.5853 -55.5850 -55.5819 -55.5735 -55.5350 -55.5097 -55.4261
   -31.2679 -31.2484 -31.1290 -31.1071 -31.0199 -30.9958 -30.8599 -30.4357
   -29.8376 -29.7928 -29.7684 -29.6592 -15.0340 -14.9940 -14.9194 -14.7855
   -14.6607 -14.4872 -14.3524 -14.1743 -14.1377 -14.1182 -14.0902 -14.0308
   -14.0244 -14.0073 -13.9901 -13.9744 -13.9441 -13.8380 -13.7986 -13.6373
   -13.6142 -13.5675 -13.5307 -13.4848 -13.4418 -13.3947 -13.3325 -13.2980
   -13.2261 -13.1678 -13.1379 -13.1058 -13.0963 -13.0690 -12.9845 -12.9610
   -12.9314 -12.9199 -12.8927 -12.8640 -12.8574 -12.8331 -12.7961 -12.7845
   -12.7150 -12.6724 -12.4485 -12.4079 -12.3935 -12.3595 -12.2378 -11.9886
   -11.9332 -11.8147 -11.7736 -11.7448 -11.7162 -11.6995 -11.6525 -11.6414
   -11.6189 -11.5855 -11.4808 -11.4297 -11.4192  -2.7946  -2.5735  -2.4357
    -2.2537  -2.2103  -2.0467  -1.8277  -1.7430  -1.7300  -1.6724  -1.5699
    -1.5537  -1.5203  -1.4932  -1.4492  -1.2588  -1.2046  -1.1220  -1.1090
    -1.0339  -1.0239  -0.9196  -0.8909  -0.8311  -0.8067  -0.7668  -0.7028
    -0.6762  -0.6438  -0.6093  -0.5924  -0.5618  -0.4881  -0.4372  -0.3708
    -0.2589  -0.2407  -0.1969  -0.0774  -0.0386   0.0241   0.0700   0.1386
     0.1486   0.1723   0.2351   0.5349   0.6208   0.6508   0.7411   0.7897
     0.8152   0.9234   0.9445   1.0375   1.0632   1.0888   1.2029   1.2974
     1.3198   1.3437   1.3612   1.3870   1.4469   1.4736   1.5017   1.5485
     1.5857   1.6150   1.6999   1.7343   1.7769   1.8216   1.8789   1.9285
     1.9533   1.9775   1.9980   2.0915   2.2066   2.2808   2.3012   2.3709
     2.4180   2.4455   2.4603   2.4724   2.5005   2.5334   2.5655   2.6551
     2.6894   2.7062   2.8759   2.8981   2.9319   2.9523   2.9692   2.9776
     2.9853   2.9952   3.0244   3.0264   3.0452   3.0484   3.0591   3.0768
     3.0891   3.0965   3.1190   3.1298   3.1345   3.1700   3.1863   3.2466
     3.6230   3.6476   3.8910   4.3083   4.4427   4.7208   5.0226   5.0796
     5.6502   5.8031   5.9155   5.9923   6.0924   6.1156   6.1934   6.6001
     6.8089   7.0691   7.1210   7.3358   7.4871   7.5070   7.6113   7.6516
     7.8698   7.9252   7.9806   8.1742   8.2741   8.3846   8.4161   8.4643
     8.6111   8.8365   8.9366

     occupation numbers 
     1.0000   1.0000   1.0000   1.0000   1.0000   1.0000   1.0000   1.0000
     1.0000   1.0000   1.0000   1.0000   1.0000   1.0000   1.0000   1.0000
     1.0000   1.0000   1.0000   1.0000   1.0000   1.0000   1.0000   1.0000
     1.0000   1.0000   1.0000   1.0000   1.0000   1.0000   1.0000   1.0000
     1.0000   1.0000   1.0000   1.0000   1.0000   1.0000   1.0000   1.0000
     1.0000   1.0000   1.0000   1.0000   1.0000   1.0000   1.0000   1.0000
     1.0000   1.0000   1.0000   1.0000   1.0000   1.0000   1.0000   1.0000
     1.0000   1.0000   1.0000   1.0000   1.0000   1.0000   1.0000   1.0000
     1.0000   1.0000   1.0000   1.0000   1.0000   1.0000   1.0000   1.0000
     1.0000   1.0000   1.0000   1.0000   1.0000   1.0000   1.0000   1.0000
     1.0000   1.0000   1.0000   1.0000   1.0000   1.0000   1.0000   1.0000
     1.0000   1.0000   1.0000   1.0000   1.0000   1.0000   1.0000   1.0000
     1.0000   1.0000   1.0000   1.0000   1.0000   1.0000   1.0000   1.0000
     1.0000   1.0000   1.0000   1.0000   1.0000   1.0000   1.0000   1.0000
     1.0000   1.0000   1.0000   1.0000   1.0000   1.0000   1.0000   1.0000
     1.0000   1.0000   1.0000   1.0000   1.0000   1.0000   1.0000   1.0000
     1.0000   1.0000   1.0000   1.0000   1.0000   1.0000   1.0000   1.0000
     1.0000   1.0000   1.0000   1.0000   1.0000   1.0000   1.0000   1.0000
     1.0000   1.0000   1.0000   1.0000   1.0000   1.0000   1.0000   1.0000
     1.0000   1.0000   1.0000   1.0000   1.0000   1.0000   0.9999   0.9999
     0.9999   0.9998   0.9998   0.9997   0.9996   0.9996   0.9992   0.9988
     0.9986   0.9985   0.9983   0.9981   0.9975   0.9972   0.9968   0.9961
     0.9954   0.9947   0.9925   0.9914   0.9898   0.9878   0.9848   0.9818
     0.9801   0.9783   0.9766   0.9678   0.9534   0.9417   0.9381   0.9244
     0.9139   0.9073   0.9036   0.9005   0.8930   0.8838   0.8741   0.8445
     0.8320   0.8257   0.7535   0.7429   0.7265   0.7163   0.7077   0.7034
     0.6995   0.6943   0.6790   0.6779   0.6678   0.6661   0.6603   0.6506
     0.6439   0.6397   0.6272   0.6211   0.6184   0.5982   0.5888   0.5536
     0.3358   0.3226   0.2056   0.0747   0.0504   0.0200   0.0062   0.0048
     0.0003   0.0001   0.0001   0.0000   0.0000   0.0000   0.0000   0.0000
     0.0000   0.0000   0.0000   0.0000   0.0000   0.0000   0.0000   0.0000
     0.0000   0.0000   0.0000   0.0000   0.0000   0.0000   0.0000   0.0000
     0.0000   0.0000   0.0000

          k = 0.0000-0.5000 0.0000 ( 65180 PWs)   bands (ev):

   -92.6904 -92.6378 -92.5441 -92.4988 -92.4400 -92.3967 -92.3793 -92.2600
   -56.0438 -56.0245 -55.9015 -55.8910 -55.8847 -55.8778 -55.8420 -55.8133
   -55.7979 -55.7962 -55.7883 -55.7474 -55.7302 -55.6907 -55.6705 -55.6400
   -55.6341 -55.5853 -55.5850 -55.5819 -55.5735 -55.5350 -55.5097 -55.4261
   -31.2677 -31.2483 -31.1288 -31.1073 -31.0200 -30.9961 -30.8598 -30.4357
   -29.8370 -29.7925 -29.7690 -29.6595 -14.9964 -14.9487 -14.8912 -14.7672
   -14.6825 -14.5491 -14.3867 -14.2723 -14.1468 -14.0742 -14.0309 -14.0263
   -13.9770 -13.9744 -13.9597 -13.9078 -13.8885 -13.8618 -13.8333 -13.7969
   -13.7460 -13.5727 -13.5138 -13.4902 -13.4460 -13.3921 -13.3483 -13.2948
   -13.2734 -13.2516 -13.2080 -13.1076 -13.0964 -13.0566 -12.9951 -12.9547
   -12.9387 -12.9186 -12.8724 -12.8585 -12.8223 -12.7975 -12.6955 -12.6742
   -12.6419 -12.6350 -12.5047 -12.3833 -12.3426 -12.3130 -12.2759 -12.0650
   -12.0170 -11.7705 -11.7668 -11.7392 -11.7023 -11.6681 -11.6569 -11.6152
   -11.6111 -11.5668 -11.5027 -11.4896 -11.4760  -2.5799  -2.5205  -2.3700
    -2.2988  -2.0172  -1.9331  -1.8050  -1.6695  -1.6310  -1.6118  -1.5335
    -1.5033  -1.4192  -1.3849  -1.3066  -1.2717  -1.2338  -1.2130  -1.2023
    -1.1304  -1.1064  -1.0599  -1.0247  -0.9891  -0.9565  -0.8468  -0.8031
    -0.7671  -0.7642  -0.6785  -0.6481  -0.6250  -0.5724  -0.4908  -0.4171
    -0.3311  -0.3039  -0.1978  -0.1530  -0.0183   0.0202   0.0478   0.1082
     0.2441   0.2876   0.4027   0.4734   0.4805   0.6071   0.6586   0.7789
     0.8886   0.9963   1.0263   1.0655   1.0730   1.1130   1.1276   1.1611
     1.1802   1.1906   1.2996   1.3629   1.3895   1.4132   1.6762   1.7130
     1.7357   1.8297   1.8652   1.8821   1.8991   1.9240   1.9469   1.9631
     1.9891   2.0135   2.0478   2.0794   2.0823   2.1135   2.1648   2.2503
     2.2817   2.4454   2.4610   2.4936   2.6136   2.6256   2.6480   2.6803
     2.6856   2.6954   2.7462   2.7578   2.8106   2.8325   2.9082   2.9230
     2.9909   2.9986   3.0206   3.0229   3.0413   3.0479   3.0504   3.0548
     3.0574   3.0702   3.0891   3.0900   3.1555   3.1592   3.1760   3.2299
     4.1474   4.1738   4.1966   4.2653   4.7517   4.9149   5.0336   5.1711
     5.4221   5.4732   5.5908   5.7338   6.0338   6.0614   6.2224   6.5024
     6.8568   6.9571   7.2286   7.2923   7.3690   7.4497   7.7145   7.7686
     7.9173   7.9478   8.1988   8.3261   8.4448   8.4576   8.4987   8.6884
     8.8049   8.8270   8.8748

     occupation numbers 
     1.0000   1.0000   1.0000   1.0000   1.0000   1.0000   1.0000   1.0000
     1.0000   1.0000   1.0000   1.0000   1.0000   1.0000   1.0000   1.0000
     1.0000   1.0000   1.0000   1.0000   1.0000   1.0000   1.0000   1.0000
     1.0000   1.0000   1.0000   1.0000   1.0000   1.0000   1.0000   1.0000
     1.0000   1.0000   1.0000   1.0000   1.0000   1.0000   1.0000   1.0000
     1.0000   1.0000   1.0000   1.0000   1.0000   1.0000   1.0000   1.0000
     1.0000   1.0000   1.0000   1.0000   1.0000   1.0000   1.0000   1.0000
     1.0000   1.0000   1.0000   1.0000   1.0000   1.0000   1.0000   1.0000
     1.0000   1.0000   1.0000   1.0000   1.0000   1.0000   1.0000   1.0000
     1.0000   1.0000   1.0000   1.0000   1.0000   1.0000   1.0000   1.0000
     1.0000   1.0000   1.0000   1.0000   1.0000   1.0000   1.0000   1.0000
     1.0000   1.0000   1.0000   1.0000   1.0000   1.0000   1.0000   1.0000
     1.0000   1.0000   1.0000   1.0000   1.0000   1.0000   1.0000   1.0000
     1.0000   1.0000   1.0000   1.0000   1.0000   1.0000   1.0000   1.0000
     1.0000   1.0000   1.0000   1.0000   1.0000   1.0000   1.0000   1.0000
     1.0000   1.0000   1.0000   1.0000   1.0000   1.0000   1.0000   1.0000
     1.0000   1.0000   1.0000   1.0000   1.0000   1.0000   1.0000   1.0000
     1.0000   1.0000   1.0000   1.0000   1.0000   1.0000   1.0000   1.0000
     1.0000   1.0000   1.0000   1.0000   1.0000   1.0000   1.0000   1.0000
     1.0000   1.0000   1.0000   1.0000   1.0000   1.0000   1.0000   0.9999
     0.9999   0.9997   0.9997   0.9996   0.9996   0.9995   0.9995   0.9994
     0.9993   0.9993   0.9988   0.9983   0.9981   0.9979   0.9932   0.9921
     0.9913   0.9874   0.9856   0.9847   0.9836   0.9821   0.9805   0.9794
     0.9774   0.9753   0.9722   0.9691   0.9688   0.9654   0.9592   0.9468
     0.9415   0.9073   0.9035   0.8949   0.8588   0.8547   0.8470   0.8354
     0.8335   0.8298   0.8100   0.8053   0.7830   0.7733   0.7380   0.7308
     0.6966   0.6925   0.6810   0.6798   0.6699   0.6664   0.6650   0.6626
     0.6613   0.6542   0.6438   0.6433   0.6065   0.6044   0.5947   0.5634
     0.1145   0.1071   0.1010   0.0841   0.0179   0.0096   0.0059   0.0032
     0.0010   0.0008   0.0004   0.0002   0.0000   0.0000   0.0000   0.0000
     0.0000   0.0000   0.0000   0.0000   0.0000   0.0000   0.0000   0.0000
     0.0000   0.0000   0.0000   0.0000   0.0000   0.0000   0.0000   0.0000
     0.0000   0.0000   0.0000

          k = 0.2500 0.2500 0.0000 ( 65198 PWs)   bands (ev):

   -92.6904 -92.6378 -92.5441 -92.4988 -92.4400 -92.3967 -92.3793 -92.2600
   -56.0438 -56.0245 -55.9015 -55.8910 -55.8847 -55.8778 -55.8420 -55.8133
   -55.7979 -55.7962 -55.7883 -55.7474 -55.7302 -55.6907 -55.6705 -55.6400
   -55.6341 -55.5853 -55.5850 -55.5819 -55.5735 -55.5350 -55.5097 -55.4261
   -31.2662 -31.2501 -31.1289 -31.1067 -31.0203 -30.9958 -30.8600 -30.4357
   -29.8367 -29.7937 -29.7680 -29.6596 -15.0049 -14.9591 -14.8912 -14.7752
   -14.6540 -14.5267 -14.4592 -14.2525 -14.0979 -14.0846 -14.0487 -14.0190
   -13.9958 -13.9742 -13.9606 -13.9367 -13.9085 -13.8291 -13.8129 -13.6533
   -13.6389 -13.6077 -13.5901 -13.5351 -13.4999 -13.4303 -13.4163 -13.2785
   -13.2423 -13.2182 -13.1338 -13.0947 -13.0695 -13.0352 -13.0086 -12.9761
   -12.9405 -12.9345 -12.9095 -12.8637 -12.8078 -12.7804 -12.7401 -12.7335
   -12.7037 -12.6296 -12.4539 -12.4423 -12.3592 -12.2983 -12.2670 -12.0050
   -11.9819 -11.7877 -11.7564 -11.7451 -11.7388 -11.6755 -11.6404 -11.6339
   -11.5991 -11.5918 -11.4975 -11.4578 -11.4406  -2.6563  -2.4476  -2.3298
    -2.2354  -2.1146  -2.0499  -1.8525  -1.7073  -1.6890  -1.6592  -1.5649
    -1.5305  -1.4364  -1.4091  -1.3587  -1.2324  -1.2161  -1.1660  -1.1065
    -1.0610  -1.0159  -0.9934  -0.9696  -0.9264  -0.9113  -0.8211  -0.7702
    -0.7054  -0.6553  -0.6243  -0.5763  -0.5605  -0.4973  -0.4500  -0.3915
    -0.3576  -0.2727  -0.2185  -0.1901  -0.1524  -0.0972  -0.0142   0.0174
     0.0423   0.1271   0.1578   0.4217   0.5696   0.6036   0.6643   0.7059
     0.7762   0.8351   0.8802   0.9186   1.1870   1.2529   1.3264   1.3506
     1.4000   1.4313   1.4670   1.5042   1.5211   1.5477   1.5955   1.6011
     1.6154   1.6609   1.7029   1.7404   1.8049   1.8440   1.8481   1.8910
     1.9203   1.9762   2.0137   2.1320   2.1896   2.2232   2.2463   2.3164
     2.3823   2.4083   2.4411   2.4522   2.4632   2.4784   2.5093   2.5986
     2.6299   2.7194   2.8872   2.9040   2.9103   2.9271   2.9415   2.9544
     2.9675   2.9744   2.9850   2.9978   3.0100   3.0293   3.0356   3.0471
     3.0691   3.0807   3.0902   3.1211   3.4219   3.5164   3.5575   3.6306
     3.6595   3.8679   3.9650   4.3183   4.5291   4.7280   4.9934   5.1702
     5.6544   5.7123   5.7704   5.8480   5.9053   6.0510   6.1626   6.2205
     6.8826   6.9063   7.1043   7.2764   7.5589   7.6097   7.7179   7.8608
     7.8859   8.0158   8.1959   8.2245   8.3098   8.3590   8.4541   8.4761
     8.5548   8.7739   8.9050

     occupation numbers 
     1.0000   1.0000   1.0000   1.0000   1.0000   1.0000   1.0000   1.0000
     1.0000   1.0000   1.0000   1.0000   1.0000   1.0000   1.0000   1.0000
     1.0000   1.0000   1.0000   1.0000   1.0000   1.0000   1.0000   1.0000
     1.0000   1.0000   1.0000   1.0000   1.0000   1.0000   1.0000   1.0000
     1.0000   1.0000   1.0000   1.0000   1.0000   1.0000   1.0000   1.0000
     1.0000   1.0000   1.0000   1.0000   1.0000   1.0000   1.0000   1.0000
     1.0000   1.0000   1.0000   1.0000   1.0000   1.0000   1.0000   1.0000
     1.0000   1.0000   1.0000   1.0000   1.0000   1.0000   1.0000   1.0000
     1.0000   1.0000   1.0000   1.0000   1.0000   1.0000   1.0000   1.0000
     1.0000   1.0000   1.0000   1.0000   1.0000   1.0000   1.0000   1.0000
     1.0000   1.0000   1.0000   1.0000   1.0000   1.0000   1.0000   1.0000
     1.0000   1.0000   1.0000   1.0000   1.0000   1.0000   1.0000   1.0000
     1.0000   1.0000   1.0000   1.0000   1.0000   1.0000   1.0000   1.0000
     1.0000   1.0000   1.0000   1.0000   1.0000   1.0000   1.0000   1.0000
     1.0000   1.0000   1.0000   1.0000   1.0000   1.0000   1.0000   1.0000
     1.0000   1.0000   1.0000   1.0000   1.0000   1.0000   1.0000   1.0000
     1.0000   1.0000   1.0000   1.0000   1.0000   1.0000   1.0000   1.0000
     1.0000   1.0000   1.0000   1.0000   1.0000   1.0000   1.0000   1.0000
     1.0000   1.0000   1.0000   1.0000   1.0000   1.0000   1.0000   1.0000
     1.0000   1.0000   1.0000   1.0000   1.0000   1.0000   1.0000   1.0000
     0.9999   0.9999   0.9999   0.9998   0.9993   0.9990   0.9986   0.9984
     0.9980   0.9977   0.9973   0.9968   0.9965   0.9961   0.9952   0.9950
     0.9947   0.9936   0.9924   0.9911   0.9886   0.9867   0.9865   0.9841
     0.9823   0.9784   0.9753   0.9633   0.9558   0.9510   0.9474   0.9353
     0.9219   0.9161   0.9084   0.9057   0.9029   0.8989   0.8906   0.8637
     0.8533   0.8206   0.7481   0.7401   0.7370   0.7288   0.7217   0.7153
     0.7086   0.7051   0.6996   0.6930   0.6866   0.6764   0.6730   0.6668
     0.6549   0.6485   0.6432   0.6260   0.4501   0.3952   0.3719   0.3317
     0.3163   0.2154   0.1757   0.0726   0.0384   0.0195   0.0070   0.0032
     0.0003   0.0002   0.0002   0.0001   0.0001   0.0000   0.0000   0.0000
     0.0000   0.0000   0.0000   0.0000   0.0000   0.0000   0.0000   0.0000
     0.0000   0.0000   0.0000   0.0000   0.0000   0.0000   0.0000   0.0000
     0.0000   0.0000   0.0000

          k = 0.2500-0.5000 0.0000 ( 65138 PWs)   bands (ev):

   -92.6904 -92.6378 -92.5441 -92.4988 -92.4400 -92.3967 -92.3793 -92.2600
   -56.0438 -56.0245 -55.9015 -55.8910 -55.8847 -55.8778 -55.8420 -55.8133
   -55.7979 -55.7962 -55.7883 -55.7474 -55.7302 -55.6907 -55.6705 -55.6400
   -55.6341 -55.5853 -55.5850 -55.5819 -55.5735 -55.5350 -55.5097 -55.4261
   -31.2661 -31.2500 -31.1287 -31.1069 -31.0204 -30.9960 -30.8599 -30.4358
   -29.8361 -29.7934 -29.7686 -29.6599 -14.9653 -14.9217 -14.8479 -14.7386
   -14.7050 -14.5890 -14.4925 -14.3678 -14.0626 -14.0087 -13.9831 -13.9744
   -13.9595 -13.9447 -13.9312 -13.8924 -13.8760 -13.8449 -13.8095 -13.7850
   -13.7395 -13.6551 -13.6072 -13.5518 -13.5276 -13.4595 -13.4418 -13.3343
   -13.3004 -13.1969 -13.1324 -13.1158 -13.0490 -13.0175 -12.9854 -12.9716
   -12.9448 -12.9300 -12.9009 -12.8480 -12.8150 -12.7837 -12.7034 -12.6792
   -12.6458 -12.6144 -12.5114 -12.3812 -12.3180 -12.3101 -12.2442 -12.0561
   -12.0215 -11.7639 -11.7514 -11.7403 -11.7133 -11.6823 -11.6532 -11.6129
   -11.5839 -11.5630 -11.5159 -11.4912 -11.4802  -2.4380  -2.3720  -2.2436
    -2.1674  -2.0376  -1.9530  -1.8294  -1.6806  -1.6259  -1.6042  -1.5417
    -1.5286  -1.4300  -1.3647  -1.2800  -1.2349  -1.2274  -1.2020  -1.1560
    -1.1084  -1.0803  -1.0328  -0.9958  -0.9602  -0.9199  -0.9058  -0.8631
    -0.8336  -0.7928  -0.7610  -0.6948  -0.5929  -0.5499  -0.4742  -0.4086
    -0.3579  -0.3163  -0.2968  -0.2406  -0.0802  -0.0701   0.0322   0.0704
     0.0779   0.1222   0.1548   0.2006   0.2250   0.2866   0.5611   0.6595
     0.7451   0.8043   1.0493   1.0742   1.1587   1.1887   1.3496   1.3838
     1.4259   1.4475   1.4637   1.4832   1.5467   1.5927   1.6274   1.7102
     1.8026   1.8443   1.8594   1.8754   1.9089   1.9227   1.9302   1.9782
     1.9843   2.0115   2.0404   2.0573   2.0728   2.1123   2.1650   2.2044
     2.2840   2.4170   2.4597   2.4794   2.5670   2.5856   2.6046   2.6307
     2.6546   2.6848   2.7038   2.7195   2.7458   2.8377   2.8865   2.9065
     2.9099   2.9236   2.9442   2.9578   2.9773   2.9843   3.0176   3.0291
     3.0436   3.0523   3.0612   3.0712   3.5993   3.6055   3.7535   3.8052
     4.1598   4.1991   4.2092   4.3256   4.7712   4.9369   5.0707   5.1442
     5.3166   5.4404   5.6108   5.6426   5.7773   5.7990   6.3079   6.4038
     6.4939   6.6281   7.2477   7.3290   7.5459   7.7107   7.8138   7.8862
     7.9794   8.0584   8.2326   8.3877   8.4848   8.5406   8.5571   8.5776
     8.7209   8.7410   8.8126

     occupation numbers 
     1.0000   1.0000   1.0000   1.0000   1.0000   1.0000   1.0000   1.0000
     1.0000   1.0000   1.0000   1.0000   1.0000   1.0000   1.0000   1.0000
     1.0000   1.0000   1.0000   1.0000   1.0000   1.0000   1.0000   1.0000
     1.0000   1.0000   1.0000   1.0000   1.0000   1.0000   1.0000   1.0000
     1.0000   1.0000   1.0000   1.0000   1.0000   1.0000   1.0000   1.0000
     1.0000   1.0000   1.0000   1.0000   1.0000   1.0000   1.0000   1.0000
     1.0000   1.0000   1.0000   1.0000   1.0000   1.0000   1.0000   1.0000
     1.0000   1.0000   1.0000   1.0000   1.0000   1.0000   1.0000   1.0000
     1.0000   1.0000   1.0000   1.0000   1.0000   1.0000   1.0000   1.0000
     1.0000   1.0000   1.0000   1.0000   1.0000   1.0000   1.0000   1.0000
     1.0000   1.0000   1.0000   1.0000   1.0000   1.0000   1.0000   1.0000
     1.0000   1.0000   1.0000   1.0000   1.0000   1.0000   1.0000   1.0000
     1.0000   1.0000   1.0000   1.0000   1.0000   1.0000   1.0000   1.0000
     1.0000   1.0000   1.0000   1.0000   1.0000   1.0000   1.0000   1.0000
     1.0000   1.0000   1.0000   1.0000   1.0000   1.0000   1.0000   1.0000
     1.0000   1.0000   1.0000   1.0000   1.0000   1.0000   1.0000   1.0000
     1.0000   1.0000   1.0000   1.0000   1.0000   1.0000   1.0000   1.0000
     1.0000   1.0000   1.0000   1.0000   1.0000   1.0000   1.0000   1.0000
     1.0000   1.0000   1.0000   1.0000   1.0000   1.0000   1.0000   1.0000
     1.0000   1.0000   1.0000   1.0000   1.0000   1.0000   1.0000   1.0000
     0.9999   0.9999   0.9997   0.9996   0.9994   0.9993   0.9984   0.9981
     0.9977   0.9975   0.9973   0.9971   0.9961   0.9952   0.9944   0.9922
     0.9887   0.9867   0.9859   0.9850   0.9830   0.9822   0.9817   0.9782
     0.9777   0.9755   0.9729   0.9713   0.9698   0.9656   0.9592   0.9538
     0.9411   0.9141   0.9038   0.8987   0.8737   0.8679   0.8617   0.8530
     0.8447   0.8338   0.8266   0.8206   0.8102   0.7709   0.7484   0.7389
     0.7373   0.7305   0.7204   0.7135   0.7036   0.7000   0.6826   0.6765
     0.6687   0.6640   0.6592   0.6537   0.3487   0.3453   0.2683   0.2436
     0.1110   0.1004   0.0978   0.0711   0.0166   0.0088   0.0050   0.0036
     0.0016   0.0009   0.0004   0.0003   0.0001   0.0001   0.0000   0.0000
     0.0000   0.0000   0.0000   0.0000   0.0000   0.0000   0.0000   0.0000
     0.0000   0.0000   0.0000   0.0000   0.0000   0.0000   0.0000   0.0000
     0.0000   0.0000   0.0000

          k =-0.5000-0.5000 0.0000 ( 65132 PWs)   bands (ev):

   -92.6904 -92.6378 -92.5441 -92.4988 -92.4400 -92.3967 -92.3793 -92.2600
   -56.0438 -56.0245 -55.9015 -55.8910 -55.8847 -55.8778 -55.8420 -55.8133
   -55.7979 -55.7962 -55.7883 -55.7474 -55.7302 -55.6907 -55.6705 -55.6400
   -55.6341 -55.5853 -55.5850 -55.5819 -55.5735 -55.5350 -55.5097 -55.4261
   -31.2639 -31.2521 -31.1286 -31.1065 -31.0208 -30.9960 -30.8600 -30.4359
   -29.8351 -29.7944 -29.7682 -29.6603 -14.9169 -14.8944 -14.7781 -14.7609
   -14.6680 -14.6338 -14.6016 -14.4664 -13.9756 -13.9721 -13.9618 -13.9246
   -13.9101 -13.8892 -13.8702 -13.8497 -13.8363 -13.8212 -13.8173 -13.8016
   -13.7224 -13.7153 -13.6892 -13.6527 -13.6360 -13.5482 -13.5101 -13.3690
   -13.3432 -13.1477 -13.1133 -13.0403 -13.0228 -13.0151 -12.9828 -12.9737
   -12.9643 -12.9460 -12.9236 -12.8179 -12.8053 -12.7746 -12.7433 -12.7225
   -12.5957 -12.5880 -12.5277 -12.3830 -12.3077 -12.2917 -12.2150 -12.0471
   -12.0264 -11.7596 -11.7484 -11.7307 -11.7131 -11.6789 -11.6600 -11.6255
   -11.5630 -11.5453 -11.5388 -11.4894 -11.4862  -2.2134  -2.1390  -2.1280
    -2.0555  -2.0176  -1.9394  -1.8713  -1.7465  -1.6308  -1.6005  -1.5608
    -1.5033  -1.4327  -1.4167  -1.3476  -1.3050  -1.2173  -1.1866  -1.1505
    -1.1101  -1.0816  -1.0170  -0.9691  -0.9516  -0.9387  -0.8853  -0.8421
    -0.8266  -0.7127  -0.6541  -0.6039  -0.5595  -0.5317  -0.5205  -0.4850
    -0.4405  -0.4056  -0.3962  -0.3091  -0.2431  -0.1992  -0.1701  -0.0998
    -0.0409  -0.0216   0.0316   0.0545   0.0697   0.0833   0.5310   0.5835
     0.6913   0.7316   1.0816   1.0926   1.1263   1.1665   1.4348   1.4532
     1.4616   1.5008   1.6294   1.7241   1.7509   1.7880   1.8119   1.8347
     1.8434   1.8708   1.8841   1.9069   1.9139   1.9603   1.9612   1.9901
     2.0277   2.0334   2.0472   2.0875   2.1079   2.1223   2.1532   2.1821
     2.2433   2.3115   2.4465   2.4759   2.5819   2.6107   2.6323   2.6487
     2.6648   2.6895   2.6945   2.7164   2.7266   2.7425   2.7630   2.7756
     2.8390   2.8414   2.8635   2.8783   2.8879   2.9077   2.9142   2.9220
     3.0255   3.0308   3.0571   3.0678   4.0265   4.0466   4.0879   4.1013
     4.3304   4.4039   4.4292   4.6701   4.7924   4.8749   5.0036   5.0938
     5.1034   5.2168   5.3135   5.4139   5.8596   5.8902   5.9625   6.0345
     6.4655   6.8600   6.9283   7.1766   7.9046   7.9239   7.9396   7.9846
     8.0206   8.0792   8.1336   8.2785   8.3913   8.5956   8.6185   8.6262
     8.6686   8.7355   8.7590

     occupation numbers 
     1.0000   1.0000   1.0000   1.0000   1.0000   1.0000   1.0000   1.0000
     1.0000   1.0000   1.0000   1.0000   1.0000   1.0000   1.0000   1.0000
     1.0000   1.0000   1.0000   1.0000   1.0000   1.0000   1.0000   1.0000
     1.0000   1.0000   1.0000   1.0000   1.0000   1.0000   1.0000   1.0000
     1.0000   1.0000   1.0000   1.0000   1.0000   1.0000   1.0000   1.0000
     1.0000   1.0000   1.0000   1.0000   1.0000   1.0000   1.0000   1.0000
     1.0000   1.0000   1.0000   1.0000   1.0000   1.0000   1.0000   1.0000
     1.0000   1.0000   1.0000   1.0000   1.0000   1.0000   1.0000   1.0000
     1.0000   1.0000   1.0000   1.0000   1.0000   1.0000   1.0000   1.0000
     1.0000   1.0000   1.0000   1.0000   1.0000   1.0000   1.0000   1.0000
     1.0000   1.0000   1.0000   1.0000   1.0000   1.0000   1.0000   1.0000
     1.0000   1.0000   1.0000   1.0000   1.0000   1.0000   1.0000   1.0000
     1.0000   1.0000   1.0000   1.0000   1.0000   1.0000   1.0000   1.0000
     1.0000   1.0000   1.0000   1.0000   1.0000   1.0000   1.0000   1.0000
     1.0000   1.0000   1.0000   1.0000   1.0000   1.0000   1.0000   1.0000
     1.0000   1.0000   1.0000   1.0000   1.0000   1.0000   1.0000   1.0000
     1.0000   1.0000   1.0000   1.0000   1.0000   1.0000   1.0000   1.0000
     1.0000   1.0000   1.0000   1.0000   1.0000   1.0000   1.0000   1.0000
     1.0000   1.0000   1.0000   1.0000   1.0000   1.0000   1.0000   1.0000
     1.0000   1.0000   1.0000   1.0000   1.0000   1.0000   1.0000   1.0000
     1.0000   0.9999   0.9996   0.9996   0.9995   0.9994   0.9976   0.9974
     0.9973   0.9968   0.9944   0.9917   0.9908   0.9893   0.9883   0.9872
     0.9867   0.9853   0.9845   0.9832   0.9827   0.9796   0.9795   0.9773
     0.9741   0.9736   0.9723   0.9683   0.9661   0.9644   0.9607   0.9569
     0.9479   0.9362   0.9071   0.8996   0.8690   0.8597   0.8525   0.8468
     0.8410   0.8320   0.8301   0.8218   0.8178   0.8115   0.8032   0.7979
     0.7704   0.7693   0.7592   0.7523   0.7478   0.7383   0.7352   0.7313
     0.6784   0.6756   0.6614   0.6556   0.1531   0.1462   0.1326   0.1283
     0.0702   0.0566   0.0525   0.0239   0.0154   0.0112   0.0067   0.0046
     0.0044   0.0026   0.0017   0.0010   0.0001   0.0001   0.0000   0.0000
     0.0000   0.0000   0.0000   0.0000   0.0000   0.0000   0.0000   0.0000
     0.0000   0.0000   0.0000   0.0000   0.0000   0.0000   0.0000   0.0000
     0.0000   0.0000   0.0000

          k = 0.2500 0.0000 0.0000 ( 65257 PWs)   bands (ev):

   -92.6904 -92.6378 -92.5441 -92.4988 -92.4400 -92.3967 -92.3793 -92.2600
   -56.0438 -56.0245 -55.9015 -55.8910 -55.8847 -55.8778 -55.8420 -55.8133
   -55.7979 -55.7962 -55.7883 -55.7474 -55.7302 -55.6907 -55.6705 -55.6400
   -55.6341 -55.5853 -55.5850 -55.5819 -55.5735 -55.5350 -55.5097 -55.4261
   -31.2664 -31.2502 -31.1291 -31.1065 -31.0201 -30.9955 -30.8601 -30.4356
   -29.8373 -29.7941 -29.7674 -29.6592 -15.0378 -14.9888 -14.9257 -14.7781
   -14.6707 -14.4720 -14.3458 -14.1648 -14.1477 -14.1183 -14.0863 -14.0614
   -14.0244 -14.0103 -13.9928 -13.9729 -13.9491 -13.8297 -13.7986 -13.6491
   -13.5817 -13.5685 -13.5073 -13.4819 -13.4681 -13.4069 -13.3351 -13.3030
   -13.2025 -13.1495 -13.1431 -13.1020 -13.0506 -13.0342 -13.0175 -13.0018
   -12.9670 -12.9426 -12.9238 -12.9025 -12.8804 -12.8097 -12.7835 -12.7606
   -12.6612 -12.6159 -12.4687 -12.4385 -12.3958 -12.3618 -12.2388 -11.9849
   -11.9318 -11.8146 -11.7638 -11.7465 -11.7313 -11.7049 -11.6550 -11.6321
   -11.6237 -11.5740 -11.4824 -11.4280 -11.4221  -2.7941  -2.5725  -2.4428
[...]
     0.3502   0.3284   0.2048   0.0789   0.0450   0.0217   0.0061   0.0049
     0.0003   0.0001   0.0001   0.0000   0.0000   0.0000   0.0000   0.0000
     0.0000   0.0000   0.0000   0.0000   0.0000   0.0000   0.0000   0.0000
     0.0000   0.0000   0.0000   0.0000   0.0000   0.0000   0.0000   0.0000
     0.0000   0.0000   0.0000

          k =-0.5000 0.0000 0.0000 ( 65180 PWs)   bands (ev):

   -92.6904 -92.6378 -92.5441 -92.4988 -92.4400 -92.3967 -92.3793 -92.2600
   -56.0438 -56.0245 -55.9015 -55.8910 -55.8847 -55.8778 -55.8420 -55.8133
   -55.7979 -55.7962 -55.7883 -55.7474 -55.7302 -55.6907 -55.6705 -55.6400
   -55.6341 -55.5853 -55.5850 -55.5819 -55.5735 -55.5350 -55.5097 -55.4261
   -31.2643 -31.2524 -31.1290 -31.1061 -31.0205 -30.9955 -30.8602 -30.4357
   -29.8363 -29.7951 -29.7670 -29.6596 -15.0031 -14.9472 -14.8861 -14.7811
   -14.6755 -14.5333 -14.3797 -14.2496 -14.1215 -14.1082 -14.0978 -14.0338
   -13.9820 -13.9737 -13.9439 -13.8962 -13.8941 -13.8740 -13.8275 -13.8136
   -13.6974 -13.5441 -13.5138 -13.4842 -13.4770 -13.4109 -13.3540 -13.2764
   -13.2578 -13.2343 -13.2077 -13.0959 -13.0444 -13.0318 -13.0089 -12.9995
   -12.9740 -12.9357 -12.9170 -12.9028 -12.8854 -12.7771 -12.6303 -12.6211
   -12.6040 -12.5645 -12.5307 -12.4096 -12.3609 -12.3219 -12.3165 -12.0510
   -12.0107 -11.7680 -11.7453 -11.7394 -11.7231 -11.7054 -11.6645 -11.6019
   -11.5849 -11.5527 -11.5051 -11.4962 -11.4812  -2.5697  -2.5319  -2.3677
    -2.3290  -2.0147  -1.9407  -1.7909  -1.6746  -1.6360  -1.5903  -1.5416
    -1.5177  -1.3940  -1.3499  -1.3336  -1.2554  -1.2296  -1.2163  -1.1833
    -1.1677  -1.1078  -1.0422  -1.0144  -0.9833  -0.8879  -0.8426  -0.7927
    -0.7613  -0.7391  -0.7099  -0.6622  -0.6371  -0.5955  -0.5002  -0.4231
    -0.3621  -0.3005  -0.1244  -0.0960  -0.0445  -0.0105   0.0610   0.0667
     0.2104   0.2397   0.2898   0.4517   0.5505   0.5993   0.6868   0.7692
     0.8844   0.8882   1.0228   1.0427   1.0971   1.1269   1.1633   1.1769
     1.2183   1.2470   1.3126   1.3606   1.4090   1.4152   1.7216   1.7255
     1.7484   1.7687   1.8701   1.8837   1.9020   1.9132   1.9380   1.9477
     1.9931   2.0109   2.0417   2.0885   2.1066   2.1569   2.1847   2.2326
     2.3455   2.4399   2.4533   2.4909   2.5172   2.5322   2.6183   2.6373
     2.6695   2.7347   2.7440   2.7500   2.7796   2.8495   2.8932   2.9383
     2.9682   3.0113   3.0156   3.0159   3.0279   3.0437   3.0546   3.0690
     3.0733   3.0960   3.0994   3.1200   3.1402   3.1456   3.2766   3.2805
     4.0882   4.1374   4.1997   4.3499   4.8024   4.8750   5.0538   5.0594
     5.4907   5.5177   5.6071   5.6636   6.0379   6.0460   6.2041   6.5333
     6.8029   7.0079   7.2883   7.3163   7.3562   7.4022   7.6936   7.7859
     7.8814   7.9076   8.2077   8.3029   8.3780   8.5212   8.5905   8.6560
     8.7696   8.7969   8.9503

     occupation numbers 
     1.0000   1.0000   1.0000   1.0000   1.0000   1.0000   1.0000   1.0000
     1.0000   1.0000   1.0000   1.0000   1.0000   1.0000   1.0000   1.0000
     1.0000   1.0000   1.0000   1.0000   1.0000   1.0000   1.0000   1.0000
     1.0000   1.0000   1.0000   1.0000   1.0000   1.0000   1.0000   1.0000
     1.0000   1.0000   1.0000   1.0000   1.0000   1.0000   1.0000   1.0000
     1.0000   1.0000   1.0000   1.0000   1.0000   1.0000   1.0000   1.0000
     1.0000   1.0000   1.0000   1.0000   1.0000   1.0000   1.0000   1.0000
     1.0000   1.0000   1.0000   1.0000   1.0000   1.0000   1.0000   1.0000
     1.0000   1.0000   1.0000   1.0000   1.0000   1.0000   1.0000   1.0000
     1.0000   1.0000   1.0000   1.0000   1.0000   1.0000   1.0000   1.0000
     1.0000   1.0000   1.0000   1.0000   1.0000   1.0000   1.0000   1.0000
     1.0000   1.0000   1.0000   1.0000   1.0000   1.0000   1.0000   1.0000
     1.0000   1.0000   1.0000   1.0000   1.0000   1.0000   1.0000   1.0000
     1.0000   1.0000   1.0000   1.0000   1.0000   1.0000   1.0000   1.0000
     1.0000   1.0000   1.0000   1.0000   1.0000   1.0000   1.0000   1.0000
     1.0000   1.0000   1.0000   1.0000   1.0000   1.0000   1.0000   1.0000
     1.0000   1.0000   1.0000   1.0000   1.0000   1.0000   1.0000   1.0000
     1.0000   1.0000   1.0000   1.0000   1.0000   1.0000   1.0000   1.0000
     1.0000   1.0000   1.0000   1.0000   1.0000   1.0000   1.0000   1.0000
     1.0000   1.0000   1.0000   1.0000   1.0000   1.0000   1.0000   0.9999
     0.9999   0.9999   0.9997   0.9997   0.9996   0.9995   0.9994   0.9993
     0.9992   0.9990   0.9987   0.9983   0.9979   0.9978   0.9918   0.9917
     0.9909   0.9901   0.9853   0.9846   0.9835   0.9828   0.9811   0.9805
     0.9770   0.9756   0.9728   0.9682   0.9662   0.9602   0.9565   0.9496
     0.9296   0.9087   0.9054   0.8956   0.8884   0.8841   0.8572   0.8507
     0.8393   0.8146   0.8109   0.8085   0.7963   0.7656   0.7453   0.7233
     0.7082   0.6859   0.6836   0.6835   0.6771   0.6686   0.6628   0.6549
     0.6526   0.6400   0.6381   0.6266   0.6152   0.6121   0.5360   0.5337
     0.1325   0.1174   0.1002   0.0664   0.0148   0.0112   0.0054   0.0053
     0.0007   0.0006   0.0004   0.0003   0.0000   0.0000   0.0000   0.0000
     0.0000   0.0000   0.0000   0.0000   0.0000   0.0000   0.0000   0.0000
     0.0000   0.0000   0.0000   0.0000   0.0000   0.0000   0.0000   0.0000
     0.0000   0.0000   0.0000

          k =-0.2500 0.2500 0.0000 ( 65198 PWs)   bands (ev):

   -92.6904 -92.6378 -92.5441 -92.4988 -92.4400 -92.3967 -92.3793 -92.2600
   -56.0438 -56.0245 -55.9015 -55.8910 -55.8847 -55.8778 -55.8420 -55.8133
   -55.7979 -55.7962 -55.7883 -55.7474 -55.7302 -55.6907 -55.6705 -55.6400
   -55.6341 -55.5853 -55.5850 -55.5819 -55.5735 -55.5350 -55.5097 -55.4261
   -31.2662 -31.2501 -31.1289 -31.1067 -31.0203 -30.9958 -30.8600 -30.4357
   -29.8367 -29.7937 -29.7680 -29.6596 -15.0061 -14.9579 -14.8902 -14.7735
   -14.6597 -14.5323 -14.4509 -14.2424 -14.1047 -14.0753 -14.0612 -14.0133
   -13.9901 -13.9727 -13.9666 -13.9481 -13.9131 -13.8245 -13.8136 -13.6621
   -13.6355 -13.6053 -13.5854 -13.5377 -13.4859 -13.4255 -13.4201 -13.2824
   -13.2524 -13.2130 -13.1372 -13.0970 -13.0569 -13.0293 -12.9990 -12.9790
   -12.9457 -12.9197 -12.9147 -12.8900 -12.8292 -12.7983 -12.7603 -12.7306
   -12.6820 -12.5773 -12.4320 -12.4182 -12.3810 -12.3365 -12.2727 -12.0244
   -11.9576 -11.7869 -11.7660 -11.7378 -11.7265 -11.6851 -11.6500 -11.6274
   -11.6064 -11.5838 -11.4973 -11.4532 -11.4439  -2.6546  -2.4465  -2.3258
    -2.2368  -2.1188  -2.0527  -1.8501  -1.7041  -1.6866  -1.6572  -1.5654
    -1.5294  -1.4362  -1.4021  -1.3759  -1.2411  -1.2121  -1.1708  -1.1071
    -1.0752  -1.0202  -0.9994  -0.9596  -0.9310  -0.8904  -0.8273  -0.7791
    -0.7165  -0.6476  -0.6201  -0.5692  -0.5404  -0.4951  -0.4398  -0.3941
    -0.3538  -0.2537  -0.2197  -0.2072  -0.1655  -0.0990  -0.0196   0.0226
     0.0494   0.1306   0.1543   0.4037   0.5711   0.6117   0.6519   0.7144
     0.7808   0.8332   0.8912   0.9135   1.1943   1.3034   1.3440   1.3758
     1.3813   1.4257   1.4406   1.4863   1.5160   1.5304   1.5559   1.6016
     1.6190   1.6594   1.6772   1.7218   1.8150   1.8364   1.8503   1.9001
     1.9151   1.9584   2.0188   2.1205   2.2189   2.2455   2.2945   2.3138
     2.3831   2.4151   2.4448   2.4547   2.4628   2.4904   2.5073   2.6002
     2.6288   2.7186   2.8940   2.9025   2.9159   2.9259   2.9374   2.9512
     2.9572   2.9754   2.9839   2.9988   3.0082   3.0206   3.0302   3.0378
     3.0705   3.0805   3.0892   3.1234   3.4152   3.4975   3.5610   3.6461
     3.6569   3.8522   3.9736   4.3172   4.5278   4.7287   5.0037   5.1701
     5.6575   5.7071   5.7723   5.8451   5.9065   6.0532   6.1777   6.2020
     6.8856   6.9203   7.0783   7.2865   7.5725   7.6184   7.6784   7.8650
     7.9097   7.9916   8.2004   8.2780   8.3198   8.3275   8.4172   8.4589
     8.5873   8.7861   8.9000

     occupation numbers 
     1.0000   1.0000   1.0000   1.0000   1.0000   1.0000   1.0000   1.0000
     1.0000   1.0000   1.0000   1.0000   1.0000   1.0000   1.0000   1.0000
     1.0000   1.0000   1.0000   1.0000   1.0000   1.0000   1.0000   1.0000
     1.0000   1.0000   1.0000   1.0000   1.0000   1.0000   1.0000   1.0000
     1.0000   1.0000   1.0000   1.0000   1.0000   1.0000   1.0000   1.0000
     1.0000   1.0000   1.0000   1.0000   1.0000   1.0000   1.0000   1.0000
     1.0000   1.0000   1.0000   1.0000   1.0000   1.0000   1.0000   1.0000
     1.0000   1.0000   1.0000   1.0000   1.0000   1.0000   1.0000   1.0000
     1.0000   1.0000   1.0000   1.0000   1.0000   1.0000   1.0000   1.0000
     1.0000   1.0000   1.0000   1.0000   1.0000   1.0000   1.0000   1.0000
     1.0000   1.0000   1.0000   1.0000   1.0000   1.0000   1.0000   1.0000
     1.0000   1.0000   1.0000   1.0000   1.0000   1.0000   1.0000   1.0000
     1.0000   1.0000   1.0000   1.0000   1.0000   1.0000   1.0000   1.0000
     1.0000   1.0000   1.0000   1.0000   1.0000   1.0000   1.0000   1.0000
     1.0000   1.0000   1.0000   1.0000   1.0000   1.0000   1.0000   1.0000
     1.0000   1.0000   1.0000   1.0000   1.0000   1.0000   1.0000   1.0000
     1.0000   1.0000   1.0000   1.0000   1.0000   1.0000   1.0000   1.0000
     1.0000   1.0000   1.0000   1.0000   1.0000   1.0000   1.0000   1.0000
     1.0000   1.0000   1.0000   1.0000   1.0000   1.0000   1.0000   1.0000
     1.0000   1.0000   1.0000   1.0000   1.0000   1.0000   1.0000   1.0000
     0.9999   0.9999   0.9999   0.9998   0.9993   0.9987   0.9985   0.9982
     0.9982   0.9977   0.9976   0.9970   0.9966   0.9964   0.9959   0.9950
     0.9946   0.9936   0.9932   0.9918   0.9881   0.9871   0.9864   0.9836
     0.9827   0.9797   0.9749   0.9646   0.9516   0.9475   0.9393   0.9358
     0.9218   0.9146   0.9075   0.9050   0.9030   0.8958   0.8911   0.8632
     0.8537   0.8209   0.7449   0.7408   0.7343   0.7294   0.7237   0.7169
     0.7138   0.7045   0.7002   0.6924   0.6875   0.6810   0.6759   0.6718
     0.6541   0.6486   0.6438   0.6247   0.4540   0.4061   0.3700   0.3233
     0.3176   0.2223   0.1724   0.0728   0.0386   0.0194   0.0067   0.0033
     0.0003   0.0002   0.0001   0.0001   0.0001   0.0000   0.0000   0.0000
     0.0000   0.0000   0.0000   0.0000   0.0000   0.0000   0.0000   0.0000
     0.0000   0.0000   0.0000   0.0000   0.0000   0.0000   0.0000   0.0000
     0.0000   0.0000   0.0000

          k =-0.5000 0.2500 0.0000 ( 65138 PWs)   bands (ev):

   -92.6904 -92.6378 -92.5441 -92.4988 -92.4400 -92.3967 -92.3793 -92.2600
   -56.0438 -56.0245 -55.9015 -55.8910 -55.8847 -55.8778 -55.8420 -55.8133
   -55.7979 -55.7962 -55.7883 -55.7474 -55.7302 -55.6907 -55.6705 -55.6400
   -55.6341 -55.5853 -55.5850 -55.5819 -55.5735 -55.5350 -55.5097 -55.4261
   -31.2641 -31.2523 -31.1288 -31.1063 -31.0207 -30.9957 -30.8601 -30.4358
   -29.8357 -29.7947 -29.7676 -29.6600 -14.9695 -14.9213 -14.8429 -14.7472
   -14.7052 -14.5801 -14.4861 -14.3636 -14.0548 -14.0241 -14.0127 -13.9757
   -13.9636 -13.9443 -13.9183 -13.8826 -13.8806 -13.8520 -13.8174 -13.8069
   -13.6930 -13.6268 -13.5778 -13.5736 -13.5595 -13.4627 -13.4568 -13.3198
   -13.2849 -13.1901 -13.1554 -13.0673 -13.0475 -13.0158 -13.0057 -12.9791
   -12.9486 -12.9314 -12.9202 -12.8954 -12.8366 -12.7847 -12.6656 -12.6426
   -12.6123 -12.6049 -12.5290 -12.3839 -12.3316 -12.3123 -12.2625 -12.0479
   -12.0188 -11.7603 -11.7469 -11.7332 -11.7215 -11.6989 -11.6693 -11.5893
   -11.5794 -11.5579 -11.5196 -11.4925 -11.4839  -2.4273  -2.3860  -2.2372
    -2.1954  -2.0340  -1.9592  -1.8152  -1.6811  -1.6243  -1.5976  -1.5580
    -1.5199  -1.4389  -1.3238  -1.2668  -1.2466  -1.2246  -1.2117  -1.1296
    -1.1129  -1.0716  -1.0567  -0.9957  -0.9651  -0.9282  -0.8924  -0.8636
    -0.8053  -0.7785  -0.7367  -0.7026  -0.5983  -0.5695  -0.4819  -0.4198
    -0.3869  -0.3332  -0.2468  -0.2118  -0.1128  -0.0689  -0.0157   0.0404
     0.0593   0.1332   0.1612   0.1960   0.2432   0.2833   0.5939   0.6614
     0.7368   0.7719   1.0322   1.0878   1.1595   1.1894   1.3630   1.3994
     1.4370   1.4479   1.4664   1.4844   1.5545   1.5967   1.6399   1.6660
     1.7983   1.8289   1.8572   1.8699   1.9214   1.9342   1.9491   1.9642
     1.9850   2.0062   2.0560   2.0645   2.1014   2.1247   2.1612   2.2128
     2.3345   2.4264   2.4493   2.4609   2.4898   2.5328   2.5645   2.6347
     2.6648   2.6703   2.7095   2.7423   2.7648   2.8492   2.8895   2.9037
     2.9083   2.9294   2.9526   2.9648   2.9801   2.9919   3.0141   3.0266
     3.0368   3.0439   3.0552   3.0670   3.5950   3.6456   3.7857   3.8085
     4.0940   4.1609   4.2094   4.4269   4.7969   4.8927   5.0525   5.0871
     5.4161   5.4425   5.5961   5.6304   5.7577   5.7971   6.2898   6.3989
     6.5005   6.6660   7.2086   7.3522   7.5471   7.7199   7.8020   7.8891
     7.9937   8.0383   8.2089   8.4100   8.4605   8.5272   8.5671   8.5874
     8.6661   8.7427   8.8362

     occupation numbers 
     1.0000   1.0000   1.0000   1.0000   1.0000   1.0000   1.0000   1.0000
     1.0000   1.0000   1.0000   1.0000   1.0000   1.0000   1.0000   1.0000
     1.0000   1.0000   1.0000   1.0000   1.0000   1.0000   1.0000   1.0000
     1.0000   1.0000   1.0000   1.0000   1.0000   1.0000   1.0000   1.0000
     1.0000   1.0000   1.0000   1.0000   1.0000   1.0000   1.0000   1.0000
     1.0000   1.0000   1.0000   1.0000   1.0000   1.0000   1.0000   1.0000
     1.0000   1.0000   1.0000   1.0000   1.0000   1.0000   1.0000   1.0000
     1.0000   1.0000   1.0000   1.0000   1.0000   1.0000   1.0000   1.0000
     1.0000   1.0000   1.0000   1.0000   1.0000   1.0000   1.0000   1.0000
     1.0000   1.0000   1.0000   1.0000   1.0000   1.0000   1.0000   1.0000
     1.0000   1.0000   1.0000   1.0000   1.0000   1.0000   1.0000   1.0000
     1.0000   1.0000   1.0000   1.0000   1.0000   1.0000   1.0000   1.0000
     1.0000   1.0000   1.0000   1.0000   1.0000   1.0000   1.0000   1.0000
     1.0000   1.0000   1.0000   1.0000   1.0000   1.0000   1.0000   1.0000
     1.0000   1.0000   1.0000   1.0000   1.0000   1.0000   1.0000   1.0000
     1.0000   1.0000   1.0000   1.0000   1.0000   1.0000   1.0000   1.0000
     1.0000   1.0000   1.0000   1.0000   1.0000   1.0000   1.0000   1.0000
     1.0000   1.0000   1.0000   1.0000   1.0000   1.0000   1.0000   1.0000
     1.0000   1.0000   1.0000   1.0000   1.0000   1.0000   1.0000   1.0000
     1.0000   1.0000   1.0000   1.0000   1.0000   1.0000   1.0000   1.0000
     0.9999   0.9999   0.9997   0.9996   0.9994   0.9993   0.9983   0.9980
     0.9976   0.9975   0.9973   0.9970   0.9959   0.9951   0.9941   0.9935
     0.9889   0.9875   0.9860   0.9853   0.9823   0.9814   0.9804   0.9793
     0.9777   0.9760   0.9715   0.9706   0.9668   0.9641   0.9596   0.9525
     0.9318   0.9119   0.9064   0.9035   0.8959   0.8839   0.8744   0.8517
     0.8411   0.8391   0.8244   0.8116   0.8024   0.7658   0.7470   0.7402
     0.7380   0.7277   0.7161   0.7100   0.7021   0.6961   0.6844   0.6778
     0.6724   0.6685   0.6624   0.6560   0.3510   0.3236   0.2528   0.2421
     0.1306   0.1107   0.0977   0.0529   0.0151   0.0105   0.0054   0.0047
     0.0010   0.0009   0.0004   0.0003   0.0002   0.0001   0.0000   0.0000
     0.0000   0.0000   0.0000   0.0000   0.0000   0.0000   0.0000   0.0000
     0.0000   0.0000   0.0000   0.0000   0.0000   0.0000   0.0000   0.0000
     0.0000   0.0000   0.0000

     the Fermi energy is     3.3374 ev

!    total energy              =   -4441.66469676 Ry
     estimated scf accuracy    <          8.0E-09 Ry
     smearing contrib. (-TS)   =      -1.15500437 Ry
     internal energy E=F+TS    =   -4440.50969238 Ry

     The total energy is F=E-TS. E is the sum of the following terms:
     one-electron contribution =  -20805.31453260 Ry
     hartree contribution      =   10534.81396420 Ry
     xc contribution           =    -694.18736162 Ry
     ewald contribution        =    6800.34690597 Ry
     one-center paw contrib.   =    -276.16866834 Ry
      -> PAW hartree energy AE =      25.15689317 Ry
      -> PAW hartree energy PS =     -25.04084964 Ry
      -> PAW xc energy AE      =     -16.51663724 Ry
      -> PAW xc energy PS      =       6.87606068 Ry
      -> total E_H with PAW    =   10534.93000772 Ry
      -> total E_XC with PAW   =    -703.82793818 Ry

     convergence has been achieved in  47 iterations

     Writing all to output data dir /bsuhome/zayahcortright/scratch/pwscf.save/
 
     init_run     :      7.90s CPU      8.50s WALL (       1 calls)
     electrons    :    766.16s CPU    841.30s WALL (       1 calls)

     Called by init_run:
     wfcinit      :      6.17s CPU      6.39s WALL (       1 calls)
     wfcinit:atom :      0.05s CPU      0.07s WALL (       5 calls)
     wfcinit:wfcr :      5.85s CPU      5.98s WALL (       5 calls)
     potinit      :      0.18s CPU      0.20s WALL (       1 calls)
     hinit0       :      0.65s CPU      0.79s WALL (       1 calls)

     Called by electrons:
     c_bands      :    617.07s CPU    628.89s WALL (      47 calls)
     sum_band     :    111.41s CPU    146.21s WALL (      47 calls)
     v_of_rho     :      5.16s CPU      5.51s WALL (      48 calls)
     v_h          :      0.44s CPU      0.44s WALL (      48 calls)
     v_xc         :      4.72s CPU      5.07s WALL (      48 calls)
     newd         :     18.30s CPU     46.10s WALL (      48 calls)
     PAW_pot      :      1.59s CPU      1.62s WALL (      48 calls)
     mix_rho      :     12.00s CPU     12.39s WALL (      47 calls)

     Called by c_bands:
     init_us_2    :      6.21s CPU      6.28s WALL (     475 calls)
     init_us_2:cp :      6.20s CPU      6.28s WALL (     475 calls)
     cegterg      :    583.31s CPU    594.80s WALL (     235 calls)

     Called by sum_band:
     sum_band:wei :      0.36s CPU      0.36s WALL (      47 calls)
     sum_band:loo :     89.40s CPU     90.17s WALL (      47 calls)
     sum_band:buf :      1.26s CPU      1.30s WALL (     235 calls)
     sum_band:ini :      2.73s CPU      2.75s WALL (     235 calls)
     sum_band:cal :     18.58s CPU     18.69s WALL (     235 calls)
     sum_band:bec :      0.56s CPU      0.59s WALL (     235 calls)
     addusdens    :     17.69s CPU     51.67s WALL (      47 calls)
                                        0.00s GPU  (      47 calls)
     addusd:skk   :      0.32s CPU      1.82s WALL (     188 calls)
                                        0.00s GPU  (     188 calls)

     Called by *egterg:
     cdiaghg      :     61.74s CPU     62.02s WALL (    1327 calls)
     cegterg:over :     46.35s CPU     46.60s WALL (    1092 calls)
     cegterg:upda :     48.73s CPU     49.82s WALL (    1092 calls)
     cegterg:last :     67.40s CPU     67.69s WALL (     425 calls)
     cdiaghg:chol :      3.47s CPU      3.50s WALL (    1327 calls)
     cdiaghg:inve :      3.85s CPU      3.87s WALL (    1327 calls)
     cdiaghg:para :      7.85s CPU      7.90s WALL (    2654 calls)
     h_psi        :    296.13s CPU    300.64s WALL (    1332 calls)
     s_psi        :     38.08s CPU     38.20s WALL (    1332 calls)
     g_psi        :      2.56s CPU      2.58s WALL (    1092 calls)

     Called by h_psi:
     h_psi:calbec :     43.94s CPU     44.16s WALL (    1332 calls)
     vloc_psi     :    209.29s CPU    211.30s WALL (    1332 calls)
     add_vuspsi   :     37.82s CPU     38.02s WALL (    1332 calls)

     General routines
     calbec       :     62.52s CPU     62.84s WALL (    1567 calls)
     fft          :      5.69s CPU      5.75s WALL (     622 calls)
     ffts         :      4.50s CPU      4.55s WALL (    5019 calls)
     fftw         :    192.40s CPU    193.98s WALL (  318653 calls)
     interpolate  :      0.40s CPU      0.41s WALL (      48 calls)
 
     Parallel routines

     PAW routines
     PAW_pot      :      1.59s CPU      1.62s WALL (      48 calls)
 
     PWSCF        :  12m55.73s CPU  14m14.36s WALL

 
   This run was terminated on:  18:36:22  21Jun2024            

=------------------------------------------------------------------------------=
   JOB DONE.
=------------------------------------------------------------------------------=
