
     Program PWSCF v.7.2 starts on 18Jun2024 at 23:48:28 

     This program is part of the open-source Quantum ESPRESSO suite
     for quantum simulation of materials; please cite
         "P. Giannozzi et al., J. Phys.:Condens. Matter 21 395502 (2009);
         "P. Giannozzi et al., J. Phys.:Condens. Matter 29 465901 (2017);
         "P. Giannozzi et al., J. Chem. Phys. 152 154105 (2020);
          URL http://www.quantum-espresso.org", 
     in publications or presentations arising from this work. More details at
     http://www.quantum-espresso.org/quote

     Parallel version (MPI & OpenMP), running on      48 processor cores
     Number of MPI processes:                48
     Threads/MPI process:                     1

     MPI processes distributed on     1 nodes
     16422 MiB available memory on the printing compute node when the environment starts
 
     Reading input from espresso.pwi
Warning: card &CELL ignored
Warning: card / ignored
Warning: card &FCP ignored
Warning: card / ignored
Warning: card &RISM ignored
Warning: card / ignored

     Current dimensions of program PWSCF are:
     Max number of different atomic species (ntypx) = 10
     Max number of k-points (npk) =  40000
     Max angular momentum in pseudopotentials (lmaxx) =  4
     file O.pbe-n-kjpaw_psl.0.1.UPF: wavefunction(s)  2P renormalized
     signal trapping enabled: kill the code with -SIGUSR1 to stop cleanly the simulation 
 
     K-points division:     npool     =       2
     R & G space division:  proc/nbgrp/npool/nimage =      24
     Subspace diagonalization in iterative solution of the eigenvalue problem:
     one sub-group per band group will be used
     scalapack distributed-memory algorithm (size of sub-group:  3*  3 procs)

 
     Parallelization info
     --------------------
     sticks:   dense  smooth     PW     G-vecs:    dense   smooth      PW
     Min         350     175     47                61430    21716    3036
     Max         351     177     48                61449    21727    3041
     Sum        8421    4205   1137              1474595   521381   72913
 
     Using Slab Decomposition
 


     bravais-lattice index     =            0
     lattice parameter (alat)  =      14.8599  a.u.
     unit-cell volume          =    8305.1283 (a.u.)^3
     number of atoms/cell      =           51
     number of atomic types    =            4
     number of electrons       =       437.00
     number of Kohn-Sham states=          263
     kinetic-energy cutoff     =      60.0000  Ry
     charge density cutoff     =     480.0000  Ry
     scf convergence threshold =      1.0E-08
     mixing beta               =       0.1500
     number of iterations used =            8  local-TF  mixing
     Exchange-correlation= PBE
                           (   1   4   3   4   0   0   0)

     celldm(1)=  14.859904  celldm(2)=   0.000000  celldm(3)=   0.000000
     celldm(4)=   0.000000  celldm(5)=   0.000000  celldm(6)=   0.000000

     crystal axes: (cart. coord. in units of alat)
               a(1) = (   1.000000   0.000000   0.000000 )  
               a(2) = (   0.000000   1.000000   0.000000 )  
               a(3) = (   0.000000   0.000000   2.531036 )  

     reciprocal axes: (cart. coord. in units 2 pi/alat)
               b(1) = (  1.000000  0.000000  0.000000 )  
               b(2) = (  0.000000  1.000000  0.000000 )  
               b(3) = (  0.000000  0.000000  0.395095 )  


     PseudoPot. # 1 for Sr read from file:
     /bsuhome/zayahcortright/q-e/pseudo/Sr_pbe_v1.uspp.F.UPF
     MD5 check sum: 6b418c05fbe9db5448babca5e47b7a5b
     Pseudo is Ultrasoft + core correction, Zval = 10.0
     Generated by new atomic code, or converted to UPF format
     Using radial grid of  883 points,  6 beta functions with: 
                l(1) =   0
                l(2) =   0
                l(3) =   1
                l(4) =   1
                l(5) =   2
                l(6) =   2
     Q(r) pseudized with  6 coefficients,  rinner =    1.400   1.400   1.400
                                                       1.400   1.400

     PseudoPot. # 2 for O  read from file:
     /bsuhome/zayahcortright/q-e/pseudo/O.pbe-n-kjpaw_psl.0.1.UPF
     MD5 check sum: 0234752ac141de4415c5fc33072bef88
     Pseudo is Projector augmented-wave + core cor, Zval =  6.0
     Generated using "atomic" code by A. Dal Corso  v.5.0.99 svn rev. 10869
     Shape of augmentation charge: BESSEL
     Using radial grid of 1095 points,  4 beta functions with: 
                l(1) =   0
                l(2) =   0
                l(3) =   1
                l(4) =   1
     Q(r) pseudized with 0 coefficients 


     PseudoPot. # 3 for Co read from file:
     /bsuhome/zayahcortright/q-e/pseudo/Co_pbe_v1.2.uspp.F.UPF
     MD5 check sum: 5f91765df6ddd3222702df6e7b74a16d
     Pseudo is Ultrasoft + core correction, Zval = 17.0
     Generated by new atomic code, or converted to UPF format
     Using radial grid of  863 points,  6 beta functions with: 
                l(1) =   0
                l(2) =   0
                l(3) =   1
                l(4) =   1
                l(5) =   2
                l(6) =   2
     Q(r) pseudized with  8 coefficients,  rinner =    1.200   1.200   1.200
                                                       1.200   1.200

     PseudoPot. # 4 for H  read from file:
     /bsuhome/zayahcortright/q-e/pseudo/H.pbe-rrkjus_psl.1.0.0.UPF
     MD5 check sum: f52b6d4d1c606e5624b1dc7b2218f220
     Pseudo is Ultrasoft, Zval =  1.0
     Generated using "atomic" code by A. Dal Corso  v.5.1
     Using radial grid of  929 points,  2 beta functions with: 
                l(1) =   0
                l(2) =   0
     Q(r) pseudized with 0 coefficients 


     atomic species   valence    mass     pseudopotential
        Sr            10.00    87.62000     Sr( 1.00)
        O              6.00    15.99900     O ( 1.00)
        Co            17.00    58.93319     Co( 1.00)
        H              1.00     1.00800     H ( 1.00)

     No symmetry found


                                    s                        frac. trans.

      isym =  1     identity                                     

 cryst.   s( 1) = (     1          0          0      )
                  (     0          1          0      )
                  (     0          0          1      )

 cart.    s( 1) = (  1.0000000  0.0000000  0.0000000 )
                  (  0.0000000  1.0000000  0.0000000 )
                  (  0.0000000  0.0000000  1.0000000 )


   Cartesian axes

     site n.     atom                  positions (alat units)
         1           Sr  tau(   1) = (   0.2508693   0.7491307   1.7574407  )
         2           O   tau(   2) = (   0.4985141   0.5014859   1.7715967  )
         3           Sr  tau(   3) = (   0.7482398   0.7454518   1.7648669  )
         4           Sr  tau(   4) = (   0.7441748   0.2558252   1.7667843  )
         5           Sr  tau(   5) = (   0.2508693   0.7491307   1.2696799  )
         6           Sr  tau(   6) = (   0.2508693   0.7491307   0.7632319  )
         7           Co  tau(   7) = (   0.4998914   0.5001086   1.0164559  )
         8           Co  tau(   8) = (   0.4936915   0.5063085   1.5135603  )
         9           O   tau(   9) = (   0.4988895   0.7610401   1.0164559  )
        10           O   tau(  10) = (   0.2389599   0.5011105   1.0164559  )
        11           O   tau(  11) = (   0.0070918   0.7374880   1.0164559  )
        12           O   tau(  12) = (   0.0088340   0.7405089   1.5135603  )
        13           O   tau(  13) = (   0.5066944   0.7415376   1.5135603  )
        14           O   tau(  14) = (   0.2584624   0.4933056   1.5135603  )
        15           O   tau(  15) = (   0.4985141   0.5014859   0.7773880  )
        16           O   tau(  16) = (   0.4985141   0.5014859   1.2555238  )
        17           Sr  tau(  17) = (   0.7482398   0.7454518   0.7706582  )
        18           Sr  tau(  18) = (   0.7482398   0.7454518   1.2622536  )
        19           Sr  tau(  19) = (   0.7441748   0.2558252   0.7725755  )
        20           Sr  tau(  20) = (   0.7441748   0.2558252   1.2603363  )
        21           O   tau(  21) = (   0.7322655   0.0078049   1.5135603  )
        22           O   tau(  22) = (   0.7558175   0.4996027   1.5135603  )
        23           O   tau(  23) = (   0.5003973   0.2441825   1.5135603  )
        24           O   tau(  24) = (   0.7527966   0.4978604   1.0164559  )
        25           O   tau(  25) = (   0.5021396   0.2472034   1.0164559  )
        26           O   tau(  26) = (   0.7517679   0.0000000   1.0164559  )
        27           O   tau(  27) = (   0.0114961   0.4948124   1.7455321  )
        28           O   tau(  28) = (   0.0048226   0.0077944   1.7715967  )
        29           Sr  tau(  29) = (   0.2545482   0.2517602   1.7648669  )
        30           O   tau(  30) = (   0.5048017   0.0015068   1.7786929  )
        31           Co  tau(  31) = (   0.0056869   0.5006215   1.0164559  )
        32           Co  tau(  32) = (   0.0065315   0.4997770   1.5135603  )
        33           Co  tau(  33) = (   0.0061999   0.0064171   1.0164559  )
        34           Co  tau(  34) = (   0.0000000   0.0126169   1.5135603  )
        35           O   tau(  35) = (   0.0114961   0.4948124   1.2815885  )
        36           O   tau(  36) = (   0.0114961   0.4948124   0.7513233  )
        37           O   tau(  37) = (   0.0051979   0.2673486   1.0164559  )
        38           O   tau(  38) = (   0.0130029   0.2478461   1.5135603  )
        39           O   tau(  39) = (   0.0048226   0.0077944   0.7773880  )
        40           O   tau(  40) = (   0.0048226   0.0077944   1.2555238  )
        41           Sr  tau(  41) = (   0.2545482   0.2517602   0.7706582  )
        42           Sr  tau(  42) = (   0.2545482   0.2517602   1.2622536  )
        43           Co  tau(  43) = (   0.4989925   0.0073160   1.5135603  )
        44           Co  tau(  44) = (   0.4998370   0.0064714   1.0164559  )
        45           O   tau(  45) = (   0.5048017   0.0015068   0.7844841  )
        46           O   tau(  46) = (   0.5048017   0.0015068   1.2484277  )
        47           O   tau(  47) = (   0.2621260   0.0059111   1.5135603  )
        48           O   tau(  48) = (   0.2591051   0.0041689   1.0164559  )
        49           O   tau(  49) = (   0.4264937   0.4264937   2.1602013  )
        50           O   tau(  50) = (   0.4264937   0.4264937   2.3186489  )
        51           H   tau(  51) = (   0.4264937   0.4264937   2.4431567  )

   Crystallographic axes

     site n.     atom                  positions (cryst. coord.)
         1           Sr  tau(   1) = (  0.2508693  0.7491307  0.6943562  )
         2           O   tau(   2) = (  0.4985141  0.5014859  0.6999492  )
         3           Sr  tau(   3) = (  0.7482398  0.7454518  0.6972903  )
         4           Sr  tau(   4) = (  0.7441748  0.2558252  0.6980478  )
         5           Sr  tau(   5) = (  0.2508693  0.7491307  0.5016443  )
         6           Sr  tau(   6) = (  0.2508693  0.7491307  0.3015492  )
         7           Co  tau(   7) = (  0.4998914  0.5001086  0.4015968  )
         8           Co  tau(   8) = (  0.4936915  0.5063085  0.5980003  )
         9           O   tau(   9) = (  0.4988895  0.7610401  0.4015968  )
        10           O   tau(  10) = (  0.2389599  0.5011105  0.4015968  )
        11           O   tau(  11) = (  0.0070918  0.7374880  0.4015968  )
        12           O   tau(  12) = (  0.0088340  0.7405089  0.5980003  )
        13           O   tau(  13) = (  0.5066944  0.7415376  0.5980003  )
        14           O   tau(  14) = (  0.2584624  0.4933056  0.5980003  )
        15           O   tau(  15) = (  0.4985141  0.5014859  0.3071422  )
        16           O   tau(  16) = (  0.4985141  0.5014859  0.4960513  )
        17           Sr  tau(  17) = (  0.7482398  0.7454518  0.3044833  )
        18           Sr  tau(  18) = (  0.7482398  0.7454518  0.4987103  )
        19           Sr  tau(  19) = (  0.7441748  0.2558252  0.3052408  )
        20           Sr  tau(  20) = (  0.7441748  0.2558252  0.4979527  )
        21           O   tau(  21) = (  0.7322655  0.0078049  0.5980003  )
        22           O   tau(  22) = (  0.7558175  0.4996027  0.5980003  )
        23           O   tau(  23) = (  0.5003973  0.2441825  0.5980003  )
        24           O   tau(  24) = (  0.7527966  0.4978604  0.4015968  )
        25           O   tau(  25) = (  0.5021396  0.2472034  0.4015968  )
        26           O   tau(  26) = (  0.7517679  0.0000000  0.4015968  )
        27           O   tau(  27) = (  0.0114961  0.4948124  0.6896512  )
        28           O   tau(  28) = (  0.0048226  0.0077944  0.6999492  )
        29           Sr  tau(  29) = (  0.2545482  0.2517602  0.6972903  )
        30           O   tau(  30) = (  0.5048017  0.0015068  0.7027529  )
        31           Co  tau(  31) = (  0.0056869  0.5006215  0.4015968  )
        32           Co  tau(  32) = (  0.0065315  0.4997770  0.5980003  )
        33           Co  tau(  33) = (  0.0061999  0.0064171  0.4015968  )
        34           Co  tau(  34) = (  0.0000000  0.0126169  0.5980003  )
        35           O   tau(  35) = (  0.0114961  0.4948124  0.5063494  )
        36           O   tau(  36) = (  0.0114961  0.4948124  0.2968442  )
        37           O   tau(  37) = (  0.0051979  0.2673486  0.4015968  )
        38           O   tau(  38) = (  0.0130029  0.2478461  0.5980003  )
        39           O   tau(  39) = (  0.0048226  0.0077944  0.3071422  )
        40           O   tau(  40) = (  0.0048226  0.0077944  0.4960513  )
        41           Sr  tau(  41) = (  0.2545482  0.2517602  0.3044833  )
        42           Sr  tau(  42) = (  0.2545482  0.2517602  0.4987103  )
        43           Co  tau(  43) = (  0.4989925  0.0073160  0.5980003  )
        44           Co  tau(  44) = (  0.4998370  0.0064714  0.4015968  )
        45           O   tau(  45) = (  0.5048017  0.0015068  0.3099459  )
        46           O   tau(  46) = (  0.5048017  0.0015068  0.4932477  )
        47           O   tau(  47) = (  0.2621260  0.0059111  0.5980003  )
        48           O   tau(  48) = (  0.2591051  0.0041689  0.4015968  )
        49           O   tau(  49) = (  0.4264937  0.4264937  0.8534850  )
        50           O   tau(  50) = (  0.4264937  0.4264937  0.9160869  )
        51           H   tau(  51) = (  0.4264937  0.4264937  0.9652793  )

     number of k points=    10  Gaussian smearing, width (Ry)=  0.0700
                       cart. coord. in units 2pi/alat
        k(    1) = (   0.0000000   0.0000000   0.0000000), wk =   0.1250000
        k(    2) = (   0.0000000   0.2500000   0.0000000), wk =   0.2500000
        k(    3) = (   0.0000000  -0.5000000   0.0000000), wk =   0.1250000
        k(    4) = (   0.2500000   0.2500000   0.0000000), wk =   0.2500000
        k(    5) = (   0.2500000  -0.5000000   0.0000000), wk =   0.2500000
        k(    6) = (  -0.5000000  -0.5000000   0.0000000), wk =   0.1250000
        k(    7) = (   0.2500000   0.0000000   0.0000000), wk =   0.2500000
        k(    8) = (  -0.5000000   0.0000000   0.0000000), wk =   0.1250000
        k(    9) = (  -0.2500000   0.2500000   0.0000000), wk =   0.2500000
        k(   10) = (  -0.5000000   0.2500000   0.0000000), wk =   0.2500000

                       cryst. coord.
        k(    1) = (   0.0000000   0.0000000   0.0000000), wk =   0.1250000
        k(    2) = (   0.0000000   0.2500000   0.0000000), wk =   0.2500000
        k(    3) = (   0.0000000  -0.5000000   0.0000000), wk =   0.1250000
        k(    4) = (   0.2500000   0.2500000   0.0000000), wk =   0.2500000
        k(    5) = (   0.2500000  -0.5000000   0.0000000), wk =   0.2500000
        k(    6) = (  -0.5000000  -0.5000000   0.0000000), wk =   0.1250000
        k(    7) = (   0.2500000   0.0000000   0.0000000), wk =   0.2500000
        k(    8) = (  -0.5000000   0.0000000   0.0000000), wk =   0.1250000
        k(    9) = (  -0.2500000   0.2500000   0.0000000), wk =   0.2500000
        k(   10) = (  -0.5000000   0.2500000   0.0000000), wk =   0.2500000

     Dense  grid:  1474595 G-vectors     FFT dimensions: ( 108, 108, 270)

     Smooth grid:   521381 G-vectors     FFT dimensions: (  75,  75, 192)

     Dynamical RAM for                 wfc:      10.90 MB

     Dynamical RAM for     wfc (w. buffer):      65.37 MB

     Dynamical RAM for           str. fact:       3.75 MB

     Dynamical RAM for           local pot:       0.00 MB

     Dynamical RAM for          nlocal pot:      24.94 MB

     Dynamical RAM for                qrad:       7.03 MB

     Dynamical RAM for          rho,v,vnew:       6.02 MB

     Dynamical RAM for               rhoin:       2.01 MB

     Dynamical RAM for            rho*nmix:      15.00 MB

     Dynamical RAM for           G-vectors:       3.68 MB

     Dynamical RAM for          h,s,v(r/c):       1.40 MB

     Dynamical RAM for          <psi|beta>:       2.42 MB

     Dynamical RAM for                 psi:      21.79 MB

     Dynamical RAM for                hpsi:      21.79 MB

     Dynamical RAM for                spsi:      21.79 MB

     Dynamical RAM for      wfcinit/wfcrot:      34.89 MB

     Dynamical RAM for           addusdens:     101.73 MB

     Estimated static dynamical RAM per process >     122.82 MB

     Estimated max dynamical RAM per process >     239.55 MB

     Estimated total dynamical RAM >      10.88 GB

     Check: negative core charge=   -0.000004

     Initial potential from superposition of free atoms

     starting charge     428.5961, renormalised to     437.0000

     negative rho (up, down):  7.814E-01 0.000E+00
     Starting wfcs are  381 randomized atomic wfcs
     Checking if some PAW data can be deallocated... 
       PAW data deallocated on   18 nodes for type:  2

     total cpu time spent up to now is        9.1 secs

     Self-consistent Calculation

     iteration #  1     ecut=    60.00 Ry     beta= 0.15
     Davidson diagonalization with overlap

---- Real-time Memory Report at c_bands before calling an iterative solver
             0 MiB given to the printing process from OS
             0 MiB allocation reported by mallinfo(arena+hblkhd)
          6899 MiB available memory on the node where the printing process lives
------------------
     ethr =  1.00E-02,  avg # of iterations =  2.0

     negative rho (up, down):  7.715E-01 0.000E+00

     total cpu time spent up to now is       25.2 secs

     total energy              =   -4489.28629489 Ry
     estimated scf accuracy    <      49.81090194 Ry

     iteration #  2     ecut=    60.00 Ry     beta= 0.15
     Davidson diagonalization with overlap

---- Real-time Memory Report at c_bands before calling an iterative solver
             0 MiB given to the printing process from OS
             0 MiB allocation reported by mallinfo(arena+hblkhd)
          7183 MiB available memory on the node where the printing process lives
------------------
     ethr =  1.00E-02,  avg # of iterations =  1.0

     negative rho (up, down):  7.613E-01 0.000E+00

     total cpu time spent up to now is       38.3 secs

     total energy              =   -4486.81745880 Ry
     estimated scf accuracy    <      35.33888463 Ry

     iteration #  3     ecut=    60.00 Ry     beta= 0.15
     Davidson diagonalization with overlap

---- Real-time Memory Report at c_bands before calling an iterative solver
             0 MiB given to the printing process from OS
             0 MiB allocation reported by mallinfo(arena+hblkhd)
          6385 MiB available memory on the node where the printing process lives
------------------
     ethr =  8.09E-03,  avg # of iterations =  1.0

     negative rho (up, down):  7.562E-01 0.000E+00

     total cpu time spent up to now is       51.5 secs

     total energy              =   -4486.76418789 Ry
     estimated scf accuracy    <      35.21181881 Ry

     iteration #  4     ecut=    60.00 Ry     beta= 0.15
     Davidson diagonalization with overlap

---- Real-time Memory Report at c_bands before calling an iterative solver
             0 MiB given to the printing process from OS
             0 MiB allocation reported by mallinfo(arena+hblkhd)
          6370 MiB available memory on the node where the printing process lives
------------------
     ethr =  8.06E-03,  avg # of iterations =  1.0

     negative rho (up, down):  7.574E-01 0.000E+00

     total cpu time spent up to now is       64.6 secs

     total energy              =   -4486.63234692 Ry
     estimated scf accuracy    <      34.31885515 Ry

     iteration #  5     ecut=    60.00 Ry     beta= 0.15
     Davidson diagonalization with overlap

---- Real-time Memory Report at c_bands before calling an iterative solver
             0 MiB given to the printing process from OS
             0 MiB allocation reported by mallinfo(arena+hblkhd)
          6345 MiB available memory on the node where the printing process lives
------------------
     ethr =  7.85E-03,  avg # of iterations =  1.0

     negative rho (up, down):  7.334E-01 0.000E+00

     total cpu time spent up to now is       77.8 secs

     total energy              =   -4482.67448650 Ry
     estimated scf accuracy    <      23.08141862 Ry

     iteration #  6     ecut=    60.00 Ry     beta= 0.15
     Davidson diagonalization with overlap

---- Real-time Memory Report at c_bands before calling an iterative solver
             0 MiB given to the printing process from OS
             0 MiB allocation reported by mallinfo(arena+hblkhd)
          6330 MiB available memory on the node where the printing process lives
------------------
     ethr =  5.28E-03,  avg # of iterations =  2.0

     negative rho (up, down):  7.480E-01 0.000E+00

     total cpu time spent up to now is       92.3 secs

     total energy              =   -4483.94233675 Ry
     estimated scf accuracy    <      42.54954647 Ry

     iteration #  7     ecut=    60.00 Ry     beta= 0.15
     Davidson diagonalization with overlap

---- Real-time Memory Report at c_bands before calling an iterative solver
             0 MiB given to the printing process from OS
             0 MiB allocation reported by mallinfo(arena+hblkhd)
          6304 MiB available memory on the node where the printing process lives
------------------
     ethr =  5.28E-03,  avg # of iterations =  1.0

     negative rho (up, down):  7.537E-01 0.000E+00

     total cpu time spent up to now is      105.1 secs

     total energy              =   -4483.41580070 Ry
     estimated scf accuracy    <      44.14898808 Ry

     iteration #  8     ecut=    60.00 Ry     beta= 0.15
     Davidson diagonalization with overlap

---- Real-time Memory Report at c_bands before calling an iterative solver
             0 MiB given to the printing process from OS
             0 MiB allocation reported by mallinfo(arena+hblkhd)
          6285 MiB available memory on the node where the printing process lives
------------------
     ethr =  5.28E-03,  avg # of iterations =  1.0

     negative rho (up, down):  7.511E-01 0.000E+00

     total cpu time spent up to now is      118.2 secs

     total energy              =   -4483.82834053 Ry
     estimated scf accuracy    <       6.18200039 Ry

     iteration #  9     ecut=    60.00 Ry     beta= 0.15
     Davidson diagonalization with overlap

---- Real-time Memory Report at c_bands before calling an iterative solver
             0 MiB given to the printing process from OS
             0 MiB allocation reported by mallinfo(arena+hblkhd)
          6272 MiB available memory on the node where the printing process lives
------------------
     ethr =  1.41E-03,  avg # of iterations =  5.2

     negative rho (up, down):  7.637E-01 0.000E+00

     total cpu time spent up to now is      133.8 secs

     total energy              =   -4483.78769259 Ry
     estimated scf accuracy    <       3.57769064 Ry

     iteration # 10     ecut=    60.00 Ry     beta= 0.15
     Davidson diagonalization with overlap

---- Real-time Memory Report at c_bands before calling an iterative solver
             0 MiB given to the printing process from OS
             0 MiB allocation reported by mallinfo(arena+hblkhd)
          6214 MiB available memory on the node where the printing process lives
------------------
     ethr =  8.19E-04,  avg # of iterations =  9.6

     negative rho (up, down):  7.840E-01 0.000E+00

     total cpu time spent up to now is      152.0 secs

     total energy              =   -4483.54513422 Ry
     estimated scf accuracy    <       4.79087000 Ry

     iteration # 11     ecut=    60.00 Ry     beta= 0.15
     Davidson diagonalization with overlap

---- Real-time Memory Report at c_bands before calling an iterative solver
             0 MiB given to the printing process from OS
             0 MiB allocation reported by mallinfo(arena+hblkhd)
          5913 MiB available memory on the node where the printing process lives
------------------
     ethr =  8.19E-04,  avg # of iterations =  7.7

     negative rho (up, down):  7.899E-01 0.000E+00

     total cpu time spent up to now is      169.7 secs

     total energy              =   -4483.29166621 Ry
     estimated scf accuracy    <       4.45779450 Ry

     iteration # 12     ecut=    60.00 Ry     beta= 0.15
     Davidson diagonalization with overlap

---- Real-time Memory Report at c_bands before calling an iterative solver
             0 MiB given to the printing process from OS
             0 MiB allocation reported by mallinfo(arena+hblkhd)
          5757 MiB available memory on the node where the printing process lives
------------------
     ethr =  8.19E-04,  avg # of iterations =  6.4

     negative rho (up, down):  8.014E-01 0.000E+00

     total cpu time spent up to now is      186.5 secs

     total energy              =   -4483.17247023 Ry
     estimated scf accuracy    <       2.39148507 Ry

     iteration # 13     ecut=    60.00 Ry     beta= 0.15
     Davidson diagonalization with overlap

---- Real-time Memory Report at c_bands before calling an iterative solver
             0 MiB given to the printing process from OS
             0 MiB allocation reported by mallinfo(arena+hblkhd)
          5745 MiB available memory on the node where the printing process lives
------------------
     ethr =  5.47E-04,  avg # of iterations =  2.5

     negative rho (up, down):  7.985E-01 0.000E+00

     total cpu time spent up to now is      201.5 secs

     total energy              =   -4483.29413687 Ry
     estimated scf accuracy    <       2.05842351 Ry

     iteration # 14     ecut=    60.00 Ry     beta= 0.15
     Davidson diagonalization with overlap

---- Real-time Memory Report at c_bands before calling an iterative solver
             0 MiB given to the printing process from OS
             0 MiB allocation reported by mallinfo(arena+hblkhd)
          5783 MiB available memory on the node where the printing process lives
------------------
     ethr =  4.71E-04,  avg # of iterations =  1.2

     negative rho (up, down):  8.067E-01 0.000E+00

     total cpu time spent up to now is      215.3 secs

     total energy              =   -4483.22754033 Ry
     estimated scf accuracy    <       1.02978381 Ry

     iteration # 15     ecut=    60.00 Ry     beta= 0.15
     Davidson diagonalization with overlap

---- Real-time Memory Report at c_bands before calling an iterative solver
             0 MiB given to the printing process from OS
             0 MiB allocation reported by mallinfo(arena+hblkhd)
          5795 MiB available memory on the node where the printing process lives
------------------
     ethr =  2.36E-04,  avg # of iterations =  6.4

     negative rho (up, down):  8.107E-01 0.000E+00

     total cpu time spent up to now is      231.9 secs

     total energy              =   -4483.16172456 Ry
     estimated scf accuracy    <       1.33428845 Ry

     iteration # 16     ecut=    60.00 Ry     beta= 0.15
     Davidson diagonalization with overlap

---- Real-time Memory Report at c_bands before calling an iterative solver
             0 MiB given to the printing process from OS
             0 MiB allocation reported by mallinfo(arena+hblkhd)
          5799 MiB available memory on the node where the printing process lives
------------------
     ethr =  2.36E-04,  avg # of iterations =  3.7

     negative rho (up, down):  8.151E-01 0.000E+00

     total cpu time spent up to now is      246.7 secs

     total energy              =   -4483.12847533 Ry
     estimated scf accuracy    <       1.07040753 Ry

     iteration # 17     ecut=    60.00 Ry     beta= 0.15
     Davidson diagonalization with overlap

---- Real-time Memory Report at c_bands before calling an iterative solver
             0 MiB given to the printing process from OS
             0 MiB allocation reported by mallinfo(arena+hblkhd)
          5791 MiB available memory on the node where the printing process lives
------------------
     ethr =  2.36E-04,  avg # of iterations =  3.3

     negative rho (up, down):  8.176E-01 0.000E+00

     total cpu time spent up to now is      261.5 secs

     total energy              =   -4483.09960451 Ry
     estimated scf accuracy    <       0.39246783 Ry

     iteration # 18     ecut=    60.00 Ry     beta= 0.15
     Davidson diagonalization with overlap

---- Real-time Memory Report at c_bands before calling an iterative solver
             0 MiB given to the printing process from OS
             0 MiB allocation reported by mallinfo(arena+hblkhd)
          5796 MiB available memory on the node where the printing process lives
------------------
     ethr =  8.98E-05,  avg # of iterations = 12.1

     negative rho (up, down):  8.178E-01 0.000E+00

     total cpu time spent up to now is      280.6 secs

     total energy              =   -4483.06734357 Ry
     estimated scf accuracy    <       0.40117776 Ry

     iteration # 19     ecut=    60.00 Ry     beta= 0.15
     Davidson diagonalization with overlap

---- Real-time Memory Report at c_bands before calling an iterative solver
             0 MiB given to the printing process from OS
             0 MiB allocation reported by mallinfo(arena+hblkhd)
          5757 MiB available memory on the node where the printing process lives
------------------
     ethr =  8.98E-05,  avg # of iterations =  4.1

     negative rho (up, down):  8.292E-01 0.000E+00

     total cpu time spent up to now is      296.1 secs

     total energy              =   -4483.02146173 Ry
     estimated scf accuracy    <       0.36933523 Ry

     iteration # 20     ecut=    60.00 Ry     beta= 0.15
     Davidson diagonalization with overlap

---- Real-time Memory Report at c_bands before calling an iterative solver
             0 MiB given to the printing process from OS
             0 MiB allocation reported by mallinfo(arena+hblkhd)
          5756 MiB available memory on the node where the printing process lives
------------------
     ethr =  8.45E-05,  avg # of iterations =  9.7

     negative rho (up, down):  8.277E-01 0.000E+00

     total cpu time spent up to now is      314.2 secs

     total energy              =   -4483.00664280 Ry
     estimated scf accuracy    <       0.30418043 Ry

     iteration # 21     ecut=    60.00 Ry     beta= 0.15
     Davidson diagonalization with overlap

---- Real-time Memory Report at c_bands before calling an iterative solver
             0 MiB given to the printing process from OS
             0 MiB allocation reported by mallinfo(arena+hblkhd)
          5746 MiB available memory on the node where the printing process lives
------------------
     ethr =  6.96E-05,  avg # of iterations =  3.6

     negative rho (up, down):  8.215E-01 0.000E+00

     total cpu time spent up to now is      329.9 secs

     total energy              =   -4483.00048532 Ry
     estimated scf accuracy    <       0.19637970 Ry

     iteration # 22     ecut=    60.00 Ry     beta= 0.15
     Davidson diagonalization with overlap

---- Real-time Memory Report at c_bands before calling an iterative solver
             0 MiB given to the printing process from OS
             0 MiB allocation reported by mallinfo(arena+hblkhd)
          5749 MiB available memory on the node where the printing process lives
------------------
     ethr =  4.49E-05,  avg # of iterations =  8.0

     negative rho (up, down):  8.014E-01 0.000E+00

     total cpu time spent up to now is      348.1 secs

     total energy              =   -4482.98823367 Ry
     estimated scf accuracy    <       0.13391533 Ry

     iteration # 23     ecut=    60.00 Ry     beta= 0.15
     Davidson diagonalization with overlap

---- Real-time Memory Report at c_bands before calling an iterative solver
             0 MiB given to the printing process from OS
             0 MiB allocation reported by mallinfo(arena+hblkhd)
          5758 MiB available memory on the node where the printing process lives
------------------
     ethr =  3.06E-05,  avg # of iterations =  6.9

     negative rho (up, down):  8.289E-01 0.000E+00

     total cpu time spent up to now is      366.1 secs

     total energy              =   -4482.97089617 Ry
     estimated scf accuracy    <       0.08446715 Ry

     iteration # 24     ecut=    60.00 Ry     beta= 0.15
     Davidson diagonalization with overlap

---- Real-time Memory Report at c_bands before calling an iterative solver
             0 MiB given to the printing process from OS
             0 MiB allocation reported by mallinfo(arena+hblkhd)
          5748 MiB available memory on the node where the printing process lives
------------------
     ethr =  1.93E-05,  avg # of iterations = 11.2

     negative rho (up, down):  8.265E-01 0.000E+00

     total cpu time spent up to now is      387.2 secs

     total energy              =   -4482.97421769 Ry
     estimated scf accuracy    <       0.02342863 Ry

     iteration # 25     ecut=    60.00 Ry     beta= 0.15
     Davidson diagonalization with overlap

---- Real-time Memory Report at c_bands before calling an iterative solver
             0 MiB given to the printing process from OS
             0 MiB allocation reported by mallinfo(arena+hblkhd)
          5517 MiB available memory on the node where the printing process lives
------------------
     ethr =  5.36E-06,  avg # of iterations =  6.7

     negative rho (up, down):  7.991E-01 0.000E+00

     total cpu time spent up to now is      405.2 secs

     total energy              =   -4482.97208490 Ry
     estimated scf accuracy    <       0.01469367 Ry

     iteration # 26     ecut=    60.00 Ry     beta= 0.15
     Davidson diagonalization with overlap

---- Real-time Memory Report at c_bands before calling an iterative solver
             0 MiB given to the printing process from OS
             0 MiB allocation reported by mallinfo(arena+hblkhd)
          5542 MiB available memory on the node where the printing process lives
------------------
     ethr =  3.36E-06,  avg # of iterations =  7.7

     negative rho (up, down):  7.950E-01 0.000E+00

     total cpu time spent up to now is      424.2 secs

     total energy              =   -4482.97163725 Ry
     estimated scf accuracy    <       0.00813644 Ry

     iteration # 27     ecut=    60.00 Ry     beta= 0.15
     Davidson diagonalization with overlap

---- Real-time Memory Report at c_bands before calling an iterative solver
             0 MiB given to the printing process from OS
             0 MiB allocation reported by mallinfo(arena+hblkhd)
          5533 MiB available memory on the node where the printing process lives
------------------
     ethr =  1.86E-06,  avg # of iterations =  6.7

     negative rho (up, down):  7.942E-01 0.000E+00

     total cpu time spent up to now is      441.9 secs

     total energy              =   -4482.97122800 Ry
     estimated scf accuracy    <       0.00455054 Ry

     iteration # 28     ecut=    60.00 Ry     beta= 0.15
     Davidson diagonalization with overlap

---- Real-time Memory Report at c_bands before calling an iterative solver
             0 MiB given to the printing process from OS
             0 MiB allocation reported by mallinfo(arena+hblkhd)
          5521 MiB available memory on the node where the printing process lives
------------------
     ethr =  1.04E-06,  avg # of iterations =  6.2

     negative rho (up, down):  7.945E-01 0.000E+00

     total cpu time spent up to now is      459.6 secs

     total energy              =   -4482.97110805 Ry
     estimated scf accuracy    <       0.00217822 Ry

     iteration # 29     ecut=    60.00 Ry     beta= 0.15
     Davidson diagonalization with overlap

---- Real-time Memory Report at c_bands before calling an iterative solver
             0 MiB given to the printing process from OS
             0 MiB allocation reported by mallinfo(arena+hblkhd)
          5505 MiB available memory on the node where the printing process lives
------------------
     ethr =  4.98E-07,  avg # of iterations =  6.7

     negative rho (up, down):  7.948E-01 0.000E+00

     total cpu time spent up to now is      477.4 secs

     total energy              =   -4482.97125829 Ry
     estimated scf accuracy    <       0.00074917 Ry

     iteration # 30     ecut=    60.00 Ry     beta= 0.15
     Davidson diagonalization with overlap

---- Real-time Memory Report at c_bands before calling an iterative solver
             0 MiB given to the printing process from OS
             0 MiB allocation reported by mallinfo(arena+hblkhd)
          5491 MiB available memory on the node where the printing process lives
------------------
     ethr =  1.71E-07,  avg # of iterations =  2.6

     negative rho (up, down):  7.942E-01 0.000E+00

     total cpu time spent up to now is      492.3 secs

     total energy              =   -4482.97123623 Ry
     estimated scf accuracy    <       0.00052452 Ry

     iteration # 31     ecut=    60.00 Ry     beta= 0.15
     Davidson diagonalization with overlap

---- Real-time Memory Report at c_bands before calling an iterative solver
             0 MiB given to the printing process from OS
             0 MiB allocation reported by mallinfo(arena+hblkhd)
          5504 MiB available memory on the node where the printing process lives
------------------
     c_bands:  1 eigenvalues not converged
     ethr =  1.20E-07,  avg # of iterations =  7.5

     negative rho (up, down):  7.929E-01 0.000E+00

     total cpu time spent up to now is      509.5 secs

     total energy              =   -4482.97122811 Ry
     estimated scf accuracy    <       0.00028831 Ry

     iteration # 32     ecut=    60.00 Ry     beta= 0.15
     Davidson diagonalization with overlap

---- Real-time Memory Report at c_bands before calling an iterative solver
             0 MiB given to the printing process from OS
             0 MiB allocation reported by mallinfo(arena+hblkhd)
          5486 MiB available memory on the node where the printing process lives
------------------
     ethr =  6.60E-08,  avg # of iterations =  4.9

     negative rho (up, down):  7.924E-01 0.000E+00

     total cpu time spent up to now is      525.7 secs

     total energy              =   -4482.97122636 Ry
     estimated scf accuracy    <       0.00014707 Ry

     iteration # 33     ecut=    60.00 Ry     beta= 0.15
     Davidson diagonalization with overlap

---- Real-time Memory Report at c_bands before calling an iterative solver
             0 MiB given to the printing process from OS
             0 MiB allocation reported by mallinfo(arena+hblkhd)
          5531 MiB available memory on the node where the printing process lives
------------------
     ethr =  3.37E-08,  avg # of iterations =  4.0

     negative rho (up, down):  7.918E-01 0.000E+00

     total cpu time spent up to now is      541.2 secs

     total energy              =   -4482.97122800 Ry
     estimated scf accuracy    <       0.00011086 Ry

     iteration # 34     ecut=    60.00 Ry     beta= 0.15
     Davidson diagonalization with overlap

---- Real-time Memory Report at c_bands before calling an iterative solver
             0 MiB given to the printing process from OS
             0 MiB allocation reported by mallinfo(arena+hblkhd)
          5589 MiB available memory on the node where the printing process lives
------------------
     ethr =  2.54E-08,  avg # of iterations =  4.1

     negative rho (up, down):  7.917E-01 0.000E+00

     total cpu time spent up to now is      557.1 secs

     total energy              =   -4482.97122530 Ry
     estimated scf accuracy    <       0.00006306 Ry

     iteration # 35     ecut=    60.00 Ry     beta= 0.15
     Davidson diagonalization with overlap

---- Real-time Memory Report at c_bands before calling an iterative solver
             0 MiB given to the printing process from OS
             0 MiB allocation reported by mallinfo(arena+hblkhd)
          5623 MiB available memory on the node where the printing process lives
------------------
     ethr =  1.44E-08,  avg # of iterations =  3.6

     negative rho (up, down):  7.920E-01 0.000E+00

     total cpu time spent up to now is      572.4 secs

     total energy              =   -4482.97120929 Ry
     estimated scf accuracy    <       0.00005251 Ry

     iteration # 36     ecut=    60.00 Ry     beta= 0.15
     Davidson diagonalization with overlap

---- Real-time Memory Report at c_bands before calling an iterative solver
             0 MiB given to the printing process from OS
             0 MiB allocation reported by mallinfo(arena+hblkhd)
          5624 MiB available memory on the node where the printing process lives
------------------
     ethr =  1.20E-08,  avg # of iterations =  4.4

     negative rho (up, down):  7.921E-01 0.000E+00

     total cpu time spent up to now is      588.3 secs

     total energy              =   -4482.97120827 Ry
     estimated scf accuracy    <       0.00002972 Ry

     iteration # 37     ecut=    60.00 Ry     beta= 0.15
     Davidson diagonalization with overlap

---- Real-time Memory Report at c_bands before calling an iterative solver
             0 MiB given to the printing process from OS
             0 MiB allocation reported by mallinfo(arena+hblkhd)
          5623 MiB available memory on the node where the printing process lives
------------------
     ethr =  6.80E-09,  avg # of iterations =  3.4

     negative rho (up, down):  7.922E-01 0.000E+00

     total cpu time spent up to now is      603.5 secs

     total energy              =   -4482.97121010 Ry
     estimated scf accuracy    <       0.00002014 Ry

     iteration # 38     ecut=    60.00 Ry     beta= 0.15
     Davidson diagonalization with overlap

---- Real-time Memory Report at c_bands before calling an iterative solver
             0 MiB given to the printing process from OS
             0 MiB allocation reported by mallinfo(arena+hblkhd)
          5650 MiB available memory on the node where the printing process lives
------------------
     ethr =  4.61E-09,  avg # of iterations =  2.2

     negative rho (up, down):  7.922E-01 0.000E+00

     total cpu time spent up to now is      618.3 secs

     total energy              =   -4482.97121478 Ry
     estimated scf accuracy    <       0.00001205 Ry

     iteration # 39     ecut=    60.00 Ry     beta= 0.15
     Davidson diagonalization with overlap

---- Real-time Memory Report at c_bands before calling an iterative solver
             0 MiB given to the printing process from OS
             0 MiB allocation reported by mallinfo(arena+hblkhd)
          5650 MiB available memory on the node where the printing process lives
------------------
     ethr =  2.76E-09,  avg # of iterations =  4.3

     negative rho (up, down):  7.923E-01 0.000E+00

     total cpu time spent up to now is      634.0 secs

     total energy              =   -4482.97121691 Ry
     estimated scf accuracy    <       0.00000552 Ry

     iteration # 40     ecut=    60.00 Ry     beta= 0.15
     Davidson diagonalization with overlap

---- Real-time Memory Report at c_bands before calling an iterative solver
             0 MiB given to the printing process from OS
             0 MiB allocation reported by mallinfo(arena+hblkhd)
          5654 MiB available memory on the node where the printing process lives
------------------
     ethr =  1.26E-09,  avg # of iterations =  4.5

     negative rho (up, down):  7.923E-01 0.000E+00

     total cpu time spent up to now is      649.9 secs

     total energy              =   -4482.97121746 Ry
     estimated scf accuracy    <       0.00000284 Ry

     iteration # 41     ecut=    60.00 Ry     beta= 0.15
     Davidson diagonalization with overlap

---- Real-time Memory Report at c_bands before calling an iterative solver
             0 MiB given to the printing process from OS
             0 MiB allocation reported by mallinfo(arena+hblkhd)
          5656 MiB available memory on the node where the printing process lives
------------------
     ethr =  6.49E-10,  avg # of iterations =  5.2

     negative rho (up, down):  7.923E-01 0.000E+00

     total cpu time spent up to now is      666.4 secs

     total energy              =   -4482.97121742 Ry
     estimated scf accuracy    <       0.00000164 Ry

     iteration # 42     ecut=    60.00 Ry     beta= 0.15
     Davidson diagonalization with overlap

---- Real-time Memory Report at c_bands before calling an iterative solver
             0 MiB given to the printing process from OS
             0 MiB allocation reported by mallinfo(arena+hblkhd)
          5639 MiB available memory on the node where the printing process lives
------------------
     ethr =  3.75E-10,  avg # of iterations =  4.1

     negative rho (up, down):  7.923E-01 0.000E+00

     total cpu time spent up to now is      682.2 secs

     total energy              =   -4482.97121744 Ry
     estimated scf accuracy    <       0.00000092 Ry

     iteration # 43     ecut=    60.00 Ry     beta= 0.15
     Davidson diagonalization with overlap

---- Real-time Memory Report at c_bands before calling an iterative solver
             0 MiB given to the printing process from OS
             0 MiB allocation reported by mallinfo(arena+hblkhd)
          5695 MiB available memory on the node where the printing process lives
------------------
     ethr =  2.11E-10,  avg # of iterations =  2.5

     negative rho (up, down):  7.923E-01 0.000E+00

     total cpu time spent up to now is      697.8 secs

     total energy              =   -4482.97121777 Ry
     estimated scf accuracy    <       0.00000045 Ry

     iteration # 44     ecut=    60.00 Ry     beta= 0.15
     Davidson diagonalization with overlap

---- Real-time Memory Report at c_bands before calling an iterative solver
             0 MiB given to the printing process from OS
             0 MiB allocation reported by mallinfo(arena+hblkhd)
          5665 MiB available memory on the node where the printing process lives
------------------
     ethr =  1.04E-10,  avg # of iterations =  3.9

     negative rho (up, down):  7.923E-01 0.000E+00

     total cpu time spent up to now is      713.5 secs

     total energy              =   -4482.97121796 Ry
     estimated scf accuracy    <       0.00000023 Ry

     iteration # 45     ecut=    60.00 Ry     beta= 0.15
     Davidson diagonalization with overlap

---- Real-time Memory Report at c_bands before calling an iterative solver
             0 MiB given to the printing process from OS
             0 MiB allocation reported by mallinfo(arena+hblkhd)
          5678 MiB available memory on the node where the printing process lives
------------------
     ethr =  5.24E-11,  avg # of iterations =  4.4

     negative rho (up, down):  7.923E-01 0.000E+00

     total cpu time spent up to now is      729.5 secs

     total energy              =   -4482.97121798 Ry
     estimated scf accuracy    <       0.00000008 Ry

     iteration # 46     ecut=    60.00 Ry     beta= 0.15
     Davidson diagonalization with overlap

---- Real-time Memory Report at c_bands before calling an iterative solver
             0 MiB given to the printing process from OS
             0 MiB allocation reported by mallinfo(arena+hblkhd)
          5668 MiB available memory on the node where the printing process lives
------------------
     ethr =  1.92E-11,  avg # of iterations =  2.5

     negative rho (up, down):  7.923E-01 0.000E+00

     total cpu time spent up to now is      744.5 secs

     total energy              =   -4482.97121799 Ry
     estimated scf accuracy    <       0.00000006 Ry

     iteration # 47     ecut=    60.00 Ry     beta= 0.15
     Davidson diagonalization with overlap

---- Real-time Memory Report at c_bands before calling an iterative solver
             0 MiB given to the printing process from OS
             0 MiB allocation reported by mallinfo(arena+hblkhd)
          5686 MiB available memory on the node where the printing process lives
------------------
     ethr =  1.28E-11,  avg # of iterations =  2.9

     negative rho (up, down):  7.923E-01 0.000E+00

     total cpu time spent up to now is      759.5 secs

     total energy              =   -4482.97121800 Ry
     estimated scf accuracy    <       0.00000004 Ry

     iteration # 48     ecut=    60.00 Ry     beta= 0.15
     Davidson diagonalization with overlap

---- Real-time Memory Report at c_bands before calling an iterative solver
             0 MiB given to the printing process from OS
             0 MiB allocation reported by mallinfo(arena+hblkhd)
          5682 MiB available memory on the node where the printing process lives
------------------
     ethr =  8.08E-12,  avg # of iterations =  3.6

     negative rho (up, down):  7.923E-01 0.000E+00

     total cpu time spent up to now is      774.9 secs

     total energy              =   -4482.97121802 Ry
     estimated scf accuracy    <       0.00000002 Ry

     iteration # 49     ecut=    60.00 Ry     beta= 0.15
     Davidson diagonalization with overlap

---- Real-time Memory Report at c_bands before calling an iterative solver
             0 MiB given to the printing process from OS
             0 MiB allocation reported by mallinfo(arena+hblkhd)
          5682 MiB available memory on the node where the printing process lives
------------------
     ethr =  4.23E-12,  avg # of iterations =  4.4

     negative rho (up, down):  7.923E-01 0.000E+00

     total cpu time spent up to now is      790.3 secs

     End of self-consistent calculation

          k = 0.0000 0.0000 0.0000 ( 65197 PWs)   bands (ev):

   -92.3331 -92.2776 -92.1869 -92.1379 -92.0814 -92.0398 -92.0220 -91.8969
   -55.6862 -55.6639 -55.5448 -55.5342 -55.5260 -55.5209 -55.4821 -55.4565
   -55.4400 -55.4389 -55.4294 -55.3889 -55.3695 -55.3327 -55.3128 -55.2812
   -55.2733 -55.2283 -55.2254 -55.2252 -55.2169 -55.1706 -55.1528 -55.0640
   -30.9204 -30.9012 -30.8142 -30.7601 -30.6927 -30.6735 -30.5848 -30.3962
   -29.4850 -29.4412 -29.4154 -29.3067 -22.2496 -14.7182 -14.6814 -14.5966
   -14.4655 -14.2835 -14.1582 -13.8594 -13.8434 -13.8099 -13.7690 -13.7685
   -13.7242 -13.7175 -13.7036 -13.6861 -13.6676 -13.6335 -13.5683 -13.4205
   -13.2503 -13.2084 -13.1767 -13.1516 -13.1302 -13.0830 -13.0444 -12.9672
   -12.8946 -12.8199 -12.8047 -12.7532 -12.7423 -12.7185 -12.7013 -12.6893
   -12.6546 -12.6384 -12.6179 -12.6003 -12.5910 -12.5671 -12.5540 -12.5428
   -12.5081 -12.4832 -12.4647 -12.3389 -12.3303 -12.3180 -11.9853 -11.8405
   -11.7154 -11.6367 -11.4987 -11.4241 -11.4128 -11.3906 -11.3729 -11.3088
   -11.2916 -11.2571 -11.2284 -11.1165 -11.0361 -11.0325  -5.8305  -3.1568
    -3.1525  -2.5787  -2.3452  -2.1153  -1.9702  -1.9053  -1.7626  -1.4565
    -1.4423  -1.4210  -1.3396  -1.3208  -1.2524  -1.2365  -1.1936  -1.1506
    -0.9693  -0.7478  -0.7166  -0.5665  -0.5530  -0.5095  -0.4912  -0.4471
    -0.4316  -0.3703  -0.3438  -0.2742  -0.2646  -0.1828  -0.0563  -0.0425
    -0.0131   0.0688   0.0715   0.0893   0.1523   0.2333   0.2717   0.3239
     0.3481   0.4155   0.4791   0.5433   0.5576   0.5751   0.8261   0.8407
     1.0083   1.0836   1.1463   1.1860   1.2799   1.2926   1.3052   1.3806
     1.4089   1.4427   1.5030   1.6374   1.6894   1.7103   1.7274   1.7407
     1.8079   1.8874   1.9800   1.9937   2.0507   2.0758   2.1127   2.1303
     2.1397   2.1990   2.2469   2.2562   2.2867   2.3146   2.3853   2.5145
     2.6008   2.6436   2.6498   2.8064   2.8199   2.8714   2.8791   2.9756
     3.0187   3.0413   3.0620   3.0673   3.0761   3.0778   3.1562   3.2683
     3.3022   3.3169   3.3233   3.3893   3.3937   3.4181   3.4267   3.4339
     3.4421   3.4532   3.4651   3.4720   3.4848   3.4935   3.5021   3.5219
     3.5431   3.5482   3.5603   3.5812   3.7020   3.7477   4.4251   4.7704
     4.7871   5.1448   5.3933   5.5019   5.6980   6.2818   6.3310   6.3527
     6.6219   6.6345   6.6801   6.7276   6.9482   7.2167   7.2585   7.3742
     7.4866   7.6555   7.7746   7.8986   7.9370   7.9639   8.0444   8.0874
     8.3144   8.3521   8.3819   8.4136   8.5220   8.5438   8.6215

     occupation numbers 
     1.0000   1.0000   1.0000   1.0000   1.0000   1.0000   1.0000   1.0000
     1.0000   1.0000   1.0000   1.0000   1.0000   1.0000   1.0000   1.0000
     1.0000   1.0000   1.0000   1.0000   1.0000   1.0000   1.0000   1.0000
     1.0000   1.0000   1.0000   1.0000   1.0000   1.0000   1.0000   1.0000
     1.0000   1.0000   1.0000   1.0000   1.0000   1.0000   1.0000   1.0000
     1.0000   1.0000   1.0000   1.0000   1.0000   1.0000   1.0000   1.0000
     1.0000   1.0000   1.0000   1.0000   1.0000   1.0000   1.0000   1.0000
     1.0000   1.0000   1.0000   1.0000   1.0000   1.0000   1.0000   1.0000
     1.0000   1.0000   1.0000   1.0000   1.0000   1.0000   1.0000   1.0000
     1.0000   1.0000   1.0000   1.0000   1.0000   1.0000   1.0000   1.0000
     1.0000   1.0000   1.0000   1.0000   1.0000   1.0000   1.0000   1.0000
     1.0000   1.0000   1.0000   1.0000   1.0000   1.0000   1.0000   1.0000
     1.0000   1.0000   1.0000   1.0000   1.0000   1.0000   1.0000   1.0000
     1.0000   1.0000   1.0000   1.0000   1.0000   1.0000   1.0000   1.0000
     1.0000   1.0000   1.0000   1.0000   1.0000   1.0000   1.0000   1.0000
     1.0000   1.0000   1.0000   1.0000   1.0000   1.0000   1.0000   1.0000
     1.0000   1.0000   1.0000   1.0000   1.0000   1.0000   1.0000   1.0000
     1.0000   1.0000   1.0000   1.0000   1.0000   1.0000   1.0000   1.0000
     1.0000   1.0000   1.0000   1.0000   1.0000   1.0000   1.0000   1.0000
     1.0000   1.0000   1.0000   1.0000   1.0000   1.0000   1.0000   1.0000
     1.0000   0.9999   0.9999   0.9999   0.9998   0.9998   0.9998   0.9997
     0.9997   0.9996   0.9994   0.9989   0.9985   0.9984   0.9982   0.9981
     0.9974   0.9963   0.9945   0.9942   0.9926   0.9918   0.9905   0.9899
     0.9895   0.9867   0.9841   0.9836   0.9816   0.9797   0.9739   0.9600
     0.9476   0.9405   0.9394   0.9061   0.9027   0.8888   0.8867   0.8567
     0.8417   0.8335   0.8257   0.8237   0.8203   0.8196   0.7874   0.7360
     0.7193   0.7119   0.7086   0.6741   0.6718   0.6586   0.6538   0.6499
     0.6454   0.6393   0.6326   0.6287   0.6216   0.6166   0.6117   0.6004
     0.5882   0.5853   0.5782   0.5661   0.4948   0.4677   0.1386   0.0549
     0.0522   0.0156   0.0058   0.0036   0.0015   0.0001   0.0000   0.0000
     0.0000   0.0000   0.0000   0.0000   0.0000   0.0000   0.0000   0.0000
     0.0000   0.0000   0.0000   0.0000   0.0000   0.0000   0.0000   0.0000
     0.0000   0.0000   0.0000   0.0000   0.0000   0.0000   0.0000

          k = 0.0000 0.2500 0.0000 ( 65257 PWs)   bands (ev):

   -92.3331 -92.2776 -92.1869 -92.1379 -92.0814 -92.0398 -92.0220 -91.8969
   -55.6862 -55.6639 -55.5448 -55.5342 -55.5260 -55.5209 -55.4821 -55.4565
   -55.4400 -55.4389 -55.4294 -55.3889 -55.3695 -55.3327 -55.3128 -55.2812
   -55.2733 -55.2283 -55.2254 -55.2252 -55.2169 -55.1706 -55.1528 -55.0640
   -30.9202 -30.9011 -30.8139 -30.7603 -30.6930 -30.6737 -30.5847 -30.3964
   -29.4844 -29.4408 -29.4160 -29.3070 -22.2496 -14.6812 -14.6552 -14.5715
   -14.4363 -14.3216 -14.1489 -14.0046 -13.8250 -13.7964 -13.7739 -13.7680
   -13.7448 -13.6870 -13.6805 -13.6665 -13.6518 -13.6147 -13.4885 -13.4514
   -13.2889 -13.2741 -13.2191 -13.1844 -13.1438 -13.0969 -13.0596 -12.9867
   -12.9540 -12.9265 -12.8682 -12.7956 -12.7879 -12.7508 -12.7332 -12.6596
   -12.6231 -12.6012 -12.5779 -12.5647 -12.5502 -12.5273 -12.5070 -12.5027
   -12.4415 -12.4403 -12.4162 -12.3378 -12.2488 -12.1799 -12.0467 -11.8917
   -11.7707 -11.7022 -11.4641 -11.4209 -11.3934 -11.3647 -11.3480 -11.3009
   -11.2895 -11.2671 -11.2333 -11.1307 -11.0777 -11.0671  -5.8305  -3.1568
    -3.1527  -2.4434  -2.2209  -2.0835  -1.9017  -1.8579  -1.6934  -1.4763
    -1.3889  -1.3758  -1.3206  -1.2161  -1.2024  -1.1686  -1.1423  -1.0990
    -0.9005  -0.7719  -0.7600  -0.6854  -0.6733  -0.5689  -0.5379  -0.4829
    -0.4585  -0.4143  -0.3530  -0.3275  -0.2937  -0.2640  -0.2471  -0.2130
    -0.1403  -0.0876  -0.0309   0.0862   0.1019   0.1432   0.2715   0.3084
     0.3528   0.4129   0.4551   0.4883   0.5203   0.5798   0.8747   0.9617
     0.9963   1.0752   1.1172   1.1455   1.2662   1.2866   1.3816   1.4060
     1.4377   1.5512   1.6384   1.6663   1.6894   1.7032   1.7345   1.7980
     1.8212   1.8501   1.8983   1.9281   1.9575   2.0395   2.0694   2.1026
     2.1578   2.2153   2.2460   2.2712   2.3020   2.3274   2.4189   2.5581
     2.6206   2.6366   2.7221   2.7651   2.8035   2.8102   2.8737   2.9186
     2.9941   3.0331   3.0486   3.0688   3.0735   3.2298   3.2515   3.2840
     3.3046   3.3220   3.3315   3.3396   3.3469   3.3773   3.3790   3.3950
     3.4002   3.4125   3.4292   3.4395   3.4503   3.4727   3.4836   3.4881
     3.5241   3.5406   3.6006   3.9640   3.9741   4.2381   4.6067   4.7638
     4.9081   5.0973   5.4147   5.5174   5.8289   5.9558   6.1597   6.2963
     6.3425   6.4612   6.5329   6.7495   6.8759   7.0477   7.2877   7.5329
     7.5616   7.7022   7.8043   7.8811   7.9449   8.0009   8.0791   8.2004
     8.2593   8.4101   8.5257   8.5437   8.6059   8.6829   8.9404

     occupation numbers 
     1.0000   1.0000   1.0000   1.0000   1.0000   1.0000   1.0000   1.0000
     1.0000   1.0000   1.0000   1.0000   1.0000   1.0000   1.0000   1.0000
     1.0000   1.0000   1.0000   1.0000   1.0000   1.0000   1.0000   1.0000
     1.0000   1.0000   1.0000   1.0000   1.0000   1.0000   1.0000   1.0000
     1.0000   1.0000   1.0000   1.0000   1.0000   1.0000   1.0000   1.0000
     1.0000   1.0000   1.0000   1.0000   1.0000   1.0000   1.0000   1.0000
     1.0000   1.0000   1.0000   1.0000   1.0000   1.0000   1.0000   1.0000
     1.0000   1.0000   1.0000   1.0000   1.0000   1.0000   1.0000   1.0000
     1.0000   1.0000   1.0000   1.0000   1.0000   1.0000   1.0000   1.0000
     1.0000   1.0000   1.0000   1.0000   1.0000   1.0000   1.0000   1.0000
     1.0000   1.0000   1.0000   1.0000   1.0000   1.0000   1.0000   1.0000
     1.0000   1.0000   1.0000   1.0000   1.0000   1.0000   1.0000   1.0000
     1.0000   1.0000   1.0000   1.0000   1.0000   1.0000   1.0000   1.0000
     1.0000   1.0000   1.0000   1.0000   1.0000   1.0000   1.0000   1.0000
     1.0000   1.0000   1.0000   1.0000   1.0000   1.0000   1.0000   1.0000
     1.0000   1.0000   1.0000   1.0000   1.0000   1.0000   1.0000   1.0000
     1.0000   1.0000   1.0000   1.0000   1.0000   1.0000   1.0000   1.0000
     1.0000   1.0000   1.0000   1.0000   1.0000   1.0000   1.0000   1.0000
     1.0000   1.0000   1.0000   1.0000   1.0000   1.0000   1.0000   1.0000
     1.0000   1.0000   1.0000   1.0000   1.0000   1.0000   1.0000   1.0000
     1.0000   0.9999   0.9999   0.9999   0.9998   0.9998   0.9997   0.9997
     0.9996   0.9993   0.9989   0.9987   0.9985   0.9984   0.9982   0.9976
     0.9973   0.9969   0.9962   0.9956   0.9950   0.9930   0.9921   0.9909
     0.9887   0.9859   0.9842   0.9826   0.9806   0.9787   0.9708   0.9541
     0.9444   0.9417   0.9254   0.9159   0.9068   0.9051   0.8882   0.8750
     0.8504   0.8365   0.8308   0.8231   0.8213   0.7543   0.7441   0.7283
     0.7180   0.7093   0.7044   0.7002   0.6965   0.6805   0.6796   0.6710
     0.6683   0.6616   0.6525   0.6468   0.6409   0.6283   0.6222   0.6197
     0.5992   0.5896   0.5547   0.3438   0.3383   0.2092   0.0875   0.0560
     0.0356   0.0185   0.0053   0.0034   0.0008   0.0004   0.0001   0.0001
     0.0000   0.0000   0.0000   0.0000   0.0000   0.0000   0.0000   0.0000
     0.0000   0.0000   0.0000   0.0000   0.0000   0.0000   0.0000   0.0000
     0.0000   0.0000   0.0000   0.0000   0.0000   0.0000   0.0000

          k = 0.0000-0.5000 0.0000 ( 65180 PWs)   bands (ev):

   -92.3331 -92.2776 -92.1869 -92.1379 -92.0814 -92.0398 -92.0220 -91.8969
   -55.6862 -55.6639 -55.5448 -55.5342 -55.5260 -55.5209 -55.4821 -55.4565
   -55.4400 -55.4389 -55.4294 -55.3889 -55.3695 -55.3327 -55.3128 -55.2812
   -55.2733 -55.2283 -55.2254 -55.2252 -55.2169 -55.1706 -55.1528 -55.0640
   -30.9200 -30.9010 -30.8137 -30.7605 -30.6932 -30.6738 -30.5845 -30.3966
   -29.4837 -29.4405 -29.4167 -29.3073 -22.2496 -14.6487 -14.6005 -14.5478
   -14.4251 -14.3341 -14.1997 -14.0497 -13.9325 -13.7945 -13.7682 -13.7367
   -13.6894 -13.6755 -13.6306 -13.6107 -13.5644 -13.5486 -13.5194 -13.4865
   -13.4637 -13.4202 -13.2214 -13.1657 -13.1526 -13.0951 -13.0625 -13.0017
   -12.9924 -12.9499 -12.9272 -12.8620 -12.7860 -12.7509 -12.7267 -12.6979
   -12.6116 -12.6004 -12.5722 -12.5615 -12.5262 -12.5227 -12.5029 -12.4205
   -12.4008 -12.3483 -12.3397 -12.2942 -12.1577 -12.1188 -11.9829 -11.9670
   -11.8668 -11.8232 -11.4178 -11.4157 -11.3886 -11.3501 -11.3162 -11.3053
   -11.2630 -11.2589 -11.2149 -11.1522 -11.1382 -11.1241  -5.8305  -3.1568
    -3.1528  -2.2282  -2.1700  -2.0173  -1.9452  -1.6650  -1.5825  -1.4527
    -1.3152  -1.2798  -1.2588  -1.1809  -1.1503  -1.0676  -1.0330  -0.9562
    -0.9153  -0.8757  -0.8493  -0.7936  -0.7558  -0.7102  -0.6743  -0.6391
    -0.6065  -0.4950  -0.4501  -0.4180  -0.4161  -0.3303  -0.2986  -0.2752
    -0.2303  -0.1435  -0.0717   0.0098   0.0349   0.1553   0.1794   0.3332
     0.3553   0.3991   0.4296   0.5477   0.6347   0.7558   0.8204   0.8284
     0.9594   1.0035   1.0750   1.2419   1.3383   1.3713   1.4085   1.4169
     1.4453   1.4721   1.5086   1.5232   1.5395   1.6472   1.7027   1.7287
     1.7521   2.0175   2.0523   2.0718   2.1507   2.1801   2.2230   2.2409
     2.2707   2.2790   2.2922   2.3155   2.3612   2.3824   2.4074   2.4281
     2.4564   2.5108   2.5931   2.6299   2.7916   2.9662   2.9764   2.9865
     3.0236   3.0267   3.0433   3.0666   3.0795   3.0975   3.1109   3.1643
     3.1846   3.2592   3.2719   3.3432   3.3468   3.3748   3.3756   3.3942
     3.3970   3.4007   3.4073   3.4106   3.4228   3.4432   3.4438   3.5097
     3.5141   3.5302   3.5863   4.4704   4.4862   4.5539   4.5888   5.0255
     5.0779   5.2485   5.3215   5.5310   5.7121   5.8538   5.8782   6.0525
     6.2236   6.3424   6.4005   6.4201   7.0381   7.0952   7.1077   7.4231
     7.4947   7.7273   7.7865   7.9614   8.0695   8.1029   8.2170   8.3513
     8.5006   8.5580   8.6455   8.7279   8.7511   8.8616   8.9574

     occupation numbers 
     1.0000   1.0000   1.0000   1.0000   1.0000   1.0000   1.0000   1.0000
     1.0000   1.0000   1.0000   1.0000   1.0000   1.0000   1.0000   1.0000
     1.0000   1.0000   1.0000   1.0000   1.0000   1.0000   1.0000   1.0000
     1.0000   1.0000   1.0000   1.0000   1.0000   1.0000   1.0000   1.0000
     1.0000   1.0000   1.0000   1.0000   1.0000   1.0000   1.0000   1.0000
     1.0000   1.0000   1.0000   1.0000   1.0000   1.0000   1.0000   1.0000
     1.0000   1.0000   1.0000   1.0000   1.0000   1.0000   1.0000   1.0000
     1.0000   1.0000   1.0000   1.0000   1.0000   1.0000   1.0000   1.0000
     1.0000   1.0000   1.0000   1.0000   1.0000   1.0000   1.0000   1.0000
     1.0000   1.0000   1.0000   1.0000   1.0000   1.0000   1.0000   1.0000
     1.0000   1.0000   1.0000   1.0000   1.0000   1.0000   1.0000   1.0000
     1.0000   1.0000   1.0000   1.0000   1.0000   1.0000   1.0000   1.0000
     1.0000   1.0000   1.0000   1.0000   1.0000   1.0000   1.0000   1.0000
     1.0000   1.0000   1.0000   1.0000   1.0000   1.0000   1.0000   1.0000
     1.0000   1.0000   1.0000   1.0000   1.0000   1.0000   1.0000   1.0000
     1.0000   1.0000   1.0000   1.0000   1.0000   1.0000   1.0000   1.0000
     1.0000   1.0000   1.0000   1.0000   1.0000   1.0000   1.0000   1.0000
     1.0000   1.0000   1.0000   1.0000   1.0000   1.0000   1.0000   1.0000
     1.0000   1.0000   1.0000   1.0000   1.0000   1.0000   1.0000   1.0000
     1.0000   1.0000   1.0000   1.0000   1.0000   1.0000   1.0000   1.0000
     1.0000   1.0000   0.9999   0.9999   0.9998   0.9997   0.9997   0.9996
     0.9996   0.9995   0.9994   0.9994   0.9993   0.9988   0.9984   0.9982
     0.9980   0.9936   0.9926   0.9920   0.9890   0.9877   0.9855   0.9845
     0.9827   0.9821   0.9813   0.9796   0.9760   0.9742   0.9719   0.9699
     0.9669   0.9604   0.9488   0.9428   0.9097   0.8598   0.8564   0.8530
     0.8400   0.8388   0.8327   0.8239   0.8189   0.8118   0.8064   0.7839
     0.7750   0.7404   0.7342   0.6984   0.6965   0.6819   0.6814   0.6715
     0.6700   0.6680   0.6645   0.6626   0.6560   0.6448   0.6445   0.6074
     0.6049   0.5957   0.5631   0.1243   0.1195   0.1006   0.0918   0.0240
     0.0199   0.0105   0.0078   0.0032   0.0014   0.0007   0.0006   0.0002
     0.0001   0.0000   0.0000   0.0000   0.0000   0.0000   0.0000   0.0000
     0.0000   0.0000   0.0000   0.0000   0.0000   0.0000   0.0000   0.0000
     0.0000   0.0000   0.0000   0.0000   0.0000   0.0000   0.0000

          k = 0.2500 0.2500 0.0000 ( 65198 PWs)   bands (ev):

   -92.3331 -92.2776 -92.1869 -92.1379 -92.0814 -92.0398 -92.0220 -91.8969
   -55.6862 -55.6639 -55.5448 -55.5342 -55.5260 -55.5209 -55.4821 -55.4565
   -55.4400 -55.4389 -55.4294 -55.3889 -55.3695 -55.3327 -55.3128 -55.2812
   -55.2733 -55.2283 -55.2254 -55.2252 -55.2169 -55.1706 -55.1528 -55.0640
   -30.9184 -30.9029 -30.8138 -30.7599 -30.6929 -30.6740 -30.5848 -30.3965
   -29.4834 -29.4418 -29.4156 -29.3074 -22.2496 -14.6531 -14.6195 -14.5437
   -14.4261 -14.3133 -14.1877 -14.1099 -13.9111 -13.7685 -13.7484 -13.7378
   -13.7037 -13.6726 -13.6501 -13.6266 -13.5971 -13.5766 -13.4813 -13.4660
   -13.3046 -13.2922 -13.2604 -13.2416 -13.2056 -13.1509 -13.0987 -13.0684
   -12.9879 -12.9570 -12.8738 -12.7888 -12.7595 -12.7395 -12.6921 -12.6649
   -12.6522 -12.6108 -12.5904 -12.5796 -12.5468 -12.5191 -12.5048 -12.4546
   -12.3884 -12.3846 -12.3573 -12.3387 -12.2053 -12.0952 -12.0724 -11.9209
   -11.7989 -11.7517 -11.4363 -11.4043 -11.3938 -11.3866 -11.3240 -11.2889
   -11.2824 -11.2471 -11.2396 -11.1473 -11.1059 -11.0885  -5.8305  -3.1570
    -3.1526  -2.3053  -2.0952  -1.9775  -1.8848  -1.7619  -1.6967  -1.5014
    -1.3543  -1.3340  -1.3072  -1.2109  -1.1785  -1.0852  -1.0578  -1.0079
    -0.8755  -0.8280  -0.7567  -0.7107  -0.6666  -0.6423  -0.6168  -0.5753
    -0.5594  -0.4699  -0.4200  -0.3572  -0.3077  -0.2777  -0.2255  -0.2154
    -0.1518  -0.1005  -0.0487  -0.0107   0.0710   0.1287   0.1530   0.1965
     0.2492   0.3283   0.3568   0.3806   0.4540   0.4856   0.7672   0.9159
     0.9532   1.0072   1.0483   1.0911   1.1476   1.2166   1.2536   1.5266
     1.5994   1.6741   1.7009   1.7428   1.7786   1.8144   1.8521   1.8694
     1.8984   1.9382   1.9453   1.9642   2.0020   2.0405   2.0854   2.1409
     2.1688   2.1852   2.2102   2.2550   2.2978   2.3242   2.4590   2.5334
     2.5729   2.5986   2.6515   2.7222   2.7555   2.7938   2.8192   2.8279
     2.9375   2.9775   3.0579   3.0682   3.0742   3.2411   3.2583   3.2647
     3.2812   3.2947   3.3070   3.3201   3.3278   3.3371   3.3508   3.3621
     3.3819   3.3882   3.3992   3.4188   3.4340   3.4442   3.4746   3.7765
     3.8670   3.9044   3.9712   3.9884   4.2093   4.3180   4.6477   4.8094
     4.9775   5.1424   5.3428   5.5735   5.9396   5.9628   6.0007   6.1223
     6.2046   6.2558   6.3527   6.4111   6.9273   7.0122   7.0915   7.2001
     7.7177   7.8027   7.8433   7.9012   8.0286   8.1379   8.2335   8.2973
     8.3475   8.4463   8.6078   8.6893   8.7091   8.7318   8.8496

     occupation numbers 
     1.0000   1.0000   1.0000   1.0000   1.0000   1.0000   1.0000   1.0000
     1.0000   1.0000   1.0000   1.0000   1.0000   1.0000   1.0000   1.0000
     1.0000   1.0000   1.0000   1.0000   1.0000   1.0000   1.0000   1.0000
     1.0000   1.0000   1.0000   1.0000   1.0000   1.0000   1.0000   1.0000
     1.0000   1.0000   1.0000   1.0000   1.0000   1.0000   1.0000   1.0000
     1.0000   1.0000   1.0000   1.0000   1.0000   1.0000   1.0000   1.0000
     1.0000   1.0000   1.0000   1.0000   1.0000   1.0000   1.0000   1.0000
     1.0000   1.0000   1.0000   1.0000   1.0000   1.0000   1.0000   1.0000
     1.0000   1.0000   1.0000   1.0000   1.0000   1.0000   1.0000   1.0000
     1.0000   1.0000   1.0000   1.0000   1.0000   1.0000   1.0000   1.0000
     1.0000   1.0000   1.0000   1.0000   1.0000   1.0000   1.0000   1.0000
     1.0000   1.0000   1.0000   1.0000   1.0000   1.0000   1.0000   1.0000
     1.0000   1.0000   1.0000   1.0000   1.0000   1.0000   1.0000   1.0000
     1.0000   1.0000   1.0000   1.0000   1.0000   1.0000   1.0000   1.0000
     1.0000   1.0000   1.0000   1.0000   1.0000   1.0000   1.0000   1.0000
     1.0000   1.0000   1.0000   1.0000   1.0000   1.0000   1.0000   1.0000
     1.0000   1.0000   1.0000   1.0000   1.0000   1.0000   1.0000   1.0000
     1.0000   1.0000   1.0000   1.0000   1.0000   1.0000   1.0000   1.0000
     1.0000   1.0000   1.0000   1.0000   1.0000   1.0000   1.0000   1.0000
     1.0000   1.0000   1.0000   1.0000   1.0000   1.0000   1.0000   1.0000
     1.0000   1.0000   1.0000   0.9999   0.9999   0.9999   0.9999   0.9994
     0.9991   0.9986   0.9985   0.9981   0.9978   0.9974   0.9969   0.9966
     0.9962   0.9954   0.9953   0.9949   0.9940   0.9929   0.9915   0.9894
     0.9882   0.9874   0.9862   0.9836   0.9809   0.9790   0.9666   0.9575
     0.9519   0.9480   0.9390   0.9253   0.9181   0.9091   0.9028   0.9006
     0.8691   0.8561   0.8273   0.8233   0.8210   0.7490   0.7408   0.7377
     0.7297   0.7230   0.7168   0.7102   0.7063   0.7016   0.6944   0.6886
     0.6781   0.6747   0.6688   0.6582   0.6498   0.6442   0.6273   0.4508
     0.3982   0.3769   0.3399   0.3306   0.2218   0.1768   0.0782   0.0487
     0.0283   0.0157   0.0072   0.0026   0.0004   0.0004   0.0003   0.0002
     0.0001   0.0001   0.0000   0.0000   0.0000   0.0000   0.0000   0.0000
     0.0000   0.0000   0.0000   0.0000   0.0000   0.0000   0.0000   0.0000
     0.0000   0.0000   0.0000   0.0000   0.0000   0.0000   0.0000

          k = 0.2500-0.5000 0.0000 ( 65138 PWs)   bands (ev):

   -92.3331 -92.2776 -92.1869 -92.1379 -92.0814 -92.0398 -92.0220 -91.8969
   -55.6862 -55.6639 -55.5448 -55.5342 -55.5260 -55.5209 -55.4821 -55.4565
   -55.4400 -55.4389 -55.4294 -55.3889 -55.3695 -55.3327 -55.3128 -55.2812
   -55.2733 -55.2283 -55.2254 -55.2252 -55.2169 -55.1706 -55.1528 -55.0640
   -30.9182 -30.9027 -30.8136 -30.7601 -30.6931 -30.6742 -30.5846 -30.3967
   -29.4828 -29.4415 -29.4163 -29.3077 -22.2496 -14.6182 -14.5735 -14.5047
   -14.3938 -14.3586 -14.2394 -14.1526 -14.0273 -13.7682 -13.7122 -13.6664
   -13.6356 -13.6139 -13.5989 -13.5820 -13.5496 -13.5365 -13.5022 -13.4607
   -13.4480 -13.4092 -13.3052 -13.2574 -13.2226 -13.1777 -13.1180 -13.1066
   -13.0438 -13.0176 -12.8496 -12.7858 -12.7739 -12.7263 -12.6734 -12.6657
   -12.6312 -12.6107 -12.5863 -12.5595 -12.5550 -12.5157 -12.5002 -12.4454
   -12.4219 -12.3467 -12.2979 -12.2665 -12.1645 -12.0933 -11.9647 -11.9534
   -11.8577 -11.8289 -11.4117 -11.3999 -11.3888 -11.3617 -11.3303 -11.3017
   -11.2609 -11.2327 -11.2109 -11.1653 -11.1393 -11.1282  -5.8305  -3.1570
    -3.1528  -2.0867  -2.0223  -1.8913  -1.8141  -1.6856  -1.6028  -1.4774
    -1.3270  -1.2742  -1.2513  -1.1891  -1.1755  -1.0782  -1.0122  -0.9259
    -0.8784  -0.8690  -0.8043  -0.7638  -0.7280  -0.6809  -0.6442  -0.6089
    -0.5684  -0.5576  -0.5127  -0.4844  -0.4431  -0.4122  -0.3445  -0.2449
    -0.2074  -0.1275  -0.0622  -0.0150   0.0275   0.0497   0.1070   0.2636
     0.2748   0.3683   0.4059   0.4187   0.4636   0.5006   0.5306   0.5706
     0.6393   0.9069   1.0061   1.0425   1.1080   1.3911   1.4082   1.4992
     1.5268   1.6959   1.7271   1.7711   1.7975   1.8125   1.8331   1.8926
     1.9369   1.9744   2.0433   2.1451   2.1752   2.1980   2.2103   2.2444
     2.2613   2.2680   2.3091   2.3220   2.3423   2.3603   2.3888   2.4196
     2.4485   2.5094   2.5487   2.6284   2.7631   2.9192   2.9333   2.9518
     2.9790   3.0043   3.0249   3.0530   3.0607   3.0658   3.0831   3.0964
     3.1904   3.2389   3.2597   3.2606   3.2775   3.2983   3.3118   3.3309
     3.3381   3.3683   3.3793   3.3971   3.4042   3.4119   3.4241   3.9289
     3.9552   4.1081   4.1614   4.4797   4.5333   4.5547   4.6632   5.0782
     5.1033   5.3137   5.3450   5.5054   5.6464   5.7809   5.8447   5.9720
     6.0807   6.1115   6.3215   6.4477   6.5717   6.6456   7.1424   7.3233
     7.4793   7.6524   7.9686   8.0765   8.1846   8.2008   8.3514   8.4340
     8.5308   8.5845   8.6987   8.7950   8.8193   8.8988   8.9428

     occupation numbers 
     1.0000   1.0000   1.0000   1.0000   1.0000   1.0000   1.0000   1.0000
     1.0000   1.0000   1.0000   1.0000   1.0000   1.0000   1.0000   1.0000
     1.0000   1.0000   1.0000   1.0000   1.0000   1.0000   1.0000   1.0000
     1.0000   1.0000   1.0000   1.0000   1.0000   1.0000   1.0000   1.0000
     1.0000   1.0000   1.0000   1.0000   1.0000   1.0000   1.0000   1.0000
     1.0000   1.0000   1.0000   1.0000   1.0000   1.0000   1.0000   1.0000
     1.0000   1.0000   1.0000   1.0000   1.0000   1.0000   1.0000   1.0000
     1.0000   1.0000   1.0000   1.0000   1.0000   1.0000   1.0000   1.0000
     1.0000   1.0000   1.0000   1.0000   1.0000   1.0000   1.0000   1.0000
     1.0000   1.0000   1.0000   1.0000   1.0000   1.0000   1.0000   1.0000
     1.0000   1.0000   1.0000   1.0000   1.0000   1.0000   1.0000   1.0000
     1.0000   1.0000   1.0000   1.0000   1.0000   1.0000   1.0000   1.0000
     1.0000   1.0000   1.0000   1.0000   1.0000   1.0000   1.0000   1.0000
     1.0000   1.0000   1.0000   1.0000   1.0000   1.0000   1.0000   1.0000
     1.0000   1.0000   1.0000   1.0000   1.0000   1.0000   1.0000   1.0000
     1.0000   1.0000   1.0000   1.0000   1.0000   1.0000   1.0000   1.0000
     1.0000   1.0000   1.0000   1.0000   1.0000   1.0000   1.0000   1.0000
     1.0000   1.0000   1.0000   1.0000   1.0000   1.0000   1.0000   1.0000
     1.0000   1.0000   1.0000   1.0000   1.0000   1.0000   1.0000   1.0000
     1.0000   1.0000   1.0000   1.0000   1.0000   1.0000   1.0000   1.0000
     1.0000   1.0000   1.0000   1.0000   0.9999   0.9997   0.9997   0.9994
     0.9994   0.9985   0.9982   0.9978   0.9976   0.9974   0.9971   0.9963
     0.9954   0.9946   0.9929   0.9892   0.9879   0.9868   0.9862   0.9843
     0.9833   0.9828   0.9801   0.9791   0.9776   0.9761   0.9736   0.9707
     0.9677   0.9606   0.9554   0.9431   0.9164   0.8748   0.8704   0.8645
     0.8555   0.8469   0.8395   0.8291   0.8262   0.8243   0.8175   0.8123
     0.7724   0.7501   0.7401   0.7397   0.7315   0.7212   0.7144   0.7047
     0.7010   0.6853   0.6795   0.6699   0.6661   0.6619   0.6553   0.3632
     0.3487   0.2690   0.2435   0.1214   0.1061   0.1004   0.0749   0.0199
     0.0181   0.0081   0.0071   0.0036   0.0019   0.0010   0.0007   0.0004
     0.0002   0.0002   0.0000   0.0000   0.0000   0.0000   0.0000   0.0000
     0.0000   0.0000   0.0000   0.0000   0.0000   0.0000   0.0000   0.0000
     0.0000   0.0000   0.0000   0.0000   0.0000   0.0000   0.0000

          k =-0.5000-0.5000 0.0000 ( 65132 PWs)   bands (ev):

   -92.3331 -92.2776 -92.1869 -92.1379 -92.0814 -92.0398 -92.0220 -91.8969
   -55.6862 -55.6639 -55.5448 -55.5342 -55.5260 -55.5209 -55.4821 -55.4565
   -55.4400 -55.4389 -55.4294 -55.3889 -55.3695 -55.3327 -55.3128 -55.2812
   -55.2733 -55.2283 -55.2254 -55.2252 -55.2169 -55.1706 -55.1528 -55.0640
   -30.9160 -30.9050 -30.8134 -30.7598 -30.6930 -30.6746 -30.5848 -30.3968
   -29.4818 -29.4425 -29.4159 -29.3082 -22.2496 -14.5721 -14.5459 -14.4286
   -14.4170 -14.3256 -14.2857 -14.2583 -14.1255 -13.7682 -13.6248 -13.6136
   -13.5775 -13.5616 -13.5426 -13.5318 -13.4985 -13.4906 -13.4760 -13.4704
   -13.4550 -13.3750 -13.3683 -13.3455 -13.3182 -13.3051 -13.2034 -13.1856
   -13.0871 -13.0760 -12.8014 -12.7697 -12.6980 -12.6939 -12.6682 -12.6442
   -12.6274 -12.6200 -12.6100 -12.5953 -12.5345 -12.5148 -12.4988 -12.4800
   -12.4375 -12.3570 -12.2478 -12.2401 -12.1809 -12.0702 -11.9612 -11.9226
   -11.8468 -11.8390 -11.4079 -11.3961 -11.3784 -11.3613 -11.3270 -11.3089
   -11.2742 -11.2128 -11.1931 -11.1875 -11.1371 -11.1341  -5.8304  -3.1572
    -3.1528  -1.8634  -1.7864  -1.7784  -1.7064  -1.6662  -1.5877  -1.5195
    -1.3952  -1.2771  -1.2475  -1.2084  -1.1504  -1.0791  -1.0648  -0.9930
    -0.9513  -0.8358  -0.8079  -0.7601  -0.7269  -0.6630  -0.6190  -0.5999
    -0.5887  -0.5369  -0.4881  -0.4761  -0.3622  -0.3048  -0.2574  -0.2078
    -0.1862  -0.1744  -0.1363  -0.0966  -0.0621  -0.0489   0.0369   0.1095
     0.1538   0.1760   0.2511   0.3075   0.3111   0.3750   0.3912   0.4052
     0.4118   0.8701   0.9399   0.9843   1.0108   1.4199   1.4342   1.4634
     1.5000   1.7780   1.7972   1.8048   1.8404   1.9785   2.0740   2.1006
     2.1366   2.1565   2.1715   2.1856   2.2168   2.2242   2.2411   2.2493
     2.3014   2.3120   2.3334   2.3423   2.3643   2.3721   2.4201   2.4415
     2.4576   2.4949   2.5153   2.5937   2.6586   2.9302   2.9625   2.9801
     3.0029   3.0115   3.0331   3.0394   3.0547   3.0659   3.0792   3.0826
     3.0970   3.1152   3.1298   3.1914   3.1949   3.2153   3.2302   3.2402
     3.2586   3.2671   3.2764   3.3744   3.3805   3.4079   3.4177   4.3426
     4.3849   4.4033   4.4478   4.6837   4.7531   4.7846   5.0241   5.1396
     5.1603   5.2299   5.3453   5.4125   5.5123   5.5679   5.5863   5.7243
     6.0154   6.0561   6.1214   6.2339   6.5537   6.6763   6.7816   7.1350
     7.5395   7.5545   7.6890   8.2869   8.3014   8.3713   8.4959   8.5679
     8.6367   8.7719   8.8983   8.9162   8.9336   8.9654   8.9844

     occupation numbers 
     1.0000   1.0000   1.0000   1.0000   1.0000   1.0000   1.0000   1.0000
     1.0000   1.0000   1.0000   1.0000   1.0000   1.0000   1.0000   1.0000
     1.0000   1.0000   1.0000   1.0000   1.0000   1.0000   1.0000   1.0000
     1.0000   1.0000   1.0000   1.0000   1.0000   1.0000   1.0000   1.0000
     1.0000   1.0000   1.0000   1.0000   1.0000   1.0000   1.0000   1.0000
     1.0000   1.0000   1.0000   1.0000   1.0000   1.0000   1.0000   1.0000
     1.0000   1.0000   1.0000   1.0000   1.0000   1.0000   1.0000   1.0000
     1.0000   1.0000   1.0000   1.0000   1.0000   1.0000   1.0000   1.0000
     1.0000   1.0000   1.0000   1.0000   1.0000   1.0000   1.0000   1.0000
     1.0000   1.0000   1.0000   1.0000   1.0000   1.0000   1.0000   1.0000
     1.0000   1.0000   1.0000   1.0000   1.0000   1.0000   1.0000   1.0000
     1.0000   1.0000   1.0000   1.0000   1.0000   1.0000   1.0000   1.0000
     1.0000   1.0000   1.0000   1.0000   1.0000   1.0000   1.0000   1.0000
     1.0000   1.0000   1.0000   1.0000   1.0000   1.0000   1.0000   1.0000
     1.0000   1.0000   1.0000   1.0000   1.0000   1.0000   1.0000   1.0000
     1.0000   1.0000   1.0000   1.0000   1.0000   1.0000   1.0000   1.0000
     1.0000   1.0000   1.0000   1.0000   1.0000   1.0000   1.0000   1.0000
     1.0000   1.0000   1.0000   1.0000   1.0000   1.0000   1.0000   1.0000
     1.0000   1.0000   1.0000   1.0000   1.0000   1.0000   1.0000   1.0000
     1.0000   1.0000   1.0000   1.0000   1.0000   1.0000   1.0000   1.0000
     1.0000   1.0000   1.0000   1.0000   1.0000   0.9996   0.9996   0.9995
     0.9994   0.9978   0.9976   0.9975   0.9970   0.9946   0.9919   0.9910
     0.9896   0.9888   0.9881   0.9874   0.9858   0.9854   0.9845   0.9840
     0.9806   0.9799   0.9783   0.9776   0.9758   0.9751   0.9707   0.9685
[...]
     0.0000   0.0000   0.0000   0.0000   0.0000   0.0000   0.0000   0.0000
     0.0000   0.0000   0.0000   0.0000   0.0000   0.0000   0.0000

          k =-0.5000 0.0000 0.0000 ( 65180 PWs)   bands (ev):

   -92.3331 -92.2776 -92.1869 -92.1379 -92.0814 -92.0398 -92.0220 -91.8969
   -55.6862 -55.6639 -55.5448 -55.5342 -55.5260 -55.5209 -55.4821 -55.4565
   -55.4400 -55.4389 -55.4294 -55.3889 -55.3695 -55.3327 -55.3128 -55.2812
   -55.2733 -55.2283 -55.2254 -55.2252 -55.2169 -55.1706 -55.1528 -55.0640
   -30.9164 -30.9052 -30.8139 -30.7594 -30.6925 -30.6743 -30.5851 -30.3965
   -29.4830 -29.4432 -29.4146 -29.3075 -22.2496 -14.6526 -14.6037 -14.5415
   -14.4376 -14.3270 -14.1845 -14.0431 -13.9083 -13.7748 -13.7681 -13.7666
   -13.7450 -13.6957 -13.6333 -13.5991 -13.5558 -13.5499 -13.5335 -13.4794
   -13.4739 -13.3781 -13.1930 -13.1768 -13.1339 -13.1254 -13.0751 -13.0043
   -12.9919 -12.9123 -12.9032 -12.8887 -12.7901 -12.6970 -12.6894 -12.6849
   -12.6680 -12.6541 -12.5953 -12.5915 -12.5777 -12.5566 -12.4901 -12.3647
   -12.3518 -12.3387 -12.2827 -12.2736 -12.1838 -12.1523 -12.0160 -11.9710
   -11.8563 -11.8126 -11.4152 -11.3942 -11.3871 -11.3719 -11.3542 -11.3130
   -11.2497 -11.2324 -11.2004 -11.1545 -11.1452 -11.1294  -5.8305  -3.1572
    -3.1524  -2.2185  -2.1797  -2.0151  -1.9761  -1.6643  -1.5894  -1.4396
    -1.3220  -1.2832  -1.2383  -1.1890  -1.1631  -1.0419  -0.9961  -0.9832
    -0.8996  -0.8642  -0.8515  -0.8167  -0.7610  -0.6915  -0.6613  -0.6353
    -0.5411  -0.4910  -0.4433  -0.4103  -0.3890  -0.3610  -0.3112  -0.2868
    -0.2473  -0.1553  -0.0847  -0.0201   0.0423   0.2083   0.2350   0.3061
     0.3295   0.4065   0.4140   0.5483   0.5818   0.6128   0.8048   0.9027
     0.9491   1.0090   1.0885   1.2134   1.2305   1.3630   1.3920   1.4425
     1.4632   1.5053   1.5247   1.5656   1.5929   1.6597   1.7002   1.7477
     1.7570   2.0548   2.0619   2.0798   2.0958   2.2175   2.2248   2.2307
     2.2444   2.2739   2.2883   2.3216   2.3534   2.3719   2.4407   2.4450
     2.5016   2.5153   2.5816   2.6728   2.7885   2.8640   2.8796   2.9611
     2.9923   3.0114   3.0654   3.0716   3.0850   3.0953   3.1037   3.1312
     3.1989   3.2468   3.2876   3.3200   3.3623   3.3684   3.3695   3.3820
     3.3947   3.4073   3.4233   3.4250   3.4474   3.4523   3.4746   3.4949
     3.4997   3.6278   3.6319   4.4056   4.4786   4.5485   4.6482   4.9686
     5.1431   5.2744   5.3505   5.4896   5.6384   5.8921   5.9267   6.0056
     6.1657   6.3954   6.3968   6.4626   6.9619   7.0733   7.2064   7.4588
     7.5494   7.6500   7.7150   7.9732   8.0376   8.0964   8.1997   8.3238
     8.5356   8.5812   8.6697   8.7286   8.7577   8.8581   8.9792

     occupation numbers 
     1.0000   1.0000   1.0000   1.0000   1.0000   1.0000   1.0000   1.0000
     1.0000   1.0000   1.0000   1.0000   1.0000   1.0000   1.0000   1.0000
     1.0000   1.0000   1.0000   1.0000   1.0000   1.0000   1.0000   1.0000
     1.0000   1.0000   1.0000   1.0000   1.0000   1.0000   1.0000   1.0000
     1.0000   1.0000   1.0000   1.0000   1.0000   1.0000   1.0000   1.0000
     1.0000   1.0000   1.0000   1.0000   1.0000   1.0000   1.0000   1.0000
     1.0000   1.0000   1.0000   1.0000   1.0000   1.0000   1.0000   1.0000
     1.0000   1.0000   1.0000   1.0000   1.0000   1.0000   1.0000   1.0000
     1.0000   1.0000   1.0000   1.0000   1.0000   1.0000   1.0000   1.0000
     1.0000   1.0000   1.0000   1.0000   1.0000   1.0000   1.0000   1.0000
     1.0000   1.0000   1.0000   1.0000   1.0000   1.0000   1.0000   1.0000
     1.0000   1.0000   1.0000   1.0000   1.0000   1.0000   1.0000   1.0000
     1.0000   1.0000   1.0000   1.0000   1.0000   1.0000   1.0000   1.0000
     1.0000   1.0000   1.0000   1.0000   1.0000   1.0000   1.0000   1.0000
     1.0000   1.0000   1.0000   1.0000   1.0000   1.0000   1.0000   1.0000
     1.0000   1.0000   1.0000   1.0000   1.0000   1.0000   1.0000   1.0000
     1.0000   1.0000   1.0000   1.0000   1.0000   1.0000   1.0000   1.0000
     1.0000   1.0000   1.0000   1.0000   1.0000   1.0000   1.0000   1.0000
     1.0000   1.0000   1.0000   1.0000   1.0000   1.0000   1.0000   1.0000
     1.0000   1.0000   1.0000   1.0000   1.0000   1.0000   1.0000   1.0000
     1.0000   1.0000   0.9999   0.9999   0.9999   0.9997   0.9997   0.9996
     0.9995   0.9994   0.9994   0.9992   0.9991   0.9987   0.9985   0.9981
     0.9980   0.9925   0.9923   0.9917   0.9912   0.9858   0.9854   0.9851
     0.9843   0.9825   0.9815   0.9792   0.9767   0.9751   0.9685   0.9681
     0.9616   0.9599   0.9506   0.9351   0.9104   0.8909   0.8865   0.8615
     0.8510   0.8444   0.8244   0.8220   0.8168   0.8127   0.8093   0.7980
     0.7685   0.7463   0.7265   0.7103   0.6884   0.6852   0.6846   0.6780
     0.6712   0.6644   0.6558   0.6548   0.6424   0.6397   0.6273   0.6158
     0.6131   0.5387   0.5363   0.1451   0.1218   0.1020   0.0781   0.0291
     0.0157   0.0094   0.0069   0.0038   0.0019   0.0005   0.0005   0.0003
     0.0001   0.0000   0.0000   0.0000   0.0000   0.0000   0.0000   0.0000
     0.0000   0.0000   0.0000   0.0000   0.0000   0.0000   0.0000   0.0000
     0.0000   0.0000   0.0000   0.0000   0.0000   0.0000   0.0000

          k =-0.2500 0.2500 0.0000 ( 65198 PWs)   bands (ev):

   -92.3331 -92.2776 -92.1869 -92.1379 -92.0814 -92.0398 -92.0220 -91.8969
   -55.6862 -55.6639 -55.5448 -55.5342 -55.5260 -55.5209 -55.4821 -55.4565
   -55.4400 -55.4389 -55.4294 -55.3889 -55.3695 -55.3327 -55.3128 -55.2812
   -55.2733 -55.2283 -55.2254 -55.2252 -55.2169 -55.1706 -55.1528 -55.0640
   -30.9184 -30.9029 -30.8138 -30.7599 -30.6929 -30.6740 -30.5848 -30.3965
   -29.4834 -29.4418 -29.4156 -29.3074 -22.2496 -14.6545 -14.6183 -14.5424
   -14.4239 -14.3199 -14.1924 -14.1016 -13.9021 -13.7684 -13.7565 -13.7264
   -13.7170 -13.6676 -13.6433 -13.6274 -13.6166 -13.5759 -13.4779 -13.4666
   -13.3138 -13.2872 -13.2593 -13.2386 -13.2066 -13.1362 -13.0890 -13.0781
   -12.9939 -12.9636 -12.8672 -12.7913 -12.7576 -12.7334 -12.6845 -12.6613
   -12.6391 -12.6146 -12.6027 -12.5795 -12.5691 -12.5270 -12.5114 -12.4535
   -12.4133 -12.3666 -12.3428 -12.3323 -12.1717 -12.1066 -12.0849 -11.9267
   -11.8057 -11.7429 -11.4356 -11.4138 -11.3866 -11.3744 -11.3337 -11.2986
   -11.2758 -11.2543 -11.2318 -11.1470 -11.1014 -11.0917  -5.8305  -3.1570
    -3.1526  -2.3037  -2.0941  -1.9732  -1.8867  -1.7661  -1.6993  -1.4990
    -1.3510  -1.3318  -1.3051  -1.2115  -1.1774  -1.0848  -1.0517  -1.0252
    -0.8810  -0.8264  -0.7594  -0.7300  -0.6704  -0.6475  -0.6072  -0.5781
    -0.5381  -0.4766  -0.4292  -0.3688  -0.2989  -0.2740  -0.2211  -0.1941
    -0.1485  -0.0916  -0.0506  -0.0060   0.0915   0.1261   0.1350   0.1831
     0.2476   0.3284   0.3585   0.3857   0.4585   0.4823   0.7490   0.9156
     0.9627   0.9987   1.0552   1.0896   1.1508   1.2233   1.2510   1.5341
     1.6505   1.6903   1.7213   1.7285   1.7715   1.7899   1.8334   1.8651
     1.8807   1.9070   1.9466   1.9605   2.0022   2.0197   2.0637   2.1522
     2.1614   2.1841   2.2127   2.2514   2.2853   2.3269   2.4480   2.5659
     2.5947   2.6344   2.6571   2.7217   2.7676   2.7966   2.8198   2.8382
     2.9386   2.9760   3.0586   3.0677   3.0733   3.2482   3.2566   3.2702
     3.2800   3.2903   3.3044   3.3103   3.3276   3.3347   3.3522   3.3613
     3.3745   3.3834   3.3891   3.4210   3.4333   3.4434   3.4763   3.7695
     3.8498   3.9072   3.9673   4.0051   4.1931   4.3267   4.6464   4.8103
     4.9731   5.1463   5.3511   5.5754   5.9328   5.9563   6.0099   6.1295
     6.2015   6.2541   6.3549   6.4103   6.9329   7.0045   7.0825   7.2077
     7.7129   7.8152   7.8726   7.8894   7.9872   8.1746   8.2099   8.3028
     8.3711   8.4399   8.5157   8.6924   8.7242   8.8104   8.8613

     occupation numbers 
     1.0000   1.0000   1.0000   1.0000   1.0000   1.0000   1.0000   1.0000
     1.0000   1.0000   1.0000   1.0000   1.0000   1.0000   1.0000   1.0000
     1.0000   1.0000   1.0000   1.0000   1.0000   1.0000   1.0000   1.0000
     1.0000   1.0000   1.0000   1.0000   1.0000   1.0000   1.0000   1.0000
     1.0000   1.0000   1.0000   1.0000   1.0000   1.0000   1.0000   1.0000
     1.0000   1.0000   1.0000   1.0000   1.0000   1.0000   1.0000   1.0000
     1.0000   1.0000   1.0000   1.0000   1.0000   1.0000   1.0000   1.0000
     1.0000   1.0000   1.0000   1.0000   1.0000   1.0000   1.0000   1.0000
     1.0000   1.0000   1.0000   1.0000   1.0000   1.0000   1.0000   1.0000
     1.0000   1.0000   1.0000   1.0000   1.0000   1.0000   1.0000   1.0000
     1.0000   1.0000   1.0000   1.0000   1.0000   1.0000   1.0000   1.0000
     1.0000   1.0000   1.0000   1.0000   1.0000   1.0000   1.0000   1.0000
     1.0000   1.0000   1.0000   1.0000   1.0000   1.0000   1.0000   1.0000
     1.0000   1.0000   1.0000   1.0000   1.0000   1.0000   1.0000   1.0000
     1.0000   1.0000   1.0000   1.0000   1.0000   1.0000   1.0000   1.0000
     1.0000   1.0000   1.0000   1.0000   1.0000   1.0000   1.0000   1.0000
     1.0000   1.0000   1.0000   1.0000   1.0000   1.0000   1.0000   1.0000
     1.0000   1.0000   1.0000   1.0000   1.0000   1.0000   1.0000   1.0000
     1.0000   1.0000   1.0000   1.0000   1.0000   1.0000   1.0000   1.0000
     1.0000   1.0000   1.0000   1.0000   1.0000   1.0000   1.0000   1.0000
     1.0000   1.0000   1.0000   0.9999   0.9999   0.9999   0.9999   0.9993
     0.9988   0.9985   0.9983   0.9982   0.9978   0.9976   0.9971   0.9967
     0.9964   0.9960   0.9953   0.9950   0.9940   0.9935   0.9922   0.9889
     0.9885   0.9875   0.9860   0.9839   0.9817   0.9788   0.9678   0.9529
     0.9486   0.9421   0.9380   0.9254   0.9154   0.9085   0.9027   0.8979
     0.8688   0.8566   0.8270   0.8235   0.8213   0.7456   0.7416   0.7351
     0.7303   0.7252   0.7182   0.7152   0.7064   0.7028   0.6937   0.6890
     0.6820   0.6773   0.6742   0.6570   0.6503   0.6447   0.6263   0.4549
     0.4081   0.3754   0.3420   0.3217   0.2290   0.1735   0.0785   0.0486
     0.0287   0.0155   0.0069   0.0026   0.0004   0.0004   0.0003   0.0001
     0.0001   0.0001   0.0000   0.0000   0.0000   0.0000   0.0000   0.0000
     0.0000   0.0000   0.0000   0.0000   0.0000   0.0000   0.0000   0.0000
     0.0000   0.0000   0.0000   0.0000   0.0000   0.0000   0.0000

          k =-0.5000 0.2500 0.0000 ( 65138 PWs)   bands (ev):

   -92.3331 -92.2776 -92.1869 -92.1379 -92.0814 -92.0398 -92.0220 -91.8969
   -55.6862 -55.6639 -55.5448 -55.5342 -55.5260 -55.5209 -55.4821 -55.4565
   -55.4400 -55.4389 -55.4294 -55.3889 -55.3695 -55.3327 -55.3128 -55.2812
   -55.2733 -55.2283 -55.2254 -55.2252 -55.2169 -55.1706 -55.1528 -55.0640
   -30.9162 -30.9051 -30.8137 -30.7596 -30.6928 -30.6744 -30.5850 -30.3967
   -29.4824 -29.4428 -29.4152 -29.3078 -22.2496 -14.6202 -14.5771 -14.4985
   -14.4028 -14.3572 -14.2309 -14.1474 -14.0220 -13.7682 -13.7068 -13.6773
   -13.6645 -13.6194 -13.6034 -13.5724 -13.5423 -13.5354 -13.5100 -13.4744
   -13.4592 -13.3659 -13.2775 -13.2377 -13.2268 -13.2169 -13.1312 -13.1106
   -13.0402 -12.9943 -12.8437 -12.8084 -12.7433 -12.7086 -12.6716 -12.6589
   -12.6466 -12.6226 -12.6072 -12.5867 -12.5766 -12.5310 -12.5006 -12.4194
   -12.3925 -12.3438 -12.2649 -12.2572 -12.1821 -12.1071 -11.9700 -11.9661
   -11.8519 -11.8224 -11.4080 -11.3953 -11.3812 -11.3695 -11.3480 -11.3178
   -11.2372 -11.2282 -11.2054 -11.1690 -11.1408 -11.1319  -5.8305  -3.1572
    -3.1526  -2.0765  -2.0343  -1.8849  -1.8431  -1.6837  -1.6082  -1.4639
    -1.3285  -1.2721  -1.2449  -1.2053  -1.1655  -1.0858  -0.9712  -0.9146
    -0.8913  -0.8665  -0.7915  -0.7605  -0.7238  -0.7044  -0.6439  -0.6166
    -0.5761  -0.5410  -0.5123  -0.4552  -0.4288  -0.3869  -0.3530  -0.2495
    -0.2214  -0.1385  -0.0771  -0.0436   0.0122   0.0987   0.1317   0.2335
     0.2727   0.3235   0.3761   0.4005   0.4817   0.4998   0.5319   0.5942
     0.6329   0.9312   1.0137   1.0434   1.0614   1.3718   1.4230   1.5022
     1.5265   1.7071   1.7444   1.7815   1.7966   1.8148   1.8323   1.9018
     1.9426   1.9832   2.0079   2.1316   2.1682   2.1943   2.2061   2.2412
     2.2724   2.2862   2.2961   2.3202   2.3446   2.3847   2.4126   2.4413
     2.4635   2.4931   2.5561   2.6707   2.7806   2.8103   2.8787   2.9187
     2.9769   3.0098   3.0225   3.0575   3.0655   3.0695   3.0959   3.1173
     3.1984   3.2422   3.2559   3.2619   3.2828   3.3054   3.3183   3.3338
     3.3462   3.3651   3.3775   3.3898   3.3968   3.4066   3.4182   3.9381
     3.9869   4.1370   4.1602   4.4174   4.5063   4.5509   4.7451   5.0377
     5.1467   5.2880   5.3646   5.4903   5.7039   5.7808   5.8076   5.9032
     6.1008   6.1210   6.2781   6.5148   6.6153   6.6322   7.1318   7.2549
     7.5176   7.6559   7.9757   8.0721   8.1908   8.2118   8.3330   8.3853
     8.5458   8.5769   8.7035   8.8317   8.8366   8.8842   8.9274

     occupation numbers 
     1.0000   1.0000   1.0000   1.0000   1.0000   1.0000   1.0000   1.0000
     1.0000   1.0000   1.0000   1.0000   1.0000   1.0000   1.0000   1.0000
     1.0000   1.0000   1.0000   1.0000   1.0000   1.0000   1.0000   1.0000
     1.0000   1.0000   1.0000   1.0000   1.0000   1.0000   1.0000   1.0000
     1.0000   1.0000   1.0000   1.0000   1.0000   1.0000   1.0000   1.0000
     1.0000   1.0000   1.0000   1.0000   1.0000   1.0000   1.0000   1.0000
     1.0000   1.0000   1.0000   1.0000   1.0000   1.0000   1.0000   1.0000
     1.0000   1.0000   1.0000   1.0000   1.0000   1.0000   1.0000   1.0000
     1.0000   1.0000   1.0000   1.0000   1.0000   1.0000   1.0000   1.0000
     1.0000   1.0000   1.0000   1.0000   1.0000   1.0000   1.0000   1.0000
     1.0000   1.0000   1.0000   1.0000   1.0000   1.0000   1.0000   1.0000
     1.0000   1.0000   1.0000   1.0000   1.0000   1.0000   1.0000   1.0000
     1.0000   1.0000   1.0000   1.0000   1.0000   1.0000   1.0000   1.0000
     1.0000   1.0000   1.0000   1.0000   1.0000   1.0000   1.0000   1.0000
     1.0000   1.0000   1.0000   1.0000   1.0000   1.0000   1.0000   1.0000
     1.0000   1.0000   1.0000   1.0000   1.0000   1.0000   1.0000   1.0000
     1.0000   1.0000   1.0000   1.0000   1.0000   1.0000   1.0000   1.0000
     1.0000   1.0000   1.0000   1.0000   1.0000   1.0000   1.0000   1.0000
     1.0000   1.0000   1.0000   1.0000   1.0000   1.0000   1.0000   1.0000
     1.0000   1.0000   1.0000   1.0000   1.0000   1.0000   1.0000   1.0000
     1.0000   1.0000   1.0000   1.0000   1.0000   0.9997   0.9996   0.9994
     0.9994   0.9984   0.9981   0.9977   0.9976   0.9974   0.9971   0.9961
     0.9953   0.9944   0.9938   0.9898   0.9882   0.9870   0.9864   0.9845
     0.9826   0.9817   0.9810   0.9793   0.9774   0.9740   0.9714   0.9685
     0.9661   0.9626   0.9544   0.9355   0.9123   0.9051   0.8868   0.8750
     0.8563   0.8449   0.8404   0.8274   0.8244   0.8228   0.8125   0.8038
     0.7687   0.7485   0.7420   0.7391   0.7289   0.7176   0.7111   0.7032
     0.6968   0.6870   0.6804   0.6738   0.6701   0.6648   0.6585   0.3581
     0.3314   0.2550   0.2440   0.1411   0.1137   0.1014   0.0592   0.0229
     0.0155   0.0089   0.0065   0.0038   0.0014   0.0010   0.0008   0.0005
     0.0002   0.0002   0.0001   0.0000   0.0000   0.0000   0.0000   0.0000
     0.0000   0.0000   0.0000   0.0000   0.0000   0.0000   0.0000   0.0000
     0.0000   0.0000   0.0000   0.0000   0.0000   0.0000   0.0000

     the Fermi energy is     3.6932 ev

!    total energy              =   -4482.97121802 Ry
     estimated scf accuracy    <          8.3E-09 Ry
     smearing contrib. (-TS)   =      -1.17241971 Ry
     internal energy E=F+TS    =   -4481.79879831 Ry

     The total energy is F=E-TS. E is the sum of the following terms:
     one-electron contribution =  -20253.86934692 Ry
     hartree contribution      =   10266.67312970 Ry
     xc contribution           =    -701.57992405 Ry
     ewald contribution        =    6492.63483860 Ry
     one-center paw contrib.   =    -285.65749565 Ry
      -> PAW hartree energy AE =      25.13438040 Ry
      -> PAW hartree energy PS =     -25.01864847 Ry
      -> PAW xc energy AE      =     -16.51336401 Ry
      -> PAW xc energy PS      =       6.87264886 Ry
      -> total E_H with PAW    =   10266.78886164 Ry
      -> total E_XC with PAW   =    -711.22063920 Ry

     convergence has been achieved in  49 iterations

     Writing all to output data dir /bsuhome/zayahcortright/scratch/pwscf.save/
 
     init_run     :      7.68s CPU      8.53s WALL (       1 calls)
     electrons    :    746.12s CPU    781.83s WALL (       1 calls)

     Called by init_run:
     wfcinit      :      6.21s CPU      6.43s WALL (       1 calls)
     wfcinit:atom :      0.05s CPU      0.08s WALL (       5 calls)
     wfcinit:wfcr :      5.88s CPU      6.01s WALL (       5 calls)
     potinit      :      0.21s CPU      0.22s WALL (       1 calls)
     hinit0       :      0.38s CPU      0.76s WALL (       1 calls)

     Called by electrons:
     c_bands      :    593.14s CPU    600.60s WALL (      49 calls)
     sum_band     :    115.31s CPU    130.57s WALL (      49 calls)
     v_of_rho     :      5.40s CPU      5.77s WALL (      50 calls)
     v_h          :      0.48s CPU      0.49s WALL (      50 calls)
     v_xc         :      4.92s CPU      5.28s WALL (      50 calls)
     newd         :     17.96s CPU     29.83s WALL (      50 calls)
     PAW_pot      :      1.64s CPU      1.67s WALL (      50 calls)
     mix_rho      :     12.31s CPU     12.65s WALL (      49 calls)

     Called by c_bands:
     init_us_2    :      6.67s CPU      6.75s WALL (     495 calls)
     init_us_2:cp :      6.67s CPU      6.74s WALL (     495 calls)
     cegterg      :    561.13s CPU    568.30s WALL (     245 calls)

     Called by sum_band:
     sum_band:wei :      0.33s CPU      0.34s WALL (      49 calls)
     sum_band:loo :     93.92s CPU     94.68s WALL (      49 calls)
     sum_band:buf :      1.43s CPU      1.50s WALL (     245 calls)
     sum_band:ini :      3.01s CPU      3.02s WALL (     245 calls)
     sum_band:cal :     20.69s CPU     20.78s WALL (     245 calls)
     sum_band:bec :      0.64s CPU      0.66s WALL (     245 calls)
     addusdens    :     18.90s CPU     33.35s WALL (      49 calls)
                                        0.00s GPU  (      49 calls)
     addusd:skk   :      0.32s CPU      0.86s WALL (     196 calls)
                                        0.00s GPU  (     196 calls)

     Called by *egterg:
     cdiaghg      :     62.15s CPU     62.44s WALL (    1395 calls)
     cegterg:over :     43.20s CPU     43.39s WALL (    1150 calls)
     cegterg:upda :     31.30s CPU     31.94s WALL (    1150 calls)
     cegterg:last :     63.51s CPU     63.77s WALL (     450 calls)
     cdiaghg:chol :      3.58s CPU      3.61s WALL (    1395 calls)
     cdiaghg:inve :      3.84s CPU      3.86s WALL (    1395 calls)
     cdiaghg:para :      7.85s CPU      7.91s WALL (    2790 calls)
     h_psi        :    303.31s CPU    306.58s WALL (    1400 calls)
     s_psi        :     41.03s CPU     41.17s WALL (    1400 calls)
     g_psi        :      1.05s CPU      1.06s WALL (    1150 calls)

     Called by h_psi:
     h_psi:calbec :     47.88s CPU     48.13s WALL (    1400 calls)
     vloc_psi     :    211.56s CPU    213.64s WALL (    1400 calls)
     add_vuspsi   :     41.10s CPU     41.32s WALL (    1400 calls)

     General routines
     calbec       :     68.56s CPU     68.90s WALL (    1645 calls)
     fft          :      4.48s CPU      4.53s WALL (     648 calls)
     ffts         :      4.52s CPU      4.57s WALL (    5063 calls)
     fftw         :    185.84s CPU    187.41s WALL (  336947 calls)
     interpolate  :      0.42s CPU      0.43s WALL (      50 calls)
 
     Parallel routines

     PAW routines
     PAW_pot      :      1.64s CPU      1.67s WALL (      50 calls)
 
     PWSCF        :  12m35.64s CPU  13m22.86s WALL

 
   This run was terminated on:   0: 1:51  19Jun2024            

=------------------------------------------------------------------------------=
   JOB DONE.
=------------------------------------------------------------------------------=
