
     Program PWSCF v.7.2 starts on 21Jun2024 at 20: 5:54 

     This program is part of the open-source Quantum ESPRESSO suite
     for quantum simulation of materials; please cite
         "P. Giannozzi et al., J. Phys.:Condens. Matter 21 395502 (2009);
         "P. Giannozzi et al., J. Phys.:Condens. Matter 29 465901 (2017);
         "P. Giannozzi et al., J. Chem. Phys. 152 154105 (2020);
          URL http://www.quantum-espresso.org", 
     in publications or presentations arising from this work. More details at
     http://www.quantum-espresso.org/quote

     Parallel version (MPI & OpenMP), running on      48 processor cores
     Number of MPI processes:                48
     Threads/MPI process:                     1

     MPI processes distributed on     1 nodes
     33237 MiB available memory on the printing compute node when the environment starts
 
     Reading input from espresso.pwi
Warning: card &CELL ignored
Warning: card / ignored
Warning: card &FCP ignored
Warning: card / ignored
Warning: card &RISM ignored
Warning: card / ignored

     Current dimensions of program PWSCF are:
     Max number of different atomic species (ntypx) = 10
     Max number of k-points (npk) =  40000
     Max angular momentum in pseudopotentials (lmaxx) =  4
     file O.pbe-n-kjpaw_psl.0.1.UPF: wavefunction(s)  2P renormalized
     signal trapping enabled: kill the code with -SIGUSR1 to stop cleanly the simulation 
 
     K-points division:     npool     =       2
     R & G space division:  proc/nbgrp/npool/nimage =      24
     Subspace diagonalization in iterative solution of the eigenvalue problem:
     one sub-group per band group will be used
     scalapack distributed-memory algorithm (size of sub-group:  3*  3 procs)

 
     Parallelization info
     --------------------
     sticks:   dense  smooth     PW     G-vecs:    dense   smooth      PW
     Min         350     175     47                61430    21716    3036
     Max         351     177     48                61449    21727    3041
     Sum        8421    4205   1137              1474595   521381   72913
 
     Using Slab Decomposition
 


     bravais-lattice index     =            0
     lattice parameter (alat)  =      14.8599  a.u.
     unit-cell volume          =    8305.1283 (a.u.)^3
     number of atoms/cell      =           50
     number of atomic types    =            4
     number of electrons       =       431.00
     number of Kohn-Sham states=          259
     kinetic-energy cutoff     =      60.0000  Ry
     charge density cutoff     =     480.0000  Ry
     scf convergence threshold =      1.0E-08
     mixing beta               =       0.1500
     number of iterations used =            8  local-TF  mixing
     Exchange-correlation= PBE
                           (   1   4   3   4   0   0   0)

     celldm(1)=  14.859904  celldm(2)=   0.000000  celldm(3)=   0.000000
     celldm(4)=   0.000000  celldm(5)=   0.000000  celldm(6)=   0.000000

     crystal axes: (cart. coord. in units of alat)
               a(1) = (   1.000000   0.000000   0.000000 )  
               a(2) = (   0.000000   1.000000   0.000000 )  
               a(3) = (   0.000000   0.000000   2.531036 )  

     reciprocal axes: (cart. coord. in units 2 pi/alat)
               b(1) = (  1.000000  0.000000  0.000000 )  
               b(2) = (  0.000000  1.000000  0.000000 )  
               b(3) = (  0.000000  0.000000  0.395095 )  


     PseudoPot. # 1 for Sr read from file:
     /bsuhome/zayahcortright/q-e/pseudo/Sr_pbe_v1.uspp.F.UPF
     MD5 check sum: 6b418c05fbe9db5448babca5e47b7a5b
     Pseudo is Ultrasoft + core correction, Zval = 10.0
     Generated by new atomic code, or converted to UPF format
     Using radial grid of  883 points,  6 beta functions with: 
                l(1) =   0
                l(2) =   0
                l(3) =   1
                l(4) =   1
                l(5) =   2
                l(6) =   2
     Q(r) pseudized with  6 coefficients,  rinner =    1.400   1.400   1.400
                                                       1.400   1.400

     PseudoPot. # 2 for O  read from file:
     /bsuhome/zayahcortright/q-e/pseudo/O.pbe-n-kjpaw_psl.0.1.UPF
     MD5 check sum: 0234752ac141de4415c5fc33072bef88
     Pseudo is Projector augmented-wave + core cor, Zval =  6.0
     Generated using "atomic" code by A. Dal Corso  v.5.0.99 svn rev. 10869
     Shape of augmentation charge: BESSEL
     Using radial grid of 1095 points,  4 beta functions with: 
                l(1) =   0
                l(2) =   0
                l(3) =   1
                l(4) =   1
     Q(r) pseudized with 0 coefficients 


     PseudoPot. # 3 for Co read from file:
     /bsuhome/zayahcortright/q-e/pseudo/Co_pbe_v1.2.uspp.F.UPF
     MD5 check sum: 5f91765df6ddd3222702df6e7b74a16d
     Pseudo is Ultrasoft + core correction, Zval = 17.0
     Generated by new atomic code, or converted to UPF format
     Using radial grid of  863 points,  6 beta functions with: 
                l(1) =   0
                l(2) =   0
                l(3) =   1
                l(4) =   1
                l(5) =   2
                l(6) =   2
     Q(r) pseudized with  8 coefficients,  rinner =    1.200   1.200   1.200
                                                       1.200   1.200

     PseudoPot. # 4 for H  read from file:
     /bsuhome/zayahcortright/q-e/pseudo/H.pbe-rrkjus_psl.1.0.0.UPF
     MD5 check sum: f52b6d4d1c606e5624b1dc7b2218f220
     Pseudo is Ultrasoft, Zval =  1.0
     Generated using "atomic" code by A. Dal Corso  v.5.1
     Using radial grid of  929 points,  2 beta functions with: 
                l(1) =   0
                l(2) =   0
     Q(r) pseudized with 0 coefficients 


     atomic species   valence    mass     pseudopotential
        Sr            10.00    87.62000     Sr( 1.00)
        O              6.00    15.99900     O ( 1.00)
        Co            17.00    58.93319     Co( 1.00)
        H              1.00     1.00800     H ( 1.00)

     No symmetry found


                                    s                        frac. trans.

      isym =  1     identity                                     

 cryst.   s( 1) = (     1          0          0      )
                  (     0          1          0      )
                  (     0          0          1      )

 cart.    s( 1) = (  1.0000000  0.0000000  0.0000000 )
                  (  0.0000000  1.0000000  0.0000000 )
                  (  0.0000000  0.0000000  1.0000000 )


   Cartesian axes

     site n.     atom                  positions (alat units)
         1           Sr  tau(   1) = (   0.2508693   0.7491307   1.7574407  )
         2           O   tau(   2) = (   0.4985141   0.5014859   1.7715967  )
         3           Sr  tau(   3) = (   0.7482398   0.7454518   1.7648669  )
         4           Sr  tau(   4) = (   0.7441748   0.2558252   1.7667843  )
         5           Sr  tau(   5) = (   0.2508693   0.7491307   1.2696799  )
         6           Sr  tau(   6) = (   0.2508693   0.7491307   0.7632319  )
         7           Co  tau(   7) = (   0.4998914   0.5001086   1.0164559  )
         8           Co  tau(   8) = (   0.4936915   0.5063085   1.5135603  )
         9           O   tau(   9) = (   0.4988895   0.7610401   1.0164559  )
        10           O   tau(  10) = (   0.2389599   0.5011105   1.0164559  )
        11           O   tau(  11) = (   0.0070918   0.7374880   1.0164559  )
        12           O   tau(  12) = (   0.0088340   0.7405089   1.5135603  )
        13           O   tau(  13) = (   0.5066944   0.7415376   1.5135603  )
        14           O   tau(  14) = (   0.2584624   0.4933056   1.5135603  )
        15           O   tau(  15) = (   0.4985141   0.5014859   0.7773880  )
        16           O   tau(  16) = (   0.4985141   0.5014859   1.2555238  )
        17           Sr  tau(  17) = (   0.7482398   0.7454518   0.7706582  )
        18           Sr  tau(  18) = (   0.7482398   0.7454518   1.2622536  )
        19           Sr  tau(  19) = (   0.7441748   0.2558252   0.7725755  )
        20           Sr  tau(  20) = (   0.7441748   0.2558252   1.2603363  )
        21           O   tau(  21) = (   0.7322655   0.0078049   1.5135603  )
        22           O   tau(  22) = (   0.7558175   0.4996027   1.5135603  )
        23           O   tau(  23) = (   0.5003973   0.2441825   1.5135603  )
        24           O   tau(  24) = (   0.7527966   0.4978604   1.0164559  )
        25           O   tau(  25) = (   0.5021396   0.2472034   1.0164559  )
        26           O   tau(  26) = (   0.7517679   0.0000000   1.0164559  )
        27           O   tau(  27) = (   0.0114961   0.4948124   1.7455321  )
        28           O   tau(  28) = (   0.0048226   0.0077944   1.7715967  )
        29           Sr  tau(  29) = (   0.2545482   0.2517602   1.7648669  )
        30           O   tau(  30) = (   0.5048017   0.0015068   1.7786929  )
        31           Co  tau(  31) = (   0.0056869   0.5006215   1.0164559  )
        32           Co  tau(  32) = (   0.0065315   0.4997770   1.5135603  )
        33           Co  tau(  33) = (   0.0061999   0.0064171   1.0164559  )
        34           Co  tau(  34) = (   0.0000000   0.0126169   1.5135603  )
        35           O   tau(  35) = (   0.0114961   0.4948124   1.2815885  )
        36           O   tau(  36) = (   0.0114961   0.4948124   0.7513233  )
        37           O   tau(  37) = (   0.0051979   0.2673486   1.0164559  )
        38           O   tau(  38) = (   0.0130029   0.2478461   1.5135603  )
        39           O   tau(  39) = (   0.0048226   0.0077944   0.7773880  )
        40           O   tau(  40) = (   0.0048226   0.0077944   1.2555238  )
        41           Sr  tau(  41) = (   0.2545482   0.2517602   0.7706582  )
        42           Sr  tau(  42) = (   0.2545482   0.2517602   1.2622536  )
        43           Co  tau(  43) = (   0.4989925   0.0073160   1.5135603  )
        44           Co  tau(  44) = (   0.4998370   0.0064714   1.0164559  )
        45           O   tau(  45) = (   0.5048017   0.0015068   0.7844841  )
        46           O   tau(  46) = (   0.5048017   0.0015068   1.2484277  )
        47           O   tau(  47) = (   0.2621260   0.0059111   1.5135603  )
        48           O   tau(  48) = (   0.2591051   0.0041689   1.0164559  )
        49           O   tau(  49) = (   0.4264937   0.0000000   2.1602013  )
        50           H   tau(  50) = (   0.4264937   0.0000000   2.2847091  )

   Crystallographic axes

     site n.     atom                  positions (cryst. coord.)
         1           Sr  tau(   1) = (  0.2508693  0.7491307  0.6943562  )
         2           O   tau(   2) = (  0.4985141  0.5014859  0.6999492  )
         3           Sr  tau(   3) = (  0.7482398  0.7454518  0.6972903  )
         4           Sr  tau(   4) = (  0.7441748  0.2558252  0.6980478  )
         5           Sr  tau(   5) = (  0.2508693  0.7491307  0.5016443  )
         6           Sr  tau(   6) = (  0.2508693  0.7491307  0.3015492  )
         7           Co  tau(   7) = (  0.4998914  0.5001086  0.4015968  )
         8           Co  tau(   8) = (  0.4936915  0.5063085  0.5980003  )
         9           O   tau(   9) = (  0.4988895  0.7610401  0.4015968  )
        10           O   tau(  10) = (  0.2389599  0.5011105  0.4015968  )
        11           O   tau(  11) = (  0.0070918  0.7374880  0.4015968  )
        12           O   tau(  12) = (  0.0088340  0.7405089  0.5980003  )
        13           O   tau(  13) = (  0.5066944  0.7415376  0.5980003  )
        14           O   tau(  14) = (  0.2584624  0.4933056  0.5980003  )
        15           O   tau(  15) = (  0.4985141  0.5014859  0.3071422  )
        16           O   tau(  16) = (  0.4985141  0.5014859  0.4960513  )
        17           Sr  tau(  17) = (  0.7482398  0.7454518  0.3044833  )
        18           Sr  tau(  18) = (  0.7482398  0.7454518  0.4987103  )
        19           Sr  tau(  19) = (  0.7441748  0.2558252  0.3052408  )
        20           Sr  tau(  20) = (  0.7441748  0.2558252  0.4979527  )
        21           O   tau(  21) = (  0.7322655  0.0078049  0.5980003  )
        22           O   tau(  22) = (  0.7558175  0.4996027  0.5980003  )
        23           O   tau(  23) = (  0.5003973  0.2441825  0.5980003  )
        24           O   tau(  24) = (  0.7527966  0.4978604  0.4015968  )
        25           O   tau(  25) = (  0.5021396  0.2472034  0.4015968  )
        26           O   tau(  26) = (  0.7517679  0.0000000  0.4015968  )
        27           O   tau(  27) = (  0.0114961  0.4948124  0.6896512  )
        28           O   tau(  28) = (  0.0048226  0.0077944  0.6999492  )
        29           Sr  tau(  29) = (  0.2545482  0.2517602  0.6972903  )
        30           O   tau(  30) = (  0.5048017  0.0015068  0.7027529  )
        31           Co  tau(  31) = (  0.0056869  0.5006215  0.4015968  )
        32           Co  tau(  32) = (  0.0065315  0.4997770  0.5980003  )
        33           Co  tau(  33) = (  0.0061999  0.0064171  0.4015968  )
        34           Co  tau(  34) = (  0.0000000  0.0126169  0.5980003  )
        35           O   tau(  35) = (  0.0114961  0.4948124  0.5063494  )
        36           O   tau(  36) = (  0.0114961  0.4948124  0.2968442  )
        37           O   tau(  37) = (  0.0051979  0.2673486  0.4015968  )
        38           O   tau(  38) = (  0.0130029  0.2478461  0.5980003  )
        39           O   tau(  39) = (  0.0048226  0.0077944  0.3071422  )
        40           O   tau(  40) = (  0.0048226  0.0077944  0.4960513  )
        41           Sr  tau(  41) = (  0.2545482  0.2517602  0.3044833  )
        42           Sr  tau(  42) = (  0.2545482  0.2517602  0.4987103  )
        43           Co  tau(  43) = (  0.4989925  0.0073160  0.5980003  )
        44           Co  tau(  44) = (  0.4998370  0.0064714  0.4015968  )
        45           O   tau(  45) = (  0.5048017  0.0015068  0.3099459  )
        46           O   tau(  46) = (  0.5048017  0.0015068  0.4932477  )
        47           O   tau(  47) = (  0.2621260  0.0059111  0.5980003  )
        48           O   tau(  48) = (  0.2591051  0.0041689  0.4015968  )
        49           O   tau(  49) = (  0.4264937  0.0000000  0.8534850  )
        50           H   tau(  50) = (  0.4264937  0.0000000  0.9026774  )

     number of k points=    10  Gaussian smearing, width (Ry)=  0.0700
                       cart. coord. in units 2pi/alat
        k(    1) = (   0.0000000   0.0000000   0.0000000), wk =   0.1250000
        k(    2) = (   0.0000000   0.2500000   0.0000000), wk =   0.2500000
        k(    3) = (   0.0000000  -0.5000000   0.0000000), wk =   0.1250000
        k(    4) = (   0.2500000   0.2500000   0.0000000), wk =   0.2500000
        k(    5) = (   0.2500000  -0.5000000   0.0000000), wk =   0.2500000
        k(    6) = (  -0.5000000  -0.5000000   0.0000000), wk =   0.1250000
        k(    7) = (   0.2500000   0.0000000   0.0000000), wk =   0.2500000
        k(    8) = (  -0.5000000   0.0000000   0.0000000), wk =   0.1250000
        k(    9) = (  -0.2500000   0.2500000   0.0000000), wk =   0.2500000
        k(   10) = (  -0.5000000   0.2500000   0.0000000), wk =   0.2500000

                       cryst. coord.
        k(    1) = (   0.0000000   0.0000000   0.0000000), wk =   0.1250000
        k(    2) = (   0.0000000   0.2500000   0.0000000), wk =   0.2500000
        k(    3) = (   0.0000000  -0.5000000   0.0000000), wk =   0.1250000
        k(    4) = (   0.2500000   0.2500000   0.0000000), wk =   0.2500000
        k(    5) = (   0.2500000  -0.5000000   0.0000000), wk =   0.2500000
        k(    6) = (  -0.5000000  -0.5000000   0.0000000), wk =   0.1250000
        k(    7) = (   0.2500000   0.0000000   0.0000000), wk =   0.2500000
        k(    8) = (  -0.5000000   0.0000000   0.0000000), wk =   0.1250000
        k(    9) = (  -0.2500000   0.2500000   0.0000000), wk =   0.2500000
        k(   10) = (  -0.5000000   0.2500000   0.0000000), wk =   0.2500000

     Dense  grid:  1474595 G-vectors     FFT dimensions: ( 108, 108, 270)

     Smooth grid:   521381 G-vectors     FFT dimensions: (  75,  75, 192)

     Dynamical RAM for                 wfc:      10.73 MB

     Dynamical RAM for     wfc (w. buffer):      64.38 MB

     Dynamical RAM for           str. fact:       3.75 MB

     Dynamical RAM for           local pot:       0.00 MB

     Dynamical RAM for          nlocal pot:      24.61 MB

     Dynamical RAM for                qrad:       7.03 MB

     Dynamical RAM for          rho,v,vnew:       6.02 MB

     Dynamical RAM for               rhoin:       2.01 MB

     Dynamical RAM for            rho*nmix:      15.00 MB

     Dynamical RAM for           G-vectors:       3.68 MB

     Dynamical RAM for          h,s,v(r/c):       1.35 MB

     Dynamical RAM for          <psi|beta>:       2.35 MB

     Dynamical RAM for                 psi:      21.46 MB

     Dynamical RAM for                hpsi:      21.46 MB

     Dynamical RAM for                spsi:      21.46 MB

     Dynamical RAM for      wfcinit/wfcrot:      34.49 MB

     Dynamical RAM for           addusdens:     101.26 MB

     Estimated static dynamical RAM per process >     121.50 MB

     Estimated max dynamical RAM per process >     237.76 MB

     Estimated total dynamical RAM >      10.79 GB

     Check: negative core charge=   -0.000004

     Initial potential from superposition of free atoms

     starting charge     422.5961, renormalised to     431.0000

     negative rho (up, down):  7.820E-01 0.000E+00
     Starting wfcs are  377 randomized atomic wfcs
     Checking if some PAW data can be deallocated... 
       PAW data deallocated on   19 nodes for type:  2

     total cpu time spent up to now is        9.7 secs

     Self-consistent Calculation

     iteration #  1     ecut=    60.00 Ry     beta= 0.15
     Davidson diagonalization with overlap

---- Real-time Memory Report at c_bands before calling an iterative solver
             0 MiB given to the printing process from OS
             0 MiB allocation reported by mallinfo(arena+hblkhd)
         23985 MiB available memory on the node where the printing process lives
------------------
     ethr =  1.00E-02,  avg # of iterations =  2.0

     negative rho (up, down):  7.715E-01 0.000E+00

     total cpu time spent up to now is       26.4 secs

     total energy              =   -4446.61861213 Ry
     estimated scf accuracy    <      44.94415103 Ry

     iteration #  2     ecut=    60.00 Ry     beta= 0.15
     Davidson diagonalization with overlap

---- Real-time Memory Report at c_bands before calling an iterative solver
             0 MiB given to the printing process from OS
             0 MiB allocation reported by mallinfo(arena+hblkhd)
         24267 MiB available memory on the node where the printing process lives
------------------
     ethr =  1.00E-02,  avg # of iterations =  1.0

     negative rho (up, down):  7.579E-01 0.000E+00

     total cpu time spent up to now is       41.0 secs

     total energy              =   -4443.20934145 Ry
     estimated scf accuracy    <      29.57392908 Ry

     iteration #  3     ecut=    60.00 Ry     beta= 0.15
     Davidson diagonalization with overlap

---- Real-time Memory Report at c_bands before calling an iterative solver
             0 MiB given to the printing process from OS
             0 MiB allocation reported by mallinfo(arena+hblkhd)
         23424 MiB available memory on the node where the printing process lives
------------------
     ethr =  6.86E-03,  avg # of iterations =  1.0

     negative rho (up, down):  7.553E-01 0.000E+00

     total cpu time spent up to now is       55.5 secs

     total energy              =   -4444.25970576 Ry
     estimated scf accuracy    <      29.67263505 Ry

     iteration #  4     ecut=    60.00 Ry     beta= 0.15
     Davidson diagonalization with overlap

---- Real-time Memory Report at c_bands before calling an iterative solver
             0 MiB given to the printing process from OS
             0 MiB allocation reported by mallinfo(arena+hblkhd)
         23400 MiB available memory on the node where the printing process lives
------------------
     ethr =  6.86E-03,  avg # of iterations =  1.0

     negative rho (up, down):  7.491E-01 0.000E+00

     total cpu time spent up to now is       70.0 secs

     total energy              =   -4443.05590262 Ry
     estimated scf accuracy    <      21.35895343 Ry

     iteration #  5     ecut=    60.00 Ry     beta= 0.15
     Davidson diagonalization with overlap

---- Real-time Memory Report at c_bands before calling an iterative solver
             0 MiB given to the printing process from OS
             0 MiB allocation reported by mallinfo(arena+hblkhd)
         23384 MiB available memory on the node where the printing process lives
------------------
     ethr =  4.96E-03,  avg # of iterations =  1.0

     negative rho (up, down):  7.408E-01 0.000E+00

     total cpu time spent up to now is       84.7 secs

     total energy              =   -4442.59869533 Ry
     estimated scf accuracy    <       9.61599983 Ry

     iteration #  6     ecut=    60.00 Ry     beta= 0.15
     Davidson diagonalization with overlap

---- Real-time Memory Report at c_bands before calling an iterative solver
             0 MiB given to the printing process from OS
             0 MiB allocation reported by mallinfo(arena+hblkhd)
         23362 MiB available memory on the node where the printing process lives
------------------
     ethr =  2.23E-03,  avg # of iterations =  1.1

     negative rho (up, down):  7.432E-01 0.000E+00

     total cpu time spent up to now is       99.7 secs

     total energy              =   -4442.79031513 Ry
     estimated scf accuracy    <       4.82580603 Ry

     iteration #  7     ecut=    60.00 Ry     beta= 0.15
     Davidson diagonalization with overlap

---- Real-time Memory Report at c_bands before calling an iterative solver
             0 MiB given to the printing process from OS
             0 MiB allocation reported by mallinfo(arena+hblkhd)
         23345 MiB available memory on the node where the printing process lives
------------------
     ethr =  1.12E-03,  avg # of iterations =  1.7

     negative rho (up, down):  7.645E-01 0.000E+00

     total cpu time spent up to now is      115.1 secs

     total energy              =   -4441.64712621 Ry
     estimated scf accuracy    <       3.91279596 Ry

     iteration #  8     ecut=    60.00 Ry     beta= 0.15
     Davidson diagonalization with overlap

---- Real-time Memory Report at c_bands before calling an iterative solver
             0 MiB given to the printing process from OS
             0 MiB allocation reported by mallinfo(arena+hblkhd)
         23326 MiB available memory on the node where the printing process lives
------------------
     ethr =  9.08E-04,  avg # of iterations =  7.7

     negative rho (up, down):  7.716E-01 0.000E+00

     total cpu time spent up to now is      136.9 secs

     total energy              =   -4441.57462876 Ry
     estimated scf accuracy    <      12.59907460 Ry

     iteration #  9     ecut=    60.00 Ry     beta= 0.15
     Davidson diagonalization with overlap

---- Real-time Memory Report at c_bands before calling an iterative solver
             0 MiB given to the printing process from OS
             0 MiB allocation reported by mallinfo(arena+hblkhd)
         23046 MiB available memory on the node where the printing process lives
------------------
     ethr =  9.08E-04,  avg # of iterations =  9.5

     negative rho (up, down):  7.705E-01 0.000E+00

     total cpu time spent up to now is      158.5 secs

     total energy              =   -4441.81316955 Ry
     estimated scf accuracy    <       1.88594299 Ry

     iteration # 10     ecut=    60.00 Ry     beta= 0.15
     Davidson diagonalization with overlap

---- Real-time Memory Report at c_bands before calling an iterative solver
             0 MiB given to the printing process from OS
             0 MiB allocation reported by mallinfo(arena+hblkhd)
         22835 MiB available memory on the node where the printing process lives
------------------
     ethr =  4.38E-04,  avg # of iterations =  7.1

     negative rho (up, down):  7.812E-01 0.000E+00

     total cpu time spent up to now is      178.5 secs

     total energy              =   -4441.91871813 Ry
     estimated scf accuracy    <       1.00993753 Ry

     iteration # 11     ecut=    60.00 Ry     beta= 0.15
     Davidson diagonalization with overlap

---- Real-time Memory Report at c_bands before calling an iterative solver
             0 MiB given to the printing process from OS
             0 MiB allocation reported by mallinfo(arena+hblkhd)
         22768 MiB available memory on the node where the printing process lives
------------------
     ethr =  2.34E-04,  avg # of iterations =  4.3

     negative rho (up, down):  8.073E-01 0.000E+00

     total cpu time spent up to now is      197.3 secs

     total energy              =   -4441.73644161 Ry
     estimated scf accuracy    <       1.36668835 Ry

     iteration # 12     ecut=    60.00 Ry     beta= 0.15
     Davidson diagonalization with overlap

---- Real-time Memory Report at c_bands before calling an iterative solver
             0 MiB given to the printing process from OS
             0 MiB allocation reported by mallinfo(arena+hblkhd)
         22769 MiB available memory on the node where the printing process lives
------------------
     ethr =  2.34E-04,  avg # of iterations =  8.0

     negative rho (up, down):  8.120E-01 0.000E+00

     total cpu time spent up to now is      218.6 secs

     total energy              =   -4441.82101747 Ry
     estimated scf accuracy    <       0.68468726 Ry

     iteration # 13     ecut=    60.00 Ry     beta= 0.15
     Davidson diagonalization with overlap

---- Real-time Memory Report at c_bands before calling an iterative solver
             0 MiB given to the printing process from OS
             0 MiB allocation reported by mallinfo(arena+hblkhd)
         22758 MiB available memory on the node where the printing process lives
------------------
     ethr =  1.59E-04,  avg # of iterations =  2.3

     negative rho (up, down):  8.185E-01 0.000E+00

     total cpu time spent up to now is      235.7 secs

     total energy              =   -4441.78256468 Ry
     estimated scf accuracy    <       0.44189842 Ry

     iteration # 14     ecut=    60.00 Ry     beta= 0.15
     Davidson diagonalization with overlap

---- Real-time Memory Report at c_bands before calling an iterative solver
             0 MiB given to the printing process from OS
             0 MiB allocation reported by mallinfo(arena+hblkhd)
         22699 MiB available memory on the node where the printing process lives
------------------
     ethr =  1.03E-04,  avg # of iterations =  6.2

     negative rho (up, down):  8.270E-01 0.000E+00

     total cpu time spent up to now is      255.7 secs

     total energy              =   -4441.69556503 Ry
     estimated scf accuracy    <       0.36418149 Ry

     iteration # 15     ecut=    60.00 Ry     beta= 0.15
     Davidson diagonalization with overlap

---- Real-time Memory Report at c_bands before calling an iterative solver
             0 MiB given to the printing process from OS
             0 MiB allocation reported by mallinfo(arena+hblkhd)
         22690 MiB available memory on the node where the printing process lives
------------------
     c_bands:  2 eigenvalues not converged
     c_bands:  1 eigenvalues not converged
     ethr =  8.45E-05,  avg # of iterations = 12.1

     negative rho (up, down):  8.303E-01 0.000E+00

     total cpu time spent up to now is      279.5 secs

     total energy              =   -4441.71570389 Ry
     estimated scf accuracy    <       0.32667739 Ry

     iteration # 16     ecut=    60.00 Ry     beta= 0.15
     Davidson diagonalization with overlap

---- Real-time Memory Report at c_bands before calling an iterative solver
             0 MiB given to the printing process from OS
             0 MiB allocation reported by mallinfo(arena+hblkhd)
         22670 MiB available memory on the node where the printing process lives
------------------
     ethr =  7.58E-05,  avg # of iterations =  1.3

     negative rho (up, down):  8.240E-01 0.000E+00

     total cpu time spent up to now is      295.3 secs

     total energy              =   -4441.69122363 Ry
     estimated scf accuracy    <       0.24373389 Ry

     iteration # 17     ecut=    60.00 Ry     beta= 0.15
     Davidson diagonalization with overlap

---- Real-time Memory Report at c_bands before calling an iterative solver
             0 MiB given to the printing process from OS
             0 MiB allocation reported by mallinfo(arena+hblkhd)
         22682 MiB available memory on the node where the printing process lives
------------------
     ethr =  5.66E-05,  avg # of iterations =  6.7

     negative rho (up, down):  8.079E-01 0.000E+00

     total cpu time spent up to now is      315.3 secs

     total energy              =   -4441.65488180 Ry
     estimated scf accuracy    <       0.16923011 Ry

     iteration # 18     ecut=    60.00 Ry     beta= 0.15
     Davidson diagonalization with overlap

---- Real-time Memory Report at c_bands before calling an iterative solver
             0 MiB given to the printing process from OS
             0 MiB allocation reported by mallinfo(arena+hblkhd)
         22686 MiB available memory on the node where the printing process lives
------------------
     ethr =  3.93E-05,  avg # of iterations =  8.8

     negative rho (up, down):  8.426E-01 0.000E+00

     total cpu time spent up to now is      336.9 secs

     total energy              =   -4441.65605758 Ry
     estimated scf accuracy    <       0.08710053 Ry

     iteration # 19     ecut=    60.00 Ry     beta= 0.15
     Davidson diagonalization with overlap

---- Real-time Memory Report at c_bands before calling an iterative solver
             0 MiB given to the printing process from OS
             0 MiB allocation reported by mallinfo(arena+hblkhd)
         22667 MiB available memory on the node where the printing process lives
------------------
     ethr =  2.02E-05,  avg # of iterations = 10.9

     negative rho (up, down):  8.395E-01 0.000E+00

     total cpu time spent up to now is      359.5 secs

     total energy              =   -4441.65739089 Ry
     estimated scf accuracy    <       0.04144257 Ry

     iteration # 20     ecut=    60.00 Ry     beta= 0.15
     Davidson diagonalization with overlap

---- Real-time Memory Report at c_bands before calling an iterative solver
             0 MiB given to the printing process from OS
             0 MiB allocation reported by mallinfo(arena+hblkhd)
         22666 MiB available memory on the node where the printing process lives
------------------
     ethr =  9.62E-06,  avg # of iterations =  2.2

     negative rho (up, down):  8.195E-01 0.000E+00

     total cpu time spent up to now is      376.9 secs

     total energy              =   -4441.65265915 Ry
     estimated scf accuracy    <       0.03185174 Ry

     iteration # 21     ecut=    60.00 Ry     beta= 0.15
     Davidson diagonalization with overlap

---- Real-time Memory Report at c_bands before calling an iterative solver
             0 MiB given to the printing process from OS
             0 MiB allocation reported by mallinfo(arena+hblkhd)
         22674 MiB available memory on the node where the printing process lives
------------------
     ethr =  7.39E-06,  avg # of iterations =  6.9

     negative rho (up, down):  8.024E-01 0.000E+00

     total cpu time spent up to now is      396.5 secs

     total energy              =   -4441.64949682 Ry
     estimated scf accuracy    <       0.02113063 Ry

     iteration # 22     ecut=    60.00 Ry     beta= 0.15
     Davidson diagonalization with overlap

---- Real-time Memory Report at c_bands before calling an iterative solver
             0 MiB given to the printing process from OS
             0 MiB allocation reported by mallinfo(arena+hblkhd)
         22672 MiB available memory on the node where the printing process lives
------------------
     ethr =  4.90E-06,  avg # of iterations = 10.0

     negative rho (up, down):  7.930E-01 0.000E+00

     total cpu time spent up to now is      418.4 secs

     total energy              =   -4441.64832129 Ry
     estimated scf accuracy    <       0.01234724 Ry

     iteration # 23     ecut=    60.00 Ry     beta= 0.15
     Davidson diagonalization with overlap

---- Real-time Memory Report at c_bands before calling an iterative solver
             0 MiB given to the printing process from OS
             0 MiB allocation reported by mallinfo(arena+hblkhd)
         22674 MiB available memory on the node where the printing process lives
------------------
     ethr =  2.86E-06,  avg # of iterations = 10.7

     negative rho (up, down):  7.922E-01 0.000E+00

     total cpu time spent up to now is      441.5 secs

     total energy              =   -4441.64778279 Ry
     estimated scf accuracy    <       0.00757273 Ry

     iteration # 24     ecut=    60.00 Ry     beta= 0.15
     Davidson diagonalization with overlap

---- Real-time Memory Report at c_bands before calling an iterative solver
             0 MiB given to the printing process from OS
             0 MiB allocation reported by mallinfo(arena+hblkhd)
         22662 MiB available memory on the node where the printing process lives
------------------
     ethr =  1.76E-06,  avg # of iterations =  5.8

     negative rho (up, down):  7.931E-01 0.000E+00

     total cpu time spent up to now is      461.1 secs

     total energy              =   -4441.64739864 Ry
     estimated scf accuracy    <       0.00548057 Ry

     iteration # 25     ecut=    60.00 Ry     beta= 0.15
     Davidson diagonalization with overlap

---- Real-time Memory Report at c_bands before calling an iterative solver
             0 MiB given to the printing process from OS
             0 MiB allocation reported by mallinfo(arena+hblkhd)
         22676 MiB available memory on the node where the printing process lives
------------------
     ethr =  1.27E-06,  avg # of iterations =  9.3

     negative rho (up, down):  7.947E-01 0.000E+00

     total cpu time spent up to now is      482.3 secs

     total energy              =   -4441.64729194 Ry
     estimated scf accuracy    <       0.00287994 Ry

     iteration # 26     ecut=    60.00 Ry     beta= 0.15
     Davidson diagonalization with overlap

---- Real-time Memory Report at c_bands before calling an iterative solver
             0 MiB given to the printing process from OS
             0 MiB allocation reported by mallinfo(arena+hblkhd)
         22664 MiB available memory on the node where the printing process lives
------------------
     c_bands:  1 eigenvalues not converged
     ethr =  6.68E-07,  avg # of iterations = 10.3

     negative rho (up, down):  7.963E-01 0.000E+00

     total cpu time spent up to now is      505.1 secs

     total energy              =   -4441.64742395 Ry
     estimated scf accuracy    <       0.00126820 Ry

     iteration # 27     ecut=    60.00 Ry     beta= 0.15
     Davidson diagonalization with overlap

---- Real-time Memory Report at c_bands before calling an iterative solver
             0 MiB given to the printing process from OS
             0 MiB allocation reported by mallinfo(arena+hblkhd)
         22663 MiB available memory on the node where the printing process lives
------------------
     ethr =  2.94E-07,  avg # of iterations = 10.0

     negative rho (up, down):  7.970E-01 0.000E+00

     total cpu time spent up to now is      526.7 secs

     total energy              =   -4441.64742210 Ry
     estimated scf accuracy    <       0.00076693 Ry

     iteration # 28     ecut=    60.00 Ry     beta= 0.15
     Davidson diagonalization with overlap

---- Real-time Memory Report at c_bands before calling an iterative solver
             0 MiB given to the printing process from OS
             0 MiB allocation reported by mallinfo(arena+hblkhd)
         22643 MiB available memory on the node where the printing process lives
------------------
     ethr =  1.78E-07,  avg # of iterations =  2.2

     negative rho (up, down):  7.954E-01 0.000E+00

     total cpu time spent up to now is      544.1 secs

     total energy              =   -4441.64743645 Ry
     estimated scf accuracy    <       0.00031047 Ry

     iteration # 29     ecut=    60.00 Ry     beta= 0.15
     Davidson diagonalization with overlap

---- Real-time Memory Report at c_bands before calling an iterative solver
             0 MiB given to the printing process from OS
             0 MiB allocation reported by mallinfo(arena+hblkhd)
         22668 MiB available memory on the node where the printing process lives
------------------
     ethr =  7.20E-08,  avg # of iterations =  2.1

     negative rho (up, down):  7.942E-01 0.000E+00

     total cpu time spent up to now is      561.5 secs

     total energy              =   -4441.64744506 Ry
     estimated scf accuracy    <       0.00013322 Ry

     iteration # 30     ecut=    60.00 Ry     beta= 0.15
     Davidson diagonalization with overlap

---- Real-time Memory Report at c_bands before calling an iterative solver
             0 MiB given to the printing process from OS
             0 MiB allocation reported by mallinfo(arena+hblkhd)
         22653 MiB available memory on the node where the printing process lives
------------------
     ethr =  3.09E-08,  avg # of iterations =  3.5

     negative rho (up, down):  7.935E-01 0.000E+00

     total cpu time spent up to now is      579.8 secs

     total energy              =   -4441.64745373 Ry
     estimated scf accuracy    <       0.00004141 Ry

     iteration # 31     ecut=    60.00 Ry     beta= 0.15
     Davidson diagonalization with overlap

---- Real-time Memory Report at c_bands before calling an iterative solver
             0 MiB given to the printing process from OS
             0 MiB allocation reported by mallinfo(arena+hblkhd)
         22669 MiB available memory on the node where the printing process lives
------------------
     ethr =  9.61E-09,  avg # of iterations =  2.2

     negative rho (up, down):  7.928E-01 0.000E+00

     total cpu time spent up to now is      597.0 secs

     total energy              =   -4441.64745770 Ry
     estimated scf accuracy    <       0.00002473 Ry

     iteration # 32     ecut=    60.00 Ry     beta= 0.15
     Davidson diagonalization with overlap

---- Real-time Memory Report at c_bands before calling an iterative solver
             0 MiB given to the printing process from OS
             0 MiB allocation reported by mallinfo(arena+hblkhd)
         22680 MiB available memory on the node where the printing process lives
------------------
     ethr =  5.74E-09,  avg # of iterations =  2.8

     negative rho (up, down):  7.924E-01 0.000E+00

     total cpu time spent up to now is      614.8 secs

     total energy              =   -4441.64746009 Ry
     estimated scf accuracy    <       0.00001594 Ry

     iteration # 33     ecut=    60.00 Ry     beta= 0.15
     Davidson diagonalization with overlap

---- Real-time Memory Report at c_bands before calling an iterative solver
             0 MiB given to the printing process from OS
             0 MiB allocation reported by mallinfo(arena+hblkhd)
         22688 MiB available memory on the node where the printing process lives
------------------
     ethr =  3.70E-09,  avg # of iterations =  2.2

     negative rho (up, down):  7.923E-01 0.000E+00

     total cpu time spent up to now is      632.2 secs

     total energy              =   -4441.64746103 Ry
     estimated scf accuracy    <       0.00000543 Ry

     iteration # 34     ecut=    60.00 Ry     beta= 0.15
     Davidson diagonalization with overlap

---- Real-time Memory Report at c_bands before calling an iterative solver
             0 MiB given to the printing process from OS
             0 MiB allocation reported by mallinfo(arena+hblkhd)
         22695 MiB available memory on the node where the printing process lives
------------------
     ethr =  1.26E-09,  avg # of iterations =  2.1

     negative rho (up, down):  7.924E-01 0.000E+00

     total cpu time spent up to now is      649.8 secs

     total energy              =   -4441.64746076 Ry
     estimated scf accuracy    <       0.00000256 Ry

     iteration # 35     ecut=    60.00 Ry     beta= 0.15
     Davidson diagonalization with overlap

---- Real-time Memory Report at c_bands before calling an iterative solver
             0 MiB given to the printing process from OS
             0 MiB allocation reported by mallinfo(arena+hblkhd)
         22698 MiB available memory on the node where the printing process lives
------------------
     ethr =  5.94E-10,  avg # of iterations =  2.2

     negative rho (up, down):  7.925E-01 0.000E+00

     total cpu time spent up to now is      667.1 secs

     total energy              =   -4441.64746033 Ry
     estimated scf accuracy    <       0.00000128 Ry

     iteration # 36     ecut=    60.00 Ry     beta= 0.15
     Davidson diagonalization with overlap

---- Real-time Memory Report at c_bands before calling an iterative solver
             0 MiB given to the printing process from OS
             0 MiB allocation reported by mallinfo(arena+hblkhd)
         22700 MiB available memory on the node where the printing process lives
------------------
     ethr =  2.96E-10,  avg # of iterations =  2.7

     negative rho (up, down):  7.925E-01 0.000E+00

     total cpu time spent up to now is      685.2 secs

     total energy              =   -4441.64746065 Ry
     estimated scf accuracy    <       0.00000067 Ry

     iteration # 37     ecut=    60.00 Ry     beta= 0.15
     Davidson diagonalization with overlap

---- Real-time Memory Report at c_bands before calling an iterative solver
             0 MiB given to the printing process from OS
             0 MiB allocation reported by mallinfo(arena+hblkhd)
         22697 MiB available memory on the node where the printing process lives
------------------
     ethr =  1.55E-10,  avg # of iterations =  2.2

     negative rho (up, down):  7.925E-01 0.000E+00

     total cpu time spent up to now is      702.4 secs

     total energy              =   -4441.64746096 Ry
     estimated scf accuracy    <       0.00000036 Ry

     iteration # 38     ecut=    60.00 Ry     beta= 0.15
     Davidson diagonalization with overlap

---- Real-time Memory Report at c_bands before calling an iterative solver
             0 MiB given to the printing process from OS
             0 MiB allocation reported by mallinfo(arena+hblkhd)
         22703 MiB available memory on the node where the printing process lives
------------------
     ethr =  8.44E-11,  avg # of iterations =  3.1

     negative rho (up, down):  7.925E-01 0.000E+00

     total cpu time spent up to now is      720.7 secs

     total energy              =   -4441.64746118 Ry
     estimated scf accuracy    <       0.00000021 Ry

     iteration # 39     ecut=    60.00 Ry     beta= 0.15
     Davidson diagonalization with overlap

---- Real-time Memory Report at c_bands before calling an iterative solver
             0 MiB given to the printing process from OS
             0 MiB allocation reported by mallinfo(arena+hblkhd)
         22700 MiB available memory on the node where the printing process lives
------------------
     ethr =  4.77E-11,  avg # of iterations =  3.1

     negative rho (up, down):  7.925E-01 0.000E+00

     total cpu time spent up to now is      739.4 secs

     total energy              =   -4441.64746131 Ry
     estimated scf accuracy    <       0.00000016 Ry

     iteration # 40     ecut=    60.00 Ry     beta= 0.15
     Davidson diagonalization with overlap

---- Real-time Memory Report at c_bands before calling an iterative solver
             0 MiB given to the printing process from OS
             0 MiB allocation reported by mallinfo(arena+hblkhd)
         22693 MiB available memory on the node where the printing process lives
------------------
     ethr =  3.72E-11,  avg # of iterations =  2.8

     negative rho (up, down):  7.925E-01 0.000E+00

     total cpu time spent up to now is      756.8 secs

     total energy              =   -4441.64746138 Ry
     estimated scf accuracy    <       0.00000009 Ry

     iteration # 41     ecut=    60.00 Ry     beta= 0.15
     Davidson diagonalization with overlap

---- Real-time Memory Report at c_bands before calling an iterative solver
             0 MiB given to the printing process from OS
             0 MiB allocation reported by mallinfo(arena+hblkhd)
         22698 MiB available memory on the node where the printing process lives
------------------
     ethr =  2.06E-11,  avg # of iterations =  2.3

     negative rho (up, down):  7.924E-01 0.000E+00

     total cpu time spent up to now is      774.1 secs

     total energy              =   -4441.64746146 Ry
     estimated scf accuracy    <       0.00000008 Ry

     iteration # 42     ecut=    60.00 Ry     beta= 0.15
     Davidson diagonalization with overlap

---- Real-time Memory Report at c_bands before calling an iterative solver
             0 MiB given to the printing process from OS
             0 MiB allocation reported by mallinfo(arena+hblkhd)
         22698 MiB available memory on the node where the printing process lives
------------------
     ethr =  1.76E-11,  avg # of iterations =  4.1

     negative rho (up, down):  7.924E-01 0.000E+00

     total cpu time spent up to now is      792.3 secs

     total energy              =   -4441.64746147 Ry
     estimated scf accuracy    <       0.00000003 Ry

     iteration # 43     ecut=    60.00 Ry     beta= 0.15
     Davidson diagonalization with overlap

---- Real-time Memory Report at c_bands before calling an iterative solver
             0 MiB given to the printing process from OS
             0 MiB allocation reported by mallinfo(arena+hblkhd)
         22693 MiB available memory on the node where the printing process lives
------------------
     ethr =  6.43E-12,  avg # of iterations =  3.2

     negative rho (up, down):  7.924E-01 0.000E+00

     total cpu time spent up to now is      810.1 secs

     total energy              =   -4441.64746148 Ry
     estimated scf accuracy    <       0.00000002 Ry

     iteration # 44     ecut=    60.00 Ry     beta= 0.15
     Davidson diagonalization with overlap

---- Real-time Memory Report at c_bands before calling an iterative solver
             0 MiB given to the printing process from OS
             0 MiB allocation reported by mallinfo(arena+hblkhd)
         22689 MiB available memory on the node where the printing process lives
------------------
     ethr =  3.98E-12,  avg # of iterations =  2.6

     negative rho (up, down):  7.924E-01 0.000E+00

     total cpu time spent up to now is      827.5 secs

     total energy              =   -4441.64746149 Ry
     estimated scf accuracy    <       0.00000001 Ry

     iteration # 45     ecut=    60.00 Ry     beta= 0.15
     Davidson diagonalization with overlap

---- Real-time Memory Report at c_bands before calling an iterative solver
             0 MiB given to the printing process from OS
             0 MiB allocation reported by mallinfo(arena+hblkhd)
         22701 MiB available memory on the node where the printing process lives
------------------
     ethr =  2.74E-12,  avg # of iterations =  3.0

     negative rho (up, down):  7.924E-01 0.000E+00

     total cpu time spent up to now is      845.0 secs

     End of self-consistent calculation

          k = 0.0000 0.0000 0.0000 ( 65197 PWs)   bands (ev):

   -92.6740 -92.6190 -92.5271 -92.4809 -92.4223 -92.3798 -92.3624 -92.2411
   -56.0275 -56.0055 -55.8846 -55.8745 -55.8658 -55.8613 -55.8238 -55.7965
   -55.7810 -55.7793 -55.7700 -55.7297 -55.7132 -55.6732 -55.6534 -55.6225
   -55.6156 -55.5681 -55.5665 -55.5652 -55.5567 -55.5162 -55.4928 -55.4079
   -31.2514 -31.2320 -31.0904 -31.0706 -31.0034 -30.9815 -30.8014 -30.6771
   -29.8215 -29.7777 -29.7525 -29.6435 -15.0540 -15.0106 -14.9298 -14.8000
   -14.6085 -14.4848 -14.1926 -14.1734 -14.1427 -14.0977 -14.0528 -14.0428
   -14.0324 -14.0142 -13.9906 -13.9590 -13.9249 -13.9029 -13.7519 -13.5783
   -13.5409 -13.5099 -13.4832 -13.4628 -13.4085 -13.3746 -13.2961 -13.2238
   -13.0931 -13.0834 -13.0754 -13.0578 -13.0475 -13.0303 -12.9843 -12.9772
   -12.9599 -12.9315 -12.8971 -12.8903 -12.8750 -12.8667 -12.8492 -12.7644
   -12.7476 -12.7122 -12.6201 -12.5905 -12.5838 -12.3160 -12.1702 -11.9821
   -11.9285 -11.8347 -11.7606 -11.7496 -11.7266 -11.7091 -11.6454 -11.6281
   -11.5933 -11.5647 -11.4525 -11.3727 -11.3692  -2.9146  -2.6821  -2.4528
    -2.3057  -2.2427  -2.1003  -1.7933  -1.7794  -1.7594  -1.6761  -1.6561
    -1.5881  -1.5715  -1.5307  -1.4869  -1.3046  -1.0819  -1.0541  -1.0400
    -0.9037  -0.8893  -0.8436  -0.8256  -0.7788  -0.7630  -0.7067  -0.6801
    -0.6069  -0.5925  -0.5198  -0.3873  -0.3741  -0.3471  -0.2659  -0.2598
    -0.2437  -0.1734  -0.1016  -0.0374  -0.0034   0.0375   0.0994   0.1641
     0.2099   0.2305   0.2436   0.4981   0.5131   0.6950   0.7564   0.8316
     0.8660   0.9507   0.9687   0.9810   1.0501   1.0768   1.1108   1.1698
     1.3006   1.3651   1.3801   1.3972   1.4098   1.4777   1.5492   1.6539
     1.6634   1.7349   1.7499   1.7869   1.8034   1.8092   1.8684   1.9220
     1.9539   1.9778   2.0426   2.0585   2.1853   2.2713   2.3119   2.3289
     2.4589   2.4844   2.5282   2.5307   2.5436   2.5491   2.6525   2.6846
     2.7106   2.7289   2.7425   2.8247   2.9350   2.9647   2.9783   2.9851
     3.0532   3.0571   3.0804   3.0885   3.0966   3.1100   3.1162   3.1296
     3.1349   3.1479   3.1563   3.1641   3.1841   3.2049   3.2101   3.2223
     3.2600   3.3636   3.4365   4.1320   4.4720   4.7991   4.8845   5.0672
     5.7106   5.9628   6.0181   6.0324   6.3413   6.3885   6.4995   6.5074
     6.7246   7.0268   7.1017   7.3393   7.4591   7.5080   7.6665   7.6835
     7.7077   7.8891   7.9199   8.0610   8.1330   8.2052   8.4012   8.4502
     8.7115   8.8072   8.8836

     occupation numbers 
     1.0000   1.0000   1.0000   1.0000   1.0000   1.0000   1.0000   1.0000
     1.0000   1.0000   1.0000   1.0000   1.0000   1.0000   1.0000   1.0000
     1.0000   1.0000   1.0000   1.0000   1.0000   1.0000   1.0000   1.0000
     1.0000   1.0000   1.0000   1.0000   1.0000   1.0000   1.0000   1.0000
     1.0000   1.0000   1.0000   1.0000   1.0000   1.0000   1.0000   1.0000
     1.0000   1.0000   1.0000   1.0000   1.0000   1.0000   1.0000   1.0000
     1.0000   1.0000   1.0000   1.0000   1.0000   1.0000   1.0000   1.0000
     1.0000   1.0000   1.0000   1.0000   1.0000   1.0000   1.0000   1.0000
     1.0000   1.0000   1.0000   1.0000   1.0000   1.0000   1.0000   1.0000
     1.0000   1.0000   1.0000   1.0000   1.0000   1.0000   1.0000   1.0000
     1.0000   1.0000   1.0000   1.0000   1.0000   1.0000   1.0000   1.0000
     1.0000   1.0000   1.0000   1.0000   1.0000   1.0000   1.0000   1.0000
     1.0000   1.0000   1.0000   1.0000   1.0000   1.0000   1.0000   1.0000
     1.0000   1.0000   1.0000   1.0000   1.0000   1.0000   1.0000   1.0000
     1.0000   1.0000   1.0000   1.0000   1.0000   1.0000   1.0000   1.0000
     1.0000   1.0000   1.0000   1.0000   1.0000   1.0000   1.0000   1.0000
     1.0000   1.0000   1.0000   1.0000   1.0000   1.0000   1.0000   1.0000
     1.0000   1.0000   1.0000   1.0000   1.0000   1.0000   1.0000   1.0000
     1.0000   1.0000   1.0000   1.0000   1.0000   1.0000   1.0000   1.0000
     1.0000   1.0000   1.0000   1.0000   1.0000   1.0000   0.9999   0.9999
     0.9999   0.9998   0.9998   0.9998   0.9997   0.9996   0.9996   0.9994
     0.9989   0.9984   0.9983   0.9982   0.9981   0.9973   0.9963   0.9942
     0.9940   0.9919   0.9914   0.9900   0.9894   0.9891   0.9863   0.9833
     0.9812   0.9795   0.9743   0.9728   0.9587   0.9461   0.9391   0.9360
     0.9081   0.9017   0.8900   0.8893   0.8856   0.8840   0.8512   0.8399
     0.8304   0.8234   0.8181   0.7841   0.7332   0.7184   0.7116   0.7082
     0.6725   0.6704   0.6578   0.6534   0.6489   0.6415   0.6381   0.6306
     0.6276   0.6203   0.6156   0.6111   0.5996   0.5877   0.5847   0.5776
     0.5556   0.4944   0.4513   0.1240   0.0485   0.0160   0.0115   0.0055
     0.0002   0.0001   0.0000   0.0000   0.0000   0.0000   0.0000   0.0000
     0.0000   0.0000   0.0000   0.0000   0.0000   0.0000   0.0000   0.0000
     0.0000   0.0000   0.0000   0.0000   0.0000   0.0000   0.0000   0.0000
     0.0000   0.0000   0.0000

          k = 0.0000 0.2500 0.0000 ( 65257 PWs)   bands (ev):

   -92.6740 -92.6190 -92.5271 -92.4809 -92.4223 -92.3798 -92.3624 -92.2411
   -56.0275 -56.0055 -55.8846 -55.8745 -55.8658 -55.8613 -55.8238 -55.7965
   -55.7810 -55.7793 -55.7700 -55.7297 -55.7132 -55.6732 -55.6534 -55.6225
   -55.6156 -55.5681 -55.5665 -55.5652 -55.5567 -55.5162 -55.4928 -55.4079
   -31.2512 -31.2318 -31.0906 -31.0703 -31.0035 -30.9818 -30.8012 -30.6774
   -29.8209 -29.7774 -29.7532 -29.6438 -15.0174 -14.9843 -14.9046 -14.7708
   -14.6487 -14.4759 -14.3378 -14.1585 -14.1244 -14.1026 -14.0744 -14.0165
   -14.0101 -13.9948 -13.9768 -13.9344 -13.9217 -13.8224 -13.7827 -13.6213
   -13.6026 -13.5512 -13.5167 -13.4750 -13.4268 -13.3833 -13.3158 -13.2813
   -13.1998 -13.1567 -13.1213 -13.0831 -13.0721 -13.0412 -12.9663 -12.9439
   -12.9142 -12.9027 -12.8753 -12.8405 -12.8173 -12.7980 -12.7726 -12.7499
   -12.7131 -12.6959 -12.6204 -12.5062 -12.4538 -12.3773 -12.2215 -12.0374
   -11.9939 -11.8002 -11.7574 -11.7295 -11.7014 -11.6846 -11.6373 -11.6259
   -11.6035 -11.5692 -11.4669 -11.4144 -11.4038  -2.7793  -2.5577  -2.4203
    -2.2381  -2.1947  -2.0309  -1.8120  -1.7269  -1.7139  -1.6575  -1.5541
    -1.5380  -1.5047  -1.4776  -1.4338  -1.2360  -1.1082  -1.0973  -1.0429
    -1.0188  -1.0068  -0.9045  -0.8745  -0.8169  -0.7921  -0.7510  -0.6878
    -0.6611  -0.6289  -0.5921  -0.5780  -0.5466  -0.4718  -0.4222  -0.3622
    -0.2456  -0.2302  -0.1806  -0.0601  -0.0229   0.0461   0.0903   0.1467
     0.1641   0.1916   0.2599   0.5505   0.6345   0.6653   0.7566   0.8061
     0.8310   0.9380   0.9566   1.0557   1.0788   1.1036   1.2176   1.3101
     1.3382   1.3581   1.3733   1.4025   1.4623   1.4888   1.5168   1.5643
     1.6006   1.6294   1.7136   1.7442   1.7897   1.8329   1.8945   1.9463
     1.9654   1.9912   2.0228   2.1102   2.2207   2.2943   2.3110   2.3864
     2.4243   2.4663   2.4826   2.5200   2.5344   2.5452   2.5816   2.6693
     2.7019   2.7186   2.8922   2.9152   2.9482   2.9676   2.9856   2.9938
     3.0017   3.0116   3.0402   3.0419   3.0615   3.0637   3.0754   3.0935
     3.1052   3.1129   3.1352   3.1459   3.1505   3.1856   3.2027   3.2632
     3.6434   3.6647   3.9059   4.3204   4.4719   4.7366   5.0349   5.0933
     5.6632   5.7959   5.9119   6.0142   6.1075   6.1304   6.2101   6.6157
     6.8195   7.0639   7.1266   7.3508   7.5026   7.5178   7.5392   7.6630
     7.8541   7.9732   8.0213   8.1895   8.2484   8.3645   8.4062   8.4310
     8.5668   8.7957   8.9177

     occupation numbers 
     1.0000   1.0000   1.0000   1.0000   1.0000   1.0000   1.0000   1.0000
     1.0000   1.0000   1.0000   1.0000   1.0000   1.0000   1.0000   1.0000
     1.0000   1.0000   1.0000   1.0000   1.0000   1.0000   1.0000   1.0000
     1.0000   1.0000   1.0000   1.0000   1.0000   1.0000   1.0000   1.0000
     1.0000   1.0000   1.0000   1.0000   1.0000   1.0000   1.0000   1.0000
     1.0000   1.0000   1.0000   1.0000   1.0000   1.0000   1.0000   1.0000
     1.0000   1.0000   1.0000   1.0000   1.0000   1.0000   1.0000   1.0000
     1.0000   1.0000   1.0000   1.0000   1.0000   1.0000   1.0000   1.0000
     1.0000   1.0000   1.0000   1.0000   1.0000   1.0000   1.0000   1.0000
     1.0000   1.0000   1.0000   1.0000   1.0000   1.0000   1.0000   1.0000
     1.0000   1.0000   1.0000   1.0000   1.0000   1.0000   1.0000   1.0000
     1.0000   1.0000   1.0000   1.0000   1.0000   1.0000   1.0000   1.0000
     1.0000   1.0000   1.0000   1.0000   1.0000   1.0000   1.0000   1.0000
     1.0000   1.0000   1.0000   1.0000   1.0000   1.0000   1.0000   1.0000
     1.0000   1.0000   1.0000   1.0000   1.0000   1.0000   1.0000   1.0000
     1.0000   1.0000   1.0000   1.0000   1.0000   1.0000   1.0000   1.0000
     1.0000   1.0000   1.0000   1.0000   1.0000   1.0000   1.0000   1.0000
     1.0000   1.0000   1.0000   1.0000   1.0000   1.0000   1.0000   1.0000
     1.0000   1.0000   1.0000   1.0000   1.0000   1.0000   1.0000   1.0000
     1.0000   1.0000   1.0000   1.0000   1.0000   1.0000   0.9999   0.9999
     0.9999   0.9998   0.9998   0.9997   0.9996   0.9996   0.9992   0.9988
     0.9986   0.9985   0.9984   0.9981   0.9975   0.9972   0.9968   0.9961
     0.9954   0.9948   0.9926   0.9916   0.9899   0.9881   0.9849   0.9817
     0.9804   0.9785   0.9760   0.9676   0.9538   0.9422   0.9393   0.9246
     0.9163   0.9063   0.9022   0.8923   0.8882   0.8851   0.8743   0.8454
     0.8336   0.8273   0.7536   0.7427   0.7267   0.7170   0.7079   0.7037
     0.6997   0.6945   0.6795   0.6785   0.6680   0.6669   0.6605   0.6506
     0.6442   0.6399   0.6275   0.6214   0.6188   0.5988   0.5890   0.5537
     0.3338   0.3224   0.2063   0.0757   0.0485   0.0200   0.0063   0.0049
     0.0003   0.0001   0.0001   0.0000   0.0000   0.0000   0.0000   0.0000
     0.0000   0.0000   0.0000   0.0000   0.0000   0.0000   0.0000   0.0000
     0.0000   0.0000   0.0000   0.0000   0.0000   0.0000   0.0000   0.0000
     0.0000   0.0000   0.0000

          k = 0.0000-0.5000 0.0000 ( 65180 PWs)   bands (ev):

   -92.6740 -92.6190 -92.5271 -92.4809 -92.4223 -92.3798 -92.3624 -92.2411
   -56.0275 -56.0055 -55.8846 -55.8745 -55.8658 -55.8613 -55.8238 -55.7965
   -55.7810 -55.7793 -55.7700 -55.7297 -55.7132 -55.6732 -55.6534 -55.6225
   -55.6156 -55.5681 -55.5665 -55.5652 -55.5567 -55.5162 -55.4928 -55.4079
   -31.2511 -31.2317 -31.0908 -31.0700 -31.0037 -30.9822 -30.8009 -30.6776
   -29.8203 -29.7771 -29.7538 -29.6442 -14.9825 -14.9337 -14.8804 -14.7528
   -14.6691 -14.5320 -14.3796 -14.2556 -14.1304 -14.0599 -14.0165 -14.0108
   -13.9614 -13.9439 -13.9263 -13.8945 -13.8764 -13.8495 -13.8158 -13.7805
   -13.7360 -13.5562 -13.4988 -13.4830 -13.4296 -13.3783 -13.3318 -13.2813
   -13.2568 -13.2343 -13.1915 -13.0843 -13.0732 -13.0230 -12.9779 -12.9398
   -12.9240 -12.9023 -12.8555 -12.8102 -12.7873 -12.7519 -12.6996 -12.6795
   -12.6745 -12.6277 -12.6220 -12.4882 -12.3784 -12.2967 -12.2544 -12.1509
   -12.1048 -11.7543 -11.7519 -11.7244 -11.6872 -11.6529 -11.6418 -11.5990
   -11.5953 -11.5505 -11.4887 -11.4750 -11.4608  -2.5651  -2.5048  -2.3546
    -2.2825  -2.0022  -1.9164  -1.7905  -1.6529  -1.6176  -1.5959  -1.5179
    -1.4864  -1.4046  -1.3689  -1.2922  -1.2518  -1.2131  -1.1860  -1.1287
    -1.0912  -1.0462  -1.0407  -1.0075  -0.9751  -0.9401  -0.8314  -0.7864
    -0.7517  -0.7503  -0.6642  -0.6325  -0.6090  -0.5575  -0.4776  -0.4005
    -0.3224  -0.2937  -0.1838  -0.1259  -0.0021   0.0282   0.0620   0.1214
     0.2751   0.3087   0.4192   0.4877   0.4951   0.6228   0.6702   0.7998
     0.9031   1.0118   1.0415   1.0794   1.0831   1.1249   1.1415   1.1771
     1.2023   1.2070   1.3156   1.3780   1.3999   1.4250   1.6857   1.7248
     1.7519   1.8454   1.8777   1.8965   1.9148   1.9405   1.9614   1.9757
     2.0114   2.0288   2.0619   2.0911   2.0946   2.1308   2.1848   2.2638
     2.2941   2.4743   2.4891   2.5281   2.6308   2.6435   2.6618   2.6941
     2.7019   2.7123   2.7623   2.7726   2.8261   2.8474   2.9259   2.9384
     3.0048   3.0162   3.0365   3.0382   3.0580   3.0647   3.0661   3.0703
     3.0735   3.0872   3.1056   3.1063   3.1709   3.1763   3.1923   3.2463
     4.1560   4.2023   4.2255   4.2793   4.7634   4.9296   5.0508   5.1792
     5.4365   5.4890   5.6064   5.7397   6.0432   6.0793   6.2504   6.4553
     6.8719   6.9718   7.2447   7.3036   7.3580   7.4750   7.6207   7.7790
     7.9320   8.0850   8.2021   8.2308   8.2955   8.4444   8.5133   8.6933
     8.8246   8.8367   8.8983

     occupation numbers 
     1.0000   1.0000   1.0000   1.0000   1.0000   1.0000   1.0000   1.0000
     1.0000   1.0000   1.0000   1.0000   1.0000   1.0000   1.0000   1.0000
     1.0000   1.0000   1.0000   1.0000   1.0000   1.0000   1.0000   1.0000
     1.0000   1.0000   1.0000   1.0000   1.0000   1.0000   1.0000   1.0000
     1.0000   1.0000   1.0000   1.0000   1.0000   1.0000   1.0000   1.0000
     1.0000   1.0000   1.0000   1.0000   1.0000   1.0000   1.0000   1.0000
     1.0000   1.0000   1.0000   1.0000   1.0000   1.0000   1.0000   1.0000
     1.0000   1.0000   1.0000   1.0000   1.0000   1.0000   1.0000   1.0000
     1.0000   1.0000   1.0000   1.0000   1.0000   1.0000   1.0000   1.0000
     1.0000   1.0000   1.0000   1.0000   1.0000   1.0000   1.0000   1.0000
     1.0000   1.0000   1.0000   1.0000   1.0000   1.0000   1.0000   1.0000
     1.0000   1.0000   1.0000   1.0000   1.0000   1.0000   1.0000   1.0000
     1.0000   1.0000   1.0000   1.0000   1.0000   1.0000   1.0000   1.0000
     1.0000   1.0000   1.0000   1.0000   1.0000   1.0000   1.0000   1.0000
     1.0000   1.0000   1.0000   1.0000   1.0000   1.0000   1.0000   1.0000
     1.0000   1.0000   1.0000   1.0000   1.0000   1.0000   1.0000   1.0000
     1.0000   1.0000   1.0000   1.0000   1.0000   1.0000   1.0000   1.0000
     1.0000   1.0000   1.0000   1.0000   1.0000   1.0000   1.0000   1.0000
     1.0000   1.0000   1.0000   1.0000   1.0000   1.0000   1.0000   1.0000
     1.0000   1.0000   1.0000   1.0000   1.0000   1.0000   1.0000   0.9999
     0.9999   0.9997   0.9997   0.9996   0.9996   0.9995   0.9995   0.9994
     0.9993   0.9993   0.9988   0.9983   0.9981   0.9979   0.9934   0.9922
     0.9913   0.9875   0.9858   0.9848   0.9837   0.9821   0.9807   0.9797
     0.9769   0.9755   0.9725   0.9696   0.9693   0.9654   0.9588   0.9473
     0.9423   0.9043   0.9005   0.8900   0.8586   0.8544   0.8480   0.8365
     0.8336   0.8297   0.8102   0.8061   0.7835   0.7741   0.7376   0.7315
     0.6980   0.6921   0.6814   0.6805   0.6700   0.6663   0.6656   0.6633
     0.6615   0.6541   0.6439   0.6435   0.6072   0.6041   0.5949   0.5636
     0.1169   0.1039   0.0979   0.0848   0.0182   0.0097   0.0059   0.0034
     0.0010   0.0008   0.0004   0.0002   0.0000   0.0000   0.0000   0.0000
     0.0000   0.0000   0.0000   0.0000   0.0000   0.0000   0.0000   0.0000
     0.0000   0.0000   0.0000   0.0000   0.0000   0.0000   0.0000   0.0000
     0.0000   0.0000   0.0000

          k = 0.2500 0.2500 0.0000 ( 65198 PWs)   bands (ev):

   -92.6740 -92.6190 -92.5271 -92.4809 -92.4223 -92.3798 -92.3624 -92.2411
   -56.0275 -56.0055 -55.8846 -55.8745 -55.8658 -55.8613 -55.8238 -55.7965
   -55.7810 -55.7793 -55.7700 -55.7297 -55.7132 -55.6732 -55.6534 -55.6225
   -55.6156 -55.5681 -55.5665 -55.5652 -55.5567 -55.5162 -55.4928 -55.4079
   -31.2496 -31.2335 -31.0902 -31.0702 -31.0039 -30.9817 -30.8013 -30.6775
   -29.8199 -29.7783 -29.7528 -29.6442 -14.9887 -14.9492 -14.8768 -14.7602
   -14.6415 -14.5156 -14.4437 -14.2382 -14.0820 -14.0689 -14.0329 -14.0036
   -13.9805 -13.9539 -13.9264 -13.9206 -13.8947 -13.8135 -13.7973 -13.6370
   -13.6226 -13.5934 -13.5732 -13.5295 -13.4840 -13.4161 -13.3997 -13.2588
   -13.2354 -13.2022 -13.1160 -13.0760 -13.0320 -13.0121 -12.9915 -12.9585
   -12.9214 -12.9141 -12.8907 -12.8379 -12.7975 -12.7476 -12.7180 -12.7124
   -12.6872 -12.6505 -12.6208 -12.4629 -12.4258 -12.3603 -12.2506 -12.0659
   -12.0410 -11.7725 -11.7408 -11.7299 -11.7230 -11.6602 -11.6255 -11.6188
   -11.5834 -11.5759 -11.4835 -11.4427 -11.4251  -2.6411  -2.4319  -2.3144
    -2.2200  -2.0991  -2.0340  -1.8371  -1.6917  -1.6725  -1.6440  -1.5491
    -1.5150  -1.4206  -1.3930  -1.3431  -1.2122  -1.1637  -1.0926  -1.0533
    -1.0319  -1.0021  -0.9783  -0.9538  -0.9108  -0.8956  -0.8053  -0.7548
    -0.6914  -0.6412  -0.6075  -0.5604  -0.5438  -0.4831  -0.4353  -0.3810
    -0.3437  -0.2600  -0.2035  -0.1751  -0.1370  -0.0824   0.0019   0.0379
     0.0600   0.1471   0.1756   0.4369   0.5823   0.6190   0.6797   0.7221
     0.7849   0.8640   0.8994   0.9308   1.1992   1.2667   1.3411   1.3667
     1.4134   1.4467   1.4810   1.5195   1.5356   1.5630   1.6085   1.6160
     1.6307   1.6731   1.7165   1.7541   1.8164   1.8558   1.8635   1.9083
     1.9345   1.9901   2.0330   2.1518   2.2062   2.2371   2.2624   2.3262
     2.3950   2.4207   2.4588   2.4779   2.4881   2.5212   2.5330   2.6121
     2.6437   2.7317   2.9038   2.9201   2.9269   2.9430   2.9573   2.9700
     2.9840   2.9908   3.0007   3.0137   3.0255   3.0451   3.0508   3.0628
     3.0849   3.0968   3.1060   3.1372   3.4385   3.5337   3.5724   3.6430
     3.6879   3.8802   3.9815   4.3338   4.5562   4.7442   5.0069   5.1824
     5.6699   5.7217   5.7750   5.8643   5.9215   6.0490   6.1778   6.2338
     6.8845   6.9176   7.1284   7.2065   7.5737   7.6218   7.7314   7.8459
     7.9022   8.0213   8.1614   8.2076   8.3035   8.3639   8.4256   8.4718
     8.5938   8.7294   8.8890

     occupation numbers 
     1.0000   1.0000   1.0000   1.0000   1.0000   1.0000   1.0000   1.0000
     1.0000   1.0000   1.0000   1.0000   1.0000   1.0000   1.0000   1.0000
     1.0000   1.0000   1.0000   1.0000   1.0000   1.0000   1.0000   1.0000
     1.0000   1.0000   1.0000   1.0000   1.0000   1.0000   1.0000   1.0000
     1.0000   1.0000   1.0000   1.0000   1.0000   1.0000   1.0000   1.0000
     1.0000   1.0000   1.0000   1.0000   1.0000   1.0000   1.0000   1.0000
     1.0000   1.0000   1.0000   1.0000   1.0000   1.0000   1.0000   1.0000
     1.0000   1.0000   1.0000   1.0000   1.0000   1.0000   1.0000   1.0000
     1.0000   1.0000   1.0000   1.0000   1.0000   1.0000   1.0000   1.0000
     1.0000   1.0000   1.0000   1.0000   1.0000   1.0000   1.0000   1.0000
     1.0000   1.0000   1.0000   1.0000   1.0000   1.0000   1.0000   1.0000
     1.0000   1.0000   1.0000   1.0000   1.0000   1.0000   1.0000   1.0000
     1.0000   1.0000   1.0000   1.0000   1.0000   1.0000   1.0000   1.0000
     1.0000   1.0000   1.0000   1.0000   1.0000   1.0000   1.0000   1.0000
     1.0000   1.0000   1.0000   1.0000   1.0000   1.0000   1.0000   1.0000
     1.0000   1.0000   1.0000   1.0000   1.0000   1.0000   1.0000   1.0000
     1.0000   1.0000   1.0000   1.0000   1.0000   1.0000   1.0000   1.0000
     1.0000   1.0000   1.0000   1.0000   1.0000   1.0000   1.0000   1.0000
     1.0000   1.0000   1.0000   1.0000   1.0000   1.0000   1.0000   1.0000
     1.0000   1.0000   1.0000   1.0000   1.0000   1.0000   1.0000   1.0000
     0.9999   0.9999   0.9999   0.9998   0.9993   0.9990   0.9986   0.9984
     0.9980   0.9977   0.9973   0.9968   0.9965   0.9961   0.9952   0.9951
     0.9948   0.9937   0.9925   0.9912   0.9888   0.9870   0.9866   0.9841
     0.9825   0.9786   0.9751   0.9629   0.9559   0.9514   0.9475   0.9365
     0.9228   0.9171   0.9081   0.9034   0.9008   0.8919   0.8886   0.8647
     0.8543   0.8223   0.7481   0.7404   0.7371   0.7292   0.7222   0.7158
     0.7087   0.7053   0.7002   0.6934   0.6872   0.6769   0.6738   0.6674
     0.6553   0.6488   0.6438   0.6263   0.4502   0.3949   0.3729   0.3340
     0.3101   0.2173   0.1758   0.0729   0.0371   0.0195   0.0071   0.0033
     0.0003   0.0002   0.0002   0.0001   0.0001   0.0000   0.0000   0.0000
     0.0000   0.0000   0.0000   0.0000   0.0000   0.0000   0.0000   0.0000
     0.0000   0.0000   0.0000   0.0000   0.0000   0.0000   0.0000   0.0000
     0.0000   0.0000   0.0000

          k = 0.2500-0.5000 0.0000 ( 65138 PWs)   bands (ev):

   -92.6740 -92.6190 -92.5271 -92.4809 -92.4223 -92.3798 -92.3624 -92.2411
   -56.0275 -56.0055 -55.8846 -55.8745 -55.8658 -55.8613 -55.8238 -55.7965
   -55.7810 -55.7793 -55.7700 -55.7297 -55.7132 -55.6732 -55.6534 -55.6225
   -55.6156 -55.5681 -55.5665 -55.5652 -55.5567 -55.5162 -55.4928 -55.4079
   -31.2494 -31.2334 -31.0904 -31.0698 -31.0041 -30.9821 -30.8010 -30.6778
   -29.8193 -29.7780 -29.7534 -29.6446 -14.9518 -14.9068 -14.8373 -14.7230
   -14.6920 -14.5725 -14.4826 -14.3527 -14.0463 -13.9939 -13.9670 -13.9455
   -13.9298 -13.9260 -13.9158 -13.8792 -13.8649 -13.8304 -13.7928 -13.7691
   -13.7277 -13.6390 -13.5902 -13.5464 -13.5115 -13.4441 -13.4282 -13.3153
   -13.2891 -13.1803 -13.1158 -13.0956 -13.0140 -12.9898 -12.9696 -12.9553
   -12.9309 -12.9148 -12.8848 -12.8069 -12.7871 -12.7539 -12.7193 -12.6850
   -12.6353 -12.6253 -12.5963 -12.4949 -12.3571 -12.2942 -12.2279 -12.1440
   -12.1058 -11.7481 -11.7361 -11.7251 -11.6981 -11.6665 -11.6382 -11.5968
   -11.5692 -11.5470 -11.5017 -11.4762 -11.4648  -2.4234  -2.3565  -2.2284
    -2.1513  -2.0226  -1.9368  -1.8149  -1.6645  -1.6114  -1.5886  -1.5256
    -1.5126  -1.4155  -1.3482  -1.2633  -1.2140  -1.2046  -1.1414  -1.0994
    -1.0645  -1.0401  -1.0168  -0.9797  -0.9448  -0.9042  -0.8931  -0.8477
    -0.8177  -0.7775  -0.7455  -0.6794  -0.5795  -0.5344  -0.4594  -0.3945
    -0.3464  -0.3009  -0.2796  -0.2289  -0.0657  -0.0461   0.0406   0.0869
     0.0953   0.1345   0.1694   0.2213   0.2487   0.3024   0.5730   0.6704
     0.7563   0.8410   1.0590   1.0897   1.1734   1.2004   1.3639   1.3962
     1.4404   1.4624   1.4805   1.4987   1.5601   1.6045   1.6417   1.7232
     1.8150   1.8599   1.8747   1.8878   1.9240   1.9383   1.9449   1.9951
     1.9989   2.0284   2.0482   2.0752   2.0883   2.1294   2.1847   2.2181
     2.2962   2.4398   2.4893   2.5203   2.5845   2.6016   2.6198   2.6454
     2.6725   2.7000   2.7191   2.7347   2.7615   2.8531   2.9037   2.9221
     2.9238   2.9401   2.9605   2.9740   2.9934   3.0005   3.0328   3.0443
     3.0588   3.0683   3.0762   3.0876   3.6170   3.6212   3.7704   3.8213
     4.1794   4.2146   4.2396   4.3409   4.7837   4.9518   5.0876   5.1551
     5.3343   5.4545   5.6232   5.6454   5.7939   5.8154   6.3284   6.4179
     6.5103   6.5881   7.2298   7.3357   7.5592   7.7218   7.7999   7.8437
     7.9045   8.0624   8.2781   8.4149   8.4488   8.5347   8.5700   8.5762
     8.7031   8.7396   8.7883

     occupation numbers 
     1.0000   1.0000   1.0000   1.0000   1.0000   1.0000   1.0000   1.0000
     1.0000   1.0000   1.0000   1.0000   1.0000   1.0000   1.0000   1.0000
     1.0000   1.0000   1.0000   1.0000   1.0000   1.0000   1.0000   1.0000
     1.0000   1.0000   1.0000   1.0000   1.0000   1.0000   1.0000   1.0000
     1.0000   1.0000   1.0000   1.0000   1.0000   1.0000   1.0000   1.0000
     1.0000   1.0000   1.0000   1.0000   1.0000   1.0000   1.0000   1.0000
     1.0000   1.0000   1.0000   1.0000   1.0000   1.0000   1.0000   1.0000
     1.0000   1.0000   1.0000   1.0000   1.0000   1.0000   1.0000   1.0000
     1.0000   1.0000   1.0000   1.0000   1.0000   1.0000   1.0000   1.0000
     1.0000   1.0000   1.0000   1.0000   1.0000   1.0000   1.0000   1.0000
     1.0000   1.0000   1.0000   1.0000   1.0000   1.0000   1.0000   1.0000
     1.0000   1.0000   1.0000   1.0000   1.0000   1.0000   1.0000   1.0000
     1.0000   1.0000   1.0000   1.0000   1.0000   1.0000   1.0000   1.0000
     1.0000   1.0000   1.0000   1.0000   1.0000   1.0000   1.0000   1.0000
     1.0000   1.0000   1.0000   1.0000   1.0000   1.0000   1.0000   1.0000
     1.0000   1.0000   1.0000   1.0000   1.0000   1.0000   1.0000   1.0000
     1.0000   1.0000   1.0000   1.0000   1.0000   1.0000   1.0000   1.0000
     1.0000   1.0000   1.0000   1.0000   1.0000   1.0000   1.0000   1.0000
     1.0000   1.0000   1.0000   1.0000   1.0000   1.0000   1.0000   1.0000
     1.0000   1.0000   1.0000   1.0000   1.0000   1.0000   1.0000   1.0000
     0.9999   0.9999   0.9997   0.9996   0.9994   0.9993   0.9984   0.9982
     0.9978   0.9975   0.9973   0.9971   0.9961   0.9953   0.9945   0.9923
     0.9889   0.9867   0.9860   0.9853   0.9831   0.9822   0.9818   0.9782
     0.9779   0.9755   0.9738   0.9712   0.9699   0.9655   0.9588   0.9542
     0.9419   0.9127   0.9005   0.8922   0.8734   0.8681   0.8622   0.8537
     0.8443   0.8343   0.8272   0.8212   0.8106   0.7716   0.7482   0.7394
     0.7386   0.7307   0.7206   0.7138   0.7039   0.7003   0.6834   0.6772
     0.6695   0.6644   0.6601   0.6539   0.3481   0.3459   0.2683   0.2440
     0.1102   0.1007   0.0943   0.0714   0.0169   0.0088   0.0050   0.0037
     0.0016   0.0009   0.0004   0.0003   0.0001   0.0001   0.0000   0.0000
     0.0000   0.0000   0.0000   0.0000   0.0000   0.0000   0.0000   0.0000
     0.0000   0.0000   0.0000   0.0000   0.0000   0.0000   0.0000   0.0000
     0.0000   0.0000   0.0000

          k =-0.5000-0.5000 0.0000 ( 65132 PWs)   bands (ev):

   -92.6740 -92.6190 -92.5271 -92.4809 -92.4223 -92.3798 -92.3624 -92.2411
   -56.0275 -56.0055 -55.8846 -55.8745 -55.8658 -55.8613 -55.8238 -55.7965
   -55.7810 -55.7793 -55.7700 -55.7297 -55.7132 -55.6732 -55.6534 -55.6225
   -55.6156 -55.5681 -55.5665 -55.5652 -55.5567 -55.5162 -55.4928 -55.4079
   -31.2472 -31.2356 -31.0901 -31.0697 -31.0045 -30.9820 -30.8012 -30.6779
   -29.8183 -29.7790 -29.7530 -29.6450 -14.9048 -14.8797 -14.7624 -14.7498
   -14.6552 -14.6193 -14.5869 -14.4525 -13.9571 -13.9460 -13.9261 -13.9106
   -13.8930 -13.8728 -13.8624 -13.8328 -13.8222 -13.8080 -13.8005 -13.7848
   -13.7068 -13.6983 -13.6711 -13.6367 -13.6361 -13.5326 -13.4960 -13.3482
   -13.3369 -13.1307 -13.0932 -13.0239 -12.9990 -12.9754 -12.9670 -12.9575
   -12.9480 -12.9303 -12.9109 -12.7976 -12.7799 -12.7549 -12.7467 -12.6939
   -12.6411 -12.5778 -12.5704 -12.5112 -12.3374 -12.2906 -12.1993 -12.1407
   -12.1057 -11.7445 -11.7325 -11.7146 -11.6977 -11.6629 -11.6447 -11.6107
   -11.5494 -11.5296 -11.5240 -11.4740 -11.4706  -2.1999  -2.1238  -2.1110
    -2.0412  -2.0026  -1.9242  -1.8563  -1.7312  -1.6147  -1.5838  -1.5463
    -1.4878  -1.4162  -1.4019  -1.3309  -1.2884  -1.1717  -1.1426  -1.0956
    -1.0650  -1.0402  -1.0007  -0.9547  -0.9353  -0.9210  -0.8709  -0.8256
    -0.8116  -0.6974  -0.6395  -0.5928  -0.5435  -0.5174  -0.5075  -0.4699
    -0.4241  -0.3935  -0.3790  -0.2942  -0.2277  -0.1831  -0.1551  -0.0838
    -0.0288   0.0068   0.0479   0.0611   0.0853   0.1010   0.5415   0.5934
     0.6947   0.7852   1.0940   1.1049   1.1391   1.1788   1.4480   1.4676
     1.4744   1.5123   1.6436   1.7396   1.7665   1.8028   1.8234   1.8496
     1.8581   1.8863   1.8995   1.9211   1.9284   1.9733   1.9768   2.0053
     2.0386   2.0526   2.0641   2.1012   2.1224   2.1420   2.1696   2.1913
     2.2591   2.3264   2.4904   2.5121   2.6000   2.6272   2.6482   2.6652
     2.6821   2.7058   2.7098   2.7315   2.7422   2.7579   2.7783   2.7898
     2.8544   2.8580   2.8787   2.8942   2.9043   2.9239   2.9288   2.9377
     3.0410   3.0466   3.0725   3.0825   4.0319   4.0579   4.1030   4.1510
     4.3465   4.4192   4.4459   4.6869   4.8087   4.8915   5.0197   5.1082
     5.1166   5.2321   5.3356   5.4101   5.8748   5.9041   5.9748   6.0464
     6.4884   6.8718   6.9248   7.0813   7.8904   7.9160   7.9226   7.9723
     8.0013   8.0440   8.1109   8.2907   8.4389   8.6093   8.6358   8.6389
     8.6828   8.7495   8.7694

     occupation numbers 
     1.0000   1.0000   1.0000   1.0000   1.0000   1.0000   1.0000   1.0000
     1.0000   1.0000   1.0000   1.0000   1.0000   1.0000   1.0000   1.0000
     1.0000   1.0000   1.0000   1.0000   1.0000   1.0000   1.0000   1.0000
     1.0000   1.0000   1.0000   1.0000   1.0000   1.0000   1.0000   1.0000
     1.0000   1.0000   1.0000   1.0000   1.0000   1.0000   1.0000   1.0000
     1.0000   1.0000   1.0000   1.0000   1.0000   1.0000   1.0000   1.0000
     1.0000   1.0000   1.0000   1.0000   1.0000   1.0000   1.0000   1.0000
     1.0000   1.0000   1.0000   1.0000   1.0000   1.0000   1.0000   1.0000
     1.0000   1.0000   1.0000   1.0000   1.0000   1.0000   1.0000   1.0000
     1.0000   1.0000   1.0000   1.0000   1.0000   1.0000   1.0000   1.0000
     1.0000   1.0000   1.0000   1.0000   1.0000   1.0000   1.0000   1.0000
     1.0000   1.0000   1.0000   1.0000   1.0000   1.0000   1.0000   1.0000
     1.0000   1.0000   1.0000   1.0000   1.0000   1.0000   1.0000   1.0000
     1.0000   1.0000   1.0000   1.0000   1.0000   1.0000   1.0000   1.0000
     1.0000   1.0000   1.0000   1.0000   1.0000   1.0000   1.0000   1.0000
     1.0000   1.0000   1.0000   1.0000   1.0000   1.0000   1.0000   1.0000
     1.0000   1.0000   1.0000   1.0000   1.0000   1.0000   1.0000   1.0000
     1.0000   1.0000   1.0000   1.0000   1.0000   1.0000   1.0000   1.0000
     1.0000   1.0000   1.0000   1.0000   1.0000   1.0000   1.0000   1.0000
     1.0000   1.0000   1.0000   1.0000   1.0000   1.0000   1.0000   1.0000
     1.0000   0.9999   0.9996   0.9996   0.9995   0.9994   0.9977   0.9975
     0.9974   0.9969   0.9945   0.9917   0.9908   0.9894   0.9885   0.9873
     0.9868   0.9854   0.9846   0.9833   0.9829   0.9798   0.9796   0.9774
     0.9746   0.9734   0.9723   0.9686   0.9663   0.9641   0.9607   0.9579
     0.9480   0.9365   0.9002   0.8944   0.8686   0.8598   0.8527   0.8468
     0.8409   0.8321   0.8307   0.8224   0.8182   0.8120   0.8037   0.7990
     0.7710   0.7694   0.7599   0.7527   0.7479   0.7386   0.7362   0.7318
     0.6790   0.6760   0.6621   0.6567   0.1571   0.1480   0.1331   0.1184
     0.0703   0.0569   0.0525   0.0239   0.0154   0.0112   0.0067   0.0046
     0.0044   0.0026   0.0016   0.0011   0.0001   0.0001   0.0000   0.0000
     0.0000   0.0000   0.0000   0.0000   0.0000   0.0000   0.0000   0.0000
     0.0000   0.0000   0.0000   0.0000   0.0000   0.0000   0.0000   0.0000
     0.0000   0.0000   0.0000

          k = 0.2500 0.0000 0.0000 ( 65257 PWs)   bands (ev):

   -92.6740 -92.6190 -92.5271 -92.4809 -92.4223 -92.3798 -92.3624 -92.2411
   -56.0275 -56.0055 -55.8846 -55.8745 -55.8658 -55.8613 -55.8238 -55.7965
   -55.7810 -55.7793 -55.7700 -55.7297 -55.7132 -55.6732 -55.6534 -55.6225
   -55.6156 -55.5681 -55.5665 -55.5652 -55.5567 -55.5162 -55.4928 -55.4079
   -31.2497 -31.2337 -31.0900 -31.0705 -31.0038 -30.9814 -30.8016 -30.6772
   -29.8205 -29.7787 -29.7521 -29.6439 -15.0211 -14.9796 -14.9105 -14.7632
   -14.6585 -14.4621 -14.3294 -14.1507 -14.1321 -14.1027 -14.0723 -14.0472
   -14.0118 -13.9972 -13.9766 -13.9374 -13.9231 -13.8140 -13.7829 -13.6327
   -13.5659 -13.5571 -13.4972 -13.4656 -13.4537 -13.3947 -13.3184 -13.2865
   -13.1818 -13.1366 -13.1310 -13.0633 -13.0338 -13.0173 -13.0003 -12.9850
   -12.9488 -12.9172 -12.9034 -12.8693 -12.8557 -12.7933 -12.7462 -12.7381
   -12.6314 -12.6194 -12.6077 -12.5535 -12.5007 -12.3794 -12.2225 -12.0341
   -11.9922 -11.7996 -11.7477 -11.7304 -11.7169 -11.6902 -11.6398 -11.6164
   -11.6084 -11.5581 -11.4684 -11.4127 -11.4067  -2.7789  -2.5568  -2.4271
    -2.2544  -2.1907  -2.0205  -1.8136  -1.7361  -1.6919  -1.6577  -1.5568
    -1.5425  -1.5075  -1.4884  -1.4194  -1.2387  -1.1314  -1.0909  -1.0423
    -0.9934  -0.9820  -0.9022  -0.8758  -0.8254  -0.7835  -0.7319  -0.7043
    -0.6543  -0.6263  -0.6069  -0.5523  -0.5354  -0.4462  -0.4384  -0.3767
    -0.2816  -0.2302  -0.0992  -0.0892  -0.0342   0.0340   0.0757   0.1020
     0.1430   0.2048   0.2409   0.5205   0.6580   0.6879   0.7745   0.8173
     0.8401   0.8797   0.9355   1.0463   1.0931   1.1176   1.1578   1.3022
     1.3378   1.3705   1.3766   1.4197   1.4642   1.5060   1.5422   1.5929
     1.6439   1.6617   1.7121   1.7596   1.8023   1.8224   1.9087   1.9226
     1.9465   1.9926   2.0095   2.1396   2.1888   2.2532   2.3271   2.3393
     2.4235   2.4593   2.5055   2.5203   2.5377   2.5659   2.5776   2.5934
     2.6456   2.7687   2.8865   2.9081   2.9407   2.9638   2.9724   2.9923
     3.0031   3.0172   3.0379   3.0441   3.0688   3.0809   3.0869   3.1003
     3.1210   3.1454   3.1497   3.1575   3.1640   3.1743   3.1837   3.3153
     3.6130   3.6509   3.9087   4.3018   4.5080   4.7174   5.0378   5.0910
     5.6575   5.8081   5.9040   6.0370   6.0935   6.1191   6.2097   6.6039
     6.8105   7.0819   7.1345   7.3542   7.4940   7.5613   7.5752   7.6144
     7.8019   7.9876   7.9930   8.2004   8.2829   8.3094   8.4270   8.4500
     8.5727   8.8108   8.9343

[...]
     0.3504   0.3297   0.2051   0.0797   0.0433   0.0215   0.0062   0.0050
     0.0003   0.0001   0.0001   0.0000   0.0000   0.0000   0.0000   0.0000
     0.0000   0.0000   0.0000   0.0000   0.0000   0.0000   0.0000   0.0000
     0.0000   0.0000   0.0000   0.0000   0.0000   0.0000   0.0000   0.0000
     0.0000   0.0000   0.0000

          k =-0.5000 0.0000 0.0000 ( 65180 PWs)   bands (ev):

   -92.6740 -92.6190 -92.5271 -92.4809 -92.4223 -92.3798 -92.3624 -92.2411
   -56.0275 -56.0055 -55.8846 -55.8745 -55.8658 -55.8613 -55.8238 -55.7965
   -55.7810 -55.7793 -55.7700 -55.7297 -55.7132 -55.6732 -55.6534 -55.6225
   -55.6156 -55.5681 -55.5665 -55.5652 -55.5567 -55.5162 -55.4928 -55.4079
   -31.2476 -31.2358 -31.0897 -31.0704 -31.0042 -30.9813 -30.8017 -30.6773
   -29.8195 -29.7797 -29.7517 -29.6443 -14.9874 -14.9355 -14.8737 -14.7671
   -14.6609 -14.5184 -14.3699 -14.2344 -14.1053 -14.0965 -14.0812 -14.0178
   -13.9649 -13.9329 -13.9243 -13.8827 -13.8784 -13.8622 -13.8118 -13.7976
   -13.6848 -13.5274 -13.5069 -13.4682 -13.4604 -13.3954 -13.3377 -13.2709
   -13.2415 -13.2179 -13.1947 -13.0540 -13.0279 -13.0155 -12.9922 -12.9830
   -12.9460 -12.9196 -12.8998 -12.8699 -12.8574 -12.7321 -12.6276 -12.6135
   -12.6046 -12.6034 -12.5998 -12.5144 -12.4323 -12.3124 -12.3005 -12.1273
   -12.0921 -11.7518 -11.7303 -11.7234 -11.7084 -11.6904 -11.6490 -11.5866
   -11.5692 -11.5366 -11.4908 -11.4816 -11.4660  -2.5546  -2.5162  -2.3522
    -2.3131  -1.9997  -1.9258  -1.7757  -1.6589  -1.6200  -1.5754  -1.5263
    -1.5012  -1.3781  -1.3336  -1.3186  -1.2361  -1.2009  -1.1856  -1.1539
    -1.0982  -1.0406  -1.0265  -0.9984  -0.9688  -0.8736  -0.8270  -0.7780
    -0.7449  -0.7235  -0.6954  -0.6456  -0.6216  -0.5809  -0.4889  -0.4076
    -0.3517  -0.2874  -0.1012  -0.0790  -0.0279  -0.0002   0.0798   0.0876
     0.2289   0.2555   0.2954   0.4684   0.5668   0.6152   0.6934   0.8041
     0.8912   0.9166   1.0397   1.0581   1.1113   1.1352   1.1779   1.1922
     1.2336   1.2597   1.3258   1.3749   1.4232   1.4279   1.7358   1.7406
     1.7554   1.7849   1.8855   1.8960   1.9167   1.9297   1.9495   1.9601
     2.0092   2.0260   2.0618   2.1050   2.1201   2.1694   2.2077   2.2473
     2.3544   2.4455   2.5007   2.5237   2.5406   2.5539   2.6338   2.6539
     2.6839   2.7496   2.7572   2.7657   2.7945   2.8646   2.9110   2.9514
     2.9870   3.0270   3.0313   3.0323   3.0447   3.0587   3.0704   3.0851
     3.0885   3.1125   3.1145   3.1370   3.1565   3.1617   3.2924   3.3005
     4.0945   4.1494   4.2162   4.3889   4.8182   4.8905   5.0613   5.0812
     5.5062   5.5313   5.6176   5.6783   6.0425   6.0628   6.2299   6.4773
     6.8179   7.0227   7.2904   7.3201   7.3486   7.4397   7.6389   7.8016
     7.9114   7.9682   8.1703   8.2571   8.3344   8.5029   8.5494   8.6569
     8.7812   8.8198   8.9075

     occupation numbers 
     1.0000   1.0000   1.0000   1.0000   1.0000   1.0000   1.0000   1.0000
     1.0000   1.0000   1.0000   1.0000   1.0000   1.0000   1.0000   1.0000
     1.0000   1.0000   1.0000   1.0000   1.0000   1.0000   1.0000   1.0000
     1.0000   1.0000   1.0000   1.0000   1.0000   1.0000   1.0000   1.0000
     1.0000   1.0000   1.0000   1.0000   1.0000   1.0000   1.0000   1.0000
     1.0000   1.0000   1.0000   1.0000   1.0000   1.0000   1.0000   1.0000
     1.0000   1.0000   1.0000   1.0000   1.0000   1.0000   1.0000   1.0000
     1.0000   1.0000   1.0000   1.0000   1.0000   1.0000   1.0000   1.0000
     1.0000   1.0000   1.0000   1.0000   1.0000   1.0000   1.0000   1.0000
     1.0000   1.0000   1.0000   1.0000   1.0000   1.0000   1.0000   1.0000
     1.0000   1.0000   1.0000   1.0000   1.0000   1.0000   1.0000   1.0000
     1.0000   1.0000   1.0000   1.0000   1.0000   1.0000   1.0000   1.0000
     1.0000   1.0000   1.0000   1.0000   1.0000   1.0000   1.0000   1.0000
     1.0000   1.0000   1.0000   1.0000   1.0000   1.0000   1.0000   1.0000
     1.0000   1.0000   1.0000   1.0000   1.0000   1.0000   1.0000   1.0000
     1.0000   1.0000   1.0000   1.0000   1.0000   1.0000   1.0000   1.0000
     1.0000   1.0000   1.0000   1.0000   1.0000   1.0000   1.0000   1.0000
     1.0000   1.0000   1.0000   1.0000   1.0000   1.0000   1.0000   1.0000
     1.0000   1.0000   1.0000   1.0000   1.0000   1.0000   1.0000   1.0000
     1.0000   1.0000   1.0000   1.0000   1.0000   1.0000   1.0000   0.9999
     0.9999   0.9999   0.9997   0.9997   0.9996   0.9995   0.9994   0.9993
     0.9992   0.9991   0.9987   0.9984   0.9979   0.9979   0.9919   0.9917
     0.9912   0.9901   0.9854   0.9848   0.9836   0.9828   0.9815   0.9808
     0.9771   0.9757   0.9725   0.9682   0.9666   0.9607   0.9557   0.9499
     0.9312   0.9114   0.8975   0.8912   0.8865   0.8826   0.8576   0.8508
     0.8402   0.8153   0.8123   0.8089   0.7970   0.7663   0.7447   0.7251
     0.7072   0.6864   0.6842   0.6836   0.6771   0.6696   0.6633   0.6552
     0.6534   0.6401   0.6390   0.6264   0.6154   0.6125   0.5365   0.5317
     0.1358   0.1188   0.1003   0.0622   0.0149   0.0113   0.0056   0.0052
     0.0007   0.0006   0.0004   0.0003   0.0000   0.0000   0.0000   0.0000
     0.0000   0.0000   0.0000   0.0000   0.0000   0.0000   0.0000   0.0000
     0.0000   0.0000   0.0000   0.0000   0.0000   0.0000   0.0000   0.0000
     0.0000   0.0000   0.0000

          k =-0.2500 0.2500 0.0000 ( 65198 PWs)   bands (ev):

   -92.6740 -92.6190 -92.5271 -92.4809 -92.4223 -92.3798 -92.3624 -92.2411
   -56.0275 -56.0055 -55.8846 -55.8745 -55.8658 -55.8613 -55.8238 -55.7965
   -55.7810 -55.7793 -55.7700 -55.7297 -55.7132 -55.6732 -55.6534 -55.6225
   -55.6156 -55.5681 -55.5665 -55.5652 -55.5567 -55.5162 -55.4928 -55.4079
   -31.2496 -31.2335 -31.0902 -31.0702 -31.0039 -30.9817 -30.8013 -30.6775
   -29.8199 -29.7783 -29.7528 -29.6442 -14.9900 -14.9480 -14.8754 -14.7586
   -14.6476 -14.5204 -14.4356 -14.2292 -14.0888 -14.0589 -14.0466 -13.9983
   -13.9743 -13.9550 -13.9408 -13.9223 -13.8961 -13.8096 -13.7979 -13.6457
   -13.6192 -13.5911 -13.5698 -13.5320 -13.4701 -13.4108 -13.4075 -13.2582
   -13.2428 -13.1967 -13.1199 -13.0780 -13.0172 -13.0094 -12.9828 -12.9622
   -12.9291 -12.9006 -12.8981 -12.8612 -12.8029 -12.7615 -12.7436 -12.6931
   -12.6661 -12.6431 -12.6216 -12.4420 -12.4155 -12.3838 -12.2564 -12.0685
   -12.0366 -11.7717 -11.7503 -11.7229 -11.7109 -11.6699 -11.6353 -11.6120
   -11.5908 -11.5680 -11.4833 -11.4379 -11.4286  -2.6395  -2.4309  -2.3103
    -2.2217  -2.1033  -2.0367  -1.8347  -1.6885  -1.6702  -1.6420  -1.5496
    -1.5138  -1.4203  -1.3867  -1.3603  -1.2178  -1.1623  -1.0950  -1.0691
    -1.0359  -1.0057  -0.9833  -0.9436  -0.9147  -0.8746  -0.8118  -0.7632
    -0.7032  -0.6324  -0.6031  -0.5543  -0.5251  -0.4797  -0.4258  -0.3832
    -0.3386  -0.2417  -0.2056  -0.1914  -0.1514  -0.0832  -0.0026   0.0424
     0.0686   0.1468   0.1748   0.4185   0.5837   0.6275   0.6683   0.7278
     0.7915   0.8638   0.9053   0.9275   1.2071   1.3175   1.3586   1.3891
     1.3956   1.4396   1.4568   1.5007   1.5314   1.5460   1.5716   1.6156
     1.6323   1.6747   1.6896   1.7355   1.8301   1.8483   1.8631   1.9145
     1.9299   1.9707   2.0390   2.1438   2.2328   2.2606   2.3059   2.3265
     2.3952   2.4333   2.4588   2.4771   2.5030   2.5154   2.5371   2.6121
     2.6421   2.7317   2.9101   2.9188   2.9323   2.9427   2.9535   2.9671
     2.9732   2.9910   2.9995   3.0149   3.0240   3.0368   3.0461   3.0527
     3.0861   3.0968   3.1051   3.1392   3.4316   3.5141   3.5773   3.6609
     3.6821   3.8645   3.9901   4.3327   4.5558   4.7444   5.0169   5.1824
     5.6717   5.7179   5.7776   5.8617   5.9226   6.0497   6.1913   6.2178
     6.8890   6.9236   7.1006   7.2275   7.5874   7.6288   7.6900   7.8579
     7.9159   7.9990   8.1864   8.2058   8.3214   8.3554   8.4063   8.4735
     8.5792   8.7494   8.8841

     occupation numbers 
     1.0000   1.0000   1.0000   1.0000   1.0000   1.0000   1.0000   1.0000
     1.0000   1.0000   1.0000   1.0000   1.0000   1.0000   1.0000   1.0000
     1.0000   1.0000   1.0000   1.0000   1.0000   1.0000   1.0000   1.0000
     1.0000   1.0000   1.0000   1.0000   1.0000   1.0000   1.0000   1.0000
     1.0000   1.0000   1.0000   1.0000   1.0000   1.0000   1.0000   1.0000
     1.0000   1.0000   1.0000   1.0000   1.0000   1.0000   1.0000   1.0000
     1.0000   1.0000   1.0000   1.0000   1.0000   1.0000   1.0000   1.0000
     1.0000   1.0000   1.0000   1.0000   1.0000   1.0000   1.0000   1.0000
     1.0000   1.0000   1.0000   1.0000   1.0000   1.0000   1.0000   1.0000
     1.0000   1.0000   1.0000   1.0000   1.0000   1.0000   1.0000   1.0000
     1.0000   1.0000   1.0000   1.0000   1.0000   1.0000   1.0000   1.0000
     1.0000   1.0000   1.0000   1.0000   1.0000   1.0000   1.0000   1.0000
     1.0000   1.0000   1.0000   1.0000   1.0000   1.0000   1.0000   1.0000
     1.0000   1.0000   1.0000   1.0000   1.0000   1.0000   1.0000   1.0000
     1.0000   1.0000   1.0000   1.0000   1.0000   1.0000   1.0000   1.0000
     1.0000   1.0000   1.0000   1.0000   1.0000   1.0000   1.0000   1.0000
     1.0000   1.0000   1.0000   1.0000   1.0000   1.0000   1.0000   1.0000
     1.0000   1.0000   1.0000   1.0000   1.0000   1.0000   1.0000   1.0000
     1.0000   1.0000   1.0000   1.0000   1.0000   1.0000   1.0000   1.0000
     1.0000   1.0000   1.0000   1.0000   1.0000   1.0000   1.0000   1.0000
     0.9999   0.9999   0.9999   0.9998   0.9993   0.9988   0.9985   0.9982
     0.9982   0.9978   0.9976   0.9970   0.9966   0.9964   0.9959   0.9951
     0.9947   0.9937   0.9933   0.9919   0.9882   0.9873   0.9866   0.9837
     0.9828   0.9800   0.9746   0.9639   0.9520   0.9478   0.9402   0.9365
     0.9228   0.9142   0.9082   0.9036   0.8969   0.8935   0.8875   0.8647
     0.8548   0.8223   0.7451   0.7410   0.7345   0.7294   0.7241   0.7173
     0.7142   0.7051   0.7008   0.6928   0.6880   0.6813   0.6763   0.6728
     0.6547   0.6488   0.6442   0.6252   0.4542   0.4061   0.3702   0.3244
     0.3131   0.2243   0.1725   0.0731   0.0372   0.0195   0.0068   0.0033
     0.0003   0.0002   0.0002   0.0001   0.0001   0.0000   0.0000   0.0000
     0.0000   0.0000   0.0000   0.0000   0.0000   0.0000   0.0000   0.0000
     0.0000   0.0000   0.0000   0.0000   0.0000   0.0000   0.0000   0.0000
     0.0000   0.0000   0.0000

          k =-0.5000 0.2500 0.0000 ( 65138 PWs)   bands (ev):

   -92.6740 -92.6190 -92.5271 -92.4809 -92.4223 -92.3798 -92.3624 -92.2411
   -56.0275 -56.0055 -55.8846 -55.8745 -55.8658 -55.8613 -55.8238 -55.7965
   -55.7810 -55.7793 -55.7700 -55.7297 -55.7132 -55.6732 -55.6534 -55.6225
   -55.6156 -55.5681 -55.5665 -55.5652 -55.5567 -55.5162 -55.4928 -55.4079
   -31.2474 -31.2357 -31.0899 -31.0701 -31.0043 -30.9816 -30.8014 -30.6776
   -29.8189 -29.7794 -29.7524 -29.6447 -14.9544 -14.9093 -14.8307 -14.7328
   -14.6907 -14.5650 -14.4749 -14.3491 -14.0394 -14.0085 -13.9967 -13.9508
   -13.9302 -13.9260 -13.9041 -13.8695 -13.8642 -13.8399 -13.8017 -13.7907
   -13.6790 -13.6102 -13.5648 -13.5605 -13.5480 -13.4478 -13.4411 -13.3095
   -13.2704 -13.1735 -13.1381 -13.0429 -13.0116 -12.9981 -12.9891 -12.9627
   -12.9310 -12.9142 -12.9004 -12.8752 -12.8095 -12.7421 -12.6757 -12.6521
   -12.6246 -12.5951 -12.5869 -12.5126 -12.3782 -12.2960 -12.2572 -12.1268
   -12.1006 -11.7445 -11.7316 -11.7175 -11.7057 -11.6841 -11.6538 -11.5738
   -11.5649 -11.5419 -11.5053 -11.4774 -11.4686  -2.4123  -2.3705  -2.2219
    -2.1797  -2.0187  -1.9445  -1.8001  -1.6652  -1.6090  -1.5820  -1.5424
    -1.5037  -1.4230  -1.3079  -1.2509  -1.2277  -1.2028  -1.1266  -1.0985
    -1.0626  -1.0419  -1.0329  -0.9796  -0.9515  -0.9121  -0.8766  -0.8477
    -0.7903  -0.7632  -0.7212  -0.6868  -0.5839  -0.5541  -0.4711  -0.4031
    -0.3742  -0.3212  -0.2316  -0.1941  -0.0995  -0.0485  -0.0005   0.0575
     0.0828   0.1498   0.1743   0.2059   0.2588   0.2993   0.6045   0.6740
     0.7417   0.8217   1.0480   1.0963   1.1740   1.2001   1.3760   1.4141
     1.4512   1.4630   1.4818   1.4992   1.5691   1.6105   1.6550   1.6779
     1.8154   1.8404   1.8705   1.8822   1.9354   1.9491   1.9627   1.9773
     2.0011   2.0218   2.0734   2.0825   2.1146   2.1379   2.1828   2.2270
     2.3452   2.4355   2.4752   2.5092   2.5144   2.5565   2.5808   2.6502
     2.6800   2.6863   2.7235   2.7564   2.7796   2.8642   2.9064   2.9191
     2.9240   2.9453   2.9682   2.9808   2.9961   3.0084   3.0302   3.0422
     3.0527   3.0600   3.0707   3.0817   3.6086   3.6699   3.8012   3.8275
     4.1014   4.1772   4.2273   4.4574   4.8130   4.9084   5.0624   5.1075
     5.4286   5.4577   5.6092   5.6410   5.7760   5.8044   6.3103   6.4125
     6.5161   6.6128   7.2115   7.3544   7.5635   7.7308   7.8005   7.8267
     7.9166   8.0490   8.2486   8.4235   8.4403   8.5297   8.5722   8.5923
     8.6780   8.7413   8.7911

     occupation numbers 
     1.0000   1.0000   1.0000   1.0000   1.0000   1.0000   1.0000   1.0000
     1.0000   1.0000   1.0000   1.0000   1.0000   1.0000   1.0000   1.0000
     1.0000   1.0000   1.0000   1.0000   1.0000   1.0000   1.0000   1.0000
     1.0000   1.0000   1.0000   1.0000   1.0000   1.0000   1.0000   1.0000
     1.0000   1.0000   1.0000   1.0000   1.0000   1.0000   1.0000   1.0000
     1.0000   1.0000   1.0000   1.0000   1.0000   1.0000   1.0000   1.0000
     1.0000   1.0000   1.0000   1.0000   1.0000   1.0000   1.0000   1.0000
     1.0000   1.0000   1.0000   1.0000   1.0000   1.0000   1.0000   1.0000
     1.0000   1.0000   1.0000   1.0000   1.0000   1.0000   1.0000   1.0000
     1.0000   1.0000   1.0000   1.0000   1.0000   1.0000   1.0000   1.0000
     1.0000   1.0000   1.0000   1.0000   1.0000   1.0000   1.0000   1.0000
     1.0000   1.0000   1.0000   1.0000   1.0000   1.0000   1.0000   1.0000
     1.0000   1.0000   1.0000   1.0000   1.0000   1.0000   1.0000   1.0000
     1.0000   1.0000   1.0000   1.0000   1.0000   1.0000   1.0000   1.0000
     1.0000   1.0000   1.0000   1.0000   1.0000   1.0000   1.0000   1.0000
     1.0000   1.0000   1.0000   1.0000   1.0000   1.0000   1.0000   1.0000
     1.0000   1.0000   1.0000   1.0000   1.0000   1.0000   1.0000   1.0000
     1.0000   1.0000   1.0000   1.0000   1.0000   1.0000   1.0000   1.0000
     1.0000   1.0000   1.0000   1.0000   1.0000   1.0000   1.0000   1.0000
     1.0000   1.0000   1.0000   1.0000   1.0000   1.0000   1.0000   1.0000
     0.9999   0.9999   0.9997   0.9996   0.9994   0.9993   0.9983   0.9980
     0.9976   0.9975   0.9973   0.9971   0.9960   0.9952   0.9942   0.9936
     0.9888   0.9877   0.9862   0.9856   0.9824   0.9815   0.9806   0.9795
     0.9777   0.9761   0.9714   0.9705   0.9672   0.9645   0.9590   0.9529
     0.9329   0.9137   0.9041   0.8952   0.8938   0.8819   0.8746   0.8520
     0.8416   0.8393   0.8255   0.8126   0.8032   0.7665   0.7469   0.7409
     0.7385   0.7281   0.7167   0.7103   0.7025   0.6962   0.6848   0.6784
     0.6728   0.6689   0.6631   0.6571   0.3528   0.3196   0.2534   0.2411
     0.1336   0.1108   0.0974   0.0507   0.0151   0.0105   0.0056   0.0046
     0.0010   0.0009   0.0004   0.0003   0.0002   0.0001   0.0000   0.0000
     0.0000   0.0000   0.0000   0.0000   0.0000   0.0000   0.0000   0.0000
     0.0000   0.0000   0.0000   0.0000   0.0000   0.0000   0.0000   0.0000
     0.0000   0.0000   0.0000

     the Fermi energy is     3.3541 ev

!    total energy              =   -4441.64746147 Ry
     estimated scf accuracy    <          5.8E-09 Ry
     smearing contrib. (-TS)   =      -1.15502483 Ry
     internal energy E=F+TS    =   -4440.49243664 Ry

     The total energy is F=E-TS. E is the sum of the following terms:
     one-electron contribution =  -20805.40870324 Ry
     hartree contribution      =   10535.07838645 Ry
     xc contribution           =    -694.17878190 Ry
     ewald contribution        =    6800.18842596 Ry
     one-center paw contrib.   =    -276.17176390 Ry
      -> PAW hartree energy AE =      25.16505244 Ry
      -> PAW hartree energy PS =     -25.04892734 Ry
      -> PAW xc energy AE      =     -16.51780513 Ry
      -> PAW xc energy PS      =       6.87728105 Ry
      -> total E_H with PAW    =   10535.19451156 Ry
      -> total E_XC with PAW   =    -703.81930599 Ry

     convergence has been achieved in  45 iterations

     Writing all to output data dir /bsuhome/zayahcortright/scratch/pwscf.save/
 
     init_run     :      7.97s CPU      8.89s WALL (       1 calls)
     electrons    :    757.64s CPU    835.39s WALL (       1 calls)

     Called by init_run:
     wfcinit      :      6.49s CPU      6.73s WALL (       1 calls)
     wfcinit:atom :      0.04s CPU      0.06s WALL (       5 calls)
     wfcinit:wfcr :      6.18s CPU      6.32s WALL (       5 calls)
     potinit      :      0.18s CPU      0.21s WALL (       1 calls)
     hinit0       :      0.44s CPU      0.80s WALL (       1 calls)

     Called by electrons:
     c_bands      :    615.33s CPU    626.49s WALL (      45 calls)
     sum_band     :    106.68s CPU    143.31s WALL (      45 calls)
     v_of_rho     :      4.97s CPU      5.37s WALL (      46 calls)
     v_h          :      0.44s CPU      0.44s WALL (      46 calls)
     v_xc         :      4.54s CPU      4.93s WALL (      46 calls)
     newd         :     17.14s CPU     46.35s WALL (      46 calls)
     PAW_pot      :      1.50s CPU      1.54s WALL (      46 calls)
     mix_rho      :     11.69s CPU     12.10s WALL (      45 calls)

     Called by c_bands:
     init_us_2    :      6.27s CPU      6.38s WALL (     455 calls)
     init_us_2:cp :      6.27s CPU      6.38s WALL (     455 calls)
     cegterg      :    584.19s CPU    595.04s WALL (     225 calls)

     Called by sum_band:
     sum_band:wei :      0.34s CPU      0.34s WALL (      45 calls)
     sum_band:loo :     87.21s CPU     87.94s WALL (      45 calls)
     sum_band:buf :      1.25s CPU      1.35s WALL (     225 calls)
     sum_band:ini :      2.67s CPU      2.70s WALL (     225 calls)
     sum_band:cal :     17.69s CPU     17.78s WALL (     225 calls)
     sum_band:bec :      0.52s CPU      0.54s WALL (     225 calls)
     addusdens    :     17.64s CPU     53.47s WALL (      45 calls)
                                        0.00s GPU  (      45 calls)
     addusd:skk   :      0.27s CPU      2.23s WALL (     180 calls)
                                        0.00s GPU  (     180 calls)

     Called by *egterg:
     cdiaghg      :     59.61s CPU     59.85s WALL (    1299 calls)
     cegterg:over :     44.17s CPU     44.35s WALL (    1074 calls)
     cegterg:upda :     46.37s CPU     47.28s WALL (    1074 calls)
     cegterg:last :     68.25s CPU     68.56s WALL (     418 calls)
     cdiaghg:chol :      3.35s CPU      3.37s WALL (    1299 calls)
     cdiaghg:inve :      3.73s CPU      3.75s WALL (    1299 calls)
     cdiaghg:para :      7.40s CPU      7.44s WALL (    2598 calls)
     h_psi        :    300.64s CPU    305.11s WALL (    1304 calls)
     s_psi        :     40.66s CPU     40.77s WALL (    1304 calls)
     g_psi        :      2.09s CPU      2.10s WALL (    1074 calls)

     Called by h_psi:
     h_psi:calbec :     43.30s CPU     43.52s WALL (    1304 calls)
     vloc_psi     :    211.38s CPU    213.41s WALL (    1304 calls)
     add_vuspsi   :     41.28s CPU     41.51s WALL (    1304 calls)

     General routines
     calbec       :     60.99s CPU     61.29s WALL (    1529 calls)
     fft          :      3.83s CPU      3.89s WALL (     596 calls)
     ffts         :      4.37s CPU      4.41s WALL (    4831 calls)
     fftw         :    169.11s CPU    170.47s WALL (  306283 calls)
     interpolate  :      0.38s CPU      0.39s WALL (      46 calls)
 
     Parallel routines

     PAW routines
     PAW_pot      :      1.50s CPU      1.54s WALL (      46 calls)
 
     PWSCF        :  12m47.60s CPU  14m 9.66s WALL

 
   This run was terminated on:  20:20: 3  21Jun2024            

=------------------------------------------------------------------------------=
   JOB DONE.
=------------------------------------------------------------------------------=
