
     Program PWSCF v.7.2 starts on 21Jun2024 at 16:49:47 

     This program is part of the open-source Quantum ESPRESSO suite
     for quantum simulation of materials; please cite
         "P. Giannozzi et al., J. Phys.:Condens. Matter 21 395502 (2009);
         "P. Giannozzi et al., J. Phys.:Condens. Matter 29 465901 (2017);
         "P. Giannozzi et al., J. Chem. Phys. 152 154105 (2020);
          URL http://www.quantum-espresso.org", 
     in publications or presentations arising from this work. More details at
     http://www.quantum-espresso.org/quote

     Parallel version (MPI & OpenMP), running on      48 processor cores
     Number of MPI processes:                48
     Threads/MPI process:                     1

     MPI processes distributed on     1 nodes
     180146 MiB available memory on the printing compute node when the environment starts
 
     Reading input from espresso.pwi
Warning: card &CELL ignored
Warning: card / ignored
Warning: card &FCP ignored
Warning: card / ignored
Warning: card &RISM ignored
Warning: card / ignored

     Current dimensions of program PWSCF are:
     Max number of different atomic species (ntypx) = 10
     Max number of k-points (npk) =  40000
     Max angular momentum in pseudopotentials (lmaxx) =  4
     file O.pbe-n-kjpaw_psl.0.1.UPF: wavefunction(s)  2P renormalized
     signal trapping enabled: kill the code with -SIGUSR1 to stop cleanly the simulation 
 
     K-points division:     npool     =       2
     R & G space division:  proc/nbgrp/npool/nimage =      24
     Subspace diagonalization in iterative solution of the eigenvalue problem:
     one sub-group per band group will be used
     scalapack distributed-memory algorithm (size of sub-group:  3*  3 procs)

 
     Parallelization info
     --------------------
     sticks:   dense  smooth     PW     G-vecs:    dense   smooth      PW
     Min         350     175     47                61430    21716    3036
     Max         351     177     48                61449    21727    3041
     Sum        8421    4205   1137              1474595   521381   72913
 
     Using Slab Decomposition
 


     bravais-lattice index     =            0
     lattice parameter (alat)  =      14.8599  a.u.
     unit-cell volume          =    8305.1283 (a.u.)^3
     number of atoms/cell      =           49
     number of atomic types    =            4
     number of electrons       =       425.00
     number of Kohn-Sham states=          256
     kinetic-energy cutoff     =      60.0000  Ry
     charge density cutoff     =     480.0000  Ry
     scf convergence threshold =      1.0E-08
     mixing beta               =       0.1500
     number of iterations used =            8  local-TF  mixing
     Exchange-correlation= PBE
                           (   1   4   3   4   0   0   0)

     celldm(1)=  14.859904  celldm(2)=   0.000000  celldm(3)=   0.000000
     celldm(4)=   0.000000  celldm(5)=   0.000000  celldm(6)=   0.000000

     crystal axes: (cart. coord. in units of alat)
               a(1) = (   1.000000   0.000000   0.000000 )  
               a(2) = (   0.000000   1.000000   0.000000 )  
               a(3) = (   0.000000   0.000000   2.531036 )  

     reciprocal axes: (cart. coord. in units 2 pi/alat)
               b(1) = (  1.000000  0.000000  0.000000 )  
               b(2) = (  0.000000  1.000000  0.000000 )  
               b(3) = (  0.000000  0.000000  0.395095 )  


     PseudoPot. # 1 for Sr read from file:
     /bsuhome/zayahcortright/q-e/pseudo/Sr_pbe_v1.uspp.F.UPF
     MD5 check sum: 6b418c05fbe9db5448babca5e47b7a5b
     Pseudo is Ultrasoft + core correction, Zval = 10.0
     Generated by new atomic code, or converted to UPF format
     Using radial grid of  883 points,  6 beta functions with: 
                l(1) =   0
                l(2) =   0
                l(3) =   1
                l(4) =   1
                l(5) =   2
                l(6) =   2
     Q(r) pseudized with  6 coefficients,  rinner =    1.400   1.400   1.400
                                                       1.400   1.400

     PseudoPot. # 2 for O  read from file:
     /bsuhome/zayahcortright/q-e/pseudo/O.pbe-n-kjpaw_psl.0.1.UPF
     MD5 check sum: 0234752ac141de4415c5fc33072bef88
     Pseudo is Projector augmented-wave + core cor, Zval =  6.0
     Generated using "atomic" code by A. Dal Corso  v.5.0.99 svn rev. 10869
     Shape of augmentation charge: BESSEL
     Using radial grid of 1095 points,  4 beta functions with: 
                l(1) =   0
                l(2) =   0
                l(3) =   1
                l(4) =   1
     Q(r) pseudized with 0 coefficients 


     PseudoPot. # 3 for Co read from file:
     /bsuhome/zayahcortright/q-e/pseudo/Co_pbe_v1.2.uspp.F.UPF
     MD5 check sum: 5f91765df6ddd3222702df6e7b74a16d
     Pseudo is Ultrasoft + core correction, Zval = 17.0
     Generated by new atomic code, or converted to UPF format
     Using radial grid of  863 points,  6 beta functions with: 
                l(1) =   0
                l(2) =   0
                l(3) =   1
                l(4) =   1
                l(5) =   2
                l(6) =   2
     Q(r) pseudized with  8 coefficients,  rinner =    1.200   1.200   1.200
                                                       1.200   1.200

     PseudoPot. # 4 for H  read from file:
     /bsuhome/zayahcortright/q-e/pseudo/H.pbe-rrkjus_psl.1.0.0.UPF
     MD5 check sum: f52b6d4d1c606e5624b1dc7b2218f220
     Pseudo is Ultrasoft, Zval =  1.0
     Generated using "atomic" code by A. Dal Corso  v.5.1
     Using radial grid of  929 points,  2 beta functions with: 
                l(1) =   0
                l(2) =   0
     Q(r) pseudized with 0 coefficients 


     atomic species   valence    mass     pseudopotential
        Sr            10.00    87.62000     Sr( 1.00)
        O              6.00    15.99900     O ( 1.00)
        Co            17.00    58.93319     Co( 1.00)
        H              1.00     1.00800     H ( 1.00)

     No symmetry found


                                    s                        frac. trans.

      isym =  1     identity                                     

 cryst.   s( 1) = (     1          0          0      )
                  (     0          1          0      )
                  (     0          0          1      )

 cart.    s( 1) = (  1.0000000  0.0000000  0.0000000 )
                  (  0.0000000  1.0000000  0.0000000 )
                  (  0.0000000  0.0000000  1.0000000 )


   Cartesian axes

     site n.     atom                  positions (alat units)
         1           Sr  tau(   1) = (   0.2508693   0.7491307   1.7574407  )
         2           O   tau(   2) = (   0.4985141   0.5014859   1.7715967  )
         3           Sr  tau(   3) = (   0.7482398   0.7454518   1.7648669  )
         4           Sr  tau(   4) = (   0.7441748   0.2558252   1.7667843  )
         5           Sr  tau(   5) = (   0.2508693   0.7491307   1.2696799  )
         6           Sr  tau(   6) = (   0.2508693   0.7491307   0.7632319  )
         7           Co  tau(   7) = (   0.4998914   0.5001086   1.0164559  )
         8           Co  tau(   8) = (   0.4936915   0.5063085   1.5135603  )
         9           O   tau(   9) = (   0.4988895   0.7610401   1.0164559  )
        10           O   tau(  10) = (   0.2389599   0.5011105   1.0164559  )
        11           O   tau(  11) = (   0.0070918   0.7374880   1.0164559  )
        12           O   tau(  12) = (   0.0088340   0.7405089   1.5135603  )
        13           O   tau(  13) = (   0.5066944   0.7415376   1.5135603  )
        14           O   tau(  14) = (   0.2584624   0.4933056   1.5135603  )
        15           O   tau(  15) = (   0.4985141   0.5014859   0.7773880  )
        16           O   tau(  16) = (   0.4985141   0.5014859   1.2555238  )
        17           Sr  tau(  17) = (   0.7482398   0.7454518   0.7706582  )
        18           Sr  tau(  18) = (   0.7482398   0.7454518   1.2622536  )
        19           Sr  tau(  19) = (   0.7441748   0.2558252   0.7725755  )
        20           Sr  tau(  20) = (   0.7441748   0.2558252   1.2603363  )
        21           O   tau(  21) = (   0.7322655   0.0078049   1.5135603  )
        22           O   tau(  22) = (   0.7558175   0.4996027   1.5135603  )
        23           O   tau(  23) = (   0.5003973   0.2441825   1.5135603  )
        24           O   tau(  24) = (   0.7527966   0.4978604   1.0164559  )
        25           O   tau(  25) = (   0.5021396   0.2472034   1.0164559  )
        26           O   tau(  26) = (   0.7517679   0.0000000   1.0164559  )
        27           O   tau(  27) = (   0.0114961   0.4948124   1.7455321  )
        28           O   tau(  28) = (   0.0048226   0.0077944   1.7715967  )
        29           Sr  tau(  29) = (   0.2545482   0.2517602   1.7648669  )
        30           O   tau(  30) = (   0.5048017   0.0015068   1.7786929  )
        31           Co  tau(  31) = (   0.0056869   0.5006215   1.0164559  )
        32           Co  tau(  32) = (   0.0065315   0.4997770   1.5135603  )
        33           Co  tau(  33) = (   0.0061999   0.0064171   1.0164559  )
        34           Co  tau(  34) = (   0.0000000   0.0126169   1.5135603  )
        35           O   tau(  35) = (   0.0114961   0.4948124   1.2815885  )
        36           O   tau(  36) = (   0.0114961   0.4948124   0.7513233  )
        37           O   tau(  37) = (   0.0051979   0.2673486   1.0164559  )
        38           O   tau(  38) = (   0.0130029   0.2478461   1.5135603  )
        39           O   tau(  39) = (   0.0048226   0.0077944   0.7773880  )
        40           O   tau(  40) = (   0.0048226   0.0077944   1.2555238  )
        41           Sr  tau(  41) = (   0.2545482   0.2517602   0.7706582  )
        42           Sr  tau(  42) = (   0.2545482   0.2517602   1.2622536  )
        43           Co  tau(  43) = (   0.4989925   0.0073160   1.5135603  )
        44           Co  tau(  44) = (   0.4998370   0.0064714   1.0164559  )
        45           O   tau(  45) = (   0.5048017   0.0015068   0.7844841  )
        46           O   tau(  46) = (   0.5048017   0.0015068   1.2484277  )
        47           O   tau(  47) = (   0.2621260   0.0059111   1.5135603  )
        48           O   tau(  48) = (   0.2591051   0.0041689   1.0164559  )
        49           H   tau(  49) = (   0.4264937   0.0000000   2.1602013  )

   Crystallographic axes

     site n.     atom                  positions (cryst. coord.)
         1           Sr  tau(   1) = (  0.2508693  0.7491307  0.6943562  )
         2           O   tau(   2) = (  0.4985141  0.5014859  0.6999492  )
         3           Sr  tau(   3) = (  0.7482398  0.7454518  0.6972903  )
         4           Sr  tau(   4) = (  0.7441748  0.2558252  0.6980478  )
         5           Sr  tau(   5) = (  0.2508693  0.7491307  0.5016443  )
         6           Sr  tau(   6) = (  0.2508693  0.7491307  0.3015492  )
         7           Co  tau(   7) = (  0.4998914  0.5001086  0.4015968  )
         8           Co  tau(   8) = (  0.4936915  0.5063085  0.5980003  )
         9           O   tau(   9) = (  0.4988895  0.7610401  0.4015968  )
        10           O   tau(  10) = (  0.2389599  0.5011105  0.4015968  )
        11           O   tau(  11) = (  0.0070918  0.7374880  0.4015968  )
        12           O   tau(  12) = (  0.0088340  0.7405089  0.5980003  )
        13           O   tau(  13) = (  0.5066944  0.7415376  0.5980003  )
        14           O   tau(  14) = (  0.2584624  0.4933056  0.5980003  )
        15           O   tau(  15) = (  0.4985141  0.5014859  0.3071422  )
        16           O   tau(  16) = (  0.4985141  0.5014859  0.4960513  )
        17           Sr  tau(  17) = (  0.7482398  0.7454518  0.3044833  )
        18           Sr  tau(  18) = (  0.7482398  0.7454518  0.4987103  )
        19           Sr  tau(  19) = (  0.7441748  0.2558252  0.3052408  )
        20           Sr  tau(  20) = (  0.7441748  0.2558252  0.4979527  )
        21           O   tau(  21) = (  0.7322655  0.0078049  0.5980003  )
        22           O   tau(  22) = (  0.7558175  0.4996027  0.5980003  )
        23           O   tau(  23) = (  0.5003973  0.2441825  0.5980003  )
        24           O   tau(  24) = (  0.7527966  0.4978604  0.4015968  )
        25           O   tau(  25) = (  0.5021396  0.2472034  0.4015968  )
        26           O   tau(  26) = (  0.7517679  0.0000000  0.4015968  )
        27           O   tau(  27) = (  0.0114961  0.4948124  0.6896512  )
        28           O   tau(  28) = (  0.0048226  0.0077944  0.6999492  )
        29           Sr  tau(  29) = (  0.2545482  0.2517602  0.6972903  )
        30           O   tau(  30) = (  0.5048017  0.0015068  0.7027529  )
        31           Co  tau(  31) = (  0.0056869  0.5006215  0.4015968  )
        32           Co  tau(  32) = (  0.0065315  0.4997770  0.5980003  )
        33           Co  tau(  33) = (  0.0061999  0.0064171  0.4015968  )
        34           Co  tau(  34) = (  0.0000000  0.0126169  0.5980003  )
        35           O   tau(  35) = (  0.0114961  0.4948124  0.5063494  )
        36           O   tau(  36) = (  0.0114961  0.4948124  0.2968442  )
        37           O   tau(  37) = (  0.0051979  0.2673486  0.4015968  )
        38           O   tau(  38) = (  0.0130029  0.2478461  0.5980003  )
        39           O   tau(  39) = (  0.0048226  0.0077944  0.3071422  )
        40           O   tau(  40) = (  0.0048226  0.0077944  0.4960513  )
        41           Sr  tau(  41) = (  0.2545482  0.2517602  0.3044833  )
        42           Sr  tau(  42) = (  0.2545482  0.2517602  0.4987103  )
        43           Co  tau(  43) = (  0.4989925  0.0073160  0.5980003  )
        44           Co  tau(  44) = (  0.4998370  0.0064714  0.4015968  )
        45           O   tau(  45) = (  0.5048017  0.0015068  0.3099459  )
        46           O   tau(  46) = (  0.5048017  0.0015068  0.4932477  )
        47           O   tau(  47) = (  0.2621260  0.0059111  0.5980003  )
        48           O   tau(  48) = (  0.2591051  0.0041689  0.4015968  )
        49           H   tau(  49) = (  0.4264937  0.0000000  0.8534850  )

     number of k points=    10  Gaussian smearing, width (Ry)=  0.0700
                       cart. coord. in units 2pi/alat
        k(    1) = (   0.0000000   0.0000000   0.0000000), wk =   0.1250000
        k(    2) = (   0.0000000   0.2500000   0.0000000), wk =   0.2500000
        k(    3) = (   0.0000000  -0.5000000   0.0000000), wk =   0.1250000
        k(    4) = (   0.2500000   0.2500000   0.0000000), wk =   0.2500000
        k(    5) = (   0.2500000  -0.5000000   0.0000000), wk =   0.2500000
        k(    6) = (  -0.5000000  -0.5000000   0.0000000), wk =   0.1250000
        k(    7) = (   0.2500000   0.0000000   0.0000000), wk =   0.2500000
        k(    8) = (  -0.5000000   0.0000000   0.0000000), wk =   0.1250000
        k(    9) = (  -0.2500000   0.2500000   0.0000000), wk =   0.2500000
        k(   10) = (  -0.5000000   0.2500000   0.0000000), wk =   0.2500000

                       cryst. coord.
        k(    1) = (   0.0000000   0.0000000   0.0000000), wk =   0.1250000
        k(    2) = (   0.0000000   0.2500000   0.0000000), wk =   0.2500000
        k(    3) = (   0.0000000  -0.5000000   0.0000000), wk =   0.1250000
        k(    4) = (   0.2500000   0.2500000   0.0000000), wk =   0.2500000
        k(    5) = (   0.2500000  -0.5000000   0.0000000), wk =   0.2500000
        k(    6) = (  -0.5000000  -0.5000000   0.0000000), wk =   0.1250000
        k(    7) = (   0.2500000   0.0000000   0.0000000), wk =   0.2500000
        k(    8) = (  -0.5000000   0.0000000   0.0000000), wk =   0.1250000
        k(    9) = (  -0.2500000   0.2500000   0.0000000), wk =   0.2500000
        k(   10) = (  -0.5000000   0.2500000   0.0000000), wk =   0.2500000

     Dense  grid:  1474595 G-vectors     FFT dimensions: ( 108, 108, 270)

     Smooth grid:   521381 G-vectors     FFT dimensions: (  75,  75, 192)

     Dynamical RAM for                 wfc:      10.61 MB

     Dynamical RAM for     wfc (w. buffer):      63.63 MB

     Dynamical RAM for           str. fact:       3.75 MB

     Dynamical RAM for           local pot:       0.00 MB

     Dynamical RAM for          nlocal pot:      24.28 MB

     Dynamical RAM for                qrad:       7.03 MB

     Dynamical RAM for          rho,v,vnew:       6.02 MB

     Dynamical RAM for               rhoin:       2.01 MB

     Dynamical RAM for            rho*nmix:      15.00 MB

     Dynamical RAM for           G-vectors:       3.68 MB

     Dynamical RAM for          h,s,v(r/c):       1.32 MB

     Dynamical RAM for          <psi|beta>:       2.29 MB

     Dynamical RAM for                 psi:      21.21 MB

     Dynamical RAM for                hpsi:      21.21 MB

     Dynamical RAM for                spsi:      21.21 MB

     Dynamical RAM for      wfcinit/wfcrot:      34.09 MB

     Dynamical RAM for           addusdens:     100.79 MB

     Estimated static dynamical RAM per process >     120.42 MB

     Estimated max dynamical RAM per process >     236.21 MB

     Estimated total dynamical RAM >      10.72 GB

     Check: negative core charge=   -0.000004

     Initial potential from superposition of free atoms

     starting charge     416.5961, renormalised to     425.0000

     negative rho (up, down):  7.827E-01 0.000E+00
     Starting wfcs are  373 randomized atomic wfcs
     Checking if some PAW data can be deallocated... 
       PAW data deallocated on   20 nodes for type:  2

     total cpu time spent up to now is        8.4 secs

     Self-consistent Calculation

     iteration #  1     ecut=    60.00 Ry     beta= 0.15
     Davidson diagonalization with overlap

---- Real-time Memory Report at c_bands before calling an iterative solver
             0 MiB given to the printing process from OS
             0 MiB allocation reported by mallinfo(arena+hblkhd)
        170491 MiB available memory on the node where the printing process lives
------------------
     ethr =  1.00E-02,  avg # of iterations =  2.0

     negative rho (up, down):  7.719E-01 0.000E+00

     total cpu time spent up to now is       22.8 secs

     total energy              =   -4404.80098176 Ry
     estimated scf accuracy    <      42.15756388 Ry

     iteration #  2     ecut=    60.00 Ry     beta= 0.15
     Davidson diagonalization with overlap

---- Real-time Memory Report at c_bands before calling an iterative solver
             0 MiB given to the printing process from OS
             0 MiB allocation reported by mallinfo(arena+hblkhd)
        170695 MiB available memory on the node where the printing process lives
------------------
     ethr =  9.92E-03,  avg # of iterations =  1.0

     negative rho (up, down):  7.533E-01 0.000E+00

     total cpu time spent up to now is       34.7 secs

     total energy              =   -4400.00935438 Ry
     estimated scf accuracy    <      26.74796872 Ry

     iteration #  3     ecut=    60.00 Ry     beta= 0.15
     Davidson diagonalization with overlap

---- Real-time Memory Report at c_bands before calling an iterative solver
             0 MiB given to the printing process from OS
             0 MiB allocation reported by mallinfo(arena+hblkhd)
        169904 MiB available memory on the node where the printing process lives
------------------
     ethr =  6.29E-03,  avg # of iterations =  2.0

     negative rho (up, down):  7.545E-01 0.000E+00

     total cpu time spent up to now is       48.1 secs

     total energy              =   -4402.40478052 Ry
     estimated scf accuracy    <      49.68956708 Ry

     iteration #  4     ecut=    60.00 Ry     beta= 0.15
     Davidson diagonalization with overlap

---- Real-time Memory Report at c_bands before calling an iterative solver
             0 MiB given to the printing process from OS
             0 MiB allocation reported by mallinfo(arena+hblkhd)
        169827 MiB available memory on the node where the printing process lives
------------------
     ethr =  6.29E-03,  avg # of iterations =  1.0

     negative rho (up, down):  7.410E-01 0.000E+00

     total cpu time spent up to now is       60.0 secs

     total energy              =   -4401.68908981 Ry
     estimated scf accuracy    <      29.74496962 Ry

     iteration #  5     ecut=    60.00 Ry     beta= 0.15
     Davidson diagonalization with overlap

---- Real-time Memory Report at c_bands before calling an iterative solver
             0 MiB given to the printing process from OS
             0 MiB allocation reported by mallinfo(arena+hblkhd)
        169811 MiB available memory on the node where the printing process lives
------------------
     ethr =  6.29E-03,  avg # of iterations =  1.0

     negative rho (up, down):  7.467E-01 0.000E+00

     total cpu time spent up to now is       71.9 secs

     total energy              =   -4399.97913888 Ry
     estimated scf accuracy    <      44.96205036 Ry

     iteration #  6     ecut=    60.00 Ry     beta= 0.15
     Davidson diagonalization with overlap

---- Real-time Memory Report at c_bands before calling an iterative solver
             0 MiB given to the printing process from OS
             0 MiB allocation reported by mallinfo(arena+hblkhd)
        169795 MiB available memory on the node where the printing process lives
------------------
     ethr =  6.29E-03,  avg # of iterations =  1.0

     negative rho (up, down):  7.419E-01 0.000E+00

     total cpu time spent up to now is       83.8 secs

     total energy              =   -4400.68959566 Ry
     estimated scf accuracy    <      11.73915481 Ry

     iteration #  7     ecut=    60.00 Ry     beta= 0.15
     Davidson diagonalization with overlap

---- Real-time Memory Report at c_bands before calling an iterative solver
             0 MiB given to the printing process from OS
             0 MiB allocation reported by mallinfo(arena+hblkhd)
        169780 MiB available memory on the node where the printing process lives
------------------
     ethr =  2.76E-03,  avg # of iterations =  1.1

     negative rho (up, down):  7.442E-01 0.000E+00

     total cpu time spent up to now is       96.0 secs

     total energy              =   -4400.77418150 Ry
     estimated scf accuracy    <       4.38123434 Ry

     iteration #  8     ecut=    60.00 Ry     beta= 0.15
     Davidson diagonalization with overlap

---- Real-time Memory Report at c_bands before calling an iterative solver
             0 MiB given to the printing process from OS
             0 MiB allocation reported by mallinfo(arena+hblkhd)
        169762 MiB available memory on the node where the printing process lives
------------------
     ethr =  1.03E-03,  avg # of iterations =  1.5

     negative rho (up, down):  7.526E-01 0.000E+00

     total cpu time spent up to now is      108.4 secs

     total energy              =   -4400.39632637 Ry
     estimated scf accuracy    <       4.10457710 Ry

     iteration #  9     ecut=    60.00 Ry     beta= 0.15
     Davidson diagonalization with overlap

---- Real-time Memory Report at c_bands before calling an iterative solver
             0 MiB given to the printing process from OS
             0 MiB allocation reported by mallinfo(arena+hblkhd)
        169728 MiB available memory on the node where the printing process lives
------------------
     ethr =  9.66E-04,  avg # of iterations =  2.3

     negative rho (up, down):  7.769E-01 0.000E+00

     total cpu time spent up to now is      122.2 secs

     total energy              =   -4399.95492264 Ry
     estimated scf accuracy    <      34.49347219 Ry

     iteration # 10     ecut=    60.00 Ry     beta= 0.15
     Davidson diagonalization with overlap

---- Real-time Memory Report at c_bands before calling an iterative solver
             0 MiB given to the printing process from OS
             0 MiB allocation reported by mallinfo(arena+hblkhd)
        169648 MiB available memory on the node where the printing process lives
------------------
     ethr =  9.66E-04,  avg # of iterations =  9.8

     negative rho (up, down):  7.793E-01 0.000E+00

     total cpu time spent up to now is      140.4 secs

     total energy              =   -4399.76799827 Ry
     estimated scf accuracy    <      12.06387420 Ry

     iteration # 11     ecut=    60.00 Ry     beta= 0.15
     Davidson diagonalization with overlap

---- Real-time Memory Report at c_bands before calling an iterative solver
             0 MiB given to the printing process from OS
             0 MiB allocation reported by mallinfo(arena+hblkhd)
        169263 MiB available memory on the node where the printing process lives
------------------
     ethr =  9.66E-04,  avg # of iterations =  1.2

     negative rho (up, down):  7.812E-01 0.000E+00

     total cpu time spent up to now is      152.6 secs

     total energy              =   -4400.12291475 Ry
     estimated scf accuracy    <       0.95856206 Ry

     iteration # 12     ecut=    60.00 Ry     beta= 0.15
     Davidson diagonalization with overlap

---- Real-time Memory Report at c_bands before calling an iterative solver
             0 MiB given to the printing process from OS
             0 MiB allocation reported by mallinfo(arena+hblkhd)
        169276 MiB available memory on the node where the printing process lives
------------------
     ethr =  2.26E-04,  avg # of iterations =  5.8

     negative rho (up, down):  7.938E-01 0.000E+00

     total cpu time spent up to now is      167.9 secs

     total energy              =   -4400.04353632 Ry
     estimated scf accuracy    <       0.76377506 Ry

     iteration # 13     ecut=    60.00 Ry     beta= 0.15
     Davidson diagonalization with overlap

---- Real-time Memory Report at c_bands before calling an iterative solver
             0 MiB given to the printing process from OS
             0 MiB allocation reported by mallinfo(arena+hblkhd)
        169202 MiB available memory on the node where the printing process lives
------------------
     ethr =  1.80E-04,  avg # of iterations =  2.0

     negative rho (up, down):  8.006E-01 0.000E+00

     total cpu time spent up to now is      181.2 secs

     total energy              =   -4400.06595266 Ry
     estimated scf accuracy    <       1.15408733 Ry

     iteration # 14     ecut=    60.00 Ry     beta= 0.15
     Davidson diagonalization with overlap

---- Real-time Memory Report at c_bands before calling an iterative solver
             0 MiB given to the printing process from OS
             0 MiB allocation reported by mallinfo(arena+hblkhd)
        169202 MiB available memory on the node where the printing process lives
------------------
     ethr =  1.80E-04,  avg # of iterations =  8.1

     negative rho (up, down):  8.053E-01 0.000E+00

     total cpu time spent up to now is      196.9 secs

     total energy              =   -4400.01071443 Ry
     estimated scf accuracy    <       1.32543299 Ry

     iteration # 15     ecut=    60.00 Ry     beta= 0.15
     Davidson diagonalization with overlap

---- Real-time Memory Report at c_bands before calling an iterative solver
             0 MiB given to the printing process from OS
             0 MiB allocation reported by mallinfo(arena+hblkhd)
        169186 MiB available memory on the node where the printing process lives
------------------
     ethr =  1.80E-04,  avg # of iterations =  5.1

     negative rho (up, down):  8.067E-01 0.000E+00

     total cpu time spent up to now is      211.7 secs

     total energy              =   -4400.03143998 Ry
     estimated scf accuracy    <       0.53502442 Ry

     iteration # 16     ecut=    60.00 Ry     beta= 0.15
     Davidson diagonalization with overlap

---- Real-time Memory Report at c_bands before calling an iterative solver
             0 MiB given to the printing process from OS
             0 MiB allocation reported by mallinfo(arena+hblkhd)
        169177 MiB available memory on the node where the printing process lives
------------------
     ethr =  1.26E-04,  avg # of iterations =  1.2

     negative rho (up, down):  8.085E-01 0.000E+00

     total cpu time spent up to now is      224.0 secs

     total energy              =   -4399.98947462 Ry
     estimated scf accuracy    <       0.30991656 Ry

     iteration # 17     ecut=    60.00 Ry     beta= 0.15
     Davidson diagonalization with overlap

---- Real-time Memory Report at c_bands before calling an iterative solver
             0 MiB given to the printing process from OS
             0 MiB allocation reported by mallinfo(arena+hblkhd)
        169179 MiB available memory on the node where the printing process lives
------------------
     ethr =  7.29E-05,  avg # of iterations =  6.9

     negative rho (up, down):  8.125E-01 0.000E+00

     total cpu time spent up to now is      239.5 secs

     total energy              =   -4399.95629766 Ry
     estimated scf accuracy    <       0.83133378 Ry

     iteration # 18     ecut=    60.00 Ry     beta= 0.15
     Davidson diagonalization with overlap

---- Real-time Memory Report at c_bands before calling an iterative solver
             0 MiB given to the printing process from OS
             0 MiB allocation reported by mallinfo(arena+hblkhd)
        169181 MiB available memory on the node where the printing process lives
------------------
     ethr =  7.29E-05,  avg # of iterations =  8.9

     negative rho (up, down):  8.223E-01 0.000E+00

     total cpu time spent up to now is      256.2 secs

     total energy              =   -4399.93710529 Ry
     estimated scf accuracy    <       0.18246614 Ry

     iteration # 19     ecut=    60.00 Ry     beta= 0.15
     Davidson diagonalization with overlap

---- Real-time Memory Report at c_bands before calling an iterative solver
             0 MiB given to the printing process from OS
             0 MiB allocation reported by mallinfo(arena+hblkhd)
        169153 MiB available memory on the node where the printing process lives
------------------
     ethr =  4.29E-05,  avg # of iterations = 10.3

     negative rho (up, down):  8.253E-01 0.000E+00

     total cpu time spent up to now is      274.2 secs

     total energy              =   -4399.93183607 Ry
     estimated scf accuracy    <       0.10854288 Ry

     iteration # 20     ecut=    60.00 Ry     beta= 0.15
     Davidson diagonalization with overlap

---- Real-time Memory Report at c_bands before calling an iterative solver
             0 MiB given to the printing process from OS
             0 MiB allocation reported by mallinfo(arena+hblkhd)
        169116 MiB available memory on the node where the printing process lives
------------------
     ethr =  2.55E-05,  avg # of iterations =  2.5

     negative rho (up, down):  8.243E-01 0.000E+00

     total cpu time spent up to now is      287.7 secs

     total energy              =   -4399.92336931 Ry
     estimated scf accuracy    <       0.07892938 Ry

     iteration # 21     ecut=    60.00 Ry     beta= 0.15
     Davidson diagonalization with overlap

---- Real-time Memory Report at c_bands before calling an iterative solver
             0 MiB given to the printing process from OS
             0 MiB allocation reported by mallinfo(arena+hblkhd)
        169121 MiB available memory on the node where the printing process lives
------------------
     ethr =  1.86E-05,  avg # of iterations =  8.5

     negative rho (up, down):  8.087E-01 0.000E+00

     total cpu time spent up to now is      303.9 secs

     total energy              =   -4399.91988557 Ry
     estimated scf accuracy    <       0.05635449 Ry

     iteration # 22     ecut=    60.00 Ry     beta= 0.15
     Davidson diagonalization with overlap

---- Real-time Memory Report at c_bands before calling an iterative solver
             0 MiB given to the printing process from OS
             0 MiB allocation reported by mallinfo(arena+hblkhd)
        169106 MiB available memory on the node where the printing process lives
------------------
     c_bands:  1 eigenvalues not converged
     ethr =  1.33E-05,  avg # of iterations =  3.8

     negative rho (up, down):  7.994E-01 0.000E+00

     total cpu time spent up to now is      318.2 secs

     total energy              =   -4399.91165527 Ry
     estimated scf accuracy    <       0.04334923 Ry

     iteration # 23     ecut=    60.00 Ry     beta= 0.15
     Davidson diagonalization with overlap

---- Real-time Memory Report at c_bands before calling an iterative solver
             0 MiB given to the printing process from OS
             0 MiB allocation reported by mallinfo(arena+hblkhd)
        169115 MiB available memory on the node where the printing process lives
------------------
     ethr =  1.02E-05,  avg # of iterations =  9.9

     negative rho (up, down):  8.025E-01 0.000E+00

     total cpu time spent up to now is      335.6 secs

     total energy              =   -4399.91100778 Ry
     estimated scf accuracy    <       0.01973971 Ry

     iteration # 24     ecut=    60.00 Ry     beta= 0.15
     Davidson diagonalization with overlap

---- Real-time Memory Report at c_bands before calling an iterative solver
             0 MiB given to the printing process from OS
             0 MiB allocation reported by mallinfo(arena+hblkhd)
        169071 MiB available memory on the node where the printing process lives
------------------
     ethr =  4.64E-06,  avg # of iterations = 10.4

     negative rho (up, down):  7.984E-01 0.000E+00

     total cpu time spent up to now is      352.8 secs

     total energy              =   -4399.91111255 Ry
     estimated scf accuracy    <       0.01296553 Ry

     iteration # 25     ecut=    60.00 Ry     beta= 0.15
     Davidson diagonalization with overlap

---- Real-time Memory Report at c_bands before calling an iterative solver
             0 MiB given to the printing process from OS
             0 MiB allocation reported by mallinfo(arena+hblkhd)
        169036 MiB available memory on the node where the printing process lives
------------------
     ethr =  3.05E-06,  avg # of iterations =  1.8

     negative rho (up, down):  7.886E-01 0.000E+00

     total cpu time spent up to now is      366.2 secs

     total energy              =   -4399.90930237 Ry
     estimated scf accuracy    <       0.01112550 Ry

     iteration # 26     ecut=    60.00 Ry     beta= 0.15
     Davidson diagonalization with overlap

---- Real-time Memory Report at c_bands before calling an iterative solver
             0 MiB given to the printing process from OS
             0 MiB allocation reported by mallinfo(arena+hblkhd)
        169060 MiB available memory on the node where the printing process lives
------------------
     c_bands:  1 eigenvalues not converged
     ethr =  2.62E-06,  avg # of iterations =  9.3

     negative rho (up, down):  7.946E-01 0.000E+00

     total cpu time spent up to now is      382.9 secs

     total energy              =   -4399.90874038 Ry
     estimated scf accuracy    <       0.00590425 Ry

     iteration # 27     ecut=    60.00 Ry     beta= 0.15
     Davidson diagonalization with overlap

---- Real-time Memory Report at c_bands before calling an iterative solver
             0 MiB given to the printing process from OS
             0 MiB allocation reported by mallinfo(arena+hblkhd)
        169026 MiB available memory on the node where the printing process lives
------------------
     ethr =  1.39E-06,  avg # of iterations = 13.9

     negative rho (up, down):  7.979E-01 0.000E+00

     total cpu time spent up to now is      402.7 secs

     total energy              =   -4399.90901636 Ry
     estimated scf accuracy    <       0.00203075 Ry

     iteration # 28     ecut=    60.00 Ry     beta= 0.15
     Davidson diagonalization with overlap

---- Real-time Memory Report at c_bands before calling an iterative solver
             0 MiB given to the printing process from OS
             0 MiB allocation reported by mallinfo(arena+hblkhd)
        168994 MiB available memory on the node where the printing process lives
------------------
     c_bands:  1 eigenvalues not converged
     c_bands:  1 eigenvalues not converged
     ethr =  4.78E-07,  avg # of iterations = 12.9

     negative rho (up, down):  7.988E-01 0.000E+00

     total cpu time spent up to now is      420.5 secs

     total energy              =   -4399.90908716 Ry
     estimated scf accuracy    <       0.00065213 Ry

     iteration # 29     ecut=    60.00 Ry     beta= 0.15
     Davidson diagonalization with overlap

---- Real-time Memory Report at c_bands before calling an iterative solver
             0 MiB given to the printing process from OS
             0 MiB allocation reported by mallinfo(arena+hblkhd)
        168954 MiB available memory on the node where the printing process lives
------------------
     c_bands:  1 eigenvalues not converged
     ethr =  1.53E-07,  avg # of iterations =  9.2

     negative rho (up, down):  7.970E-01 0.000E+00

     total cpu time spent up to now is      436.8 secs

     total energy              =   -4399.90900346 Ry
     estimated scf accuracy    <       0.00037820 Ry

     iteration # 30     ecut=    60.00 Ry     beta= 0.15
     Davidson diagonalization with overlap

---- Real-time Memory Report at c_bands before calling an iterative solver
             0 MiB given to the printing process from OS
             0 MiB allocation reported by mallinfo(arena+hblkhd)
        168969 MiB available memory on the node where the printing process lives
------------------
     ethr =  8.90E-08,  avg # of iterations =  5.1

     negative rho (up, down):  7.953E-01 0.000E+00

     total cpu time spent up to now is      451.5 secs

     total energy              =   -4399.90894675 Ry
     estimated scf accuracy    <       0.00020956 Ry

     iteration # 31     ecut=    60.00 Ry     beta= 0.15
     Davidson diagonalization with overlap

---- Real-time Memory Report at c_bands before calling an iterative solver
             0 MiB given to the printing process from OS
             0 MiB allocation reported by mallinfo(arena+hblkhd)
        169033 MiB available memory on the node where the printing process lives
------------------
     ethr =  4.93E-08,  avg # of iterations =  2.7

     negative rho (up, down):  7.930E-01 0.000E+00

     total cpu time spent up to now is      466.1 secs

     total energy              =   -4399.90896017 Ry
     estimated scf accuracy    <       0.00008905 Ry

     iteration # 32     ecut=    60.00 Ry     beta= 0.15
     Davidson diagonalization with overlap

---- Real-time Memory Report at c_bands before calling an iterative solver
             0 MiB given to the printing process from OS
             0 MiB allocation reported by mallinfo(arena+hblkhd)
        169036 MiB available memory on the node where the printing process lives
------------------
     ethr =  2.10E-08,  avg # of iterations =  4.8

     negative rho (up, down):  7.930E-01 0.000E+00

     total cpu time spent up to now is      480.6 secs

     total energy              =   -4399.90897168 Ry
     estimated scf accuracy    <       0.00003309 Ry

     iteration # 33     ecut=    60.00 Ry     beta= 0.15
     Davidson diagonalization with overlap

---- Real-time Memory Report at c_bands before calling an iterative solver
             0 MiB given to the printing process from OS
             0 MiB allocation reported by mallinfo(arena+hblkhd)
        169109 MiB available memory on the node where the printing process lives
------------------
     ethr =  7.78E-09,  avg # of iterations =  2.1

     negative rho (up, down):  7.927E-01 0.000E+00

     total cpu time spent up to now is      494.6 secs

     total energy              =   -4399.90897380 Ry
     estimated scf accuracy    <       0.00001895 Ry

     iteration # 34     ecut=    60.00 Ry     beta= 0.15
     Davidson diagonalization with overlap

---- Real-time Memory Report at c_bands before calling an iterative solver
             0 MiB given to the printing process from OS
             0 MiB allocation reported by mallinfo(arena+hblkhd)
        169133 MiB available memory on the node where the printing process lives
------------------
     ethr =  4.46E-09,  avg # of iterations =  2.3

     negative rho (up, down):  7.923E-01 0.000E+00

     total cpu time spent up to now is      508.2 secs

     total energy              =   -4399.90897801 Ry
     estimated scf accuracy    <       0.00001098 Ry

     iteration # 35     ecut=    60.00 Ry     beta= 0.15
     Davidson diagonalization with overlap

---- Real-time Memory Report at c_bands before calling an iterative solver
             0 MiB given to the printing process from OS
             0 MiB allocation reported by mallinfo(arena+hblkhd)
        169131 MiB available memory on the node where the printing process lives
------------------
     ethr =  2.58E-09,  avg # of iterations =  4.1

     negative rho (up, down):  7.923E-01 0.000E+00

     total cpu time spent up to now is      523.5 secs

     total energy              =   -4399.90897935 Ry
     estimated scf accuracy    <       0.00000432 Ry

     iteration # 36     ecut=    60.00 Ry     beta= 0.15
     Davidson diagonalization with overlap

---- Real-time Memory Report at c_bands before calling an iterative solver
             0 MiB given to the printing process from OS
             0 MiB allocation reported by mallinfo(arena+hblkhd)
        169112 MiB available memory on the node where the printing process lives
------------------
     ethr =  1.02E-09,  avg # of iterations =  1.3

     negative rho (up, down):  7.923E-01 0.000E+00

     total cpu time spent up to now is      535.9 secs

     total energy              =   -4399.90897995 Ry
     estimated scf accuracy    <       0.00000333 Ry

     iteration # 37     ecut=    60.00 Ry     beta= 0.15
     Davidson diagonalization with overlap

---- Real-time Memory Report at c_bands before calling an iterative solver
             0 MiB given to the printing process from OS
             0 MiB allocation reported by mallinfo(arena+hblkhd)
        169127 MiB available memory on the node where the printing process lives
------------------
     ethr =  7.82E-10,  avg # of iterations =  2.2

     negative rho (up, down):  7.923E-01 0.000E+00

     total cpu time spent up to now is      549.5 secs

     total energy              =   -4399.90898018 Ry
     estimated scf accuracy    <       0.00000327 Ry

     iteration # 38     ecut=    60.00 Ry     beta= 0.15
     Davidson diagonalization with overlap

---- Real-time Memory Report at c_bands before calling an iterative solver
             0 MiB given to the printing process from OS
             0 MiB allocation reported by mallinfo(arena+hblkhd)
        169130 MiB available memory on the node where the printing process lives
------------------
     ethr =  7.69E-10,  avg # of iterations =  1.1

     negative rho (up, down):  7.924E-01 0.000E+00

     total cpu time spent up to now is      561.7 secs

     total energy              =   -4399.90898038 Ry
     estimated scf accuracy    <       0.00000270 Ry

     iteration # 39     ecut=    60.00 Ry     beta= 0.15
     Davidson diagonalization with overlap

---- Real-time Memory Report at c_bands before calling an iterative solver
             0 MiB given to the printing process from OS
             0 MiB allocation reported by mallinfo(arena+hblkhd)
        169132 MiB available memory on the node where the printing process lives
------------------
     ethr =  6.36E-10,  avg # of iterations =  1.9

     negative rho (up, down):  7.925E-01 0.000E+00

     total cpu time spent up to now is      575.0 secs

     total energy              =   -4399.90898061 Ry
     estimated scf accuracy    <       0.00000192 Ry

     iteration # 40     ecut=    60.00 Ry     beta= 0.15
     Davidson diagonalization with overlap

---- Real-time Memory Report at c_bands before calling an iterative solver
             0 MiB given to the printing process from OS
             0 MiB allocation reported by mallinfo(arena+hblkhd)
        169149 MiB available memory on the node where the printing process lives
------------------
     ethr =  4.52E-10,  avg # of iterations =  2.4

     negative rho (up, down):  7.925E-01 0.000E+00

     total cpu time spent up to now is      588.6 secs

     total energy              =   -4399.90898068 Ry
     estimated scf accuracy    <       0.00000062 Ry

     iteration # 41     ecut=    60.00 Ry     beta= 0.15
     Davidson diagonalization with overlap

---- Real-time Memory Report at c_bands before calling an iterative solver
             0 MiB given to the printing process from OS
             0 MiB allocation reported by mallinfo(arena+hblkhd)
        169148 MiB available memory on the node where the printing process lives
------------------
     ethr =  1.47E-10,  avg # of iterations =  2.1

     negative rho (up, down):  7.924E-01 0.000E+00

     total cpu time spent up to now is      602.1 secs

     total energy              =   -4399.90898067 Ry
     estimated scf accuracy    <       0.00000038 Ry

     iteration # 42     ecut=    60.00 Ry     beta= 0.15
     Davidson diagonalization with overlap

---- Real-time Memory Report at c_bands before calling an iterative solver
             0 MiB given to the printing process from OS
             0 MiB allocation reported by mallinfo(arena+hblkhd)
        169150 MiB available memory on the node where the printing process lives
------------------
     ethr =  9.05E-11,  avg # of iterations =  2.2

     negative rho (up, down):  7.924E-01 0.000E+00

     total cpu time spent up to now is      615.8 secs

     total energy              =   -4399.90898053 Ry
     estimated scf accuracy    <       0.00000023 Ry

     iteration # 43     ecut=    60.00 Ry     beta= 0.15
     Davidson diagonalization with overlap

---- Real-time Memory Report at c_bands before calling an iterative solver
             0 MiB given to the printing process from OS
             0 MiB allocation reported by mallinfo(arena+hblkhd)
        169158 MiB available memory on the node where the printing process lives
------------------
     ethr =  5.44E-11,  avg # of iterations =  2.9

     negative rho (up, down):  7.924E-01 0.000E+00

     total cpu time spent up to now is      629.7 secs

     total energy              =   -4399.90898052 Ry
     estimated scf accuracy    <       0.00000009 Ry

     iteration # 44     ecut=    60.00 Ry     beta= 0.15
     Davidson diagonalization with overlap

---- Real-time Memory Report at c_bands before calling an iterative solver
             0 MiB given to the printing process from OS
             0 MiB allocation reported by mallinfo(arena+hblkhd)
        169149 MiB available memory on the node where the printing process lives
------------------
     ethr =  2.20E-11,  avg # of iterations =  2.0

     negative rho (up, down):  7.924E-01 0.000E+00

     total cpu time spent up to now is      643.2 secs

     total energy              =   -4399.90898050 Ry
     estimated scf accuracy    <       0.00000007 Ry

     iteration # 45     ecut=    60.00 Ry     beta= 0.15
     Davidson diagonalization with overlap

---- Real-time Memory Report at c_bands before calling an iterative solver
             0 MiB given to the printing process from OS
             0 MiB allocation reported by mallinfo(arena+hblkhd)
        169150 MiB available memory on the node where the printing process lives
------------------
     ethr =  1.76E-11,  avg # of iterations =  2.3

     negative rho (up, down):  7.924E-01 0.000E+00

     total cpu time spent up to now is      656.6 secs

     total energy              =   -4399.90898056 Ry
     estimated scf accuracy    <       0.00000005 Ry

     iteration # 46     ecut=    60.00 Ry     beta= 0.15
     Davidson diagonalization with overlap

---- Real-time Memory Report at c_bands before calling an iterative solver
             0 MiB given to the printing process from OS
             0 MiB allocation reported by mallinfo(arena+hblkhd)
        169151 MiB available memory on the node where the printing process lives
------------------
     ethr =  1.08E-11,  avg # of iterations =  2.4

     negative rho (up, down):  7.924E-01 0.000E+00

     total cpu time spent up to now is      670.2 secs

     total energy              =   -4399.90898063 Ry
     estimated scf accuracy    <       0.00000004 Ry

     iteration # 47     ecut=    60.00 Ry     beta= 0.15
     Davidson diagonalization with overlap

---- Real-time Memory Report at c_bands before calling an iterative solver
             0 MiB given to the printing process from OS
             0 MiB allocation reported by mallinfo(arena+hblkhd)
        169148 MiB available memory on the node where the printing process lives
------------------
     ethr =  8.29E-12,  avg # of iterations =  3.6

     negative rho (up, down):  7.924E-01 0.000E+00

     total cpu time spent up to now is      684.4 secs

     total energy              =   -4399.90898065 Ry
     estimated scf accuracy    <       0.00000001 Ry

     iteration # 48     ecut=    60.00 Ry     beta= 0.15
     Davidson diagonalization with overlap

---- Real-time Memory Report at c_bands before calling an iterative solver
             0 MiB given to the printing process from OS
             0 MiB allocation reported by mallinfo(arena+hblkhd)
        169149 MiB available memory on the node where the printing process lives
------------------
     ethr =  3.07E-12,  avg # of iterations =  3.5

     negative rho (up, down):  7.924E-01 0.000E+00

     total cpu time spent up to now is      698.4 secs

     End of self-consistent calculation

          k = 0.0000 0.0000 0.0000 ( 65197 PWs)   bands (ev):

   -92.6923 -92.6360 -92.5457 -92.4915 -92.4393 -92.3984 -92.3810 -92.2580
   -56.0457 -56.0223 -55.9032 -55.8929 -55.8804 -55.8798 -55.8410 -55.8150
   -55.7995 -55.7978 -55.7872 -55.7472 -55.7258 -55.6905 -55.6719 -55.6395
   -55.6229 -55.5868 -55.5839 -55.5837 -55.5753 -55.5328 -55.5114 -55.4253
   -31.2692 -31.2496 -31.1271 -31.1082 -31.0384 -31.0210 -30.8685 -30.7475
   -29.8415 -29.7977 -29.7725 -29.6634 -15.0731 -15.0350 -14.9513 -14.8204
   -14.6347 -14.5097 -14.2133 -14.1965 -14.1634 -14.1207 -14.0775 -14.0684
   -14.0557 -14.0397 -14.0168 -13.9851 -13.9236 -13.7740 -13.6033 -13.5631
   -13.5305 -13.5067 -13.4845 -13.4344 -13.3975 -13.3137 -13.2425 -13.1478
   -13.1288 -13.1019 -13.0883 -13.0669 -13.0497 -13.0263 -12.9994 -12.9855
   -12.9579 -12.9344 -12.9258 -12.9135 -12.8988 -12.8878 -12.8212 -12.8065
   -12.7750 -12.6904 -12.6542 -12.6526 -12.3339 -12.1883 -12.0480 -11.9798
   -11.8550 -11.7806 -11.7695 -11.7470 -11.7294 -11.6655 -11.6482 -11.6135
   -11.5848 -11.4730 -11.3927 -11.3892  -2.9350  -2.7018  -2.4723  -2.3262
    -2.2624  -2.1194  -1.8128  -1.7990  -1.7782  -1.6958  -1.6767  -1.6083
    -1.5921  -1.5504  -1.5063  -1.3252  -1.1028  -1.0729  -0.9227  -0.9090
    -0.8652  -0.8474  -0.8015  -0.7857  -0.7266  -0.7001  -0.6302  -0.6175
    -0.5392  -0.4083  -0.3946  -0.3681  -0.2899  -0.2853  -0.2641  -0.1956
    -0.1225  -0.0835  -0.0284  -0.0020   0.0544   0.1348   0.1870   0.2063
     0.2172   0.4735   0.4886   0.6582   0.7288   0.7934   0.8329   0.9264
     0.9416   0.9561   1.0273   1.0542   1.0885   1.1477   1.2807   1.3357
     1.3566   1.3741   1.3861   1.4541   1.5301   1.6287   1.6393   1.7050
     1.7219   1.7615   1.7795   1.7853   1.8424   1.8955   1.9016   1.9410
     1.9708   2.0300   2.1612   2.2439   2.2894   2.3018   2.4596   2.4710
     2.5152   2.5213   2.6266   2.6628   2.6875   2.7071   2.7211   2.7811
     2.8266   2.9259   2.9462   2.9590   2.9666   3.0347   3.0397   3.0612
     3.0695   3.0776   3.0939   3.0977   3.1092   3.1150   3.1292   3.1371
     3.1448   3.1649   3.1863   3.1913   3.2038   3.2635   3.3458   3.4451
     4.1152   4.4460   4.7838   4.8719   5.0426   5.7555   5.9508   6.0107
     6.0210   6.3225   6.3699   6.4912   6.5007   6.7251   7.0155   7.0986
     7.1043   7.1693   7.3217   7.5712   7.6688   7.6874   7.7233   7.9466
     7.9644   8.0912   8.1228   8.1392   8.4168   8.6343   8.6841   8.8246

     occupation numbers 
     1.0000   1.0000   1.0000   1.0000   1.0000   1.0000   1.0000   1.0000
     1.0000   1.0000   1.0000   1.0000   1.0000   1.0000   1.0000   1.0000
     1.0000   1.0000   1.0000   1.0000   1.0000   1.0000   1.0000   1.0000
     1.0000   1.0000   1.0000   1.0000   1.0000   1.0000   1.0000   1.0000
     1.0000   1.0000   1.0000   1.0000   1.0000   1.0000   1.0000   1.0000
     1.0000   1.0000   1.0000   1.0000   1.0000   1.0000   1.0000   1.0000
     1.0000   1.0000   1.0000   1.0000   1.0000   1.0000   1.0000   1.0000
     1.0000   1.0000   1.0000   1.0000   1.0000   1.0000   1.0000   1.0000
     1.0000   1.0000   1.0000   1.0000   1.0000   1.0000   1.0000   1.0000
     1.0000   1.0000   1.0000   1.0000   1.0000   1.0000   1.0000   1.0000
     1.0000   1.0000   1.0000   1.0000   1.0000   1.0000   1.0000   1.0000
     1.0000   1.0000   1.0000   1.0000   1.0000   1.0000   1.0000   1.0000
     1.0000   1.0000   1.0000   1.0000   1.0000   1.0000   1.0000   1.0000
     1.0000   1.0000   1.0000   1.0000   1.0000   1.0000   1.0000   1.0000
     1.0000   1.0000   1.0000   1.0000   1.0000   1.0000   1.0000   1.0000
     1.0000   1.0000   1.0000   1.0000   1.0000   1.0000   1.0000   1.0000
     1.0000   1.0000   1.0000   1.0000   1.0000   1.0000   1.0000   1.0000
     1.0000   1.0000   1.0000   1.0000   1.0000   1.0000   1.0000   1.0000
     1.0000   1.0000   1.0000   1.0000   1.0000   1.0000   1.0000   1.0000
     1.0000   1.0000   1.0000   1.0000   0.9999   0.9999   0.9999   0.9998
     0.9998   0.9998   0.9997   0.9996   0.9996   0.9994   0.9989   0.9985
     0.9984   0.9982   0.9981   0.9974   0.9963   0.9944   0.9941   0.9923
     0.9917   0.9903   0.9896   0.9893   0.9867   0.9838   0.9834   0.9808
     0.9786   0.9737   0.9594   0.9475   0.9398   0.9376   0.9033   0.9004
     0.8884   0.8867   0.8538   0.8411   0.8320   0.8246   0.8192   0.7948
     0.7751   0.7285   0.7184   0.7119   0.7081   0.6724   0.6698   0.6581
     0.6536   0.6492   0.6401   0.6380   0.6316   0.6283   0.6203   0.6158
     0.6115   0.6000   0.5877   0.5848   0.5775   0.5426   0.4939   0.4354
     0.1235   0.0496   0.0158   0.0113   0.0056   0.0002   0.0001   0.0000
     0.0000   0.0000   0.0000   0.0000   0.0000   0.0000   0.0000   0.0000
     0.0000   0.0000   0.0000   0.0000   0.0000   0.0000   0.0000   0.0000
     0.0000   0.0000   0.0000   0.0000   0.0000   0.0000   0.0000   0.0000

          k = 0.0000 0.2500 0.0000 ( 65257 PWs)   bands (ev):

   -92.6923 -92.6360 -92.5457 -92.4915 -92.4393 -92.3984 -92.3810 -92.2580
   -56.0457 -56.0223 -55.9032 -55.8929 -55.8804 -55.8798 -55.8410 -55.8150
   -55.7995 -55.7978 -55.7872 -55.7472 -55.7258 -55.6905 -55.6719 -55.6395
   -55.6229 -55.5868 -55.5839 -55.5837 -55.5753 -55.5328 -55.5114 -55.4253
   -31.2690 -31.2495 -31.1268 -31.1084 -31.0387 -31.0212 -30.8683 -30.7478
   -29.8409 -29.7974 -29.7731 -29.6637 -15.0363 -15.0087 -14.9262 -14.7913
   -14.6740 -14.5010 -14.3588 -14.1787 -14.1484 -14.1247 -14.0969 -14.0403
   -14.0339 -14.0183 -14.0022 -13.9642 -13.8433 -13.8047 -13.6408 -13.6280
   -13.5722 -13.5381 -13.4984 -13.4505 -13.4138 -13.3356 -13.3000 -13.2580
   -13.2026 -13.1397 -13.1159 -13.0989 -13.0777 -12.9997 -12.9705 -12.9434
   -12.9249 -12.8957 -12.8746 -12.8606 -12.8481 -12.8141 -12.7885 -12.7739
   -12.7548 -12.6902 -12.5704 -12.5110 -12.3952 -12.2395 -12.1040 -12.0462
   -11.8205 -11.7774 -11.7498 -11.7215 -11.7047 -11.6574 -11.6460 -11.6236
   -11.5894 -11.4873 -11.4344 -11.4238  -2.7998  -2.5774  -2.4402  -2.2581
    -2.2145  -2.0503  -1.8319  -1.7461  -1.7331  -1.6772  -1.5736  -1.5584
    -1.5243  -1.4979  -1.4543  -1.2564  -1.1282  -1.1162  -1.0408  -1.0294
    -0.9249  -0.8939  -0.8385  -0.8139  -0.7707  -0.7083  -0.6823  -0.6496
    -0.6182  -0.6013  -0.5684  -0.4934  -0.4430  -0.3857  -0.2687  -0.2523
    -0.2064  -0.0867  -0.0540   0.0083   0.0576   0.1138   0.1350   0.1656
     0.2239   0.5200   0.6086   0.6398   0.7268   0.7708   0.7904   0.9153
     0.9334   1.0264   1.0533   1.0817   1.1966   1.2853   1.3111   1.3339
     1.3505   1.3810   1.4411   1.4669   1.4943   1.5435   1.5759   1.6050
     1.6839   1.7162   1.7581   1.8078   1.8631   1.9070   1.9305   1.9514
     1.9782   2.0593   2.1976   2.2679   2.2856   2.3659   2.4146   2.4476
     2.4599   2.5200   2.5622   2.6445   2.6793   2.6970   2.8038   2.8746
     2.9087   2.9291   2.9494   2.9681   2.9752   2.9823   3.0010   3.0215
     3.0239   3.0432   3.0482   3.0580   3.0765   3.0912   3.0978   3.1169
     3.1265   3.1312   3.1668   3.1845   3.2460   3.6224   3.6685   3.8855
     4.2983   4.4515   4.7138   5.0286   5.0683   5.6357   5.7591   5.8938
     6.0038   6.1001   6.1183   6.1952   6.6078   6.8393   6.8919   7.1190
     7.2588   7.3400   7.4921   7.5071   7.6525   7.7395   7.8074   7.9519
     8.0544   8.0833   8.1740   8.3102   8.4173   8.4372   8.7620   8.8714

     occupation numbers 
     1.0000   1.0000   1.0000   1.0000   1.0000   1.0000   1.0000   1.0000
     1.0000   1.0000   1.0000   1.0000   1.0000   1.0000   1.0000   1.0000
     1.0000   1.0000   1.0000   1.0000   1.0000   1.0000   1.0000   1.0000
     1.0000   1.0000   1.0000   1.0000   1.0000   1.0000   1.0000   1.0000
     1.0000   1.0000   1.0000   1.0000   1.0000   1.0000   1.0000   1.0000
     1.0000   1.0000   1.0000   1.0000   1.0000   1.0000   1.0000   1.0000
     1.0000   1.0000   1.0000   1.0000   1.0000   1.0000   1.0000   1.0000
     1.0000   1.0000   1.0000   1.0000   1.0000   1.0000   1.0000   1.0000
     1.0000   1.0000   1.0000   1.0000   1.0000   1.0000   1.0000   1.0000
     1.0000   1.0000   1.0000   1.0000   1.0000   1.0000   1.0000   1.0000
     1.0000   1.0000   1.0000   1.0000   1.0000   1.0000   1.0000   1.0000
     1.0000   1.0000   1.0000   1.0000   1.0000   1.0000   1.0000   1.0000
     1.0000   1.0000   1.0000   1.0000   1.0000   1.0000   1.0000   1.0000
     1.0000   1.0000   1.0000   1.0000   1.0000   1.0000   1.0000   1.0000
     1.0000   1.0000   1.0000   1.0000   1.0000   1.0000   1.0000   1.0000
     1.0000   1.0000   1.0000   1.0000   1.0000   1.0000   1.0000   1.0000
     1.0000   1.0000   1.0000   1.0000   1.0000   1.0000   1.0000   1.0000
     1.0000   1.0000   1.0000   1.0000   1.0000   1.0000   1.0000   1.0000
     1.0000   1.0000   1.0000   1.0000   1.0000   1.0000   1.0000   1.0000
     1.0000   1.0000   1.0000   1.0000   0.9999   0.9999   0.9999   0.9998
     0.9998   0.9997   0.9996   0.9996   0.9993   0.9988   0.9987   0.9985
     0.9984   0.9981   0.9975   0.9972   0.9969   0.9961   0.9955   0.9949
     0.9929   0.9919   0.9904   0.9884   0.9856   0.9830   0.9815   0.9801
     0.9781   0.9710   0.9545   0.9435   0.9405   0.9250   0.9143   0.9063
     0.9032   0.8870   0.8746   0.8476   0.8351   0.8285   0.7851   0.7532
     0.7369   0.7269   0.7168   0.7073   0.7037   0.7000   0.6903   0.6795
     0.6782   0.6679   0.6652   0.6598   0.6497   0.6416   0.6380   0.6272
     0.6218   0.6192   0.5989   0.5887   0.5529   0.3350   0.3105   0.2071
     0.0764   0.0488   0.0204   0.0060   0.0050   0.0003   0.0002   0.0001
     0.0000   0.0000   0.0000   0.0000   0.0000   0.0000   0.0000   0.0000
     0.0000   0.0000   0.0000   0.0000   0.0000   0.0000   0.0000   0.0000
     0.0000   0.0000   0.0000   0.0000   0.0000   0.0000   0.0000   0.0000

          k = 0.0000-0.5000 0.0000 ( 65180 PWs)   bands (ev):

   -92.6923 -92.6360 -92.5457 -92.4915 -92.4393 -92.3984 -92.3810 -92.2580
   -56.0457 -56.0223 -55.9032 -55.8929 -55.8804 -55.8798 -55.8410 -55.8150
   -55.7995 -55.7978 -55.7872 -55.7472 -55.7258 -55.6905 -55.6719 -55.6395
   -55.6229 -55.5868 -55.5839 -55.5837 -55.5753 -55.5328 -55.5114 -55.4253
   -31.2689 -31.2493 -31.1264 -31.1086 -31.0391 -31.0213 -30.8680 -30.7481
   -29.8403 -29.7971 -29.7737 -29.6641 -15.0035 -14.9545 -14.9025 -14.7781
   -14.6900 -14.5530 -14.4041 -14.2808 -14.1490 -14.0869 -14.0428 -14.0302
   -13.9830 -13.9638 -13.9170 -13.9009 -13.8727 -13.8367 -13.8129 -13.7690
   -13.5751 -13.5202 -13.5072 -13.4482 -13.4187 -13.3508 -13.3295 -13.2824
   -13.2745 -13.2093 -13.1116 -13.0983 -13.0657 -13.0333 -12.9596 -12.9459
   -12.9203 -12.8741 -12.8686 -12.8430 -12.8137 -12.7607 -12.7341 -12.6982
   -12.6941 -12.6429 -12.5062 -12.4381 -12.3148 -12.3057 -12.2109 -12.1690
   -11.7743 -11.7722 -11.7448 -11.7071 -11.6730 -11.6619 -11.6192 -11.6154
   -11.5709 -11.5090 -11.4950 -11.4807  -2.5853  -2.5255  -2.3742  -2.3018
    -2.0221  -1.9365  -1.8103  -1.6720  -1.6376  -1.6154  -1.5372  -1.5066
    -1.4242  -1.3889  -1.3128  -1.2714  -1.2323  -1.2054  -1.1496  -1.1113
    -1.0656  -1.0298  -0.9953  -0.9616  -0.8513  -0.8060  -0.7735  -0.7720
    -0.6860  -0.6530  -0.6307  -0.5820  -0.4982  -0.4249  -0.3477  -0.3205
    -0.2074  -0.1642  -0.0217   0.0044   0.0395   0.0912   0.2102   0.2666
     0.4000   0.4653   0.4726   0.6022   0.6436   0.7425   0.8813   0.9882
     1.0181   1.0551   1.0599   1.0989   1.1171   1.1540   1.1690   1.1813
     1.2919   1.3526   1.3765   1.4013   1.6617   1.6986   1.7168   1.8165
     1.8354   1.8712   1.8879   1.9173   1.9287   1.9359   1.9700   2.0065
     2.0342   2.0596   2.0732   2.1029   2.1568   2.2369   2.2674   2.4492
     2.6104   2.6213   2.6367   2.6593   2.6740   2.6879   2.7343   2.7524
     2.8061   2.8274   2.8307   2.9119   2.9194   2.9843   3.0082   3.0171
     3.0183   3.0391   3.0452   3.0502   3.0523   3.0598   3.0819   3.0865
     3.1012   3.1520   3.1596   3.1743   3.2271   4.1310   4.1775   4.2137
     4.2601   4.7437   4.9049   5.0376   5.1515   5.4206   5.4711   5.6026
     5.6953   5.9761   6.0459   6.0586   6.6686   6.8648   6.9610   7.2306
     7.3088   7.3121   7.4013   7.4791   7.6700   7.7600   7.8231   7.9185
     8.0986   8.2381   8.3423   8.5070   8.6740   8.7184   8.7960   8.8257

     occupation numbers 
     1.0000   1.0000   1.0000   1.0000   1.0000   1.0000   1.0000   1.0000
     1.0000   1.0000   1.0000   1.0000   1.0000   1.0000   1.0000   1.0000
     1.0000   1.0000   1.0000   1.0000   1.0000   1.0000   1.0000   1.0000
     1.0000   1.0000   1.0000   1.0000   1.0000   1.0000   1.0000   1.0000
     1.0000   1.0000   1.0000   1.0000   1.0000   1.0000   1.0000   1.0000
     1.0000   1.0000   1.0000   1.0000   1.0000   1.0000   1.0000   1.0000
     1.0000   1.0000   1.0000   1.0000   1.0000   1.0000   1.0000   1.0000
     1.0000   1.0000   1.0000   1.0000   1.0000   1.0000   1.0000   1.0000
     1.0000   1.0000   1.0000   1.0000   1.0000   1.0000   1.0000   1.0000
     1.0000   1.0000   1.0000   1.0000   1.0000   1.0000   1.0000   1.0000
     1.0000   1.0000   1.0000   1.0000   1.0000   1.0000   1.0000   1.0000
     1.0000   1.0000   1.0000   1.0000   1.0000   1.0000   1.0000   1.0000
     1.0000   1.0000   1.0000   1.0000   1.0000   1.0000   1.0000   1.0000
     1.0000   1.0000   1.0000   1.0000   1.0000   1.0000   1.0000   1.0000
     1.0000   1.0000   1.0000   1.0000   1.0000   1.0000   1.0000   1.0000
     1.0000   1.0000   1.0000   1.0000   1.0000   1.0000   1.0000   1.0000
     1.0000   1.0000   1.0000   1.0000   1.0000   1.0000   1.0000   1.0000
     1.0000   1.0000   1.0000   1.0000   1.0000   1.0000   1.0000   1.0000
     1.0000   1.0000   1.0000   1.0000   1.0000   1.0000   1.0000   1.0000
     1.0000   1.0000   1.0000   1.0000   1.0000   0.9999   0.9999   0.9998
     0.9997   0.9996   0.9996   0.9996   0.9995   0.9994   0.9994   0.9993
     0.9988   0.9984   0.9982   0.9980   0.9935   0.9925   0.9919   0.9880
     0.9870   0.9852   0.9842   0.9824   0.9816   0.9812   0.9787   0.9758
     0.9733   0.9709   0.9696   0.9664   0.9600   0.9486   0.9436   0.9059
     0.8592   0.8555   0.8503   0.8423   0.8370   0.8319   0.8140   0.8067
     0.7841   0.7747   0.7733   0.7353   0.7317   0.6990   0.6865   0.6818
     0.6812   0.6701   0.6668   0.6641   0.6630   0.6589   0.6468   0.6442
     0.6360   0.6074   0.6031   0.5946   0.5640   0.1188   0.1056   0.0961
     0.0849   0.0183   0.0099   0.0057   0.0035   0.0010   0.0008   0.0004
     0.0002   0.0000   0.0000   0.0000   0.0000   0.0000   0.0000   0.0000
     0.0000   0.0000   0.0000   0.0000   0.0000   0.0000   0.0000   0.0000
     0.0000   0.0000   0.0000   0.0000   0.0000   0.0000   0.0000   0.0000

          k = 0.2500 0.2500 0.0000 ( 65198 PWs)   bands (ev):

   -92.6923 -92.6360 -92.5457 -92.4915 -92.4393 -92.3984 -92.3810 -92.2580
   -56.0457 -56.0223 -55.9032 -55.8929 -55.8804 -55.8798 -55.8410 -55.8150
   -55.7995 -55.7978 -55.7872 -55.7472 -55.7258 -55.6905 -55.6719 -55.6395
   -55.6229 -55.5868 -55.5839 -55.5837 -55.5753 -55.5328 -55.5114 -55.4253
   -31.2674 -31.2511 -31.1267 -31.1081 -31.0386 -31.0216 -30.8684 -30.7479
   -29.8399 -29.7983 -29.7727 -29.6642 -15.0081 -14.9730 -14.8985 -14.7809
   -14.6661 -14.5405 -14.4644 -14.2628 -14.1021 -14.0899 -14.0555 -14.0256
   -14.0037 -13.9783 -13.9481 -13.9272 -13.8351 -13.8194 -13.6568 -13.6441
   -13.6149 -13.5929 -13.5580 -13.5040 -13.4549 -13.4184 -13.3147 -13.2871
   -13.2216 -13.1350 -13.0964 -13.0755 -13.0401 -13.0115 -12.9937 -12.9526
   -12.9382 -12.9176 -12.8855 -12.8520 -12.8104 -12.7733 -12.7357 -12.7121
   -12.7057 -12.6898 -12.5248 -12.4437 -12.4149 -12.2687 -12.1331 -12.0940
   -11.7928 -11.7608 -11.7502 -11.7432 -11.6804 -11.6456 -11.6389 -11.6036
   -11.5961 -11.5038 -11.4627 -11.4451  -2.6616  -2.4517  -2.3344  -2.2405
    -2.1189  -2.0533  -1.8571  -1.7113  -1.6913  -1.6636  -1.5685  -1.5344
    -1.4410  -1.4134  -1.3634  -1.2317  -1.1841  -1.1123  -1.0667  -1.0227
    -0.9986  -0.9732  -0.9318  -0.9156  -0.8256  -0.7758  -0.7128  -0.6627
    -0.6324  -0.5807  -0.5685  -0.5055  -0.4563  -0.4046  -0.3646  -0.2826
    -0.2270  -0.1995  -0.1588  -0.1043  -0.0327   0.0065   0.0294   0.1029
     0.1392   0.4129   0.5589   0.5977   0.6508   0.6948   0.7459   0.8028
     0.8651   0.9024   1.1747   1.2445   1.3185   1.3457   1.3892   1.4250
     1.4590   1.4962   1.5139   1.5421   1.5834   1.5922   1.6091   1.6499
     1.6918   1.7313   1.7868   1.8271   1.8326   1.8687   1.9032   1.9545
     1.9831   2.1005   2.1769   2.2152   2.2423   2.3003   2.3744   2.4020
     2.4373   2.4588   2.4754   2.5840   2.6215   2.7098   2.8412   2.8875
     2.9031   2.9092   2.9235   2.9393   2.9510   2.9651   2.9734   2.9855
     2.9945   3.0072   3.0260   3.0314   3.0442   3.0644   3.0785   3.0871
     3.1180   3.4197   3.5166   3.5519   3.6183   3.6948   3.8586   3.9627
     4.3072   4.5389   4.7229   4.9814   5.1757   5.6488   5.6836   5.7505
     5.8450   5.9021   5.9779   6.1751   6.2281   6.7416   6.9046   7.0378
     7.0878   7.5615   7.6108   7.6736   7.7207   7.8763   7.9343   8.0824
     8.1620   8.2148   8.2665   8.3170   8.4449   8.4598   8.5471   8.8490

     occupation numbers 
     1.0000   1.0000   1.0000   1.0000   1.0000   1.0000   1.0000   1.0000
     1.0000   1.0000   1.0000   1.0000   1.0000   1.0000   1.0000   1.0000
     1.0000   1.0000   1.0000   1.0000   1.0000   1.0000   1.0000   1.0000
     1.0000   1.0000   1.0000   1.0000   1.0000   1.0000   1.0000   1.0000
     1.0000   1.0000   1.0000   1.0000   1.0000   1.0000   1.0000   1.0000
     1.0000   1.0000   1.0000   1.0000   1.0000   1.0000   1.0000   1.0000
     1.0000   1.0000   1.0000   1.0000   1.0000   1.0000   1.0000   1.0000
     1.0000   1.0000   1.0000   1.0000   1.0000   1.0000   1.0000   1.0000
     1.0000   1.0000   1.0000   1.0000   1.0000   1.0000   1.0000   1.0000
     1.0000   1.0000   1.0000   1.0000   1.0000   1.0000   1.0000   1.0000
     1.0000   1.0000   1.0000   1.0000   1.0000   1.0000   1.0000   1.0000
     1.0000   1.0000   1.0000   1.0000   1.0000   1.0000   1.0000   1.0000
     1.0000   1.0000   1.0000   1.0000   1.0000   1.0000   1.0000   1.0000
     1.0000   1.0000   1.0000   1.0000   1.0000   1.0000   1.0000   1.0000
     1.0000   1.0000   1.0000   1.0000   1.0000   1.0000   1.0000   1.0000
     1.0000   1.0000   1.0000   1.0000   1.0000   1.0000   1.0000   1.0000
     1.0000   1.0000   1.0000   1.0000   1.0000   1.0000   1.0000   1.0000
     1.0000   1.0000   1.0000   1.0000   1.0000   1.0000   1.0000   1.0000
     1.0000   1.0000   1.0000   1.0000   1.0000   1.0000   1.0000   1.0000
     1.0000   1.0000   1.0000   1.0000   1.0000   1.0000   0.9999   0.9999
     0.9999   0.9998   0.9993   0.9990   0.9986   0.9984   0.9981   0.9977
     0.9973   0.9968   0.9966   0.9961   0.9954   0.9952   0.9948   0.9938
     0.9927   0.9914   0.9893   0.9874   0.9872   0.9853   0.9833   0.9798
     0.9777   0.9667   0.9573   0.9519   0.9477   0.9379   0.9232   0.9171
     0.9089   0.9035   0.8992   0.8678   0.8555   0.8236   0.7685   0.7470
     0.7396   0.7367   0.7297   0.7219   0.7160   0.7088   0.7046   0.6984
     0.6937   0.6871   0.6771   0.6742   0.6674   0.6564   0.6486   0.6439
     0.6266   0.4502   0.3940   0.3740   0.3373   0.2968   0.2187   0.1758
     0.0745   0.0370   0.0197   0.0073   0.0031   0.0003   0.0002   0.0002
     0.0001   0.0001   0.0000   0.0000   0.0000   0.0000   0.0000   0.0000
     0.0000   0.0000   0.0000   0.0000   0.0000   0.0000   0.0000   0.0000
     0.0000   0.0000   0.0000   0.0000   0.0000   0.0000   0.0000   0.0000

          k = 0.2500-0.5000 0.0000 ( 65138 PWs)   bands (ev):

   -92.6923 -92.6360 -92.5457 -92.4915 -92.4393 -92.3984 -92.3810 -92.2580
   -56.0457 -56.0223 -55.9032 -55.8929 -55.8804 -55.8798 -55.8410 -55.8150
   -55.7995 -55.7978 -55.7872 -55.7472 -55.7258 -55.6905 -55.6719 -55.6395
   -55.6229 -55.5868 -55.5839 -55.5837 -55.5753 -55.5328 -55.5114 -55.4253
   -31.2672 -31.2510 -31.1263 -31.1083 -31.0390 -31.0217 -30.8681 -30.7482
   -29.8393 -29.7980 -29.7733 -29.6645 -14.9730 -14.9275 -14.8593 -14.7471
   -14.7140 -14.5932 -14.5067 -14.3778 -14.0661 -14.0181 -13.9889 -13.9679
   -13.9516 -13.9355 -13.9025 -13.8891 -13.8544 -13.8120 -13.7973 -13.7608
   -13.6582 -13.6092 -13.5756 -13.5301 -13.4752 -13.4575 -13.3694 -13.3435
   -13.1982 -13.1337 -13.1168 -13.0535 -13.0203 -13.0098 -12.9785 -12.9591
   -12.9346 -12.9037 -12.8659 -12.8418 -12.8145 -12.7786 -12.7447 -12.7022
   -12.6467 -12.6151 -12.5128 -12.4166 -12.3123 -12.2795 -12.2020 -12.1724
   -11.7682 -11.7563 -11.7453 -11.7182 -11.6867 -11.6584 -11.6171 -11.5894
   -11.5672 -11.5220 -11.4962 -11.4848  -2.4438  -2.3774  -2.2481  -2.1707
    -2.0426  -1.9570  -1.8348  -1.6838  -1.6313  -1.6082  -1.5452  -1.5322
    -1.4350  -1.3683  -1.2826  -1.2345  -1.2248  -1.1608  -1.1195  -1.0836
    -1.0371  -1.0001  -0.9652  -0.9246  -0.9141  -0.8683  -0.8395  -0.7988
    -0.7677  -0.6999  -0.6007  -0.5588  -0.4817  -0.4173  -0.3711  -0.3254
    -0.3030  -0.2544  -0.0896  -0.0789   0.0168   0.0616   0.0672   0.1124
     0.1429   0.1823   0.2102   0.2825   0.5476   0.6414   0.7084   0.7682
     1.0334   1.0605   1.1482   1.1746   1.3416   1.3733   1.4181   1.4407
     1.4569   1.4773   1.5376   1.5820   1.6198   1.6979   1.7873   1.8301
     1.8496   1.8575   1.8979   1.9117   1.9136   1.9584   1.9725   1.9929
     2.0168   2.0391   2.0647   2.0951   2.1551   2.1925   2.2710   2.4116
     2.5630   2.5769   2.5969   2.6230   2.6501   2.6693   2.6994   2.7036
     2.7289   2.8329   2.8625   2.8942   2.9032   2.9160   2.9211   2.9423
     2.9554   2.9739   2.9815   3.0119   3.0243   3.0397   3.0486   3.0566
     3.0696   3.5963   3.6122   3.7518   3.8007   4.1525   4.1883   4.2309
     4.3204   4.7626   4.9281   5.0729   5.1297   5.3145   5.4391   5.6025
     5.6245   5.7743   5.7990   6.0875   6.4035   6.4928   6.5877   6.9456
     7.4416   7.5144   7.6971   7.7158   7.8201   7.8874   8.0480   8.1169
     8.2854   8.3870   8.4157   8.5249   8.5356   8.5758   8.7198   8.7720

     occupation numbers 
     1.0000   1.0000   1.0000   1.0000   1.0000   1.0000   1.0000   1.0000
     1.0000   1.0000   1.0000   1.0000   1.0000   1.0000   1.0000   1.0000
     1.0000   1.0000   1.0000   1.0000   1.0000   1.0000   1.0000   1.0000
     1.0000   1.0000   1.0000   1.0000   1.0000   1.0000   1.0000   1.0000
     1.0000   1.0000   1.0000   1.0000   1.0000   1.0000   1.0000   1.0000
     1.0000   1.0000   1.0000   1.0000   1.0000   1.0000   1.0000   1.0000
     1.0000   1.0000   1.0000   1.0000   1.0000   1.0000   1.0000   1.0000
     1.0000   1.0000   1.0000   1.0000   1.0000   1.0000   1.0000   1.0000
     1.0000   1.0000   1.0000   1.0000   1.0000   1.0000   1.0000   1.0000
     1.0000   1.0000   1.0000   1.0000   1.0000   1.0000   1.0000   1.0000
     1.0000   1.0000   1.0000   1.0000   1.0000   1.0000   1.0000   1.0000
     1.0000   1.0000   1.0000   1.0000   1.0000   1.0000   1.0000   1.0000
     1.0000   1.0000   1.0000   1.0000   1.0000   1.0000   1.0000   1.0000
     1.0000   1.0000   1.0000   1.0000   1.0000   1.0000   1.0000   1.0000
     1.0000   1.0000   1.0000   1.0000   1.0000   1.0000   1.0000   1.0000
     1.0000   1.0000   1.0000   1.0000   1.0000   1.0000   1.0000   1.0000
     1.0000   1.0000   1.0000   1.0000   1.0000   1.0000   1.0000   1.0000
     1.0000   1.0000   1.0000   1.0000   1.0000   1.0000   1.0000   1.0000
     1.0000   1.0000   1.0000   1.0000   1.0000   1.0000   1.0000   1.0000
     1.0000   1.0000   1.0000   1.0000   1.0000   1.0000   1.0000   0.9999
     0.9997   0.9996   0.9994   0.9993   0.9985   0.9982   0.9978   0.9976
     0.9974   0.9971   0.9962   0.9954   0.9946   0.9925   0.9892   0.9873
     0.9863   0.9859   0.9836   0.9828   0.9826   0.9796   0.9785   0.9769
     0.9749   0.9729   0.9704   0.9672   0.9602   0.9552   0.9430   0.9150
     0.8743   0.8700   0.8636   0.8550   0.8456   0.8388   0.8276   0.8260
     0.8161   0.7723   0.7588   0.7439   0.7396   0.7333   0.7308   0.7203
     0.7138   0.7044   0.7005   0.6846   0.6780   0.6698   0.6650   0.6606
     0.6535   0.3493   0.3406   0.2683   0.2449   0.1125   0.1027   0.0918
     0.0718   0.0170   0.0090   0.0049   0.0039   0.0016   0.0009   0.0004
     0.0003   0.0001   0.0001   0.0000   0.0000   0.0000   0.0000   0.0000
     0.0000   0.0000   0.0000   0.0000   0.0000   0.0000   0.0000   0.0000
     0.0000   0.0000   0.0000   0.0000   0.0000   0.0000   0.0000   0.0000

          k =-0.5000-0.5000 0.0000 ( 65132 PWs)   bands (ev):

   -92.6923 -92.6360 -92.5457 -92.4915 -92.4393 -92.3984 -92.3810 -92.2580
   -56.0457 -56.0223 -55.9032 -55.8929 -55.8804 -55.8798 -55.8410 -55.8150
   -55.7995 -55.7978 -55.7872 -55.7472 -55.7258 -55.6905 -55.6719 -55.6395
   -55.6229 -55.5868 -55.5839 -55.5837 -55.5753 -55.5328 -55.5114 -55.4253
   -31.2651 -31.2531 -31.1262 -31.1079 -31.0389 -31.0221 -30.8683 -30.7483
   -29.8383 -29.7990 -29.7730 -29.6649 -14.9267 -14.9001 -14.7832 -14.7714
   -14.6801 -14.6399 -14.6113 -14.4774 -13.9789 -13.9668 -13.9319 -13.9139
   -13.8948 -13.8868 -13.8527 -13.8440 -13.8311 -13.8224 -13.8070 -13.7276
   -13.7183 -13.6969 -13.6695 -13.6555 -13.5518 -13.5422 -13.4074 -13.3966
   -13.1489 -13.1142 -13.0428 -13.0252 -13.0172 -12.9930 -12.9760 -12.9677
   -12.9590 -12.9451 -12.8528 -12.8343 -12.8176 -12.8031 -12.7539 -12.7132
   -12.5962 -12.5888 -12.5292 -12.3967 -12.3087 -12.2507 -12.1954 -12.1766
   -11.7646 -11.7526 -11.7347 -11.7178 -11.6832 -11.6650 -11.6309 -11.5696
   -11.5497 -11.5441 -11.4939 -11.4906  -2.2207  -2.1440  -2.1321  -2.0615
    -2.0225  -1.9440  -1.8763  -1.7514  -1.6338  -1.6031  -1.5660  -1.5073
    -1.4359  -1.4215  -1.3502  -1.3078  -1.1916  -1.1633  -1.1154  -1.0838
    -1.0200  -0.9752  -0.9562  -0.9441  -0.8925  -0.8447  -0.8323  -0.7182
    -0.6605  -0.6138  -0.5640  -0.5400  -0.5293  -0.4914  -0.4489  -0.4166
    -0.4034  -0.3167  -0.2504  -0.2024  -0.1798  -0.1042  -0.0527  -0.0315
     0.0203   0.0364   0.0556   0.0672   0.5161   0.5608   0.6574   0.6757
     1.0675   1.0793   1.1121   1.1502   1.4253   1.4450   1.4518   1.4886
     1.6226   1.7187   1.7454   1.7812   1.7962   1.8224   1.8308   1.8641
     1.8739   1.8895   1.8966   1.9505   1.9562   1.9822   2.0081   2.0128
     2.0326   2.0686   2.0957   2.1031   2.1391   2.1631   2.2379   2.3048
     2.5641   2.6048   2.6225   2.6462   2.6492   2.6835   2.6884   2.7054
     2.7177   2.7345   2.7573   2.7694   2.8298   2.8378   2.8514   2.8600
     2.8843   2.9011   2.9071   2.9175   2.9319   3.0198   3.0249   3.0526
     3.0622   4.0031   4.0344   4.0733   4.1476   4.3269   4.3988   4.4272
     4.6678   4.7892   4.8729   5.0025   5.0851   5.0940   5.2123   5.3189
     5.3763   5.8612   5.8949   5.9761   6.0311   6.3329   6.4906   6.5253
     7.7012   7.8108   7.8608   7.8848   7.9268   7.9861   8.0224   8.0928
     8.2696   8.2904   8.4968   8.5893   8.6146   8.6253   8.6511   8.6706

     occupation numbers 
     1.0000   1.0000   1.0000   1.0000   1.0000   1.0000   1.0000   1.0000
     1.0000   1.0000   1.0000   1.0000   1.0000   1.0000   1.0000   1.0000
     1.0000   1.0000   1.0000   1.0000   1.0000   1.0000   1.0000   1.0000
     1.0000   1.0000   1.0000   1.0000   1.0000   1.0000   1.0000   1.0000
     1.0000   1.0000   1.0000   1.0000   1.0000   1.0000   1.0000   1.0000
     1.0000   1.0000   1.0000   1.0000   1.0000   1.0000   1.0000   1.0000
     1.0000   1.0000   1.0000   1.0000   1.0000   1.0000   1.0000   1.0000
     1.0000   1.0000   1.0000   1.0000   1.0000   1.0000   1.0000   1.0000
     1.0000   1.0000   1.0000   1.0000   1.0000   1.0000   1.0000   1.0000
     1.0000   1.0000   1.0000   1.0000   1.0000   1.0000   1.0000   1.0000
     1.0000   1.0000   1.0000   1.0000   1.0000   1.0000   1.0000   1.0000
     1.0000   1.0000   1.0000   1.0000   1.0000   1.0000   1.0000   1.0000
     1.0000   1.0000   1.0000   1.0000   1.0000   1.0000   1.0000   1.0000
     1.0000   1.0000   1.0000   1.0000   1.0000   1.0000   1.0000   1.0000
     1.0000   1.0000   1.0000   1.0000   1.0000   1.0000   1.0000   1.0000
     1.0000   1.0000   1.0000   1.0000   1.0000   1.0000   1.0000   1.0000
     1.0000   1.0000   1.0000   1.0000   1.0000   1.0000   1.0000   1.0000
     1.0000   1.0000   1.0000   1.0000   1.0000   1.0000   1.0000   1.0000
     1.0000   1.0000   1.0000   1.0000   1.0000   1.0000   1.0000   1.0000
     1.0000   1.0000   1.0000   1.0000   1.0000   1.0000   1.0000   1.0000
     0.9996   0.9996   0.9995   0.9994   0.9977   0.9975   0.9974   0.9970
     0.9945   0.9918   0.9909   0.9895   0.9889   0.9877   0.9873   0.9855
     0.9850   0.9841   0.9837   0.9801   0.9797   0.9778   0.9756   0.9752
     0.9735   0.9700   0.9672   0.9664   0.9622   0.9592   0.9484   0.9371
     0.8740   0.8610   0.8551   0.8470   0.8459   0.8335   0.8317   0.8253
     0.8205   0.8139   0.8047   0.7997   0.7737   0.7701   0.7639   0.7599
     0.7486   0.7405   0.7377   0.7326   0.7255   0.6804   0.6777   0.6628
     0.6576   0.1608   0.1497   0.1366   0.1139   0.0705   0.0572   0.0525
     0.0239   0.0154   0.0112   0.0067   0.0047   0.0045   0.0027   0.0016
     0.0012   0.0001   0.0001   0.0000   0.0000   0.0000   0.0000   0.0000
     0.0000   0.0000   0.0000   0.0000   0.0000   0.0000   0.0000   0.0000
     0.0000   0.0000   0.0000   0.0000   0.0000   0.0000   0.0000   0.0000

          k = 0.2500 0.0000 0.0000 ( 65257 PWs)   bands (ev):

   -92.6923 -92.6360 -92.5457 -92.4915 -92.4393 -92.3984 -92.3810 -92.2580
   -56.0457 -56.0223 -55.9032 -55.8929 -55.8804 -55.8798 -55.8410 -55.8150
   -55.7995 -55.7978 -55.7872 -55.7472 -55.7258 -55.6905 -55.6719 -55.6395
   -55.6229 -55.5868 -55.5839 -55.5837 -55.5753 -55.5328 -55.5114 -55.4253
   -31.2676 -31.2513 -31.1270 -31.1079 -31.0383 -31.0214 -30.8687 -30.7477
   -29.8405 -29.7987 -29.7721 -29.6638 -15.0399 -15.0044 -14.9318 -14.7838
   -14.6834 -14.4873 -14.3503 -14.1744 -14.1533 -14.1245 -14.0944 -14.0696
   -14.0366 -14.0214 -14.0023 -13.9684 -13.8351 -13.8049 -13.6515 -13.5914
   -13.5811 -13.5206 -13.4852 -13.4763 -13.4271 -13.3388 -13.3043 -13.2383
   -13.1807 -13.1507 -13.1225 -13.0520 -13.0373 -13.0212 -13.0056 -12.9795
   -12.9559 -12.9346 -12.9219 -12.8990 -12.8114 -12.8034 -12.7624 -12.7005
[...]
     0.7441   0.7256   0.7193   0.7150   0.7050   0.6990   0.6918   0.6803
     0.6766   0.6647   0.6568   0.6542   0.6467   0.6337   0.6219   0.6194
     0.6146   0.6107   0.6051   0.5996   0.5180   0.3510   0.3208   0.2052
     0.0808   0.0435   0.0217   0.0060   0.0050   0.0003   0.0001   0.0001
     0.0000   0.0000   0.0000   0.0000   0.0000   0.0000   0.0000   0.0000
     0.0000   0.0000   0.0000   0.0000   0.0000   0.0000   0.0000   0.0000
     0.0000   0.0000   0.0000   0.0000   0.0000   0.0000   0.0000   0.0000

          k =-0.5000 0.0000 0.0000 ( 65180 PWs)   bands (ev):

   -92.6923 -92.6360 -92.5457 -92.4915 -92.4393 -92.3984 -92.3810 -92.2580
   -56.0457 -56.0223 -55.9032 -55.8929 -55.8804 -55.8798 -55.8410 -55.8150
   -55.7995 -55.7978 -55.7872 -55.7472 -55.7258 -55.6905 -55.6719 -55.6395
   -55.6229 -55.5868 -55.5839 -55.5837 -55.5753 -55.5328 -55.5114 -55.4253
   -31.2654 -31.2534 -31.1269 -31.1075 -31.0382 -31.0218 -30.8688 -30.7478
   -29.8395 -29.7997 -29.7717 -29.6642 -15.0074 -14.9578 -14.8960 -14.7914
   -14.6816 -14.5391 -14.3949 -14.2601 -14.1271 -14.1207 -14.0997 -14.0448
   -13.9846 -13.9524 -13.9080 -13.9022 -13.8873 -13.8314 -13.8252 -13.7212
   -13.5461 -13.5326 -13.4870 -13.4794 -13.4341 -13.3564 -13.3216 -13.2595
   -13.2403 -13.2358 -13.1125 -13.0459 -13.0356 -13.0149 -13.0060 -13.0020
   -12.9399 -12.9264 -12.9197 -12.9008 -12.7945 -12.6988 -12.6686 -12.6654
   -12.6317 -12.6222 -12.5322 -12.4891 -12.3593 -12.3186 -12.1909 -12.1535
   -11.7718 -11.7506 -11.7436 -11.7285 -11.7106 -11.6692 -11.6065 -11.5892
   -11.5568 -11.5111 -11.5018 -11.4860  -2.5750  -2.5362  -2.3717  -2.3329
    -2.0202  -1.9459  -1.7953  -1.6787  -1.6394  -1.5950  -1.5457  -1.5202
    -1.3979  -1.3529  -1.3390  -1.2557  -1.2204  -1.2071  -1.1731  -1.1169
    -1.0481  -1.0174  -0.9915  -0.8963  -0.8474  -0.7990  -0.7658  -0.7445
    -0.7164  -0.6666  -0.6425  -0.6036  -0.5106  -0.4341  -0.3739  -0.3095
    -0.1449  -0.1102  -0.0483  -0.0252   0.0443   0.0591   0.1943   0.2267
     0.2672   0.4484   0.5469   0.5927   0.6652   0.7384   0.8626   0.8747
     1.0124   1.0365   1.0893   1.1119   1.1538   1.1683   1.2109   1.2374
     1.3029   1.3502   1.3980   1.4046   1.6998   1.7092   1.7299   1.7466
     1.8611   1.8729   1.8833   1.8983   1.9246   1.9352   1.9716   2.0033
     2.0251   2.0853   2.0940   2.1466   2.1608   2.2270   2.3282   2.4361
     2.5053   2.5235   2.5895   2.6351   2.6597   2.7286   2.7359   2.7463
     2.7743   2.8245   2.8680   2.8908   2.9340   2.9774   3.0081   3.0121
     3.0130   3.0283   3.0389   3.0512   3.0667   3.0717   3.0949   3.1039
     3.1190   3.1378   3.1427   3.2727   3.2955   4.0663   4.1265   4.1910
     4.3794   4.7992   4.8718   5.0326   5.0640   5.4927   5.5252   5.5916
     5.6620   5.9355   6.0413   6.0666   6.7024   6.8102   7.0116   7.2908
     7.3004   7.3288   7.3992   7.4691   7.5435   7.7527   7.7869   7.8970
     8.1342   8.2435   8.4166   8.5374   8.6361   8.7090   8.7701   8.8222

     occupation numbers 
     1.0000   1.0000   1.0000   1.0000   1.0000   1.0000   1.0000   1.0000
     1.0000   1.0000   1.0000   1.0000   1.0000   1.0000   1.0000   1.0000
     1.0000   1.0000   1.0000   1.0000   1.0000   1.0000   1.0000   1.0000
     1.0000   1.0000   1.0000   1.0000   1.0000   1.0000   1.0000   1.0000
     1.0000   1.0000   1.0000   1.0000   1.0000   1.0000   1.0000   1.0000
     1.0000   1.0000   1.0000   1.0000   1.0000   1.0000   1.0000   1.0000
     1.0000   1.0000   1.0000   1.0000   1.0000   1.0000   1.0000   1.0000
     1.0000   1.0000   1.0000   1.0000   1.0000   1.0000   1.0000   1.0000
     1.0000   1.0000   1.0000   1.0000   1.0000   1.0000   1.0000   1.0000
     1.0000   1.0000   1.0000   1.0000   1.0000   1.0000   1.0000   1.0000
     1.0000   1.0000   1.0000   1.0000   1.0000   1.0000   1.0000   1.0000
     1.0000   1.0000   1.0000   1.0000   1.0000   1.0000   1.0000   1.0000
     1.0000   1.0000   1.0000   1.0000   1.0000   1.0000   1.0000   1.0000
     1.0000   1.0000   1.0000   1.0000   1.0000   1.0000   1.0000   1.0000
     1.0000   1.0000   1.0000   1.0000   1.0000   1.0000   1.0000   1.0000
     1.0000   1.0000   1.0000   1.0000   1.0000   1.0000   1.0000   1.0000
     1.0000   1.0000   1.0000   1.0000   1.0000   1.0000   1.0000   1.0000
     1.0000   1.0000   1.0000   1.0000   1.0000   1.0000   1.0000   1.0000
     1.0000   1.0000   1.0000   1.0000   1.0000   1.0000   1.0000   1.0000
     1.0000   1.0000   1.0000   1.0000   1.0000   0.9999   0.9999   0.9999
     0.9997   0.9997   0.9996   0.9995   0.9994   0.9994   0.9992   0.9991
     0.9987   0.9984   0.9980   0.9979   0.9924   0.9921   0.9914   0.9908
     0.9857   0.9851   0.9845   0.9836   0.9819   0.9812   0.9786   0.9760
     0.9742   0.9683   0.9674   0.9613   0.9594   0.9501   0.9326   0.9092
     0.8912   0.8860   0.8660   0.8508   0.8422   0.8163   0.8134   0.8092
     0.7977   0.7760   0.7562   0.7455   0.7245   0.7025   0.6866   0.6845
     0.6840   0.6759   0.6702   0.6636   0.6551   0.6524   0.6395   0.6346
     0.6261   0.6154   0.6127   0.5371   0.5237   0.1389   0.1201   0.1020
     0.0606   0.0149   0.0113   0.0059   0.0051   0.0007   0.0006   0.0004
     0.0003   0.0001   0.0000   0.0000   0.0000   0.0000   0.0000   0.0000
     0.0000   0.0000   0.0000   0.0000   0.0000   0.0000   0.0000   0.0000
     0.0000   0.0000   0.0000   0.0000   0.0000   0.0000   0.0000   0.0000

          k =-0.2500 0.2500 0.0000 ( 65198 PWs)   bands (ev):

   -92.6923 -92.6360 -92.5457 -92.4915 -92.4393 -92.3984 -92.3810 -92.2580
   -56.0457 -56.0223 -55.9032 -55.8929 -55.8804 -55.8798 -55.8410 -55.8150
   -55.7995 -55.7978 -55.7872 -55.7472 -55.7258 -55.6905 -55.6719 -55.6395
   -55.6229 -55.5868 -55.5839 -55.5837 -55.5753 -55.5328 -55.5114 -55.4253
   -31.2674 -31.2511 -31.1267 -31.1081 -31.0386 -31.0216 -30.8684 -30.7479
   -29.8399 -29.7983 -29.7727 -29.6642 -15.0095 -14.9719 -14.8971 -14.7789
   -14.6727 -14.5449 -14.4562 -14.2540 -14.1098 -14.0789 -14.0687 -14.0208
   -13.9968 -13.9792 -13.9671 -13.9264 -13.8315 -13.8200 -13.6647 -13.6406
   -13.6134 -13.5908 -13.5593 -13.4903 -13.4470 -13.4273 -13.3198 -13.2910
   -13.2154 -13.1386 -13.0985 -13.0657 -13.0322 -13.0074 -12.9856 -12.9604
   -12.9331 -12.9212 -12.9113 -12.8574 -12.8227 -12.7628 -12.7565 -12.7066
   -12.6907 -12.6818 -12.5034 -12.4374 -12.4334 -12.2744 -12.1366 -12.0891
   -11.7920 -11.7703 -11.7431 -11.7310 -11.6901 -11.6554 -11.6322 -11.6109
   -11.5881 -11.5036 -11.4579 -11.4485  -2.6600  -2.4506  -2.3301  -2.2424
    -2.1231  -2.0560  -1.8547  -1.7080  -1.6890  -1.6616  -1.5690  -1.5332
    -1.4407  -1.4070  -1.3809  -1.2372  -1.1824  -1.1151  -1.0861  -1.0264
    -1.0040  -0.9636  -0.9344  -0.8946  -0.8321  -0.7849  -0.7244  -0.6539
    -0.6283  -0.5758  -0.5475  -0.5026  -0.4469  -0.4070  -0.3593  -0.2635
    -0.2279  -0.2183  -0.1725  -0.1059  -0.0341   0.0091   0.0362   0.1043
     0.1378   0.3946   0.5601   0.6061   0.6423   0.7003   0.7459   0.8053
     0.8717   0.9006   1.1823   1.2955   1.3346   1.3667   1.3741   1.4171
     1.4353   1.4780   1.5090   1.5250   1.5510   1.5924   1.6060   1.6517
     1.6664   1.7125   1.7996   1.8174   1.8324   1.8733   1.8998   1.9370
     1.9895   2.0913   2.2062   2.2386   2.2821   2.3035   2.3710   2.4136
     2.4397   2.4618   2.4846   2.5847   2.6204   2.7106   2.8415   2.8913
     2.9034   2.9135   2.9237   2.9346   2.9489   2.9539   2.9722   2.9862
     2.9966   3.0056   3.0178   3.0275   3.0335   3.0659   3.0779   3.0861
     3.1199   3.4127   3.4961   3.5569   3.6377   3.6880   3.8431   3.9712
     4.3064   4.5384   4.7231   4.9918   5.1758   5.6511   5.6796   5.7525
     5.8431   5.9034   5.9817   6.1771   6.2223   6.7220   6.9027   7.0370
     7.1199   7.5752   7.6190   7.6687   7.6896   7.8826   7.9097   8.1140
     8.1377   8.2260   8.2739   8.3247   8.4516   8.4696   8.5147   8.8548

     occupation numbers 
     1.0000   1.0000   1.0000   1.0000   1.0000   1.0000   1.0000   1.0000
     1.0000   1.0000   1.0000   1.0000   1.0000   1.0000   1.0000   1.0000
     1.0000   1.0000   1.0000   1.0000   1.0000   1.0000   1.0000   1.0000
     1.0000   1.0000   1.0000   1.0000   1.0000   1.0000   1.0000   1.0000
     1.0000   1.0000   1.0000   1.0000   1.0000   1.0000   1.0000   1.0000
     1.0000   1.0000   1.0000   1.0000   1.0000   1.0000   1.0000   1.0000
     1.0000   1.0000   1.0000   1.0000   1.0000   1.0000   1.0000   1.0000
     1.0000   1.0000   1.0000   1.0000   1.0000   1.0000   1.0000   1.0000
     1.0000   1.0000   1.0000   1.0000   1.0000   1.0000   1.0000   1.0000
     1.0000   1.0000   1.0000   1.0000   1.0000   1.0000   1.0000   1.0000
     1.0000   1.0000   1.0000   1.0000   1.0000   1.0000   1.0000   1.0000
     1.0000   1.0000   1.0000   1.0000   1.0000   1.0000   1.0000   1.0000
     1.0000   1.0000   1.0000   1.0000   1.0000   1.0000   1.0000   1.0000
     1.0000   1.0000   1.0000   1.0000   1.0000   1.0000   1.0000   1.0000
     1.0000   1.0000   1.0000   1.0000   1.0000   1.0000   1.0000   1.0000
     1.0000   1.0000   1.0000   1.0000   1.0000   1.0000   1.0000   1.0000
     1.0000   1.0000   1.0000   1.0000   1.0000   1.0000   1.0000   1.0000
     1.0000   1.0000   1.0000   1.0000   1.0000   1.0000   1.0000   1.0000
     1.0000   1.0000   1.0000   1.0000   1.0000   1.0000   1.0000   1.0000
     1.0000   1.0000   1.0000   1.0000   1.0000   1.0000   0.9999   0.9999
     0.9999   0.9999   0.9993   0.9988   0.9985   0.9983   0.9982   0.9978
     0.9976   0.9971   0.9967   0.9964   0.9960   0.9952   0.9949   0.9938
     0.9934   0.9920   0.9887   0.9879   0.9872   0.9850   0.9835   0.9811
     0.9772   0.9677   0.9532   0.9483   0.9411   0.9373   0.9240   0.9145
     0.9083   0.9028   0.8968   0.8676   0.8559   0.8233   0.7684   0.7452
     0.7395   0.7346   0.7296   0.7242   0.7171   0.7145   0.7052   0.6980
     0.6926   0.6879   0.6815   0.6763   0.6731   0.6556   0.6490   0.6445
     0.6256   0.4544   0.4058   0.3712   0.3268   0.3003   0.2255   0.1726
     0.0747   0.0370   0.0197   0.0070   0.0031   0.0003   0.0003   0.0002
     0.0001   0.0001   0.0000   0.0000   0.0000   0.0000   0.0000   0.0000
     0.0000   0.0000   0.0000   0.0000   0.0000   0.0000   0.0000   0.0000
     0.0000   0.0000   0.0000   0.0000   0.0000   0.0000   0.0000   0.0000

          k =-0.5000 0.2500 0.0000 ( 65138 PWs)   bands (ev):

   -92.6923 -92.6360 -92.5457 -92.4915 -92.4393 -92.3984 -92.3810 -92.2580
   -56.0457 -56.0223 -55.9032 -55.8929 -55.8804 -55.8798 -55.8410 -55.8150
   -55.7995 -55.7978 -55.7872 -55.7472 -55.7258 -55.6905 -55.6719 -55.6395
   -55.6229 -55.5868 -55.5839 -55.5837 -55.5753 -55.5328 -55.5114 -55.4253
   -31.2653 -31.2533 -31.1265 -31.1077 -31.0385 -31.0219 -30.8685 -30.7480
   -29.8389 -29.7994 -29.7723 -29.6646 -14.9748 -14.9312 -14.8529 -14.7566
   -14.7119 -14.5854 -14.4998 -14.3741 -14.0607 -14.0302 -14.0177 -13.9719
   -13.9548 -13.9253 -13.8947 -13.8876 -13.8640 -13.8269 -13.8118 -13.7112
   -13.6294 -13.5914 -13.5797 -13.5687 -13.4898 -13.4606 -13.3640 -13.3235
   -13.1915 -13.1567 -13.0712 -13.0548 -13.0188 -13.0076 -12.9911 -12.9620
   -12.9434 -12.9314 -12.9216 -12.8623 -12.8049 -12.7404 -12.7124 -12.6926
   -12.6136 -12.6058 -12.5305 -12.4370 -12.3141 -12.3069 -12.1880 -12.1645
   -11.7646 -11.7518 -11.7377 -11.7259 -11.7044 -11.6741 -11.5939 -11.5850
   -11.5620 -11.5255 -11.4975 -11.4885  -2.4329  -2.3907  -2.2415  -2.1996
    -2.0393  -1.9647  -1.8197  -1.6850  -1.6286  -1.6014  -1.5617  -1.5227
    -1.4426  -1.3276  -1.2705  -1.2473  -1.2228  -1.1472  -1.1169  -1.0793
    -1.0609  -1.0003  -0.9729  -0.9323  -0.8970  -0.8682  -0.8110  -0.7844
    -0.7425  -0.7084  -0.6050  -0.5769  -0.4940  -0.4278  -0.3967  -0.3430
    -0.2543  -0.2213  -0.1215  -0.0830  -0.0269   0.0241   0.0424   0.1243
     0.1507   0.1820   0.2390   0.2763   0.5804   0.6425   0.7079   0.7226
     1.0204   1.0713   1.1494   1.1736   1.3534   1.3917   1.4279   1.4418
     1.4598   1.4777   1.5474   1.5879   1.6303   1.6544   1.7805   1.8114
     1.8455   1.8572   1.8975   1.9204   1.9337   1.9498   1.9692   1.9927
     2.0398   2.0585   2.0898   2.1110   2.1382   2.2043   2.3211   2.4277
     2.4502   2.5225   2.5616   2.6057   2.6593   2.6652   2.7007   2.7360
     2.7592   2.8298   2.8709   2.8874   2.9038   2.9118   2.9313   2.9522
     2.9633   2.9765   2.9904   3.0099   3.0219   3.0334   3.0414   3.0508
     3.0621   3.5873   3.6625   3.7818   3.8109   4.0752   4.1502   4.2050
     4.4441   4.7938   4.8881   5.0374   5.0887   5.4076   5.4403   5.6024
     5.6184   5.7604   5.7787   6.0788   6.4001   6.5003   6.5974   6.9606
     7.4388   7.5184   7.6461   7.7259   7.8052   7.8993   8.0320   8.1167
     8.2957   8.3700   8.4429   8.5191   8.5498   8.6079   8.6730   8.7532

     occupation numbers 
     1.0000   1.0000   1.0000   1.0000   1.0000   1.0000   1.0000   1.0000
     1.0000   1.0000   1.0000   1.0000   1.0000   1.0000   1.0000   1.0000
     1.0000   1.0000   1.0000   1.0000   1.0000   1.0000   1.0000   1.0000
     1.0000   1.0000   1.0000   1.0000   1.0000   1.0000   1.0000   1.0000
     1.0000   1.0000   1.0000   1.0000   1.0000   1.0000   1.0000   1.0000
     1.0000   1.0000   1.0000   1.0000   1.0000   1.0000   1.0000   1.0000
     1.0000   1.0000   1.0000   1.0000   1.0000   1.0000   1.0000   1.0000
     1.0000   1.0000   1.0000   1.0000   1.0000   1.0000   1.0000   1.0000
     1.0000   1.0000   1.0000   1.0000   1.0000   1.0000   1.0000   1.0000
     1.0000   1.0000   1.0000   1.0000   1.0000   1.0000   1.0000   1.0000
     1.0000   1.0000   1.0000   1.0000   1.0000   1.0000   1.0000   1.0000
     1.0000   1.0000   1.0000   1.0000   1.0000   1.0000   1.0000   1.0000
     1.0000   1.0000   1.0000   1.0000   1.0000   1.0000   1.0000   1.0000
     1.0000   1.0000   1.0000   1.0000   1.0000   1.0000   1.0000   1.0000
     1.0000   1.0000   1.0000   1.0000   1.0000   1.0000   1.0000   1.0000
     1.0000   1.0000   1.0000   1.0000   1.0000   1.0000   1.0000   1.0000
     1.0000   1.0000   1.0000   1.0000   1.0000   1.0000   1.0000   1.0000
     1.0000   1.0000   1.0000   1.0000   1.0000   1.0000   1.0000   1.0000
     1.0000   1.0000   1.0000   1.0000   1.0000   1.0000   1.0000   1.0000
     1.0000   1.0000   1.0000   1.0000   1.0000   1.0000   1.0000   0.9999
     0.9997   0.9996   0.9994   0.9993   0.9984   0.9981   0.9977   0.9975
     0.9973   0.9971   0.9960   0.9953   0.9943   0.9937   0.9895   0.9882
     0.9865   0.9859   0.9836   0.9822   0.9813   0.9802   0.9788   0.9769
     0.9728   0.9710   0.9678   0.9655   0.9623   0.9535   0.9340   0.9112
     0.9057   0.8863   0.8748   0.8608   0.8424   0.8402   0.8271   0.8133
     0.8039   0.7737   0.7549   0.7471   0.7393   0.7354   0.7258   0.7154
     0.7098   0.7030   0.6958   0.6856   0.6793   0.6732   0.6688   0.6638
     0.6576   0.3542   0.3136   0.2538   0.2401   0.1360   0.1132   0.0983
     0.0499   0.0152   0.0106   0.0058   0.0046   0.0010   0.0009   0.0004
     0.0003   0.0002   0.0001   0.0000   0.0000   0.0000   0.0000   0.0000
     0.0000   0.0000   0.0000   0.0000   0.0000   0.0000   0.0000   0.0000
     0.0000   0.0000   0.0000   0.0000   0.0000   0.0000   0.0000   0.0000

     the Fermi energy is     3.3355 ev

!    total energy              =   -4399.90898066 Ry
     estimated scf accuracy    <          9.5E-09 Ry
     smearing contrib. (-TS)   =      -1.14453761 Ry
     internal energy E=F+TS    =   -4398.76444306 Ry

     The total energy is F=E-TS. E is the sum of the following terms:
     one-electron contribution =  -21253.60477905 Ry
     hartree contribution      =   10755.00524235 Ry
     xc contribution           =    -686.72774164 Ry
     ewald contribution        =    7053.20821142 Ry
     one-center paw contrib.   =    -266.64537613 Ry
      -> PAW hartree energy AE =      25.17326296 Ry
      -> PAW hartree energy PS =     -25.05706400 Ry
      -> PAW xc energy AE      =     -16.51893236 Ry
      -> PAW xc energy PS      =       6.87847803 Ry
      -> total E_H with PAW    =   10755.12144131 Ry
      -> total E_XC with PAW   =    -696.36819597 Ry

     convergence has been achieved in  48 iterations

     Writing all to output data dir /bsuhome/zayahcortright/scratch/pwscf.save/
 
     init_run     :      7.67s CPU      8.08s WALL (       1 calls)
     electrons    :    678.01s CPU    690.15s WALL (       1 calls)

     Called by init_run:
     wfcinit      :      5.90s CPU      6.02s WALL (       1 calls)
     wfcinit:atom :      0.05s CPU      0.06s WALL (       5 calls)
     wfcinit:wfcr :      5.57s CPU      5.63s WALL (       5 calls)
     potinit      :      0.16s CPU      0.18s WALL (       1 calls)
     hinit0       :      0.67s CPU      0.88s WALL (       1 calls)

     Called by electrons:
     c_bands      :    536.64s CPU    541.51s WALL (      48 calls)
     sum_band     :    105.95s CPU    110.15s WALL (      48 calls)
     v_of_rho     :      5.26s CPU      5.53s WALL (      49 calls)
     v_h          :      0.48s CPU      0.48s WALL (      49 calls)
     v_xc         :      4.78s CPU      5.05s WALL (      49 calls)
     newd         :     16.44s CPU     18.86s WALL (      49 calls)
     PAW_pot      :      1.56s CPU      1.58s WALL (      49 calls)
     mix_rho      :     11.84s CPU     12.10s WALL (      48 calls)

     Called by c_bands:
     init_us_2    :      6.94s CPU      7.00s WALL (     485 calls)
     init_us_2:cp :      6.93s CPU      7.00s WALL (     485 calls)
     cegterg      :    508.51s CPU    513.20s WALL (     240 calls)

     Called by sum_band:
     sum_band:wei :      0.32s CPU      0.33s WALL (      48 calls)
     sum_band:loo :     86.50s CPU     87.10s WALL (      48 calls)
     sum_band:buf :      1.52s CPU      1.54s WALL (     240 calls)
     sum_band:ini :      3.33s CPU      3.34s WALL (     240 calls)
     sum_band:cal :     18.21s CPU     18.27s WALL (     240 calls)
     sum_band:bec :      0.54s CPU      0.55s WALL (     240 calls)
     addusdens    :     17.94s CPU     21.50s WALL (      48 calls)
                                        0.00s GPU  (      48 calls)
     addusd:skk   :      0.33s CPU      0.65s WALL (     192 calls)
                                        0.00s GPU  (     192 calls)

     Called by *egterg:
     cdiaghg      :     54.66s CPU     54.88s WALL (    1338 calls)
     cegterg:over :     36.99s CPU     37.24s WALL (    1098 calls)
     cegterg:upda :     27.40s CPU     27.73s WALL (    1098 calls)
     cegterg:last :     56.08s CPU     56.26s WALL (     436 calls)
     cdiaghg:chol :      3.07s CPU      3.09s WALL (    1338 calls)
     cdiaghg:inve :      3.26s CPU      3.27s WALL (    1338 calls)
     cdiaghg:para :      6.96s CPU      7.01s WALL (    2676 calls)
     h_psi        :    279.80s CPU    282.46s WALL (    1343 calls)
     s_psi        :     37.88s CPU     38.00s WALL (    1343 calls)
     g_psi        :      1.17s CPU      1.17s WALL (    1098 calls)

     Called by h_psi:
     h_psi:calbec :     41.89s CPU     42.03s WALL (    1343 calls)
     vloc_psi     :    196.92s CPU    198.90s WALL (    1343 calls)
     add_vuspsi   :     37.73s CPU     37.86s WALL (    1343 calls)

     General routines
     calbec       :     60.09s CPU     60.29s WALL (    1583 calls)
     fft          :      3.39s CPU      3.43s WALL (     635 calls)
     ffts         :      4.44s CPU      4.47s WALL (    5024 calls)
     fftw         :    166.77s CPU    168.17s WALL (  321438 calls)
     interpolate  :      0.39s CPU      0.40s WALL (      49 calls)
 
     Parallel routines

     PAW routines
     PAW_pot      :      1.56s CPU      1.58s WALL (      49 calls)
 
     PWSCF        :  11m27.13s CPU  11m42.51s WALL

 
   This run was terminated on:  17: 1:30  21Jun2024            

=------------------------------------------------------------------------------=
   JOB DONE.
=------------------------------------------------------------------------------=
