
     Program PWSCF v.7.2 starts on 21Jun2024 at 17:25: 0 

     This program is part of the open-source Quantum ESPRESSO suite
     for quantum simulation of materials; please cite
         "P. Giannozzi et al., J. Phys.:Condens. Matter 21 395502 (2009);
         "P. Giannozzi et al., J. Phys.:Condens. Matter 29 465901 (2017);
         "P. Giannozzi et al., J. Chem. Phys. 152 154105 (2020);
          URL http://www.quantum-espresso.org", 
     in publications or presentations arising from this work. More details at
     http://www.quantum-espresso.org/quote

     Parallel version (MPI & OpenMP), running on      48 processor cores
     Number of MPI processes:                48
     Threads/MPI process:                     1

     MPI processes distributed on     1 nodes
     180142 MiB available memory on the printing compute node when the environment starts
 
     Reading input from espresso.pwi
Warning: card &CELL ignored
Warning: card / ignored
Warning: card &FCP ignored
Warning: card / ignored
Warning: card &RISM ignored
Warning: card / ignored

     Current dimensions of program PWSCF are:
     Max number of different atomic species (ntypx) = 10
     Max number of k-points (npk) =  40000
     Max angular momentum in pseudopotentials (lmaxx) =  4
     file O.pbe-n-kjpaw_psl.0.1.UPF: wavefunction(s)  2P renormalized
     signal trapping enabled: kill the code with -SIGUSR1 to stop cleanly the simulation 
 
     K-points division:     npool     =       2
     R & G space division:  proc/nbgrp/npool/nimage =      24
     Subspace diagonalization in iterative solution of the eigenvalue problem:
     one sub-group per band group will be used
     scalapack distributed-memory algorithm (size of sub-group:  3*  3 procs)

 
     Parallelization info
     --------------------
     sticks:   dense  smooth     PW     G-vecs:    dense   smooth      PW
     Min         350     175     47                61430    21716    3036
     Max         351     177     48                61449    21727    3041
     Sum        8421    4205   1137              1474595   521381   72913
 
     Using Slab Decomposition
 


     bravais-lattice index     =            0
     lattice parameter (alat)  =      14.8599  a.u.
     unit-cell volume          =    8305.1283 (a.u.)^3
     number of atoms/cell      =           49
     number of atomic types    =            4
     number of electrons       =       425.00
     number of Kohn-Sham states=          256
     kinetic-energy cutoff     =      60.0000  Ry
     charge density cutoff     =     480.0000  Ry
     scf convergence threshold =      1.0E-08
     mixing beta               =       0.1500
     number of iterations used =            8  local-TF  mixing
     Exchange-correlation= PBE
                           (   1   4   3   4   0   0   0)

     celldm(1)=  14.859904  celldm(2)=   0.000000  celldm(3)=   0.000000
     celldm(4)=   0.000000  celldm(5)=   0.000000  celldm(6)=   0.000000

     crystal axes: (cart. coord. in units of alat)
               a(1) = (   1.000000   0.000000   0.000000 )  
               a(2) = (   0.000000   1.000000   0.000000 )  
               a(3) = (   0.000000   0.000000   2.531036 )  

     reciprocal axes: (cart. coord. in units 2 pi/alat)
               b(1) = (  1.000000  0.000000  0.000000 )  
               b(2) = (  0.000000  1.000000  0.000000 )  
               b(3) = (  0.000000  0.000000  0.395095 )  


     PseudoPot. # 1 for Sr read from file:
     /bsuhome/zayahcortright/q-e/pseudo/Sr_pbe_v1.uspp.F.UPF
     MD5 check sum: 6b418c05fbe9db5448babca5e47b7a5b
     Pseudo is Ultrasoft + core correction, Zval = 10.0
     Generated by new atomic code, or converted to UPF format
     Using radial grid of  883 points,  6 beta functions with: 
                l(1) =   0
                l(2) =   0
                l(3) =   1
                l(4) =   1
                l(5) =   2
                l(6) =   2
     Q(r) pseudized with  6 coefficients,  rinner =    1.400   1.400   1.400
                                                       1.400   1.400

     PseudoPot. # 2 for O  read from file:
     /bsuhome/zayahcortright/q-e/pseudo/O.pbe-n-kjpaw_psl.0.1.UPF
     MD5 check sum: 0234752ac141de4415c5fc33072bef88
     Pseudo is Projector augmented-wave + core cor, Zval =  6.0
     Generated using "atomic" code by A. Dal Corso  v.5.0.99 svn rev. 10869
     Shape of augmentation charge: BESSEL
     Using radial grid of 1095 points,  4 beta functions with: 
                l(1) =   0
                l(2) =   0
                l(3) =   1
                l(4) =   1
     Q(r) pseudized with 0 coefficients 


     PseudoPot. # 3 for Co read from file:
     /bsuhome/zayahcortright/q-e/pseudo/Co_pbe_v1.2.uspp.F.UPF
     MD5 check sum: 5f91765df6ddd3222702df6e7b74a16d
     Pseudo is Ultrasoft + core correction, Zval = 17.0
     Generated by new atomic code, or converted to UPF format
     Using radial grid of  863 points,  6 beta functions with: 
                l(1) =   0
                l(2) =   0
                l(3) =   1
                l(4) =   1
                l(5) =   2
                l(6) =   2
     Q(r) pseudized with  8 coefficients,  rinner =    1.200   1.200   1.200
                                                       1.200   1.200

     PseudoPot. # 4 for H  read from file:
     /bsuhome/zayahcortright/q-e/pseudo/H.pbe-rrkjus_psl.1.0.0.UPF
     MD5 check sum: f52b6d4d1c606e5624b1dc7b2218f220
     Pseudo is Ultrasoft, Zval =  1.0
     Generated using "atomic" code by A. Dal Corso  v.5.1
     Using radial grid of  929 points,  2 beta functions with: 
                l(1) =   0
                l(2) =   0
     Q(r) pseudized with 0 coefficients 


     atomic species   valence    mass     pseudopotential
        Sr            10.00    87.62000     Sr( 1.00)
        O              6.00    15.99900     O ( 1.00)
        Co            17.00    58.93319     Co( 1.00)
        H              1.00     1.00800     H ( 1.00)

     No symmetry found


                                    s                        frac. trans.

      isym =  1     identity                                     

 cryst.   s( 1) = (     1          0          0      )
                  (     0          1          0      )
                  (     0          0          1      )

 cart.    s( 1) = (  1.0000000  0.0000000  0.0000000 )
                  (  0.0000000  1.0000000  0.0000000 )
                  (  0.0000000  0.0000000  1.0000000 )


   Cartesian axes

     site n.     atom                  positions (alat units)
         1           Sr  tau(   1) = (   0.2508693   0.7491307   1.7574407  )
         2           O   tau(   2) = (   0.4985141   0.5014859   1.7715967  )
         3           Sr  tau(   3) = (   0.7482398   0.7454518   1.7648669  )
         4           Sr  tau(   4) = (   0.7441748   0.2558252   1.7667843  )
         5           Sr  tau(   5) = (   0.2508693   0.7491307   1.2696799  )
         6           Sr  tau(   6) = (   0.2508693   0.7491307   0.7632319  )
         7           Co  tau(   7) = (   0.4998914   0.5001086   1.0164559  )
         8           Co  tau(   8) = (   0.4936915   0.5063085   1.5135603  )
         9           O   tau(   9) = (   0.4988895   0.7610401   1.0164559  )
        10           O   tau(  10) = (   0.2389599   0.5011105   1.0164559  )
        11           O   tau(  11) = (   0.0070918   0.7374880   1.0164559  )
        12           O   tau(  12) = (   0.0088340   0.7405089   1.5135603  )
        13           O   tau(  13) = (   0.5066944   0.7415376   1.5135603  )
        14           O   tau(  14) = (   0.2584624   0.4933056   1.5135603  )
        15           O   tau(  15) = (   0.4985141   0.5014859   0.7773880  )
        16           O   tau(  16) = (   0.4985141   0.5014859   1.2555238  )
        17           Sr  tau(  17) = (   0.7482398   0.7454518   0.7706582  )
        18           Sr  tau(  18) = (   0.7482398   0.7454518   1.2622536  )
        19           Sr  tau(  19) = (   0.7441748   0.2558252   0.7725755  )
        20           Sr  tau(  20) = (   0.7441748   0.2558252   1.2603363  )
        21           O   tau(  21) = (   0.7322655   0.0078049   1.5135603  )
        22           O   tau(  22) = (   0.7558175   0.4996027   1.5135603  )
        23           O   tau(  23) = (   0.5003973   0.2441825   1.5135603  )
        24           O   tau(  24) = (   0.7527966   0.4978604   1.0164559  )
        25           O   tau(  25) = (   0.5021396   0.2472034   1.0164559  )
        26           O   tau(  26) = (   0.7517679   0.0000000   1.0164559  )
        27           O   tau(  27) = (   0.0114961   0.4948124   1.7455321  )
        28           O   tau(  28) = (   0.0048226   0.0077944   1.7715967  )
        29           Sr  tau(  29) = (   0.2545482   0.2517602   1.7648669  )
        30           O   tau(  30) = (   0.5048017   0.0015068   1.7786929  )
        31           Co  tau(  31) = (   0.0056869   0.5006215   1.0164559  )
        32           Co  tau(  32) = (   0.0065315   0.4997770   1.5135603  )
        33           Co  tau(  33) = (   0.0061999   0.0064171   1.0164559  )
        34           Co  tau(  34) = (   0.0000000   0.0126169   1.5135603  )
        35           O   tau(  35) = (   0.0114961   0.4948124   1.2815885  )
        36           O   tau(  36) = (   0.0114961   0.4948124   0.7513233  )
        37           O   tau(  37) = (   0.0051979   0.2673486   1.0164559  )
        38           O   tau(  38) = (   0.0130029   0.2478461   1.5135603  )
        39           O   tau(  39) = (   0.0048226   0.0077944   0.7773880  )
        40           O   tau(  40) = (   0.0048226   0.0077944   1.2555238  )
        41           Sr  tau(  41) = (   0.2545482   0.2517602   0.7706582  )
        42           Sr  tau(  42) = (   0.2545482   0.2517602   1.2622536  )
        43           Co  tau(  43) = (   0.4989925   0.0073160   1.5135603  )
        44           Co  tau(  44) = (   0.4998370   0.0064714   1.0164559  )
        45           O   tau(  45) = (   0.5048017   0.0015068   0.7844841  )
        46           O   tau(  46) = (   0.5048017   0.0015068   1.2484277  )
        47           O   tau(  47) = (   0.2621260   0.0059111   1.5135603  )
        48           O   tau(  48) = (   0.2591051   0.0041689   1.0164559  )
        49           H   tau(  49) = (   0.4264937   0.4264937   2.1602013  )

   Crystallographic axes

     site n.     atom                  positions (cryst. coord.)
         1           Sr  tau(   1) = (  0.2508693  0.7491307  0.6943562  )
         2           O   tau(   2) = (  0.4985141  0.5014859  0.6999492  )
         3           Sr  tau(   3) = (  0.7482398  0.7454518  0.6972903  )
         4           Sr  tau(   4) = (  0.7441748  0.2558252  0.6980478  )
         5           Sr  tau(   5) = (  0.2508693  0.7491307  0.5016443  )
         6           Sr  tau(   6) = (  0.2508693  0.7491307  0.3015492  )
         7           Co  tau(   7) = (  0.4998914  0.5001086  0.4015968  )
         8           Co  tau(   8) = (  0.4936915  0.5063085  0.5980003  )
         9           O   tau(   9) = (  0.4988895  0.7610401  0.4015968  )
        10           O   tau(  10) = (  0.2389599  0.5011105  0.4015968  )
        11           O   tau(  11) = (  0.0070918  0.7374880  0.4015968  )
        12           O   tau(  12) = (  0.0088340  0.7405089  0.5980003  )
        13           O   tau(  13) = (  0.5066944  0.7415376  0.5980003  )
        14           O   tau(  14) = (  0.2584624  0.4933056  0.5980003  )
        15           O   tau(  15) = (  0.4985141  0.5014859  0.3071422  )
        16           O   tau(  16) = (  0.4985141  0.5014859  0.4960513  )
        17           Sr  tau(  17) = (  0.7482398  0.7454518  0.3044833  )
        18           Sr  tau(  18) = (  0.7482398  0.7454518  0.4987103  )
        19           Sr  tau(  19) = (  0.7441748  0.2558252  0.3052408  )
        20           Sr  tau(  20) = (  0.7441748  0.2558252  0.4979527  )
        21           O   tau(  21) = (  0.7322655  0.0078049  0.5980003  )
        22           O   tau(  22) = (  0.7558175  0.4996027  0.5980003  )
        23           O   tau(  23) = (  0.5003973  0.2441825  0.5980003  )
        24           O   tau(  24) = (  0.7527966  0.4978604  0.4015968  )
        25           O   tau(  25) = (  0.5021396  0.2472034  0.4015968  )
        26           O   tau(  26) = (  0.7517679  0.0000000  0.4015968  )
        27           O   tau(  27) = (  0.0114961  0.4948124  0.6896512  )
        28           O   tau(  28) = (  0.0048226  0.0077944  0.6999492  )
        29           Sr  tau(  29) = (  0.2545482  0.2517602  0.6972903  )
        30           O   tau(  30) = (  0.5048017  0.0015068  0.7027529  )
        31           Co  tau(  31) = (  0.0056869  0.5006215  0.4015968  )
        32           Co  tau(  32) = (  0.0065315  0.4997770  0.5980003  )
        33           Co  tau(  33) = (  0.0061999  0.0064171  0.4015968  )
        34           Co  tau(  34) = (  0.0000000  0.0126169  0.5980003  )
        35           O   tau(  35) = (  0.0114961  0.4948124  0.5063494  )
        36           O   tau(  36) = (  0.0114961  0.4948124  0.2968442  )
        37           O   tau(  37) = (  0.0051979  0.2673486  0.4015968  )
        38           O   tau(  38) = (  0.0130029  0.2478461  0.5980003  )
        39           O   tau(  39) = (  0.0048226  0.0077944  0.3071422  )
        40           O   tau(  40) = (  0.0048226  0.0077944  0.4960513  )
        41           Sr  tau(  41) = (  0.2545482  0.2517602  0.3044833  )
        42           Sr  tau(  42) = (  0.2545482  0.2517602  0.4987103  )
        43           Co  tau(  43) = (  0.4989925  0.0073160  0.5980003  )
        44           Co  tau(  44) = (  0.4998370  0.0064714  0.4015968  )
        45           O   tau(  45) = (  0.5048017  0.0015068  0.3099459  )
        46           O   tau(  46) = (  0.5048017  0.0015068  0.4932477  )
        47           O   tau(  47) = (  0.2621260  0.0059111  0.5980003  )
        48           O   tau(  48) = (  0.2591051  0.0041689  0.4015968  )
        49           H   tau(  49) = (  0.4264937  0.4264937  0.8534850  )

     number of k points=    10  Gaussian smearing, width (Ry)=  0.0700
                       cart. coord. in units 2pi/alat
        k(    1) = (   0.0000000   0.0000000   0.0000000), wk =   0.1250000
        k(    2) = (   0.0000000   0.2500000   0.0000000), wk =   0.2500000
        k(    3) = (   0.0000000  -0.5000000   0.0000000), wk =   0.1250000
        k(    4) = (   0.2500000   0.2500000   0.0000000), wk =   0.2500000
        k(    5) = (   0.2500000  -0.5000000   0.0000000), wk =   0.2500000
        k(    6) = (  -0.5000000  -0.5000000   0.0000000), wk =   0.1250000
        k(    7) = (   0.2500000   0.0000000   0.0000000), wk =   0.2500000
        k(    8) = (  -0.5000000   0.0000000   0.0000000), wk =   0.1250000
        k(    9) = (  -0.2500000   0.2500000   0.0000000), wk =   0.2500000
        k(   10) = (  -0.5000000   0.2500000   0.0000000), wk =   0.2500000

                       cryst. coord.
        k(    1) = (   0.0000000   0.0000000   0.0000000), wk =   0.1250000
        k(    2) = (   0.0000000   0.2500000   0.0000000), wk =   0.2500000
        k(    3) = (   0.0000000  -0.5000000   0.0000000), wk =   0.1250000
        k(    4) = (   0.2500000   0.2500000   0.0000000), wk =   0.2500000
        k(    5) = (   0.2500000  -0.5000000   0.0000000), wk =   0.2500000
        k(    6) = (  -0.5000000  -0.5000000   0.0000000), wk =   0.1250000
        k(    7) = (   0.2500000   0.0000000   0.0000000), wk =   0.2500000
        k(    8) = (  -0.5000000   0.0000000   0.0000000), wk =   0.1250000
        k(    9) = (  -0.2500000   0.2500000   0.0000000), wk =   0.2500000
        k(   10) = (  -0.5000000   0.2500000   0.0000000), wk =   0.2500000

     Dense  grid:  1474595 G-vectors     FFT dimensions: ( 108, 108, 270)

     Smooth grid:   521381 G-vectors     FFT dimensions: (  75,  75, 192)

     Dynamical RAM for                 wfc:      10.61 MB

     Dynamical RAM for     wfc (w. buffer):      63.63 MB

     Dynamical RAM for           str. fact:       3.75 MB

     Dynamical RAM for           local pot:       0.00 MB

     Dynamical RAM for          nlocal pot:      24.28 MB

     Dynamical RAM for                qrad:       7.03 MB

     Dynamical RAM for          rho,v,vnew:       6.02 MB

     Dynamical RAM for               rhoin:       2.01 MB

     Dynamical RAM for            rho*nmix:      15.00 MB

     Dynamical RAM for           G-vectors:       3.68 MB

     Dynamical RAM for          h,s,v(r/c):       1.32 MB

     Dynamical RAM for          <psi|beta>:       2.29 MB

     Dynamical RAM for                 psi:      21.21 MB

     Dynamical RAM for                hpsi:      21.21 MB

     Dynamical RAM for                spsi:      21.21 MB

     Dynamical RAM for      wfcinit/wfcrot:      34.09 MB

     Dynamical RAM for           addusdens:     100.79 MB

     Estimated static dynamical RAM per process >     120.42 MB

     Estimated max dynamical RAM per process >     236.21 MB

     Estimated total dynamical RAM >      10.72 GB

     Check: negative core charge=   -0.000004

     Initial potential from superposition of free atoms

     starting charge     416.5961, renormalised to     425.0000

     negative rho (up, down):  7.827E-01 0.000E+00
     Starting wfcs are  373 randomized atomic wfcs
     Checking if some PAW data can be deallocated... 
       PAW data deallocated on   20 nodes for type:  2

     total cpu time spent up to now is        8.6 secs

     Self-consistent Calculation

     iteration #  1     ecut=    60.00 Ry     beta= 0.15
     Davidson diagonalization with overlap

---- Real-time Memory Report at c_bands before calling an iterative solver
             0 MiB given to the printing process from OS
             0 MiB allocation reported by mallinfo(arena+hblkhd)
        170483 MiB available memory on the node where the printing process lives
------------------
     ethr =  1.00E-02,  avg # of iterations =  2.0

     negative rho (up, down):  7.717E-01 0.000E+00

     total cpu time spent up to now is       22.8 secs

     total energy              =   -4404.74181187 Ry
     estimated scf accuracy    <      42.18641338 Ry

     iteration #  2     ecut=    60.00 Ry     beta= 0.15
     Davidson diagonalization with overlap

---- Real-time Memory Report at c_bands before calling an iterative solver
             0 MiB given to the printing process from OS
             0 MiB allocation reported by mallinfo(arena+hblkhd)
        170694 MiB available memory on the node where the printing process lives
------------------
     ethr =  9.93E-03,  avg # of iterations =  1.0

     negative rho (up, down):  7.532E-01 0.000E+00

     total cpu time spent up to now is       34.8 secs

     total energy              =   -4400.04658960 Ry
     estimated scf accuracy    <      26.56805538 Ry

     iteration #  3     ecut=    60.00 Ry     beta= 0.15
     Davidson diagonalization with overlap

---- Real-time Memory Report at c_bands before calling an iterative solver
             0 MiB given to the printing process from OS
             0 MiB allocation reported by mallinfo(arena+hblkhd)
        169965 MiB available memory on the node where the printing process lives
------------------
     ethr =  6.25E-03,  avg # of iterations =  2.0

     negative rho (up, down):  7.544E-01 0.000E+00

     total cpu time spent up to now is       48.2 secs

     total energy              =   -4402.39331884 Ry
     estimated scf accuracy    <      49.05817570 Ry

     iteration #  4     ecut=    60.00 Ry     beta= 0.15
     Davidson diagonalization with overlap

---- Real-time Memory Report at c_bands before calling an iterative solver
             0 MiB given to the printing process from OS
             0 MiB allocation reported by mallinfo(arena+hblkhd)
        169827 MiB available memory on the node where the printing process lives
------------------
     ethr =  6.25E-03,  avg # of iterations =  1.0

     negative rho (up, down):  7.410E-01 0.000E+00

     total cpu time spent up to now is       60.5 secs

     total energy              =   -4401.65786110 Ry
     estimated scf accuracy    <      29.32969150 Ry

     iteration #  5     ecut=    60.00 Ry     beta= 0.15
     Davidson diagonalization with overlap

---- Real-time Memory Report at c_bands before calling an iterative solver
             0 MiB given to the printing process from OS
             0 MiB allocation reported by mallinfo(arena+hblkhd)
        169804 MiB available memory on the node where the printing process lives
------------------
     ethr =  6.25E-03,  avg # of iterations =  1.0

     negative rho (up, down):  7.470E-01 0.000E+00

     total cpu time spent up to now is       72.7 secs

     total energy              =   -4399.88168120 Ry
     estimated scf accuracy    <      44.27660111 Ry

     iteration #  6     ecut=    60.00 Ry     beta= 0.15
     Davidson diagonalization with overlap

---- Real-time Memory Report at c_bands before calling an iterative solver
             0 MiB given to the printing process from OS
             0 MiB allocation reported by mallinfo(arena+hblkhd)
        169796 MiB available memory on the node where the printing process lives
------------------
     ethr =  6.25E-03,  avg # of iterations =  1.0

     negative rho (up, down):  7.419E-01 0.000E+00

     total cpu time spent up to now is       84.6 secs

     total energy              =   -4400.63723322 Ry
     estimated scf accuracy    <      11.96714742 Ry

     iteration #  7     ecut=    60.00 Ry     beta= 0.15
     Davidson diagonalization with overlap

---- Real-time Memory Report at c_bands before calling an iterative solver
             0 MiB given to the printing process from OS
             0 MiB allocation reported by mallinfo(arena+hblkhd)
        169778 MiB available memory on the node where the printing process lives
------------------
     ethr =  2.82E-03,  avg # of iterations =  1.1

     negative rho (up, down):  7.443E-01 0.000E+00

     total cpu time spent up to now is       96.7 secs

     total energy              =   -4400.79853709 Ry
     estimated scf accuracy    <       4.29525788 Ry

     iteration #  8     ecut=    60.00 Ry     beta= 0.15
     Davidson diagonalization with overlap

---- Real-time Memory Report at c_bands before calling an iterative solver
             0 MiB given to the printing process from OS
             0 MiB allocation reported by mallinfo(arena+hblkhd)
        169762 MiB available memory on the node where the printing process lives
------------------
     ethr =  1.01E-03,  avg # of iterations =  1.5

     negative rho (up, down):  7.543E-01 0.000E+00

     total cpu time spent up to now is      109.2 secs

     total energy              =   -4400.34352583 Ry
     estimated scf accuracy    <       3.85975997 Ry

     iteration #  9     ecut=    60.00 Ry     beta= 0.15
     Davidson diagonalization with overlap

---- Real-time Memory Report at c_bands before calling an iterative solver
             0 MiB given to the printing process from OS
             0 MiB allocation reported by mallinfo(arena+hblkhd)
        169728 MiB available memory on the node where the printing process lives
------------------
     ethr =  9.08E-04,  avg # of iterations =  3.7

     negative rho (up, down):  7.761E-01 0.000E+00

     total cpu time spent up to now is      123.7 secs

     total energy              =   -4399.93650630 Ry
     estimated scf accuracy    <      43.40945417 Ry

     iteration # 10     ecut=    60.00 Ry     beta= 0.15
     Davidson diagonalization with overlap

---- Real-time Memory Report at c_bands before calling an iterative solver
             0 MiB given to the printing process from OS
             0 MiB allocation reported by mallinfo(arena+hblkhd)
        169664 MiB available memory on the node where the printing process lives
------------------
     ethr =  9.08E-04,  avg # of iterations =  9.1

     negative rho (up, down):  7.797E-01 0.000E+00

     total cpu time spent up to now is      141.1 secs

     total energy              =   -4399.73156689 Ry
     estimated scf accuracy    <      12.22220885 Ry

     iteration # 11     ecut=    60.00 Ry     beta= 0.15
     Davidson diagonalization with overlap

---- Real-time Memory Report at c_bands before calling an iterative solver
             0 MiB given to the printing process from OS
             0 MiB allocation reported by mallinfo(arena+hblkhd)
        169273 MiB available memory on the node where the printing process lives
------------------
     ethr =  9.08E-04,  avg # of iterations =  1.9

     negative rho (up, down):  7.817E-01 0.000E+00

     total cpu time spent up to now is      154.0 secs

     total energy              =   -4400.11779847 Ry
     estimated scf accuracy    <       0.92345190 Ry

     iteration # 12     ecut=    60.00 Ry     beta= 0.15
     Davidson diagonalization with overlap

---- Real-time Memory Report at c_bands before calling an iterative solver
             0 MiB given to the printing process from OS
             0 MiB allocation reported by mallinfo(arena+hblkhd)
        169315 MiB available memory on the node where the printing process lives
------------------
     ethr =  2.17E-04,  avg # of iterations =  6.8

     negative rho (up, down):  7.930E-01 0.000E+00

     total cpu time spent up to now is      170.2 secs

     total energy              =   -4400.06752972 Ry
     estimated scf accuracy    <       0.73543374 Ry

     iteration # 13     ecut=    60.00 Ry     beta= 0.15
     Davidson diagonalization with overlap

---- Real-time Memory Report at c_bands before calling an iterative solver
             0 MiB given to the printing process from OS
             0 MiB allocation reported by mallinfo(arena+hblkhd)
        169236 MiB available memory on the node where the printing process lives
------------------
     ethr =  1.73E-04,  avg # of iterations =  2.9

     negative rho (up, down):  7.981E-01 0.000E+00

     total cpu time spent up to now is      184.2 secs

     total energy              =   -4400.07377527 Ry
     estimated scf accuracy    <       1.44528220 Ry

     iteration # 14     ecut=    60.00 Ry     beta= 0.15
     Davidson diagonalization with overlap

---- Real-time Memory Report at c_bands before calling an iterative solver
             0 MiB given to the printing process from OS
             0 MiB allocation reported by mallinfo(arena+hblkhd)
        169227 MiB available memory on the node where the printing process lives
------------------
     ethr =  1.73E-04,  avg # of iterations =  3.9

     negative rho (up, down):  8.079E-01 0.000E+00

     total cpu time spent up to now is      198.2 secs

     total energy              =   -4400.02530681 Ry
     estimated scf accuracy    <       0.97546310 Ry

     iteration # 15     ecut=    60.00 Ry     beta= 0.15
     Davidson diagonalization with overlap

---- Real-time Memory Report at c_bands before calling an iterative solver
             0 MiB given to the printing process from OS
             0 MiB allocation reported by mallinfo(arena+hblkhd)
        169235 MiB available memory on the node where the printing process lives
------------------
     ethr =  1.73E-04,  avg # of iterations =  7.0

     negative rho (up, down):  8.080E-01 0.000E+00

     total cpu time spent up to now is      213.9 secs

     total energy              =   -4400.04729463 Ry
     estimated scf accuracy    <       0.38572217 Ry

     iteration # 16     ecut=    60.00 Ry     beta= 0.15
     Davidson diagonalization with overlap

---- Real-time Memory Report at c_bands before calling an iterative solver
             0 MiB given to the printing process from OS
             0 MiB allocation reported by mallinfo(arena+hblkhd)
        169229 MiB available memory on the node where the printing process lives
------------------
     ethr =  9.08E-05,  avg # of iterations =  2.7

     negative rho (up, down):  8.120E-01 0.000E+00

     total cpu time spent up to now is      227.4 secs

     total energy              =   -4399.99820428 Ry
     estimated scf accuracy    <       0.31278829 Ry

     iteration # 17     ecut=    60.00 Ry     beta= 0.15
     Davidson diagonalization with overlap

---- Real-time Memory Report at c_bands before calling an iterative solver
             0 MiB given to the printing process from OS
             0 MiB allocation reported by mallinfo(arena+hblkhd)
        169231 MiB available memory on the node where the printing process lives
------------------
     c_bands:  1 eigenvalues not converged
     ethr =  7.36E-05,  avg # of iterations =  9.3

     negative rho (up, down):  8.166E-01 0.000E+00

     total cpu time spent up to now is      243.7 secs

     total energy              =   -4399.95485890 Ry
     estimated scf accuracy    <       0.24715699 Ry

     iteration # 18     ecut=    60.00 Ry     beta= 0.15
     Davidson diagonalization with overlap

---- Real-time Memory Report at c_bands before calling an iterative solver
             0 MiB given to the printing process from OS
             0 MiB allocation reported by mallinfo(arena+hblkhd)
        169277 MiB available memory on the node where the printing process lives
------------------
     ethr =  5.82E-05,  avg # of iterations = 12.6

     negative rho (up, down):  8.181E-01 0.000E+00

     total cpu time spent up to now is      262.2 secs

     total energy              =   -4399.94858579 Ry
     estimated scf accuracy    <       0.15247070 Ry

     iteration # 19     ecut=    60.00 Ry     beta= 0.15
     Davidson diagonalization with overlap

---- Real-time Memory Report at c_bands before calling an iterative solver
             0 MiB given to the printing process from OS
             0 MiB allocation reported by mallinfo(arena+hblkhd)
        169218 MiB available memory on the node where the printing process lives
------------------
     c_bands:  3 eigenvalues not converged
     ethr =  3.59E-05,  avg # of iterations =  7.9

     negative rho (up, down):  8.308E-01 0.000E+00

     total cpu time spent up to now is      278.6 secs

     total energy              =   -4399.93282990 Ry
     estimated scf accuracy    <       0.10608490 Ry

     iteration # 20     ecut=    60.00 Ry     beta= 0.15
     Davidson diagonalization with overlap

---- Real-time Memory Report at c_bands before calling an iterative solver
             0 MiB given to the printing process from OS
             0 MiB allocation reported by mallinfo(arena+hblkhd)
        169229 MiB available memory on the node where the printing process lives
------------------
     ethr =  2.50E-05,  avg # of iterations =  8.8

     negative rho (up, down):  8.242E-01 0.000E+00

     total cpu time spent up to now is      295.2 secs

     total energy              =   -4399.93125275 Ry
     estimated scf accuracy    <       0.07178873 Ry

     iteration # 21     ecut=    60.00 Ry     beta= 0.15
     Davidson diagonalization with overlap

---- Real-time Memory Report at c_bands before calling an iterative solver
             0 MiB given to the printing process from OS
             0 MiB allocation reported by mallinfo(arena+hblkhd)
        169143 MiB available memory on the node where the printing process lives
------------------
     c_bands:  1 eigenvalues not converged
     ethr =  1.69E-05,  avg # of iterations =  3.8

     negative rho (up, down):  8.167E-01 0.000E+00

     total cpu time spent up to now is      310.0 secs

     total energy              =   -4399.92178473 Ry
     estimated scf accuracy    <       0.05927074 Ry

     iteration # 22     ecut=    60.00 Ry     beta= 0.15
     Davidson diagonalization with overlap

---- Real-time Memory Report at c_bands before calling an iterative solver
             0 MiB given to the printing process from OS
             0 MiB allocation reported by mallinfo(arena+hblkhd)
        169227 MiB available memory on the node where the printing process lives
------------------
     ethr =  1.39E-05,  avg # of iterations =  9.7

     negative rho (up, down):  8.131E-01 0.000E+00

     total cpu time spent up to now is      327.1 secs

     total energy              =   -4399.91666841 Ry
     estimated scf accuracy    <       0.03724849 Ry

     iteration # 23     ecut=    60.00 Ry     beta= 0.15
     Davidson diagonalization with overlap

---- Real-time Memory Report at c_bands before calling an iterative solver
             0 MiB given to the printing process from OS
             0 MiB allocation reported by mallinfo(arena+hblkhd)
        169194 MiB available memory on the node where the printing process lives
------------------
     ethr =  8.76E-06,  avg # of iterations = 10.7

     negative rho (up, down):  8.056E-01 0.000E+00

     total cpu time spent up to now is      344.7 secs

     total energy              =   -4399.91637255 Ry
     estimated scf accuracy    <       0.02019101 Ry

     iteration # 24     ecut=    60.00 Ry     beta= 0.15
     Davidson diagonalization with overlap

---- Real-time Memory Report at c_bands before calling an iterative solver
             0 MiB given to the printing process from OS
             0 MiB allocation reported by mallinfo(arena+hblkhd)
        169092 MiB available memory on the node where the printing process lives
------------------
     ethr =  4.75E-06,  avg # of iterations =  5.0

     negative rho (up, down):  7.904E-01 0.000E+00

     total cpu time spent up to now is      359.4 secs

     total energy              =   -4399.91531985 Ry
     estimated scf accuracy    <       0.01258393 Ry

     iteration # 25     ecut=    60.00 Ry     beta= 0.15
     Davidson diagonalization with overlap

---- Real-time Memory Report at c_bands before calling an iterative solver
             0 MiB given to the printing process from OS
             0 MiB allocation reported by mallinfo(arena+hblkhd)
        169112 MiB available memory on the node where the printing process lives
------------------
     c_bands:  1 eigenvalues not converged
     c_bands:  1 eigenvalues not converged
     ethr =  2.96E-06,  avg # of iterations = 10.2

     negative rho (up, down):  7.878E-01 0.000E+00

     total cpu time spent up to now is      376.1 secs

     total energy              =   -4399.91493234 Ry
     estimated scf accuracy    <       0.00786874 Ry

     iteration # 26     ecut=    60.00 Ry     beta= 0.15
     Davidson diagonalization with overlap

---- Real-time Memory Report at c_bands before calling an iterative solver
             0 MiB given to the printing process from OS
             0 MiB allocation reported by mallinfo(arena+hblkhd)
        169197 MiB available memory on the node where the printing process lives
------------------
     c_bands:  1 eigenvalues not converged
     ethr =  1.85E-06,  avg # of iterations =  6.2

     negative rho (up, down):  7.974E-01 0.000E+00

     total cpu time spent up to now is      391.9 secs

     total energy              =   -4399.91377677 Ry
     estimated scf accuracy    <       0.00545804 Ry

     iteration # 27     ecut=    60.00 Ry     beta= 0.15
     Davidson diagonalization with overlap

---- Real-time Memory Report at c_bands before calling an iterative solver
             0 MiB given to the printing process from OS
             0 MiB allocation reported by mallinfo(arena+hblkhd)
        169156 MiB available memory on the node where the printing process lives
------------------
     ethr =  1.28E-06,  avg # of iterations = 11.5

     negative rho (up, down):  7.998E-01 0.000E+00

     total cpu time spent up to now is      412.1 secs

     total energy              =   -4399.91429953 Ry
     estimated scf accuracy    <       0.00087163 Ry

     iteration # 28     ecut=    60.00 Ry     beta= 0.15
     Davidson diagonalization with overlap

---- Real-time Memory Report at c_bands before calling an iterative solver
             0 MiB given to the printing process from OS
             0 MiB allocation reported by mallinfo(arena+hblkhd)
        168938 MiB available memory on the node where the printing process lives
------------------
     ethr =  2.05E-07,  avg # of iterations =  7.9

     negative rho (up, down):  7.995E-01 0.000E+00

     total cpu time spent up to now is      430.8 secs

     total energy              =   -4399.91441319 Ry
     estimated scf accuracy    <       0.00041949 Ry

     iteration # 29     ecut=    60.00 Ry     beta= 0.15
     Davidson diagonalization with overlap

---- Real-time Memory Report at c_bands before calling an iterative solver
             0 MiB given to the printing process from OS
             0 MiB allocation reported by mallinfo(arena+hblkhd)
        168892 MiB available memory on the node where the printing process lives
------------------
     ethr =  9.87E-08,  avg # of iterations =  1.1

     negative rho (up, down):  7.960E-01 0.000E+00

     total cpu time spent up to now is      443.2 secs

     total energy              =   -4399.91437477 Ry
     estimated scf accuracy    <       0.00030389 Ry

     iteration # 30     ecut=    60.00 Ry     beta= 0.15
     Davidson diagonalization with overlap

---- Real-time Memory Report at c_bands before calling an iterative solver
             0 MiB given to the printing process from OS
             0 MiB allocation reported by mallinfo(arena+hblkhd)
        168907 MiB available memory on the node where the printing process lives
------------------
     ethr =  7.15E-08,  avg # of iterations =  2.2

     negative rho (up, down):  7.938E-01 0.000E+00

     total cpu time spent up to now is      457.3 secs

     total energy              =   -4399.91436246 Ry
     estimated scf accuracy    <       0.00018886 Ry

     iteration # 31     ecut=    60.00 Ry     beta= 0.15
     Davidson diagonalization with overlap

---- Real-time Memory Report at c_bands before calling an iterative solver
             0 MiB given to the printing process from OS
             0 MiB allocation reported by mallinfo(arena+hblkhd)
        168940 MiB available memory on the node where the printing process lives
------------------
     ethr =  4.44E-08,  avg # of iterations =  5.8

     negative rho (up, down):  7.930E-01 0.000E+00

     total cpu time spent up to now is      472.2 secs

     total energy              =   -4399.91437678 Ry
     estimated scf accuracy    <       0.00006096 Ry

     iteration # 32     ecut=    60.00 Ry     beta= 0.15
     Davidson diagonalization with overlap

---- Real-time Memory Report at c_bands before calling an iterative solver
             0 MiB given to the printing process from OS
             0 MiB allocation reported by mallinfo(arena+hblkhd)
        168969 MiB available memory on the node where the printing process lives
------------------
     ethr =  1.43E-08,  avg # of iterations =  2.3

     negative rho (up, down):  7.927E-01 0.000E+00

     total cpu time spent up to now is      485.8 secs

     total energy              =   -4399.91438038 Ry
     estimated scf accuracy    <       0.00004150 Ry

     iteration # 33     ecut=    60.00 Ry     beta= 0.15
     Davidson diagonalization with overlap

---- Real-time Memory Report at c_bands before calling an iterative solver
             0 MiB given to the printing process from OS
             0 MiB allocation reported by mallinfo(arena+hblkhd)
        168969 MiB available memory on the node where the printing process lives
------------------
     ethr =  9.76E-09,  avg # of iterations =  2.3

     negative rho (up, down):  7.924E-01 0.000E+00

     total cpu time spent up to now is      499.3 secs

     total energy              =   -4399.91438402 Ry
     estimated scf accuracy    <       0.00001308 Ry

     iteration # 34     ecut=    60.00 Ry     beta= 0.15
     Davidson diagonalization with overlap

---- Real-time Memory Report at c_bands before calling an iterative solver
             0 MiB given to the printing process from OS
             0 MiB allocation reported by mallinfo(arena+hblkhd)
        168974 MiB available memory on the node where the printing process lives
------------------
     ethr =  3.08E-09,  avg # of iterations =  3.0

     negative rho (up, down):  7.923E-01 0.000E+00

     total cpu time spent up to now is      513.4 secs

     total energy              =   -4399.91438570 Ry
     estimated scf accuracy    <       0.00000861 Ry

     iteration # 35     ecut=    60.00 Ry     beta= 0.15
     Davidson diagonalization with overlap

---- Real-time Memory Report at c_bands before calling an iterative solver
             0 MiB given to the printing process from OS
             0 MiB allocation reported by mallinfo(arena+hblkhd)
        168965 MiB available memory on the node where the printing process lives
------------------
     ethr =  2.03E-09,  avg # of iterations =  2.1

     negative rho (up, down):  7.922E-01 0.000E+00

     total cpu time spent up to now is      526.9 secs

     total energy              =   -4399.91438809 Ry
     estimated scf accuracy    <       0.00000564 Ry

     iteration # 36     ecut=    60.00 Ry     beta= 0.15
     Davidson diagonalization with overlap

---- Real-time Memory Report at c_bands before calling an iterative solver
             0 MiB given to the printing process from OS
             0 MiB allocation reported by mallinfo(arena+hblkhd)
        168987 MiB available memory on the node where the printing process lives
------------------
     ethr =  1.33E-09,  avg # of iterations =  3.4

     negative rho (up, down):  7.922E-01 0.000E+00

     total cpu time spent up to now is      541.2 secs

     total energy              =   -4399.91438854 Ry
     estimated scf accuracy    <       0.00000264 Ry

     iteration # 37     ecut=    60.00 Ry     beta= 0.15
     Davidson diagonalization with overlap

---- Real-time Memory Report at c_bands before calling an iterative solver
             0 MiB given to the printing process from OS
             0 MiB allocation reported by mallinfo(arena+hblkhd)
        168980 MiB available memory on the node where the printing process lives
------------------
     ethr =  6.21E-10,  avg # of iterations =  2.8

     negative rho (up, down):  7.922E-01 0.000E+00

     total cpu time spent up to now is      554.9 secs

     total energy              =   -4399.91438845 Ry
     estimated scf accuracy    <       0.00000240 Ry

     iteration # 38     ecut=    60.00 Ry     beta= 0.15
     Davidson diagonalization with overlap

---- Real-time Memory Report at c_bands before calling an iterative solver
             0 MiB given to the printing process from OS
             0 MiB allocation reported by mallinfo(arena+hblkhd)
        168999 MiB available memory on the node where the printing process lives
------------------
     ethr =  5.64E-10,  avg # of iterations =  2.2

     negative rho (up, down):  7.923E-01 0.000E+00

     total cpu time spent up to now is      568.5 secs

     total energy              =   -4399.91438819 Ry
     estimated scf accuracy    <       0.00000192 Ry

     iteration # 39     ecut=    60.00 Ry     beta= 0.15
     Davidson diagonalization with overlap

---- Real-time Memory Report at c_bands before calling an iterative solver
             0 MiB given to the printing process from OS
             0 MiB allocation reported by mallinfo(arena+hblkhd)
        169012 MiB available memory on the node where the printing process lives
------------------
     ethr =  4.52E-10,  avg # of iterations =  2.2

     negative rho (up, down):  7.923E-01 0.000E+00

     total cpu time spent up to now is      582.0 secs

     total energy              =   -4399.91438820 Ry
     estimated scf accuracy    <       0.00000163 Ry

     iteration # 40     ecut=    60.00 Ry     beta= 0.15
     Davidson diagonalization with overlap

---- Real-time Memory Report at c_bands before calling an iterative solver
             0 MiB given to the printing process from OS
             0 MiB allocation reported by mallinfo(arena+hblkhd)
        169012 MiB available memory on the node where the printing process lives
------------------
     ethr =  3.84E-10,  avg # of iterations =  2.0

     negative rho (up, down):  7.924E-01 0.000E+00

     total cpu time spent up to now is      595.4 secs

     total energy              =   -4399.91438829 Ry
     estimated scf accuracy    <       0.00000094 Ry

     iteration # 41     ecut=    60.00 Ry     beta= 0.15
     Davidson diagonalization with overlap

---- Real-time Memory Report at c_bands before calling an iterative solver
             0 MiB given to the printing process from OS
             0 MiB allocation reported by mallinfo(arena+hblkhd)
        169012 MiB available memory on the node where the printing process lives
------------------
     ethr =  2.20E-10,  avg # of iterations =  2.1

     negative rho (up, down):  7.924E-01 0.000E+00

     total cpu time spent up to now is      608.9 secs

     total energy              =   -4399.91438845 Ry
     estimated scf accuracy    <       0.00000055 Ry

     iteration # 42     ecut=    60.00 Ry     beta= 0.15
     Davidson diagonalization with overlap

---- Real-time Memory Report at c_bands before calling an iterative solver
             0 MiB given to the printing process from OS
             0 MiB allocation reported by mallinfo(arena+hblkhd)
        169011 MiB available memory on the node where the printing process lives
------------------
     ethr =  1.30E-10,  avg # of iterations =  2.7

     negative rho (up, down):  7.924E-01 0.000E+00

     total cpu time spent up to now is      622.7 secs

     total energy              =   -4399.91438853 Ry
     estimated scf accuracy    <       0.00000027 Ry

     iteration # 43     ecut=    60.00 Ry     beta= 0.15
     Davidson diagonalization with overlap

---- Real-time Memory Report at c_bands before calling an iterative solver
             0 MiB given to the printing process from OS
             0 MiB allocation reported by mallinfo(arena+hblkhd)
        169018 MiB available memory on the node where the printing process lives
------------------
     ethr =  6.31E-11,  avg # of iterations =  2.8

     negative rho (up, down):  7.924E-01 0.000E+00

     total cpu time spent up to now is      636.4 secs

     total energy              =   -4399.91438855 Ry
     estimated scf accuracy    <       0.00000016 Ry

     iteration # 44     ecut=    60.00 Ry     beta= 0.15
     Davidson diagonalization with overlap

---- Real-time Memory Report at c_bands before calling an iterative solver
             0 MiB given to the printing process from OS
             0 MiB allocation reported by mallinfo(arena+hblkhd)
        169019 MiB available memory on the node where the printing process lives
------------------
     ethr =  3.81E-11,  avg # of iterations =  2.8

     negative rho (up, down):  7.924E-01 0.000E+00

     total cpu time spent up to now is      650.2 secs

     total energy              =   -4399.91438855 Ry
     estimated scf accuracy    <       0.00000007 Ry

     iteration # 45     ecut=    60.00 Ry     beta= 0.15
     Davidson diagonalization with overlap

---- Real-time Memory Report at c_bands before calling an iterative solver
             0 MiB given to the printing process from OS
             0 MiB allocation reported by mallinfo(arena+hblkhd)
        169020 MiB available memory on the node where the printing process lives
------------------
     ethr =  1.72E-11,  avg # of iterations =  2.2

     negative rho (up, down):  7.924E-01 0.000E+00

     total cpu time spent up to now is      663.9 secs

     total energy              =   -4399.91438856 Ry
     estimated scf accuracy    <       0.00000004 Ry

     iteration # 46     ecut=    60.00 Ry     beta= 0.15
     Davidson diagonalization with overlap

---- Real-time Memory Report at c_bands before calling an iterative solver
             0 MiB given to the printing process from OS
             0 MiB allocation reported by mallinfo(arena+hblkhd)
        169033 MiB available memory on the node where the printing process lives
------------------
     ethr =  1.01E-11,  avg # of iterations =  2.1

     negative rho (up, down):  7.924E-01 0.000E+00

     total cpu time spent up to now is      677.4 secs

     total energy              =   -4399.91438855 Ry
     estimated scf accuracy    <       0.00000003 Ry

     iteration # 47     ecut=    60.00 Ry     beta= 0.15
     Davidson diagonalization with overlap

---- Real-time Memory Report at c_bands before calling an iterative solver
             0 MiB given to the printing process from OS
             0 MiB allocation reported by mallinfo(arena+hblkhd)
        169038 MiB available memory on the node where the printing process lives
------------------
     ethr =  6.55E-12,  avg # of iterations =  2.6

     negative rho (up, down):  7.924E-01 0.000E+00

     total cpu time spent up to now is      691.1 secs

     total energy              =   -4399.91438855 Ry
     estimated scf accuracy    <       0.00000002 Ry

     iteration # 48     ecut=    60.00 Ry     beta= 0.15
     Davidson diagonalization with overlap

---- Real-time Memory Report at c_bands before calling an iterative solver
             0 MiB given to the printing process from OS
             0 MiB allocation reported by mallinfo(arena+hblkhd)
        169065 MiB available memory on the node where the printing process lives
------------------
     ethr =  4.41E-12,  avg # of iterations =  2.8

     negative rho (up, down):  7.924E-01 0.000E+00

     total cpu time spent up to now is      704.9 secs

     total energy              =   -4399.91438854 Ry
     estimated scf accuracy    <       0.00000001 Ry

     iteration # 49     ecut=    60.00 Ry     beta= 0.15
     Davidson diagonalization with overlap

---- Real-time Memory Report at c_bands before calling an iterative solver
             0 MiB given to the printing process from OS
             0 MiB allocation reported by mallinfo(arena+hblkhd)
        169069 MiB available memory on the node where the printing process lives
------------------
     ethr =  3.17E-12,  avg # of iterations =  2.8

     negative rho (up, down):  7.924E-01 0.000E+00

     total cpu time spent up to now is      718.4 secs

     End of self-consistent calculation

          k = 0.0000 0.0000 0.0000 ( 65197 PWs)   bands (ev):

   -92.7147 -92.6610 -92.5687 -92.5211 -92.4587 -92.4218 -92.4036 -92.2798
   -56.0681 -56.0478 -55.9260 -55.9154 -55.9077 -55.9022 -55.8644 -55.8379
   -55.8220 -55.8215 -55.8128 -55.7678 -55.7528 -55.7117 -55.6951 -55.6567
   -55.6553 -55.6094 -55.6073 -55.6068 -55.5984 -55.5540 -55.5340 -55.4463
   -31.2914 -31.2717 -31.1550 -31.1300 -31.0428 -31.0201 -30.9173 -30.6926
   -29.8638 -29.8198 -29.7941 -29.6853 -15.0954 -15.0547 -14.9725 -14.8412
   -14.6529 -14.5277 -14.2348 -14.2170 -14.1853 -14.1425 -14.0949 -14.0858
   -14.0763 -14.0569 -14.0385 -14.0045 -13.9458 -13.7954 -13.6192 -13.5827
   -13.5520 -13.5242 -13.5042 -13.4506 -13.4163 -13.3356 -13.2644 -13.1679
   -13.1477 -13.1240 -13.1091 -13.0890 -13.0709 -13.0402 -13.0192 -13.0060
   -12.9751 -12.9523 -12.9416 -12.9317 -12.9126 -12.8955 -12.8482 -12.8209
   -12.8044 -12.6479 -12.6456 -12.6281 -12.3556 -12.2101 -12.0535 -11.9780
   -11.8769 -11.8028 -11.7915 -11.7688 -11.7511 -11.6873 -11.6701 -11.6355
   -11.6069 -11.4945 -11.4147 -11.4110  -2.9566  -2.7239  -2.4940  -2.3481
    -2.2843  -2.1419  -1.8349  -1.8207  -1.8007  -1.7175  -1.6983  -1.6294
    -1.6131  -1.5705  -1.5287  -1.3469  -1.1238  -1.0927  -0.9450  -0.9311
    -0.8863  -0.8679  -0.8222  -0.8062  -0.7488  -0.7219  -0.6494  -0.6398
    -0.5615  -0.4299  -0.4171  -0.3892  -0.3081  -0.2913  -0.2809  -0.2181
    -0.1438  -0.0984  -0.0495  -0.0238   0.0420   0.1095   0.1657   0.1824
     0.1987   0.4542   0.4690   0.6389   0.7095   0.7735   0.8129   0.9057
     0.9189   0.9327   1.0063   1.0334   1.0669   1.1267   1.2587   1.3149
     1.3356   1.3552   1.3698   1.4326   1.5075   1.6109   1.6218   1.6845
     1.7005   1.7426   1.7576   1.7674   1.8195   1.8762   1.8875   1.9198
     1.9533   2.0095   2.1409   2.2289   2.2689   2.2783   2.4351   2.4464
     2.4983   2.5014   2.6029   2.6414   2.6665   2.6860   2.7012   2.7666
     2.7938   2.8963   2.9245   2.9382   2.9440   3.0110   3.0162   3.0395
     3.0474   3.0566   3.0649   3.0757   3.0877   3.0968   3.1057   3.1155
     3.1275   3.1430   3.1639   3.1689   3.1812   3.2213   3.3246   3.4250
     4.0986   4.4129   4.7533   4.8645   5.0344   5.8419   5.9442   5.9744
     5.9871   6.2999   6.3473   6.4787   6.4875   6.7367   7.0017   7.0918
     7.1307   7.2498   7.3033   7.5881   7.6216   7.6579   7.6740   7.9245
     8.0136   8.0948   8.1083   8.1727   8.4525   8.6393   8.7354   8.8513

     occupation numbers 
     1.0000   1.0000   1.0000   1.0000   1.0000   1.0000   1.0000   1.0000
     1.0000   1.0000   1.0000   1.0000   1.0000   1.0000   1.0000   1.0000
     1.0000   1.0000   1.0000   1.0000   1.0000   1.0000   1.0000   1.0000
     1.0000   1.0000   1.0000   1.0000   1.0000   1.0000   1.0000   1.0000
     1.0000   1.0000   1.0000   1.0000   1.0000   1.0000   1.0000   1.0000
     1.0000   1.0000   1.0000   1.0000   1.0000   1.0000   1.0000   1.0000
     1.0000   1.0000   1.0000   1.0000   1.0000   1.0000   1.0000   1.0000
     1.0000   1.0000   1.0000   1.0000   1.0000   1.0000   1.0000   1.0000
     1.0000   1.0000   1.0000   1.0000   1.0000   1.0000   1.0000   1.0000
     1.0000   1.0000   1.0000   1.0000   1.0000   1.0000   1.0000   1.0000
     1.0000   1.0000   1.0000   1.0000   1.0000   1.0000   1.0000   1.0000
     1.0000   1.0000   1.0000   1.0000   1.0000   1.0000   1.0000   1.0000
     1.0000   1.0000   1.0000   1.0000   1.0000   1.0000   1.0000   1.0000
     1.0000   1.0000   1.0000   1.0000   1.0000   1.0000   1.0000   1.0000
     1.0000   1.0000   1.0000   1.0000   1.0000   1.0000   1.0000   1.0000
     1.0000   1.0000   1.0000   1.0000   1.0000   1.0000   1.0000   1.0000
     1.0000   1.0000   1.0000   1.0000   1.0000   1.0000   1.0000   1.0000
     1.0000   1.0000   1.0000   1.0000   1.0000   1.0000   1.0000   1.0000
     1.0000   1.0000   1.0000   1.0000   1.0000   1.0000   1.0000   1.0000
     1.0000   1.0000   1.0000   1.0000   0.9999   0.9999   0.9999   0.9998
     0.9998   0.9998   0.9997   0.9996   0.9996   0.9994   0.9989   0.9985
     0.9983   0.9982   0.9980   0.9974   0.9963   0.9943   0.9940   0.9922
     0.9917   0.9901   0.9895   0.9891   0.9867   0.9836   0.9829   0.9807
     0.9782   0.9735   0.9591   0.9463   0.9395   0.9378   0.9038   0.9009
     0.8868   0.8859   0.8541   0.8406   0.8314   0.8240   0.8181   0.7914
     0.7796   0.7319   0.7179   0.7110   0.7081   0.6730   0.6702   0.6576
     0.6533   0.6482   0.6436   0.6376   0.6310   0.6258   0.6208   0.6153
     0.6084   0.5996   0.5875   0.5847   0.5775   0.5541   0.4931   0.4339
     0.1217   0.0512   0.0162   0.0106   0.0053   0.0001   0.0000   0.0000
     0.0000   0.0000   0.0000   0.0000   0.0000   0.0000   0.0000   0.0000
     0.0000   0.0000   0.0000   0.0000   0.0000   0.0000   0.0000   0.0000
     0.0000   0.0000   0.0000   0.0000   0.0000   0.0000   0.0000   0.0000

          k = 0.0000 0.2500 0.0000 ( 65257 PWs)   bands (ev):

   -92.7147 -92.6610 -92.5687 -92.5211 -92.4587 -92.4218 -92.4036 -92.2798
   -56.0681 -56.0478 -55.9260 -55.9154 -55.9077 -55.9022 -55.8644 -55.8379
   -55.8220 -55.8215 -55.8128 -55.7678 -55.7528 -55.7117 -55.6951 -55.6567
   -55.6553 -55.6094 -55.6073 -55.6068 -55.5984 -55.5540 -55.5340 -55.4463
   -31.2912 -31.2716 -31.1548 -31.1302 -31.0429 -31.0203 -30.9172 -30.6928
   -29.8632 -29.8195 -29.7947 -29.6857 -15.0586 -15.0283 -14.9473 -14.8121
   -14.6929 -14.5190 -14.3802 -14.2003 -14.1684 -14.1462 -14.1183 -14.0592
   -14.0525 -14.0378 -14.0224 -13.9794 -13.8650 -13.8264 -13.6619 -13.6441
   -13.5935 -13.5577 -13.5156 -13.4679 -13.4262 -13.3575 -13.3219 -13.2792
   -13.2192 -13.1616 -13.1350 -13.1207 -13.0973 -13.0098 -12.9856 -12.9604
   -12.9463 -12.9178 -12.9040 -12.8826 -12.8673 -12.8420 -12.8106 -12.7730
   -12.7449 -12.6394 -12.5757 -12.5139 -12.4169 -12.2613 -12.1083 -12.0422
   -11.8423 -11.7996 -11.7718 -11.7431 -11.7265 -11.6793 -11.6680 -11.6455
   -11.6117 -11.5087 -11.4562 -11.4457  -2.8213  -2.5995  -2.4618  -2.2800
    -2.2364  -2.0724  -1.8535  -1.7684  -1.7552  -1.6984  -1.5934  -1.5801
    -1.5467  -1.5192  -1.4758  -1.2780  -1.1490  -1.1376  -1.0617  -1.0511
    -0.9468  -0.9161  -0.8594  -0.8346  -0.7926  -0.7296  -0.7033  -0.6707
    -0.6393  -0.6226  -0.5895  -0.5148  -0.4645  -0.4015  -0.2845  -0.2675
    -0.2258  -0.1043  -0.0670  -0.0151   0.0398   0.0874   0.1140   0.1443
     0.2048   0.5008   0.5890   0.6232   0.7060   0.7500   0.7729   0.8911
     0.9103   1.0063   1.0326   1.0607   1.1742   1.2670   1.2911   1.3152
     1.3308   1.3584   1.4195   1.4453   1.4745   1.5216   1.5554   1.5844
     1.6710   1.7024   1.7344   1.7880   1.8443   1.8848   1.9089   1.9333
     1.9557   2.0427   2.1825   2.2494   2.2626   2.3433   2.3895   2.4310
     2.4386   2.4979   2.5400   2.6197   2.6606   2.6776   2.7857   2.8511
     2.8799   2.9081   2.9292   2.9436   2.9524   2.9611   2.9700   2.9993
     3.0017   3.0189   3.0256   3.0334   3.0520   3.0655   3.0740   3.0935
     3.1059   3.1114   3.1453   3.1612   3.2228   3.6002   3.6412   3.8631
     4.2880   4.4057   4.7004   5.0244   5.0515   5.6338   5.7799   5.9322
     5.9815   6.0791   6.0895   6.1768   6.5944   6.8149   6.9167   7.1057
     7.3181   7.3282   7.4753   7.4922   7.6354   7.7581   7.8525   7.9553
     8.0283   8.1058   8.1633   8.2853   8.3993   8.5263   8.7710   8.8836

     occupation numbers 
     1.0000   1.0000   1.0000   1.0000   1.0000   1.0000   1.0000   1.0000
     1.0000   1.0000   1.0000   1.0000   1.0000   1.0000   1.0000   1.0000
     1.0000   1.0000   1.0000   1.0000   1.0000   1.0000   1.0000   1.0000
     1.0000   1.0000   1.0000   1.0000   1.0000   1.0000   1.0000   1.0000
     1.0000   1.0000   1.0000   1.0000   1.0000   1.0000   1.0000   1.0000
     1.0000   1.0000   1.0000   1.0000   1.0000   1.0000   1.0000   1.0000
     1.0000   1.0000   1.0000   1.0000   1.0000   1.0000   1.0000   1.0000
     1.0000   1.0000   1.0000   1.0000   1.0000   1.0000   1.0000   1.0000
     1.0000   1.0000   1.0000   1.0000   1.0000   1.0000   1.0000   1.0000
     1.0000   1.0000   1.0000   1.0000   1.0000   1.0000   1.0000   1.0000
     1.0000   1.0000   1.0000   1.0000   1.0000   1.0000   1.0000   1.0000
     1.0000   1.0000   1.0000   1.0000   1.0000   1.0000   1.0000   1.0000
     1.0000   1.0000   1.0000   1.0000   1.0000   1.0000   1.0000   1.0000
     1.0000   1.0000   1.0000   1.0000   1.0000   1.0000   1.0000   1.0000
     1.0000   1.0000   1.0000   1.0000   1.0000   1.0000   1.0000   1.0000
     1.0000   1.0000   1.0000   1.0000   1.0000   1.0000   1.0000   1.0000
     1.0000   1.0000   1.0000   1.0000   1.0000   1.0000   1.0000   1.0000
     1.0000   1.0000   1.0000   1.0000   1.0000   1.0000   1.0000   1.0000
     1.0000   1.0000   1.0000   1.0000   1.0000   1.0000   1.0000   1.0000
     1.0000   1.0000   1.0000   1.0000   0.9999   0.9999   0.9999   0.9998
     0.9998   0.9997   0.9996   0.9996   0.9993   0.9988   0.9987   0.9985
     0.9984   0.9981   0.9975   0.9972   0.9968   0.9961   0.9955   0.9949
     0.9926   0.9916   0.9905   0.9882   0.9854   0.9830   0.9815   0.9797
     0.9781   0.9704   0.9534   0.9428   0.9406   0.9250   0.9148   0.9048
     0.9029   0.8869   0.8744   0.8483   0.8336   0.8272   0.7831   0.7535
     0.7399   0.7261   0.7155   0.7082   0.7037   0.6993   0.6947   0.6792
     0.6780   0.6687   0.6652   0.6609   0.6507   0.6433   0.6386   0.6277
     0.6207   0.6176   0.5983   0.5891   0.5532   0.3348   0.3130   0.2070
     0.0738   0.0523   0.0197   0.0055   0.0049   0.0003   0.0001   0.0001
     0.0000   0.0000   0.0000   0.0000   0.0000   0.0000   0.0000   0.0000
     0.0000   0.0000   0.0000   0.0000   0.0000   0.0000   0.0000   0.0000
     0.0000   0.0000   0.0000   0.0000   0.0000   0.0000   0.0000   0.0000

          k = 0.0000-0.5000 0.0000 ( 65180 PWs)   bands (ev):

   -92.7147 -92.6610 -92.5687 -92.5211 -92.4587 -92.4218 -92.4036 -92.2798
   -56.0681 -56.0478 -55.9260 -55.9154 -55.9077 -55.9022 -55.8644 -55.8379
   -55.8220 -55.8215 -55.8128 -55.7678 -55.7528 -55.7117 -55.6951 -55.6567
   -55.6553 -55.6094 -55.6073 -55.6068 -55.5984 -55.5540 -55.5340 -55.4463
   -31.2910 -31.2715 -31.1545 -31.1304 -31.0430 -31.0206 -30.9171 -30.6929
   -29.8626 -29.8192 -29.7954 -29.6860 -15.0244 -14.9765 -14.9224 -14.7980
   -14.7097 -14.5755 -14.4197 -14.3033 -14.1712 -14.1076 -14.0599 -14.0523
   -14.0018 -13.9853 -13.9382 -13.9187 -13.8924 -13.8589 -13.8282 -13.7850
   -13.5970 -13.5396 -13.5230 -13.4705 -13.4206 -13.3730 -13.3508 -13.3071
   -13.2966 -13.2311 -13.1338 -13.1204 -13.0871 -13.0285 -12.9803 -12.9670
   -12.9420 -12.9016 -12.8949 -12.8633 -12.8419 -12.7473 -12.7266 -12.7189
   -12.6657 -12.6399 -12.5278 -12.4537 -12.3364 -12.3299 -12.2025 -12.1569
   -11.7966 -11.7940 -11.7668 -11.7288 -11.6947 -11.6837 -11.6415 -11.6375
   -11.5933 -11.5304 -11.5165 -11.5027  -2.6060  -2.5479  -2.3962  -2.3242
    -2.0423  -1.9600  -1.8312  -1.6944  -1.6571  -1.6369  -1.5596  -1.5283
    -1.4458  -1.4111  -1.3332  -1.2933  -1.2546  -1.2278  -1.1697  -1.1332
    -1.0870  -1.0515  -1.0169  -0.9843  -0.8730  -0.8285  -0.7940  -0.7921
    -0.7062  -0.6750  -0.6522  -0.6055  -0.5181  -0.4442  -0.3606  -0.3352
    -0.2165  -0.1899  -0.0444  -0.0119   0.0240   0.0621   0.1838   0.2571
     0.3776   0.4444   0.4530   0.5818   0.6323   0.7125   0.8631   0.9635
     0.9966   1.0365   1.0443   1.0753   1.0975   1.1329   1.1489   1.1623
     1.2735   1.3310   1.3575   1.3801   1.6508   1.6749   1.7038   1.7879
     1.8127   1.8547   1.8723   1.8965   1.9082   1.9209   1.9453   1.9856
     2.0119   2.0376   2.0517   2.0804   2.1358   2.2207   2.2557   2.4212
     2.5843   2.5886   2.6115   2.6534   2.6585   2.6677   2.7133   2.7292
     2.7848   2.8060   2.8134   2.8826   2.8974   2.9672   2.9707   2.9961
     2.9981   3.0155   3.0190   3.0226   3.0296   3.0375   3.0540   3.0637
     3.0730   3.1300   3.1351   3.1513   3.2138   4.1040   4.1235   4.2049
     4.2480   4.7134   4.9064   5.0146   5.1526   5.4099   5.4572   5.5716
     5.7133   6.0046   6.0320   6.0711   6.6048   6.8457   6.9521   7.2138
     7.3000   7.3789   7.4436   7.5127   7.6610   7.7424   7.8646   7.9017
     8.1034   8.2311   8.3771   8.4866   8.6581   8.7252   8.7925   8.8135

     occupation numbers 
     1.0000   1.0000   1.0000   1.0000   1.0000   1.0000   1.0000   1.0000
     1.0000   1.0000   1.0000   1.0000   1.0000   1.0000   1.0000   1.0000
     1.0000   1.0000   1.0000   1.0000   1.0000   1.0000   1.0000   1.0000
     1.0000   1.0000   1.0000   1.0000   1.0000   1.0000   1.0000   1.0000
     1.0000   1.0000   1.0000   1.0000   1.0000   1.0000   1.0000   1.0000
     1.0000   1.0000   1.0000   1.0000   1.0000   1.0000   1.0000   1.0000
     1.0000   1.0000   1.0000   1.0000   1.0000   1.0000   1.0000   1.0000
     1.0000   1.0000   1.0000   1.0000   1.0000   1.0000   1.0000   1.0000
     1.0000   1.0000   1.0000   1.0000   1.0000   1.0000   1.0000   1.0000
     1.0000   1.0000   1.0000   1.0000   1.0000   1.0000   1.0000   1.0000
     1.0000   1.0000   1.0000   1.0000   1.0000   1.0000   1.0000   1.0000
     1.0000   1.0000   1.0000   1.0000   1.0000   1.0000   1.0000   1.0000
     1.0000   1.0000   1.0000   1.0000   1.0000   1.0000   1.0000   1.0000
     1.0000   1.0000   1.0000   1.0000   1.0000   1.0000   1.0000   1.0000
     1.0000   1.0000   1.0000   1.0000   1.0000   1.0000   1.0000   1.0000
     1.0000   1.0000   1.0000   1.0000   1.0000   1.0000   1.0000   1.0000
     1.0000   1.0000   1.0000   1.0000   1.0000   1.0000   1.0000   1.0000
     1.0000   1.0000   1.0000   1.0000   1.0000   1.0000   1.0000   1.0000
     1.0000   1.0000   1.0000   1.0000   1.0000   1.0000   1.0000   1.0000
     1.0000   1.0000   1.0000   1.0000   1.0000   0.9999   0.9999   0.9998
     0.9997   0.9996   0.9996   0.9996   0.9995   0.9994   0.9993   0.9993
     0.9988   0.9984   0.9982   0.9979   0.9932   0.9925   0.9916   0.9882
     0.9870   0.9848   0.9838   0.9823   0.9815   0.9806   0.9789   0.9756
     0.9733   0.9709   0.9694   0.9664   0.9598   0.9476   0.9418   0.9073
     0.8603   0.8589   0.8512   0.8363   0.8344   0.8310   0.8134   0.8069
     0.7835   0.7741   0.7709   0.7386   0.7314   0.6961   0.6943   0.6810
     0.6799   0.6706   0.6687   0.6668   0.6630   0.6587   0.6496   0.6443
     0.6392   0.6070   0.6041   0.5948   0.5585   0.1200   0.1143   0.0926
     0.0825   0.0188   0.0090   0.0058   0.0031   0.0009   0.0007   0.0004
     0.0002   0.0000   0.0000   0.0000   0.0000   0.0000   0.0000   0.0000
     0.0000   0.0000   0.0000   0.0000   0.0000   0.0000   0.0000   0.0000
     0.0000   0.0000   0.0000   0.0000   0.0000   0.0000   0.0000   0.0000

          k = 0.2500 0.2500 0.0000 ( 65198 PWs)   bands (ev):

   -92.7147 -92.6610 -92.5687 -92.5211 -92.4587 -92.4218 -92.4036 -92.2798
   -56.0681 -56.0478 -55.9260 -55.9154 -55.9077 -55.9022 -55.8644 -55.8379
   -55.8220 -55.8215 -55.8128 -55.7678 -55.7528 -55.7117 -55.6951 -55.6567
   -55.6553 -55.6094 -55.6073 -55.6068 -55.5984 -55.5540 -55.5340 -55.4463
   -31.2895 -31.2733 -31.1546 -31.1298 -31.0433 -31.0202 -30.9173 -30.6929
   -29.8622 -29.8205 -29.7943 -29.6861 -15.0302 -14.9929 -14.9194 -14.8018
   -14.6852 -14.5590 -14.4859 -14.2828 -14.1234 -14.1112 -14.0769 -14.0464
   -14.0233 -13.9959 -13.9672 -13.9423 -13.8567 -13.8407 -13.6777 -13.6652
   -13.6350 -13.6151 -13.5706 -13.5247 -13.4588 -13.4402 -13.3375 -13.3060
   -13.2434 -13.1574 -13.1185 -13.0955 -13.0594 -13.0329 -13.0008 -12.9683
   -12.9593 -12.9363 -12.8987 -12.8551 -12.8422 -12.7908 -12.7572 -12.7273
   -12.7144 -12.6414 -12.5402 -12.4654 -12.4055 -12.2904 -12.1350 -12.0920
   -11.8147 -11.7829 -11.7722 -11.7651 -11.7025 -11.6673 -11.6608 -11.6255
   -11.6181 -11.5253 -11.4844 -11.4671  -2.6830  -2.4738  -2.3556  -2.2624
    -2.1407  -2.0757  -1.8784  -1.7334  -1.7138  -1.6852  -1.5882  -1.5569
    -1.4629  -1.4348  -1.3848  -1.2536  -1.2056  -1.1333  -1.0882  -1.0434
    -1.0201  -0.9953  -0.9532  -0.9377  -0.8474  -0.7974  -0.7323  -0.6830
    -0.6526  -0.6029  -0.5906  -0.5267  -0.4765  -0.4210  -0.3850  -0.3004
    -0.2459  -0.2197  -0.1792  -0.1245  -0.0436  -0.0142   0.0083   0.0839
     0.1163   0.3929   0.5420   0.5768   0.6344   0.6753   0.7222   0.7783
     0.8476   0.8836   1.1557   1.2239   1.2976   1.3242   1.3710   1.4026
     1.4386   1.4765   1.4937   1.5218   1.5665   1.5725   1.5884   1.6300
     1.6684   1.7109   1.7736   1.8042   1.8170   1.8465   1.8822   1.9338
     1.9596   2.0829   2.1608   2.1966   2.2201   2.2785   2.3488   2.3795
     2.4166   2.4457   2.4510   2.5624   2.6014   2.6909   2.7991   2.8636
     2.8796   2.8854   2.9038   2.9195   2.9320   2.9429   2.9488   2.9598
     2.9753   2.9851   3.0032   3.0093   3.0214   3.0417   3.0553   3.0653
     3.0959   3.3969   3.4898   3.5327   3.6004   3.6545   3.8438   3.9403
     4.2990   4.4926   4.7008   4.9748   5.1681   5.6336   5.6858   5.7388
     5.8230   5.8827   6.0180   6.1593   6.2094   6.7354   6.8945   7.0621
     7.1960   7.5443   7.5950   7.6900   7.7030   7.8598   7.9425   8.1051
     8.1288   8.1783   8.3063   8.3698   8.4287   8.4467   8.5458   8.8388

     occupation numbers 
     1.0000   1.0000   1.0000   1.0000   1.0000   1.0000   1.0000   1.0000
     1.0000   1.0000   1.0000   1.0000   1.0000   1.0000   1.0000   1.0000
     1.0000   1.0000   1.0000   1.0000   1.0000   1.0000   1.0000   1.0000
     1.0000   1.0000   1.0000   1.0000   1.0000   1.0000   1.0000   1.0000
     1.0000   1.0000   1.0000   1.0000   1.0000   1.0000   1.0000   1.0000
     1.0000   1.0000   1.0000   1.0000   1.0000   1.0000   1.0000   1.0000
     1.0000   1.0000   1.0000   1.0000   1.0000   1.0000   1.0000   1.0000
     1.0000   1.0000   1.0000   1.0000   1.0000   1.0000   1.0000   1.0000
     1.0000   1.0000   1.0000   1.0000   1.0000   1.0000   1.0000   1.0000
     1.0000   1.0000   1.0000   1.0000   1.0000   1.0000   1.0000   1.0000
     1.0000   1.0000   1.0000   1.0000   1.0000   1.0000   1.0000   1.0000
     1.0000   1.0000   1.0000   1.0000   1.0000   1.0000   1.0000   1.0000
     1.0000   1.0000   1.0000   1.0000   1.0000   1.0000   1.0000   1.0000
     1.0000   1.0000   1.0000   1.0000   1.0000   1.0000   1.0000   1.0000
     1.0000   1.0000   1.0000   1.0000   1.0000   1.0000   1.0000   1.0000
     1.0000   1.0000   1.0000   1.0000   1.0000   1.0000   1.0000   1.0000
     1.0000   1.0000   1.0000   1.0000   1.0000   1.0000   1.0000   1.0000
     1.0000   1.0000   1.0000   1.0000   1.0000   1.0000   1.0000   1.0000
     1.0000   1.0000   1.0000   1.0000   1.0000   1.0000   1.0000   1.0000
     1.0000   1.0000   1.0000   1.0000   1.0000   1.0000   0.9999   0.9999
     0.9999   0.9998   0.9993   0.9990   0.9986   0.9984   0.9980   0.9977
     0.9973   0.9968   0.9965   0.9961   0.9952   0.9951   0.9948   0.9938
     0.9927   0.9913   0.9889   0.9875   0.9868   0.9853   0.9832   0.9797
     0.9778   0.9661   0.9564   0.9513   0.9477   0.9377   0.9239   0.9171
     0.9084   0.9011   0.8997   0.8675   0.8546   0.8221   0.7772   0.7477
     0.7400   0.7372   0.7282   0.7204   0.7141   0.7086   0.7056   0.7000
     0.6919   0.6867   0.6772   0.6739   0.6674   0.6564   0.6489   0.6434
     0.6263   0.4504   0.3964   0.3721   0.3347   0.3060   0.2152   0.1758
     0.0716   0.0399   0.0197   0.0068   0.0029   0.0003   0.0002   0.0002
     0.0001   0.0001   0.0000   0.0000   0.0000   0.0000   0.0000   0.0000
     0.0000   0.0000   0.0000   0.0000   0.0000   0.0000   0.0000   0.0000
     0.0000   0.0000   0.0000   0.0000   0.0000   0.0000   0.0000   0.0000

          k = 0.2500-0.5000 0.0000 ( 65138 PWs)   bands (ev):

   -92.7147 -92.6610 -92.5687 -92.5211 -92.4587 -92.4218 -92.4036 -92.2798
   -56.0681 -56.0478 -55.9260 -55.9154 -55.9077 -55.9022 -55.8644 -55.8379
   -55.8220 -55.8215 -55.8128 -55.7678 -55.7528 -55.7117 -55.6951 -55.6567
   -55.6553 -55.6094 -55.6073 -55.6068 -55.5984 -55.5540 -55.5340 -55.4463
   -31.2893 -31.2732 -31.1544 -31.1300 -31.0434 -31.0205 -30.9172 -30.6930
   -29.8616 -29.8202 -29.7950 -29.6864 -14.9938 -14.9495 -14.8792 -14.7678
   -14.7334 -14.6154 -14.5242 -14.3988 -14.0881 -14.0384 -14.0099 -13.9860
   -13.9722 -13.9570 -13.9229 -13.9069 -13.8753 -13.8341 -13.8170 -13.7736
   -13.6797 -13.6316 -13.5875 -13.5522 -13.4837 -13.4682 -13.3941 -13.3678
   -13.2203 -13.1557 -13.1395 -13.0758 -13.0424 -13.0097 -12.9963 -12.9725
   -12.9555 -12.9253 -12.8972 -12.8566 -12.8368 -12.7746 -12.7554 -12.6703
   -12.6483 -12.6338 -12.5344 -12.4259 -12.3339 -12.2983 -12.1936 -12.1631
   -11.7903 -11.7783 -11.7673 -11.7402 -11.7088 -11.6800 -11.6393 -11.6111
   -11.5894 -11.5435 -11.5178 -11.5068  -2.4641  -2.3999  -2.2699  -2.1930
    -2.0628  -1.9801  -1.8558  -1.7060  -1.6521  -1.6293  -1.5673  -1.5544
    -1.4565  -1.3906  -1.3045  -1.2554  -1.2461  -1.1829  -1.1404  -1.1059
    -1.0588  -1.0218  -0.9867  -0.9467  -0.9349  -0.8905  -0.8614  -0.8195
    -0.7884  -0.7213  -0.6203  -0.5819  -0.5017  -0.4359  -0.3871  -0.3455
    -0.3248  -0.2668  -0.1083  -0.0978   0.0005   0.0359   0.0441   0.0888
     0.1266   0.1586   0.1938   0.2614   0.5363   0.6325   0.6789   0.7416
     1.0220   1.0385   1.1282   1.1556   1.3209   1.3545   1.3965   1.4213
     1.4355   1.4564   1.5176   1.5649   1.6000   1.6722   1.7788   1.8097
     1.8291   1.8352   1.8760   1.8881   1.8993   1.9397   1.9494   1.9709
     1.9933   2.0173   2.0436   2.0737   2.1348   2.1757   2.2536   2.3901
     2.5395   2.5555   2.5735   2.5987   2.6205   2.6558   2.6777   2.6910
     2.7087   2.8115   2.8193   2.8675   2.8814   2.8848   2.9026   2.9195
     2.9339   2.9531   2.9630   2.9920   3.0018   3.0186   3.0260   3.0340
     3.0454   3.5562   3.5971   3.7288   3.7902   4.1096   4.1664   4.2027
     4.3081   4.7345   4.9261   5.0494   5.1251   5.2902   5.4242   5.5921
     5.6220   5.7522   5.7798   6.1776   6.3876   6.4605   6.5407   7.0864
     7.4508   7.5279   7.6707   7.6974   7.8039   7.8692   8.0291   8.1993
     8.2746   8.3774   8.4396   8.5193   8.5275   8.5834   8.7077   8.7591

     occupation numbers 
     1.0000   1.0000   1.0000   1.0000   1.0000   1.0000   1.0000   1.0000
     1.0000   1.0000   1.0000   1.0000   1.0000   1.0000   1.0000   1.0000
     1.0000   1.0000   1.0000   1.0000   1.0000   1.0000   1.0000   1.0000
     1.0000   1.0000   1.0000   1.0000   1.0000   1.0000   1.0000   1.0000
     1.0000   1.0000   1.0000   1.0000   1.0000   1.0000   1.0000   1.0000
     1.0000   1.0000   1.0000   1.0000   1.0000   1.0000   1.0000   1.0000
     1.0000   1.0000   1.0000   1.0000   1.0000   1.0000   1.0000   1.0000
     1.0000   1.0000   1.0000   1.0000   1.0000   1.0000   1.0000   1.0000
     1.0000   1.0000   1.0000   1.0000   1.0000   1.0000   1.0000   1.0000
     1.0000   1.0000   1.0000   1.0000   1.0000   1.0000   1.0000   1.0000
     1.0000   1.0000   1.0000   1.0000   1.0000   1.0000   1.0000   1.0000
     1.0000   1.0000   1.0000   1.0000   1.0000   1.0000   1.0000   1.0000
     1.0000   1.0000   1.0000   1.0000   1.0000   1.0000   1.0000   1.0000
     1.0000   1.0000   1.0000   1.0000   1.0000   1.0000   1.0000   1.0000
     1.0000   1.0000   1.0000   1.0000   1.0000   1.0000   1.0000   1.0000
     1.0000   1.0000   1.0000   1.0000   1.0000   1.0000   1.0000   1.0000
     1.0000   1.0000   1.0000   1.0000   1.0000   1.0000   1.0000   1.0000
     1.0000   1.0000   1.0000   1.0000   1.0000   1.0000   1.0000   1.0000
     1.0000   1.0000   1.0000   1.0000   1.0000   1.0000   1.0000   1.0000
     1.0000   1.0000   1.0000   1.0000   1.0000   1.0000   1.0000   0.9999
     0.9997   0.9996   0.9994   0.9993   0.9985   0.9982   0.9978   0.9975
     0.9973   0.9971   0.9962   0.9953   0.9945   0.9926   0.9886   0.9872
     0.9862   0.9859   0.9836   0.9828   0.9821   0.9793   0.9785   0.9768
     0.9750   0.9728   0.9703   0.9671   0.9599   0.9544   0.9421   0.9147
     0.8746   0.8696   0.8639   0.8555   0.8481   0.8354   0.8272   0.8221
     0.8152   0.7717   0.7682   0.7458   0.7391   0.7375   0.7288   0.7204
     0.7132   0.7034   0.6983   0.6832   0.6779   0.6689   0.6649   0.6606
     0.6544   0.3589   0.3365   0.2684   0.2392   0.1184   0.1025   0.0932
     0.0697   0.0174   0.0083   0.0050   0.0036   0.0017   0.0009   0.0004
     0.0003   0.0001   0.0001   0.0000   0.0000   0.0000   0.0000   0.0000
     0.0000   0.0000   0.0000   0.0000   0.0000   0.0000   0.0000   0.0000
     0.0000   0.0000   0.0000   0.0000   0.0000   0.0000   0.0000   0.0000

          k =-0.5000-0.5000 0.0000 ( 65132 PWs)   bands (ev):

   -92.7147 -92.6610 -92.5687 -92.5211 -92.4587 -92.4218 -92.4036 -92.2798
   -56.0681 -56.0478 -55.9260 -55.9154 -55.9077 -55.9022 -55.8644 -55.8379
   -55.8220 -55.8215 -55.8128 -55.7678 -55.7528 -55.7117 -55.6951 -55.6567
   -55.6553 -55.6094 -55.6073 -55.6068 -55.5984 -55.5540 -55.5340 -55.4463
   -31.2872 -31.2753 -31.1543 -31.1297 -31.0438 -31.0204 -30.9173 -30.6931
   -29.8606 -29.8212 -29.7946 -29.6868 -14.9470 -14.9221 -14.8047 -14.7914
   -14.6986 -14.6616 -14.6310 -14.4973 -14.0003 -13.9864 -13.9536 -13.9360
   -13.9167 -13.9028 -13.8751 -13.8651 -13.8495 -13.8434 -13.8279 -13.7487
   -13.7410 -13.7156 -13.6779 -13.6770 -13.5724 -13.5361 -13.4311 -13.4216
   -13.1714 -13.1368 -13.0637 -13.0470 -13.0386 -13.0065 -12.9976 -12.9884
   -12.9706 -12.9485 -12.8716 -12.8527 -12.8347 -12.8164 -12.7769 -12.6563
   -12.6176 -12.6098 -12.5507 -12.4008 -12.3303 -12.2660 -12.1829 -12.1735
   -11.7864 -11.7746 -11.7569 -11.7398 -11.7054 -11.6871 -11.6524 -11.5911
   -11.5716 -11.5658 -11.5157 -11.5127  -2.2401  -2.1636  -2.1557  -2.0838
    -2.0442  -1.9658  -1.8976  -1.7730  -1.6562  -1.6262  -1.5866  -1.5293
    -1.4578  -1.4434  -1.3715  -1.3302  -1.2137  -1.1840  -1.1373  -1.1064
    -1.0422  -0.9960  -0.9776  -0.9654  -0.9130  -0.8670  -0.8525  -0.7399
    -0.6823  -0.6348  -0.5849  -0.5606  -0.5485  -0.5119  -0.4702  -0.4344
    -0.4251  -0.3388  -0.2681  -0.2246  -0.1990  -0.1251  -0.0654  -0.0575
     0.0036   0.0235   0.0343   0.0420   0.5046   0.5594   0.6240   0.6496
     1.0504   1.0638   1.0942   1.1305   1.4057   1.4244   1.4318   1.4685
     1.6022   1.6964   1.7239   1.7603   1.7870   1.7998   1.8122   1.8441
     1.8563   1.8739   1.8804   1.9269   1.9363   1.9598   1.9805   1.9928
     2.0047   2.0483   2.0717   2.0838   2.1190   2.1434   2.2157   2.2828
     2.5523   2.5845   2.6035   2.6169   2.6252   2.6605   2.6640   2.6861
     2.6982   2.7133   2.7303   2.7475   2.8088   2.8136   2.8333   2.8381
     2.8527   2.8646   2.8820   2.8941   2.9154   2.9975   3.0047   3.0302
     3.0407   3.9754   4.0238   4.0375   4.1225   4.3041   4.3758   4.4045
     4.6447   4.7675   4.8500   4.9790   5.0666   5.0932   5.1914   5.2883
     5.3751   5.8579   5.8776   5.9516   6.0277   6.3723   6.5183   6.6134
     7.6886   7.8417   7.8939   7.9062   7.9417   7.9675   8.0028   8.0730
     8.2592   8.3479   8.4730   8.5769   8.5996   8.6146   8.6347   8.6613

     occupation numbers 
     1.0000   1.0000   1.0000   1.0000   1.0000   1.0000   1.0000   1.0000
     1.0000   1.0000   1.0000   1.0000   1.0000   1.0000   1.0000   1.0000
     1.0000   1.0000   1.0000   1.0000   1.0000   1.0000   1.0000   1.0000
     1.0000   1.0000   1.0000   1.0000   1.0000   1.0000   1.0000   1.0000
     1.0000   1.0000   1.0000   1.0000   1.0000   1.0000   1.0000   1.0000
     1.0000   1.0000   1.0000   1.0000   1.0000   1.0000   1.0000   1.0000
     1.0000   1.0000   1.0000   1.0000   1.0000   1.0000   1.0000   1.0000
     1.0000   1.0000   1.0000   1.0000   1.0000   1.0000   1.0000   1.0000
     1.0000   1.0000   1.0000   1.0000   1.0000   1.0000   1.0000   1.0000
     1.0000   1.0000   1.0000   1.0000   1.0000   1.0000   1.0000   1.0000
     1.0000   1.0000   1.0000   1.0000   1.0000   1.0000   1.0000   1.0000
     1.0000   1.0000   1.0000   1.0000   1.0000   1.0000   1.0000   1.0000
     1.0000   1.0000   1.0000   1.0000   1.0000   1.0000   1.0000   1.0000
     1.0000   1.0000   1.0000   1.0000   1.0000   1.0000   1.0000   1.0000
     1.0000   1.0000   1.0000   1.0000   1.0000   1.0000   1.0000   1.0000
     1.0000   1.0000   1.0000   1.0000   1.0000   1.0000   1.0000   1.0000
     1.0000   1.0000   1.0000   1.0000   1.0000   1.0000   1.0000   1.0000
     1.0000   1.0000   1.0000   1.0000   1.0000   1.0000   1.0000   1.0000
     1.0000   1.0000   1.0000   1.0000   1.0000   1.0000   1.0000   1.0000
     1.0000   1.0000   1.0000   1.0000   1.0000   1.0000   1.0000   1.0000
     0.9996   0.9996   0.9995   0.9994   0.9977   0.9975   0.9974   0.9969
     0.9945   0.9918   0.9908   0.9894   0.9883   0.9877   0.9871   0.9854
     0.9847   0.9837   0.9833   0.9802   0.9795   0.9777   0.9761   0.9750
     0.9740   0.9698   0.9673   0.9660   0.9619   0.9588   0.9484   0.9369
     0.8706   0.8603   0.8539   0.8493   0.8464   0.8336   0.8324   0.8240
     0.8193   0.8133   0.8065   0.7994   0.7729   0.7708   0.7618   0.7596
     0.7528   0.7472   0.7389   0.7330   0.7225   0.6802   0.6764   0.6626
     0.6569   0.1626   0.1456   0.1410   0.1146   0.0705   0.0572   0.0525
     0.0240   0.0154   0.0112   0.0067   0.0046   0.0041   0.0026   0.0017
     0.0011   0.0001   0.0001   0.0000   0.0000   0.0000   0.0000   0.0000
     0.0000   0.0000   0.0000   0.0000   0.0000   0.0000   0.0000   0.0000
     0.0000   0.0000   0.0000   0.0000   0.0000   0.0000   0.0000   0.0000

          k = 0.2500 0.0000 0.0000 ( 65257 PWs)   bands (ev):

   -92.7147 -92.6610 -92.5687 -92.5211 -92.4587 -92.4218 -92.4036 -92.2798
   -56.0681 -56.0478 -55.9260 -55.9154 -55.9077 -55.9022 -55.8644 -55.8379
[...]
     0.7451   0.7270   0.7172   0.7147   0.7034   0.6988   0.6915   0.6804
     0.6768   0.6649   0.6565   0.6542   0.6469   0.6336   0.6220   0.6187
     0.6140   0.6110   0.6053   0.5996   0.5197   0.3585   0.3178   0.2022
     0.0766   0.0469   0.0223   0.0058   0.0045   0.0003   0.0001   0.0001
     0.0000   0.0000   0.0000   0.0000   0.0000   0.0000   0.0000   0.0000
     0.0000   0.0000   0.0000   0.0000   0.0000   0.0000   0.0000   0.0000
     0.0000   0.0000   0.0000   0.0000   0.0000   0.0000   0.0000   0.0000

          k =-0.5000 0.0000 0.0000 ( 65180 PWs)   bands (ev):

   -92.7147 -92.6610 -92.5687 -92.5211 -92.4587 -92.4218 -92.4036 -92.2798
   -56.0681 -56.0478 -55.9260 -55.9154 -55.9077 -55.9022 -55.8644 -55.8379
   -55.8220 -55.8215 -55.8128 -55.7678 -55.7528 -55.7117 -55.6951 -55.6567
   -55.6553 -55.6094 -55.6073 -55.6068 -55.5984 -55.5540 -55.5340 -55.4463
   -31.2876 -31.2755 -31.1547 -31.1293 -31.0435 -31.0199 -30.9176 -30.6928
   -29.8618 -29.8218 -29.7933 -29.6861 -15.0292 -14.9782 -14.9168 -14.8107
   -14.7026 -14.5602 -14.4138 -14.2777 -14.1477 -14.1412 -14.1221 -14.0659
   -14.0053 -13.9731 -13.9253 -13.9229 -13.9044 -13.8530 -13.8429 -13.7401
   -13.5687 -13.5457 -13.5087 -13.5017 -13.4366 -13.3782 -13.3447 -13.2813
   -13.2634 -13.2577 -13.1253 -13.0678 -13.0556 -13.0331 -13.0228 -13.0174
   -12.9597 -12.9416 -12.9315 -12.9090 -12.8280 -12.6930 -12.6743 -12.6539
   -12.6461 -12.6383 -12.5538 -12.4887 -12.3641 -12.3402 -12.1920 -12.1469
   -11.7938 -11.7725 -11.7657 -11.7504 -11.7326 -11.6913 -11.6283 -11.6110
   -11.5788 -11.5327 -11.5235 -11.5080  -2.5963  -2.5579  -2.3938  -2.3549
    -2.0415  -1.9666  -1.8177  -1.7006  -1.6612  -1.6163  -1.5671  -1.5424
    -1.4199  -1.3751  -1.3605  -1.2777  -1.2428  -1.2280  -1.1953  -1.1378
    -1.0692  -1.0398  -1.0115  -0.9173  -0.8691  -0.8203  -0.7870  -0.7663
    -0.7372  -0.6879  -0.6638  -0.6230  -0.5273  -0.4583  -0.3893  -0.3291
    -0.1611  -0.1330  -0.0704  -0.0389   0.0331   0.0387   0.1762   0.2070
     0.2428   0.4266   0.5255   0.5724   0.6429   0.7214   0.8394   0.8553
     0.9925   1.0165   1.0686   1.0930   1.1313   1.1486   1.1910   1.2165
     1.2867   1.3287   1.3758   1.3838   1.6805   1.6942   1.7129   1.7325
     1.8451   1.8534   1.8656   1.8733   1.9040   1.9162   1.9526   1.9794
     1.9994   2.0632   2.0732   2.1259   2.1407   2.2049   2.3032   2.4168
     2.4864   2.5028   2.5785   2.6124   2.6408   2.6982   2.7122   2.7228
     2.7530   2.8044   2.8235   2.8711   2.9163   2.9535   2.9850   2.9898
     2.9909   3.0046   3.0176   3.0286   3.0448   3.0490   3.0725   3.0815
     3.0954   3.1151   3.1222   3.2502   3.2665   4.0369   4.1235   4.1910
     4.3133   4.7807   4.8647   5.0176   5.0376   5.4775   5.5065   5.5812
     5.6467   5.9555   6.0223   6.0471   6.7951   6.8018   6.9983   7.2729
     7.3044   7.3347   7.4080   7.4977   7.6714   7.7634   7.7700   7.8770
     8.0798   8.2616   8.3832   8.5152   8.6145   8.7033   8.7517   8.8416

     occupation numbers 
     1.0000   1.0000   1.0000   1.0000   1.0000   1.0000   1.0000   1.0000
     1.0000   1.0000   1.0000   1.0000   1.0000   1.0000   1.0000   1.0000
     1.0000   1.0000   1.0000   1.0000   1.0000   1.0000   1.0000   1.0000
     1.0000   1.0000   1.0000   1.0000   1.0000   1.0000   1.0000   1.0000
     1.0000   1.0000   1.0000   1.0000   1.0000   1.0000   1.0000   1.0000
     1.0000   1.0000   1.0000   1.0000   1.0000   1.0000   1.0000   1.0000
     1.0000   1.0000   1.0000   1.0000   1.0000   1.0000   1.0000   1.0000
     1.0000   1.0000   1.0000   1.0000   1.0000   1.0000   1.0000   1.0000
     1.0000   1.0000   1.0000   1.0000   1.0000   1.0000   1.0000   1.0000
     1.0000   1.0000   1.0000   1.0000   1.0000   1.0000   1.0000   1.0000
     1.0000   1.0000   1.0000   1.0000   1.0000   1.0000   1.0000   1.0000
     1.0000   1.0000   1.0000   1.0000   1.0000   1.0000   1.0000   1.0000
     1.0000   1.0000   1.0000   1.0000   1.0000   1.0000   1.0000   1.0000
     1.0000   1.0000   1.0000   1.0000   1.0000   1.0000   1.0000   1.0000
     1.0000   1.0000   1.0000   1.0000   1.0000   1.0000   1.0000   1.0000
     1.0000   1.0000   1.0000   1.0000   1.0000   1.0000   1.0000   1.0000
     1.0000   1.0000   1.0000   1.0000   1.0000   1.0000   1.0000   1.0000
     1.0000   1.0000   1.0000   1.0000   1.0000   1.0000   1.0000   1.0000
     1.0000   1.0000   1.0000   1.0000   1.0000   1.0000   1.0000   1.0000
     1.0000   1.0000   1.0000   1.0000   1.0000   0.9999   0.9999   0.9999
     0.9997   0.9997   0.9996   0.9995   0.9994   0.9993   0.9992   0.9991
     0.9987   0.9984   0.9980   0.9979   0.9923   0.9919   0.9912   0.9905
     0.9854   0.9849   0.9842   0.9837   0.9818   0.9810   0.9783   0.9762
     0.9744   0.9682   0.9672   0.9610   0.9591   0.9500   0.9331   0.9083
     0.8901   0.8855   0.8623   0.8509   0.8408   0.8193   0.8138   0.8095
     0.7971   0.7749   0.7663   0.7441   0.7220   0.7032   0.6868   0.6843
     0.6837   0.6764   0.6694   0.6635   0.6547   0.6524   0.6395   0.6344
     0.6266   0.6155   0.6114   0.5371   0.5274   0.1412   0.1143   0.0961
     0.0687   0.0146   0.0106   0.0057   0.0052   0.0007   0.0006   0.0004
     0.0003   0.0000   0.0000   0.0000   0.0000   0.0000   0.0000   0.0000
     0.0000   0.0000   0.0000   0.0000   0.0000   0.0000   0.0000   0.0000
     0.0000   0.0000   0.0000   0.0000   0.0000   0.0000   0.0000   0.0000

          k =-0.2500 0.2500 0.0000 ( 65198 PWs)   bands (ev):

   -92.7147 -92.6610 -92.5687 -92.5211 -92.4587 -92.4218 -92.4036 -92.2798
   -56.0681 -56.0478 -55.9260 -55.9154 -55.9077 -55.9022 -55.8644 -55.8379
   -55.8220 -55.8215 -55.8128 -55.7678 -55.7528 -55.7117 -55.6951 -55.6567
   -55.6553 -55.6094 -55.6073 -55.6068 -55.5984 -55.5540 -55.5340 -55.4463
   -31.2895 -31.2733 -31.1546 -31.1298 -31.0433 -31.0202 -30.9173 -30.6929
   -29.8622 -29.8205 -29.7943 -29.6861 -15.0315 -14.9917 -14.9182 -14.7998
   -14.6916 -14.5640 -14.4775 -14.2734 -14.1311 -14.1011 -14.0895 -14.0413
   -14.0169 -13.9976 -13.9843 -13.9432 -13.8529 -13.8414 -13.6861 -13.6616
   -13.6328 -13.6116 -13.5725 -13.5109 -13.4508 -13.4480 -13.3431 -13.3121
   -13.2372 -13.1608 -13.1206 -13.0833 -13.0531 -13.0239 -13.0025 -12.9703
   -12.9516 -12.9399 -12.9286 -12.8651 -12.8499 -12.7915 -12.7833 -12.7060
   -12.6897 -12.6405 -12.5013 -12.4552 -12.4483 -12.2961 -12.1439 -12.0803
   -11.8139 -11.7925 -11.7651 -11.7530 -11.7121 -11.6770 -11.6542 -11.6328
   -11.6103 -11.5251 -11.4799 -11.4703  -2.6813  -2.4727  -2.3514  -2.2641
    -2.1449  -2.0784  -1.8759  -1.7302  -1.7115  -1.6832  -1.5887  -1.5558
    -1.4625  -1.4287  -1.4020  -1.2592  -1.2041  -1.1360  -1.1071  -1.0470
    -1.0258  -0.9855  -0.9565  -0.9163  -0.8539  -0.8063  -0.7437  -0.6746
    -0.6489  -0.5973  -0.5700  -0.5241  -0.4667  -0.4234  -0.3804  -0.2801
    -0.2485  -0.2372  -0.1923  -0.1264  -0.0458  -0.0130   0.0162   0.0871
     0.1140   0.3743   0.5430   0.5858   0.6244   0.6819   0.7225   0.7811
     0.8536   0.8814   1.1636   1.2745   1.3142   1.3488   1.3522   1.3964
     1.4134   1.4574   1.4897   1.5038   1.5298   1.5743   1.5889   1.6285
     1.6467   1.6916   1.7886   1.7955   1.8161   1.8481   1.8798   1.9194
     1.9621   2.0756   2.1911   2.2164   2.2608   2.2815   2.3466   2.3917
     2.4191   2.4443   2.4628   2.5631   2.6006   2.6910   2.7990   2.8697
     2.8791   2.8920   2.9013   2.9117   2.9307   2.9343   2.9512   2.9601
     2.9740   2.9827   2.9968   3.0047   3.0108   3.0437   3.0545   3.0640
     3.0977   3.3900   3.4712   3.5341   3.6025   3.6663   3.8281   3.9495
     4.2988   4.4899   4.7026   4.9838   5.1678   5.6361   5.6809   5.7390
     5.8201   5.8834   6.0235   6.1695   6.1973   6.7419   6.8935   7.0666
     7.1864   7.5572   7.6027   7.6574   7.6944   7.8752   7.9293   8.1042
     8.1595   8.2013   8.2589   8.3143   8.4353   8.4626   8.6231   8.8586

     occupation numbers 
     1.0000   1.0000   1.0000   1.0000   1.0000   1.0000   1.0000   1.0000
     1.0000   1.0000   1.0000   1.0000   1.0000   1.0000   1.0000   1.0000
     1.0000   1.0000   1.0000   1.0000   1.0000   1.0000   1.0000   1.0000
     1.0000   1.0000   1.0000   1.0000   1.0000   1.0000   1.0000   1.0000
     1.0000   1.0000   1.0000   1.0000   1.0000   1.0000   1.0000   1.0000
     1.0000   1.0000   1.0000   1.0000   1.0000   1.0000   1.0000   1.0000
     1.0000   1.0000   1.0000   1.0000   1.0000   1.0000   1.0000   1.0000
     1.0000   1.0000   1.0000   1.0000   1.0000   1.0000   1.0000   1.0000
     1.0000   1.0000   1.0000   1.0000   1.0000   1.0000   1.0000   1.0000
     1.0000   1.0000   1.0000   1.0000   1.0000   1.0000   1.0000   1.0000
     1.0000   1.0000   1.0000   1.0000   1.0000   1.0000   1.0000   1.0000
     1.0000   1.0000   1.0000   1.0000   1.0000   1.0000   1.0000   1.0000
     1.0000   1.0000   1.0000   1.0000   1.0000   1.0000   1.0000   1.0000
     1.0000   1.0000   1.0000   1.0000   1.0000   1.0000   1.0000   1.0000
     1.0000   1.0000   1.0000   1.0000   1.0000   1.0000   1.0000   1.0000
     1.0000   1.0000   1.0000   1.0000   1.0000   1.0000   1.0000   1.0000
     1.0000   1.0000   1.0000   1.0000   1.0000   1.0000   1.0000   1.0000
     1.0000   1.0000   1.0000   1.0000   1.0000   1.0000   1.0000   1.0000
     1.0000   1.0000   1.0000   1.0000   1.0000   1.0000   1.0000   1.0000
     1.0000   1.0000   1.0000   1.0000   1.0000   1.0000   0.9999   0.9999
     0.9999   0.9998   0.9993   0.9988   0.9985   0.9982   0.9982   0.9978
     0.9976   0.9971   0.9966   0.9964   0.9959   0.9951   0.9948   0.9938
     0.9933   0.9920   0.9882   0.9879   0.9869   0.9852   0.9833   0.9807
     0.9776   0.9669   0.9521   0.9483   0.9409   0.9372   0.9243   0.9143
     0.9078   0.9014   0.8966   0.8672   0.8549   0.8221   0.7773   0.7448
     0.7402   0.7340   0.7295   0.7243   0.7148   0.7130   0.7044   0.6998
     0.6926   0.6880   0.6806   0.6764   0.6731   0.6553   0.6494   0.6442
     0.6253   0.4544   0.4071   0.3713   0.3335   0.2999   0.2221   0.1722
     0.0716   0.0402   0.0195   0.0065   0.0029   0.0003   0.0002   0.0002
     0.0001   0.0001   0.0000   0.0000   0.0000   0.0000   0.0000   0.0000
     0.0000   0.0000   0.0000   0.0000   0.0000   0.0000   0.0000   0.0000
     0.0000   0.0000   0.0000   0.0000   0.0000   0.0000   0.0000   0.0000

          k =-0.5000 0.2500 0.0000 ( 65138 PWs)   bands (ev):

   -92.7147 -92.6610 -92.5687 -92.5211 -92.4587 -92.4218 -92.4036 -92.2798
   -56.0681 -56.0478 -55.9260 -55.9154 -55.9077 -55.9022 -55.8644 -55.8379
   -55.8220 -55.8215 -55.8128 -55.7678 -55.7528 -55.7117 -55.6951 -55.6567
   -55.6553 -55.6094 -55.6073 -55.6068 -55.5984 -55.5540 -55.5340 -55.4463
   -31.2874 -31.2754 -31.1545 -31.1295 -31.0437 -31.0201 -30.9175 -30.6930
   -29.8612 -29.8215 -29.7939 -29.6865 -14.9964 -14.9518 -14.8736 -14.7763
   -14.7322 -14.6069 -14.5193 -14.3931 -14.0819 -14.0516 -14.0394 -13.9920
   -13.9742 -13.9463 -13.9120 -13.9090 -13.8818 -13.8447 -13.8332 -13.7315
   -13.6515 -13.6045 -13.6014 -13.5891 -13.4881 -13.4813 -13.3888 -13.3462
   -13.2136 -13.1788 -13.0920 -13.0717 -13.0397 -13.0291 -13.0029 -12.9736
   -12.9601 -12.9525 -12.9321 -12.8718 -12.8378 -12.7481 -12.7255 -12.6475
   -12.6347 -12.6258 -12.5520 -12.4400 -12.3356 -12.3143 -12.1878 -12.1570
   -11.7865 -11.7737 -11.7598 -11.7480 -11.7263 -11.6961 -11.6156 -11.6066
   -11.5840 -11.5472 -11.5193 -11.5105  -2.4540  -2.4121  -2.2635  -2.2216
    -2.0609  -1.9853  -1.8420  -1.7070  -1.6501  -1.6232  -1.5836  -1.5446
    -1.4646  -1.3496  -1.2924  -1.2695  -1.2443  -1.1678  -1.1388  -1.1005
    -1.0827  -1.0220  -0.9932  -0.9542  -0.9191  -0.8901  -0.8323  -0.8055
    -0.7638  -0.7292  -0.6252  -0.5968  -0.5104  -0.4506  -0.4170  -0.3608
    -0.2760  -0.2419  -0.1418  -0.0987  -0.0471   0.0069   0.0297   0.1060
     0.1267   0.1588   0.2169   0.2557   0.5638   0.6356   0.6789   0.6982
     1.0024   1.0538   1.1310   1.1560   1.3330   1.3705   1.4072   1.4198
     1.4382   1.4557   1.5263   1.5679   1.6120   1.6361   1.7666   1.8017
     1.8254   1.8355   1.8716   1.9032   1.9153   1.9268   1.9495   1.9739
     2.0125   2.0366   2.0673   2.0902   2.1179   2.1810   2.2987   2.4015
     2.4357   2.5016   2.5393   2.5963   2.6381   2.6442   2.6811   2.7015
     2.7360   2.8111   2.8237   2.8648   2.8812   2.8986   2.9061   2.9271
     2.9395   2.9574   2.9689   2.9879   2.9998   3.0117   3.0183   3.0286
     3.0400   3.5650   3.6361   3.7585   3.7836   4.0468   4.1505   4.1890
     4.3935   4.7744   4.8805   5.0177   5.0641   5.3907   5.4198   5.5969
     5.6104   5.7356   5.7662   6.0970   6.3899   6.4919   6.7001   6.9798
     7.4504   7.5314   7.7046   7.7199   7.7879   7.8819   8.0136   8.1442
     8.2818   8.3824   8.4255   8.5300   8.5545   8.5852   8.6567   8.7404

     occupation numbers 
     1.0000   1.0000   1.0000   1.0000   1.0000   1.0000   1.0000   1.0000
     1.0000   1.0000   1.0000   1.0000   1.0000   1.0000   1.0000   1.0000
     1.0000   1.0000   1.0000   1.0000   1.0000   1.0000   1.0000   1.0000
     1.0000   1.0000   1.0000   1.0000   1.0000   1.0000   1.0000   1.0000
     1.0000   1.0000   1.0000   1.0000   1.0000   1.0000   1.0000   1.0000
     1.0000   1.0000   1.0000   1.0000   1.0000   1.0000   1.0000   1.0000
     1.0000   1.0000   1.0000   1.0000   1.0000   1.0000   1.0000   1.0000
     1.0000   1.0000   1.0000   1.0000   1.0000   1.0000   1.0000   1.0000
     1.0000   1.0000   1.0000   1.0000   1.0000   1.0000   1.0000   1.0000
     1.0000   1.0000   1.0000   1.0000   1.0000   1.0000   1.0000   1.0000
     1.0000   1.0000   1.0000   1.0000   1.0000   1.0000   1.0000   1.0000
     1.0000   1.0000   1.0000   1.0000   1.0000   1.0000   1.0000   1.0000
     1.0000   1.0000   1.0000   1.0000   1.0000   1.0000   1.0000   1.0000
     1.0000   1.0000   1.0000   1.0000   1.0000   1.0000   1.0000   1.0000
     1.0000   1.0000   1.0000   1.0000   1.0000   1.0000   1.0000   1.0000
     1.0000   1.0000   1.0000   1.0000   1.0000   1.0000   1.0000   1.0000
     1.0000   1.0000   1.0000   1.0000   1.0000   1.0000   1.0000   1.0000
     1.0000   1.0000   1.0000   1.0000   1.0000   1.0000   1.0000   1.0000
     1.0000   1.0000   1.0000   1.0000   1.0000   1.0000   1.0000   1.0000
     1.0000   1.0000   1.0000   1.0000   1.0000   1.0000   1.0000   0.9999
     0.9997   0.9996   0.9994   0.9993   0.9984   0.9980   0.9977   0.9975
     0.9973   0.9971   0.9960   0.9952   0.9942   0.9936   0.9892   0.9876
     0.9864   0.9859   0.9838   0.9818   0.9810   0.9802   0.9785   0.9766
     0.9733   0.9710   0.9678   0.9653   0.9620   0.9536   0.9340   0.9120
     0.9036   0.8858   0.8747   0.8563   0.8418   0.8396   0.8259   0.8180
     0.8041   0.7719   0.7662   0.7471   0.7392   0.7308   0.7271   0.7166
     0.7104   0.7012   0.6952   0.6853   0.6790   0.6726   0.6691   0.6635
     0.6573   0.3540   0.3156   0.2541   0.2423   0.1379   0.1068   0.0966
     0.0543   0.0150   0.0100   0.0057   0.0047   0.0010   0.0009   0.0003
     0.0003   0.0002   0.0001   0.0000   0.0000   0.0000   0.0000   0.0000
     0.0000   0.0000   0.0000   0.0000   0.0000   0.0000   0.0000   0.0000
     0.0000   0.0000   0.0000   0.0000   0.0000   0.0000   0.0000   0.0000

     the Fermi energy is     3.3129 ev

!    total energy              =   -4399.91438855 Ry
     estimated scf accuracy    <          8.1E-09 Ry
     smearing contrib. (-TS)   =      -1.14530073 Ry
     internal energy E=F+TS    =   -4398.76908782 Ry

     The total energy is F=E-TS. E is the sum of the following terms:
     one-electron contribution =  -21253.04035668 Ry
     hartree contribution      =   10754.41576257 Ry
     xc contribution           =    -686.72699697 Ry
     ewald contribution        =    7053.22788232 Ry
     one-center paw contrib.   =    -266.64537905 Ry
      -> PAW hartree energy AE =      25.07605800 Ry
      -> PAW hartree energy PS =     -24.96114678 Ry
      -> PAW xc energy AE      =     -16.50505996 Ry
      -> PAW xc energy PS      =       6.86391552 Ry
      -> total E_H with PAW    =   10754.53067378 Ry
      -> total E_XC with PAW   =    -696.36814141 Ry

     convergence has been achieved in  49 iterations

     Writing all to output data dir /bsuhome/zayahcortright/scratch/pwscf.save/
 
     init_run     :      7.40s CPU      7.92s WALL (       1 calls)
     electrons    :    697.68s CPU    709.97s WALL (       1 calls)

     Called by init_run:
     wfcinit      :      5.89s CPU      6.02s WALL (       1 calls)
     wfcinit:atom :      0.05s CPU      0.06s WALL (       5 calls)
     wfcinit:wfcr :      5.57s CPU      5.65s WALL (       5 calls)
     potinit      :      0.16s CPU      0.18s WALL (       1 calls)
     hinit0       :      0.46s CPU      0.76s WALL (       1 calls)

     Called by electrons:
     c_bands      :    550.89s CPU    555.69s WALL (      49 calls)
     sum_band     :    109.89s CPU    114.20s WALL (      49 calls)
     v_of_rho     :      5.37s CPU      5.63s WALL (      50 calls)
     v_h          :      0.48s CPU      0.49s WALL (      50 calls)
     v_xc         :      4.89s CPU      5.15s WALL (      50 calls)
     newd         :     16.71s CPU     19.22s WALL (      50 calls)
     PAW_pot      :      1.61s CPU      1.64s WALL (      50 calls)
     mix_rho      :     12.93s CPU     13.19s WALL (      49 calls)

     Called by c_bands:
     init_us_2    :      6.87s CPU      6.92s WALL (     495 calls)
     init_us_2:cp :      6.86s CPU      6.92s WALL (     495 calls)
     cegterg      :    515.66s CPU    520.27s WALL (     245 calls)

     Called by sum_band:
     sum_band:wei :      0.34s CPU      0.34s WALL (      49 calls)
     sum_band:loo :     88.29s CPU     88.89s WALL (      49 calls)
     sum_band:buf :      1.40s CPU      1.41s WALL (     245 calls)
     sum_band:ini :      3.21s CPU      3.22s WALL (     245 calls)
     sum_band:cal :     18.20s CPU     18.25s WALL (     245 calls)
     sum_band:bec :      0.55s CPU      0.56s WALL (     245 calls)
     addusdens    :     18.31s CPU     21.99s WALL (      49 calls)
                                        0.00s GPU  (      49 calls)
     addusd:skk   :      0.33s CPU      0.68s WALL (     196 calls)
                                        0.00s GPU  (     196 calls)

     Called by *egterg:
     cdiaghg      :     54.09s CPU     54.33s WALL (    1331 calls)
     cegterg:over :     37.61s CPU     37.73s WALL (    1086 calls)
     cegterg:upda :     27.30s CPU     27.71s WALL (    1086 calls)
     cegterg:last :     56.79s CPU     56.96s WALL (     452 calls)
     cdiaghg:chol :      3.14s CPU      3.16s WALL (    1331 calls)
     cdiaghg:inve :      3.36s CPU      3.38s WALL (    1331 calls)
     cdiaghg:para :      7.10s CPU      7.14s WALL (    2662 calls)
     h_psi        :    286.41s CPU    289.04s WALL (    1336 calls)
     s_psi        :     38.80s CPU     38.92s WALL (    1336 calls)
     g_psi        :      0.97s CPU      0.98s WALL (    1086 calls)

     Called by h_psi:
     h_psi:calbec :     41.86s CPU     42.00s WALL (    1336 calls)
     vloc_psi     :    203.34s CPU    205.30s WALL (    1336 calls)
     add_vuspsi   :     38.12s CPU     38.24s WALL (    1336 calls)

     General routines
     calbec       :     60.05s CPU     60.24s WALL (    1581 calls)
     fft          :      3.57s CPU      3.62s WALL (     648 calls)
     ffts         :      4.82s CPU      4.85s WALL (    5213 calls)
     fftw         :    173.81s CPU    175.22s WALL (  327798 calls)
     interpolate  :      0.40s CPU      0.40s WALL (      50 calls)
 
     Parallel routines

     PAW routines
     PAW_pot      :      1.61s CPU      1.64s WALL (      50 calls)
 
     PWSCF        :  11m46.82s CPU  12m 2.46s WALL

 
   This run was terminated on:  17:37: 2  21Jun2024            

=------------------------------------------------------------------------------=
   JOB DONE.
=------------------------------------------------------------------------------=
