
     Program PWSCF v.7.2 starts on 21Jun2024 at 22:15:43 

     This program is part of the open-source Quantum ESPRESSO suite
     for quantum simulation of materials; please cite
         "P. Giannozzi et al., J. Phys.:Condens. Matter 21 395502 (2009);
         "P. Giannozzi et al., J. Phys.:Condens. Matter 29 465901 (2017);
         "P. Giannozzi et al., J. Chem. Phys. 152 154105 (2020);
          URL http://www.quantum-espresso.org", 
     in publications or presentations arising from this work. More details at
     http://www.quantum-espresso.org/quote

     Parallel version (MPI & OpenMP), running on      48 processor cores
     Number of MPI processes:                48
     Threads/MPI process:                     1

     MPI processes distributed on     1 nodes
     180148 MiB available memory on the printing compute node when the environment starts
 
     Reading input from espresso.pwi
Warning: card &CELL ignored
Warning: card / ignored
Warning: card &FCP ignored
Warning: card / ignored
Warning: card &RISM ignored
Warning: card / ignored

     Current dimensions of program PWSCF are:
     Max number of different atomic species (ntypx) = 10
     Max number of k-points (npk) =  40000
     Max angular momentum in pseudopotentials (lmaxx) =  4
     file O.pbe-n-kjpaw_psl.0.1.UPF: wavefunction(s)  2P renormalized
     signal trapping enabled: kill the code with -SIGUSR1 to stop cleanly the simulation 
 
     K-points division:     npool     =       2
     R & G space division:  proc/nbgrp/npool/nimage =      24
     Subspace diagonalization in iterative solution of the eigenvalue problem:
     one sub-group per band group will be used
     scalapack distributed-memory algorithm (size of sub-group:  3*  3 procs)

 
     Parallelization info
     --------------------
     sticks:   dense  smooth     PW     G-vecs:    dense   smooth      PW
     Min         350     175     47                61430    21716    3036
     Max         351     177     48                61449    21727    3041
     Sum        8421    4205   1137              1474595   521381   72913
 
     Using Slab Decomposition
 


     bravais-lattice index     =            0
     lattice parameter (alat)  =      14.8599  a.u.
     unit-cell volume          =    8305.1283 (a.u.)^3
     number of atoms/cell      =           49
     number of atomic types    =            4
     number of electrons       =       425.00
     number of Kohn-Sham states=          256
     kinetic-energy cutoff     =      60.0000  Ry
     charge density cutoff     =     480.0000  Ry
     scf convergence threshold =      1.0E-08
     mixing beta               =       0.1500
     number of iterations used =            8  local-TF  mixing
     Exchange-correlation= PBE
                           (   1   4   3   4   0   0   0)

     celldm(1)=  14.859904  celldm(2)=   0.000000  celldm(3)=   0.000000
     celldm(4)=   0.000000  celldm(5)=   0.000000  celldm(6)=   0.000000

     crystal axes: (cart. coord. in units of alat)
               a(1) = (   1.000000   0.000000   0.000000 )  
               a(2) = (   0.000000   1.000000   0.000000 )  
               a(3) = (   0.000000   0.000000   2.531036 )  

     reciprocal axes: (cart. coord. in units 2 pi/alat)
               b(1) = (  1.000000  0.000000  0.000000 )  
               b(2) = (  0.000000  1.000000  0.000000 )  
               b(3) = (  0.000000  0.000000  0.395095 )  


     PseudoPot. # 1 for Sr read from file:
     /bsuhome/zayahcortright/q-e/pseudo/Sr_pbe_v1.uspp.F.UPF
     MD5 check sum: 6b418c05fbe9db5448babca5e47b7a5b
     Pseudo is Ultrasoft + core correction, Zval = 10.0
     Generated by new atomic code, or converted to UPF format
     Using radial grid of  883 points,  6 beta functions with: 
                l(1) =   0
                l(2) =   0
                l(3) =   1
                l(4) =   1
                l(5) =   2
                l(6) =   2
     Q(r) pseudized with  6 coefficients,  rinner =    1.400   1.400   1.400
                                                       1.400   1.400

     PseudoPot. # 2 for O  read from file:
     /bsuhome/zayahcortright/q-e/pseudo/O.pbe-n-kjpaw_psl.0.1.UPF
     MD5 check sum: 0234752ac141de4415c5fc33072bef88
     Pseudo is Projector augmented-wave + core cor, Zval =  6.0
     Generated using "atomic" code by A. Dal Corso  v.5.0.99 svn rev. 10869
     Shape of augmentation charge: BESSEL
     Using radial grid of 1095 points,  4 beta functions with: 
                l(1) =   0
                l(2) =   0
                l(3) =   1
                l(4) =   1
     Q(r) pseudized with 0 coefficients 


     PseudoPot. # 3 for Co read from file:
     /bsuhome/zayahcortright/q-e/pseudo/Co_pbe_v1.2.uspp.F.UPF
     MD5 check sum: 5f91765df6ddd3222702df6e7b74a16d
     Pseudo is Ultrasoft + core correction, Zval = 17.0
     Generated by new atomic code, or converted to UPF format
     Using radial grid of  863 points,  6 beta functions with: 
                l(1) =   0
                l(2) =   0
                l(3) =   1
                l(4) =   1
                l(5) =   2
                l(6) =   2
     Q(r) pseudized with  8 coefficients,  rinner =    1.200   1.200   1.200
                                                       1.200   1.200

     PseudoPot. # 4 for H  read from file:
     /bsuhome/zayahcortright/q-e/pseudo/H.pbe-rrkjus_psl.1.0.0.UPF
     MD5 check sum: f52b6d4d1c606e5624b1dc7b2218f220
     Pseudo is Ultrasoft, Zval =  1.0
     Generated using "atomic" code by A. Dal Corso  v.5.1
     Using radial grid of  929 points,  2 beta functions with: 
                l(1) =   0
                l(2) =   0
     Q(r) pseudized with 0 coefficients 


     atomic species   valence    mass     pseudopotential
        Sr            10.00    87.62000     Sr( 1.00)
        O              6.00    15.99900     O ( 1.00)
        Co            17.00    58.93319     Co( 1.00)
        H              1.00     1.00800     H ( 1.00)

     No symmetry found


                                    s                        frac. trans.

      isym =  1     identity                                     

 cryst.   s( 1) = (     1          0          0      )
                  (     0          1          0      )
                  (     0          0          1      )

 cart.    s( 1) = (  1.0000000  0.0000000  0.0000000 )
                  (  0.0000000  1.0000000  0.0000000 )
                  (  0.0000000  0.0000000  1.0000000 )


   Cartesian axes

     site n.     atom                  positions (alat units)
         1           Sr  tau(   1) = (   0.2508693   0.7491307   1.7574407  )
         2           O   tau(   2) = (   0.4985141   0.5014859   1.7715967  )
         3           Sr  tau(   3) = (   0.7482398   0.7454518   1.7648669  )
         4           Sr  tau(   4) = (   0.7441748   0.2558252   1.7667843  )
         5           Sr  tau(   5) = (   0.2508693   0.7491307   1.2696799  )
         6           Sr  tau(   6) = (   0.2508693   0.7491307   0.7632319  )
         7           Co  tau(   7) = (   0.4998914   0.5001086   1.0164559  )
         8           Co  tau(   8) = (   0.4936915   0.5063085   1.5135603  )
         9           O   tau(   9) = (   0.4988895   0.7610401   1.0164559  )
        10           O   tau(  10) = (   0.2389599   0.5011105   1.0164559  )
        11           O   tau(  11) = (   0.0070918   0.7374880   1.0164559  )
        12           O   tau(  12) = (   0.0088340   0.7405089   1.5135603  )
        13           O   tau(  13) = (   0.5066944   0.7415376   1.5135603  )
        14           O   tau(  14) = (   0.2584624   0.4933056   1.5135603  )
        15           O   tau(  15) = (   0.4985141   0.5014859   0.7773880  )
        16           O   tau(  16) = (   0.4985141   0.5014859   1.2555238  )
        17           Sr  tau(  17) = (   0.7482398   0.7454518   0.7706582  )
        18           Sr  tau(  18) = (   0.7482398   0.7454518   1.2622536  )
        19           Sr  tau(  19) = (   0.7441748   0.2558252   0.7725755  )
        20           Sr  tau(  20) = (   0.7441748   0.2558252   1.2603363  )
        21           O   tau(  21) = (   0.7322655   0.0078049   1.5135603  )
        22           O   tau(  22) = (   0.7558175   0.4996027   1.5135603  )
        23           O   tau(  23) = (   0.5003973   0.2441825   1.5135603  )
        24           O   tau(  24) = (   0.7527966   0.4978604   1.0164559  )
        25           O   tau(  25) = (   0.5021396   0.2472034   1.0164559  )
        26           O   tau(  26) = (   0.7517679   0.0000000   1.0164559  )
        27           O   tau(  27) = (   0.0114961   0.4948124   1.7455321  )
        28           O   tau(  28) = (   0.0048226   0.0077944   1.7715967  )
        29           Sr  tau(  29) = (   0.2545482   0.2517602   1.7648669  )
        30           O   tau(  30) = (   0.5048017   0.0015068   1.7786929  )
        31           Co  tau(  31) = (   0.0056869   0.5006215   1.0164559  )
        32           Co  tau(  32) = (   0.0065315   0.4997770   1.5135603  )
        33           Co  tau(  33) = (   0.0061999   0.0064171   1.0164559  )
        34           Co  tau(  34) = (   0.0000000   0.0126169   1.5135603  )
        35           O   tau(  35) = (   0.0114961   0.4948124   1.2815885  )
        36           O   tau(  36) = (   0.0114961   0.4948124   0.7513233  )
        37           O   tau(  37) = (   0.0051979   0.2673486   1.0164559  )
        38           O   tau(  38) = (   0.0130029   0.2478461   1.5135603  )
        39           O   tau(  39) = (   0.0048226   0.0077944   0.7773880  )
        40           O   tau(  40) = (   0.0048226   0.0077944   1.2555238  )
        41           Sr  tau(  41) = (   0.2545482   0.2517602   0.7706582  )
        42           Sr  tau(  42) = (   0.2545482   0.2517602   1.2622536  )
        43           Co  tau(  43) = (   0.4989925   0.0073160   1.5135603  )
        44           Co  tau(  44) = (   0.4998370   0.0064714   1.0164559  )
        45           O   tau(  45) = (   0.5048017   0.0015068   0.7844841  )
        46           O   tau(  46) = (   0.5048017   0.0015068   1.2484277  )
        47           O   tau(  47) = (   0.2621260   0.0059111   1.5135603  )
        48           O   tau(  48) = (   0.2591051   0.0041689   1.0164559  )
        49           H   tau(  49) = (   0.8529874   0.4264937   2.1602013  )

   Crystallographic axes

     site n.     atom                  positions (cryst. coord.)
         1           Sr  tau(   1) = (  0.2508693  0.7491307  0.6943562  )
         2           O   tau(   2) = (  0.4985141  0.5014859  0.6999492  )
         3           Sr  tau(   3) = (  0.7482398  0.7454518  0.6972903  )
         4           Sr  tau(   4) = (  0.7441748  0.2558252  0.6980478  )
         5           Sr  tau(   5) = (  0.2508693  0.7491307  0.5016443  )
         6           Sr  tau(   6) = (  0.2508693  0.7491307  0.3015492  )
         7           Co  tau(   7) = (  0.4998914  0.5001086  0.4015968  )
         8           Co  tau(   8) = (  0.4936915  0.5063085  0.5980003  )
         9           O   tau(   9) = (  0.4988895  0.7610401  0.4015968  )
        10           O   tau(  10) = (  0.2389599  0.5011105  0.4015968  )
        11           O   tau(  11) = (  0.0070918  0.7374880  0.4015968  )
        12           O   tau(  12) = (  0.0088340  0.7405089  0.5980003  )
        13           O   tau(  13) = (  0.5066944  0.7415376  0.5980003  )
        14           O   tau(  14) = (  0.2584624  0.4933056  0.5980003  )
        15           O   tau(  15) = (  0.4985141  0.5014859  0.3071422  )
        16           O   tau(  16) = (  0.4985141  0.5014859  0.4960513  )
        17           Sr  tau(  17) = (  0.7482398  0.7454518  0.3044833  )
        18           Sr  tau(  18) = (  0.7482398  0.7454518  0.4987103  )
        19           Sr  tau(  19) = (  0.7441748  0.2558252  0.3052408  )
        20           Sr  tau(  20) = (  0.7441748  0.2558252  0.4979527  )
        21           O   tau(  21) = (  0.7322655  0.0078049  0.5980003  )
        22           O   tau(  22) = (  0.7558175  0.4996027  0.5980003  )
        23           O   tau(  23) = (  0.5003973  0.2441825  0.5980003  )
        24           O   tau(  24) = (  0.7527966  0.4978604  0.4015968  )
        25           O   tau(  25) = (  0.5021396  0.2472034  0.4015968  )
        26           O   tau(  26) = (  0.7517679  0.0000000  0.4015968  )
        27           O   tau(  27) = (  0.0114961  0.4948124  0.6896512  )
        28           O   tau(  28) = (  0.0048226  0.0077944  0.6999492  )
        29           Sr  tau(  29) = (  0.2545482  0.2517602  0.6972903  )
        30           O   tau(  30) = (  0.5048017  0.0015068  0.7027529  )
        31           Co  tau(  31) = (  0.0056869  0.5006215  0.4015968  )
        32           Co  tau(  32) = (  0.0065315  0.4997770  0.5980003  )
        33           Co  tau(  33) = (  0.0061999  0.0064171  0.4015968  )
        34           Co  tau(  34) = (  0.0000000  0.0126169  0.5980003  )
        35           O   tau(  35) = (  0.0114961  0.4948124  0.5063494  )
        36           O   tau(  36) = (  0.0114961  0.4948124  0.2968442  )
        37           O   tau(  37) = (  0.0051979  0.2673486  0.4015968  )
        38           O   tau(  38) = (  0.0130029  0.2478461  0.5980003  )
        39           O   tau(  39) = (  0.0048226  0.0077944  0.3071422  )
        40           O   tau(  40) = (  0.0048226  0.0077944  0.4960513  )
        41           Sr  tau(  41) = (  0.2545482  0.2517602  0.3044833  )
        42           Sr  tau(  42) = (  0.2545482  0.2517602  0.4987103  )
        43           Co  tau(  43) = (  0.4989925  0.0073160  0.5980003  )
        44           Co  tau(  44) = (  0.4998370  0.0064714  0.4015968  )
        45           O   tau(  45) = (  0.5048017  0.0015068  0.3099459  )
        46           O   tau(  46) = (  0.5048017  0.0015068  0.4932477  )
        47           O   tau(  47) = (  0.2621260  0.0059111  0.5980003  )
        48           O   tau(  48) = (  0.2591051  0.0041689  0.4015968  )
        49           H   tau(  49) = (  0.8529874  0.4264937  0.8534850  )

     number of k points=    10  Gaussian smearing, width (Ry)=  0.0700
                       cart. coord. in units 2pi/alat
        k(    1) = (   0.0000000   0.0000000   0.0000000), wk =   0.1250000
        k(    2) = (   0.0000000   0.2500000   0.0000000), wk =   0.2500000
        k(    3) = (   0.0000000  -0.5000000   0.0000000), wk =   0.1250000
        k(    4) = (   0.2500000   0.2500000   0.0000000), wk =   0.2500000
        k(    5) = (   0.2500000  -0.5000000   0.0000000), wk =   0.2500000
        k(    6) = (  -0.5000000  -0.5000000   0.0000000), wk =   0.1250000
        k(    7) = (   0.2500000   0.0000000   0.0000000), wk =   0.2500000
        k(    8) = (  -0.5000000   0.0000000   0.0000000), wk =   0.1250000
        k(    9) = (  -0.2500000   0.2500000   0.0000000), wk =   0.2500000
        k(   10) = (  -0.5000000   0.2500000   0.0000000), wk =   0.2500000

                       cryst. coord.
        k(    1) = (   0.0000000   0.0000000   0.0000000), wk =   0.1250000
        k(    2) = (   0.0000000   0.2500000   0.0000000), wk =   0.2500000
        k(    3) = (   0.0000000  -0.5000000   0.0000000), wk =   0.1250000
        k(    4) = (   0.2500000   0.2500000   0.0000000), wk =   0.2500000
        k(    5) = (   0.2500000  -0.5000000   0.0000000), wk =   0.2500000
        k(    6) = (  -0.5000000  -0.5000000   0.0000000), wk =   0.1250000
        k(    7) = (   0.2500000   0.0000000   0.0000000), wk =   0.2500000
        k(    8) = (  -0.5000000   0.0000000   0.0000000), wk =   0.1250000
        k(    9) = (  -0.2500000   0.2500000   0.0000000), wk =   0.2500000
        k(   10) = (  -0.5000000   0.2500000   0.0000000), wk =   0.2500000

     Dense  grid:  1474595 G-vectors     FFT dimensions: ( 108, 108, 270)

     Smooth grid:   521381 G-vectors     FFT dimensions: (  75,  75, 192)

     Dynamical RAM for                 wfc:      10.61 MB

     Dynamical RAM for     wfc (w. buffer):      63.63 MB

     Dynamical RAM for           str. fact:       3.75 MB

     Dynamical RAM for           local pot:       0.00 MB

     Dynamical RAM for          nlocal pot:      24.28 MB

     Dynamical RAM for                qrad:       7.03 MB

     Dynamical RAM for          rho,v,vnew:       6.02 MB

     Dynamical RAM for               rhoin:       2.01 MB

     Dynamical RAM for            rho*nmix:      15.00 MB

     Dynamical RAM for           G-vectors:       3.68 MB

     Dynamical RAM for          h,s,v(r/c):       1.32 MB

     Dynamical RAM for          <psi|beta>:       2.29 MB

     Dynamical RAM for                 psi:      21.21 MB

     Dynamical RAM for                hpsi:      21.21 MB

     Dynamical RAM for                spsi:      21.21 MB

     Dynamical RAM for      wfcinit/wfcrot:      34.09 MB

     Dynamical RAM for           addusdens:     100.79 MB

     Estimated static dynamical RAM per process >     120.42 MB

     Estimated max dynamical RAM per process >     236.21 MB

     Estimated total dynamical RAM >      10.72 GB

     Check: negative core charge=   -0.000004

     Initial potential from superposition of free atoms

     starting charge     416.5961, renormalised to     425.0000

     negative rho (up, down):  7.827E-01 0.000E+00
     Starting wfcs are  373 randomized atomic wfcs
     Checking if some PAW data can be deallocated... 
       PAW data deallocated on   20 nodes for type:  2

     total cpu time spent up to now is        8.6 secs

     Self-consistent Calculation

     iteration #  1     ecut=    60.00 Ry     beta= 0.15
     Davidson diagonalization with overlap

---- Real-time Memory Report at c_bands before calling an iterative solver
             0 MiB given to the printing process from OS
             0 MiB allocation reported by mallinfo(arena+hblkhd)
        170473 MiB available memory on the node where the printing process lives
------------------
     ethr =  1.00E-02,  avg # of iterations =  2.0

     negative rho (up, down):  7.719E-01 0.000E+00

     total cpu time spent up to now is       23.4 secs

     total energy              =   -4404.78645110 Ry
     estimated scf accuracy    <      42.21581604 Ry

     iteration #  2     ecut=    60.00 Ry     beta= 0.15
     Davidson diagonalization with overlap

---- Real-time Memory Report at c_bands before calling an iterative solver
             0 MiB given to the printing process from OS
             0 MiB allocation reported by mallinfo(arena+hblkhd)
        170718 MiB available memory on the node where the printing process lives
------------------
     ethr =  9.93E-03,  avg # of iterations =  1.0

     negative rho (up, down):  7.533E-01 0.000E+00

     total cpu time spent up to now is       35.4 secs

     total energy              =   -4400.02351323 Ry
     estimated scf accuracy    <      26.77003648 Ry

     iteration #  3     ecut=    60.00 Ry     beta= 0.15
     Davidson diagonalization with overlap

---- Real-time Memory Report at c_bands before calling an iterative solver
             0 MiB given to the printing process from OS
             0 MiB allocation reported by mallinfo(arena+hblkhd)
        169962 MiB available memory on the node where the printing process lives
------------------
     ethr =  6.30E-03,  avg # of iterations =  2.0

     negative rho (up, down):  7.545E-01 0.000E+00

     total cpu time spent up to now is       48.8 secs

     total energy              =   -4402.38716716 Ry
     estimated scf accuracy    <      49.25202239 Ry

     iteration #  4     ecut=    60.00 Ry     beta= 0.15
     Davidson diagonalization with overlap

---- Real-time Memory Report at c_bands before calling an iterative solver
             0 MiB given to the printing process from OS
             0 MiB allocation reported by mallinfo(arena+hblkhd)
        169826 MiB available memory on the node where the printing process lives
------------------
     ethr =  6.30E-03,  avg # of iterations =  1.0

     negative rho (up, down):  7.411E-01 0.000E+00

     total cpu time spent up to now is       61.1 secs

     total energy              =   -4401.65173526 Ry
     estimated scf accuracy    <      29.26094716 Ry

     iteration #  5     ecut=    60.00 Ry     beta= 0.15
     Davidson diagonalization with overlap

---- Real-time Memory Report at c_bands before calling an iterative solver
             0 MiB given to the printing process from OS
             0 MiB allocation reported by mallinfo(arena+hblkhd)
        169809 MiB available memory on the node where the printing process lives
------------------
     ethr =  6.30E-03,  avg # of iterations =  1.0

     negative rho (up, down):  7.471E-01 0.000E+00

     total cpu time spent up to now is       73.5 secs

     total energy              =   -4399.77814063 Ry
     estimated scf accuracy    <      44.24369962 Ry

     iteration #  6     ecut=    60.00 Ry     beta= 0.15
     Davidson diagonalization with overlap

---- Real-time Memory Report at c_bands before calling an iterative solver
             0 MiB given to the printing process from OS
             0 MiB allocation reported by mallinfo(arena+hblkhd)
        169796 MiB available memory on the node where the printing process lives
------------------
     ethr =  6.30E-03,  avg # of iterations =  1.0

     negative rho (up, down):  7.421E-01 0.000E+00

     total cpu time spent up to now is       85.9 secs

     total energy              =   -4400.64409908 Ry
     estimated scf accuracy    <      12.14347194 Ry

     iteration #  7     ecut=    60.00 Ry     beta= 0.15
     Davidson diagonalization with overlap

---- Real-time Memory Report at c_bands before calling an iterative solver
             0 MiB given to the printing process from OS
             0 MiB allocation reported by mallinfo(arena+hblkhd)
        169767 MiB available memory on the node where the printing process lives
------------------
     ethr =  2.86E-03,  avg # of iterations =  1.1

     negative rho (up, down):  7.443E-01 0.000E+00

     total cpu time spent up to now is       98.5 secs

     total energy              =   -4400.81687477 Ry
     estimated scf accuracy    <       4.04080872 Ry

     iteration #  8     ecut=    60.00 Ry     beta= 0.15
     Davidson diagonalization with overlap

---- Real-time Memory Report at c_bands before calling an iterative solver
             0 MiB given to the printing process from OS
             0 MiB allocation reported by mallinfo(arena+hblkhd)
        169749 MiB available memory on the node where the printing process lives
------------------
     ethr =  9.51E-04,  avg # of iterations =  1.8

     negative rho (up, down):  7.542E-01 0.000E+00

     total cpu time spent up to now is      111.3 secs

     total energy              =   -4400.28178856 Ry
     estimated scf accuracy    <       3.32138882 Ry

     iteration #  9     ecut=    60.00 Ry     beta= 0.15
     Davidson diagonalization with overlap

---- Real-time Memory Report at c_bands before calling an iterative solver
             0 MiB given to the printing process from OS
             0 MiB allocation reported by mallinfo(arena+hblkhd)
        169733 MiB available memory on the node where the printing process lives
------------------
     ethr =  7.82E-04,  avg # of iterations =  4.8

     negative rho (up, down):  7.758E-01 0.000E+00

     total cpu time spent up to now is      126.6 secs

     total energy              =   -4399.78198330 Ry
     estimated scf accuracy    <      45.21280817 Ry

     iteration # 10     ecut=    60.00 Ry     beta= 0.15
     Davidson diagonalization with overlap

---- Real-time Memory Report at c_bands before calling an iterative solver
             0 MiB given to the printing process from OS
             0 MiB allocation reported by mallinfo(arena+hblkhd)
        169585 MiB available memory on the node where the printing process lives
------------------
     ethr =  7.82E-04,  avg # of iterations =  9.5

     negative rho (up, down):  7.781E-01 0.000E+00

     total cpu time spent up to now is      144.8 secs

     total energy              =   -4399.82522513 Ry
     estimated scf accuracy    <      11.53220167 Ry

     iteration # 11     ecut=    60.00 Ry     beta= 0.15
     Davidson diagonalization with overlap

---- Real-time Memory Report at c_bands before calling an iterative solver
             0 MiB given to the printing process from OS
             0 MiB allocation reported by mallinfo(arena+hblkhd)
        169284 MiB available memory on the node where the printing process lives
------------------
     ethr =  7.82E-04,  avg # of iterations =  1.2

     negative rho (up, down):  7.812E-01 0.000E+00

     total cpu time spent up to now is      157.0 secs

     total energy              =   -4400.12126637 Ry
     estimated scf accuracy    <       1.29289430 Ry

     iteration # 12     ecut=    60.00 Ry     beta= 0.15
     Davidson diagonalization with overlap

---- Real-time Memory Report at c_bands before calling an iterative solver
             0 MiB given to the printing process from OS
             0 MiB allocation reported by mallinfo(arena+hblkhd)
        169221 MiB available memory on the node where the printing process lives
------------------
     ethr =  3.04E-04,  avg # of iterations =  1.3

     negative rho (up, down):  7.894E-01 0.000E+00

     total cpu time spent up to now is      169.4 secs

     total energy              =   -4400.10204971 Ry
     estimated scf accuracy    <       0.75230266 Ry

     iteration # 13     ecut=    60.00 Ry     beta= 0.15
     Davidson diagonalization with overlap

---- Real-time Memory Report at c_bands before calling an iterative solver
             0 MiB given to the printing process from OS
             0 MiB allocation reported by mallinfo(arena+hblkhd)
        169262 MiB available memory on the node where the printing process lives
------------------
     ethr =  1.77E-04,  avg # of iterations =  4.5

     negative rho (up, down):  8.004E-01 0.000E+00

     total cpu time spent up to now is      183.6 secs

     total energy              =   -4400.10357527 Ry
     estimated scf accuracy    <       1.54879743 Ry

     iteration # 14     ecut=    60.00 Ry     beta= 0.15
     Davidson diagonalization with overlap

---- Real-time Memory Report at c_bands before calling an iterative solver
             0 MiB given to the printing process from OS
             0 MiB allocation reported by mallinfo(arena+hblkhd)
        169254 MiB available memory on the node where the printing process lives
------------------
     ethr =  1.77E-04,  avg # of iterations =  6.2

     negative rho (up, down):  8.055E-01 0.000E+00

     total cpu time spent up to now is      199.5 secs

     total energy              =   -4400.01464241 Ry
     estimated scf accuracy    <       1.85348530 Ry

     iteration # 15     ecut=    60.00 Ry     beta= 0.15
     Davidson diagonalization with overlap

---- Real-time Memory Report at c_bands before calling an iterative solver
             0 MiB given to the printing process from OS
             0 MiB allocation reported by mallinfo(arena+hblkhd)
        169201 MiB available memory on the node where the printing process lives
------------------
     ethr =  1.77E-04,  avg # of iterations =  4.0

     negative rho (up, down):  8.087E-01 0.000E+00

     total cpu time spent up to now is      213.4 secs

     total energy              =   -4400.05159855 Ry
     estimated scf accuracy    <       0.36807444 Ry

     iteration # 16     ecut=    60.00 Ry     beta= 0.15
     Davidson diagonalization with overlap

---- Real-time Memory Report at c_bands before calling an iterative solver
             0 MiB given to the printing process from OS
             0 MiB allocation reported by mallinfo(arena+hblkhd)
        169179 MiB available memory on the node where the printing process lives
------------------
     c_bands:  3 eigenvalues not converged
     ethr =  8.66E-05,  avg # of iterations =  9.2

     negative rho (up, down):  8.123E-01 0.000E+00

     total cpu time spent up to now is      229.8 secs

     total energy              =   -4400.02304922 Ry
     estimated scf accuracy    <       0.30897301 Ry

     iteration # 17     ecut=    60.00 Ry     beta= 0.15
     Davidson diagonalization with overlap

---- Real-time Memory Report at c_bands before calling an iterative solver
             0 MiB given to the printing process from OS
             0 MiB allocation reported by mallinfo(arena+hblkhd)
        169252 MiB available memory on the node where the printing process lives
------------------
     ethr =  7.27E-05,  avg # of iterations =  8.3

     negative rho (up, down):  8.193E-01 0.000E+00

     total cpu time spent up to now is      246.1 secs

     total energy              =   -4399.95376084 Ry
     estimated scf accuracy    <       0.25097030 Ry

     iteration # 18     ecut=    60.00 Ry     beta= 0.15
     Davidson diagonalization with overlap

---- Real-time Memory Report at c_bands before calling an iterative solver
             0 MiB given to the printing process from OS
             0 MiB allocation reported by mallinfo(arena+hblkhd)
        169156 MiB available memory on the node where the printing process lives
------------------
     ethr =  5.91E-05,  avg # of iterations =  9.1

     negative rho (up, down):  8.210E-01 0.000E+00

     total cpu time spent up to now is      263.9 secs

     total energy              =   -4399.95397860 Ry
     estimated scf accuracy    <       0.12182812 Ry

     iteration # 19     ecut=    60.00 Ry     beta= 0.15
     Davidson diagonalization with overlap

---- Real-time Memory Report at c_bands before calling an iterative solver
             0 MiB given to the printing process from OS
             0 MiB allocation reported by mallinfo(arena+hblkhd)
        169133 MiB available memory on the node where the printing process lives
------------------
     ethr =  2.87E-05,  avg # of iterations =  7.1

     negative rho (up, down):  8.168E-01 0.000E+00

     total cpu time spent up to now is      279.9 secs

     total energy              =   -4399.94582198 Ry
     estimated scf accuracy    <       0.10534413 Ry

     iteration # 20     ecut=    60.00 Ry     beta= 0.15
     Davidson diagonalization with overlap

---- Real-time Memory Report at c_bands before calling an iterative solver
             0 MiB given to the printing process from OS
             0 MiB allocation reported by mallinfo(arena+hblkhd)
        169123 MiB available memory on the node where the printing process lives
------------------
     ethr =  2.48E-05,  avg # of iterations =  3.1

     negative rho (up, down):  8.115E-01 0.000E+00

     total cpu time spent up to now is      294.0 secs

     total energy              =   -4399.93167777 Ry
     estimated scf accuracy    <       0.07714719 Ry

     iteration # 21     ecut=    60.00 Ry     beta= 0.15
     Davidson diagonalization with overlap

---- Real-time Memory Report at c_bands before calling an iterative solver
             0 MiB given to the printing process from OS
             0 MiB allocation reported by mallinfo(arena+hblkhd)
        169118 MiB available memory on the node where the printing process lives
------------------
     ethr =  1.82E-05,  avg # of iterations = 10.3

     negative rho (up, down):  8.125E-01 0.000E+00

     total cpu time spent up to now is      311.7 secs

     total energy              =   -4399.93016796 Ry
     estimated scf accuracy    <       0.04420765 Ry

     iteration # 22     ecut=    60.00 Ry     beta= 0.15
     Davidson diagonalization with overlap

---- Real-time Memory Report at c_bands before calling an iterative solver
             0 MiB given to the printing process from OS
             0 MiB allocation reported by mallinfo(arena+hblkhd)
        169096 MiB available memory on the node where the printing process lives
------------------
     c_bands:  1 eigenvalues not converged
     ethr =  1.04E-05,  avg # of iterations = 10.6

     negative rho (up, down):  7.968E-01 0.000E+00

     total cpu time spent up to now is      328.9 secs

     total energy              =   -4399.92580697 Ry
     estimated scf accuracy    <       0.03111918 Ry

     iteration # 23     ecut=    60.00 Ry     beta= 0.15
     Davidson diagonalization with overlap

---- Real-time Memory Report at c_bands before calling an iterative solver
             0 MiB given to the printing process from OS
             0 MiB allocation reported by mallinfo(arena+hblkhd)
        169063 MiB available memory on the node where the printing process lives
------------------
     c_bands:  1 eigenvalues not converged
     ethr =  7.32E-06,  avg # of iterations =  8.1

     negative rho (up, down):  7.929E-01 0.000E+00

     total cpu time spent up to now is      345.4 secs

     total energy              =   -4399.92438490 Ry
     estimated scf accuracy    <       0.01814141 Ry

     iteration # 24     ecut=    60.00 Ry     beta= 0.15
     Davidson diagonalization with overlap

---- Real-time Memory Report at c_bands before calling an iterative solver
             0 MiB given to the printing process from OS
             0 MiB allocation reported by mallinfo(arena+hblkhd)
        169053 MiB available memory on the node where the printing process lives
------------------
     c_bands:  2 eigenvalues not converged
     ethr =  4.27E-06,  avg # of iterations = 11.7

     negative rho (up, down):  7.939E-01 0.000E+00

     total cpu time spent up to now is      363.3 secs

     total energy              =   -4399.92466883 Ry
     estimated scf accuracy    <       0.01045227 Ry

     iteration # 25     ecut=    60.00 Ry     beta= 0.15
     Davidson diagonalization with overlap

---- Real-time Memory Report at c_bands before calling an iterative solver
             0 MiB given to the printing process from OS
             0 MiB allocation reported by mallinfo(arena+hblkhd)
        169019 MiB available memory on the node where the printing process lives
------------------
     ethr =  2.46E-06,  avg # of iterations =  6.8

     negative rho (up, down):  7.925E-01 0.000E+00

     total cpu time spent up to now is      379.3 secs

     total energy              =   -4399.92391668 Ry
     estimated scf accuracy    <       0.00825327 Ry

     iteration # 26     ecut=    60.00 Ry     beta= 0.15
     Davidson diagonalization with overlap

---- Real-time Memory Report at c_bands before calling an iterative solver
             0 MiB given to the printing process from OS
             0 MiB allocation reported by mallinfo(arena+hblkhd)
        168979 MiB available memory on the node where the printing process lives
------------------
     ethr =  1.94E-06,  avg # of iterations =  4.8

     negative rho (up, down):  7.916E-01 0.000E+00

     total cpu time spent up to now is      394.2 secs

     total energy              =   -4399.92342917 Ry
     estimated scf accuracy    <       0.00519104 Ry

     iteration # 27     ecut=    60.00 Ry     beta= 0.15
     Davidson diagonalization with overlap

---- Real-time Memory Report at c_bands before calling an iterative solver
             0 MiB given to the printing process from OS
             0 MiB allocation reported by mallinfo(arena+hblkhd)
        168983 MiB available memory on the node where the printing process lives
------------------
     c_bands:  1 eigenvalues not converged
     ethr =  1.22E-06,  avg # of iterations =  7.7

     negative rho (up, down):  7.934E-01 0.000E+00

     total cpu time spent up to now is      410.6 secs

     total energy              =   -4399.92341497 Ry
     estimated scf accuracy    <       0.00272736 Ry

     iteration # 28     ecut=    60.00 Ry     beta= 0.15
     Davidson diagonalization with overlap

---- Real-time Memory Report at c_bands before calling an iterative solver
             0 MiB given to the printing process from OS
             0 MiB allocation reported by mallinfo(arena+hblkhd)
        168966 MiB available memory on the node where the printing process lives
------------------
     ethr =  6.42E-07,  avg # of iterations =  8.0

     negative rho (up, down):  7.948E-01 0.000E+00

     total cpu time spent up to now is      427.3 secs

     total energy              =   -4399.92322170 Ry
     estimated scf accuracy    <       0.00141308 Ry

     iteration # 29     ecut=    60.00 Ry     beta= 0.15
     Davidson diagonalization with overlap

---- Real-time Memory Report at c_bands before calling an iterative solver
             0 MiB given to the printing process from OS
             0 MiB allocation reported by mallinfo(arena+hblkhd)
        168993 MiB available memory on the node where the printing process lives
------------------
     c_bands:  1 eigenvalues not converged
     ethr =  3.32E-07,  avg # of iterations = 10.9

     negative rho (up, down):  7.960E-01 0.000E+00

     total cpu time spent up to now is      446.0 secs

     total energy              =   -4399.92330780 Ry
     estimated scf accuracy    <       0.00038881 Ry

     iteration # 30     ecut=    60.00 Ry     beta= 0.15
     Davidson diagonalization with overlap

---- Real-time Memory Report at c_bands before calling an iterative solver
             0 MiB given to the printing process from OS
             0 MiB allocation reported by mallinfo(arena+hblkhd)
        168932 MiB available memory on the node where the printing process lives
------------------
     c_bands:  1 eigenvalues not converged
     ethr =  9.15E-08,  avg # of iterations =  4.4

     negative rho (up, down):  7.962E-01 0.000E+00

     total cpu time spent up to now is      460.9 secs

     total energy              =   -4399.92332518 Ry
     estimated scf accuracy    <       0.00020257 Ry

     iteration # 31     ecut=    60.00 Ry     beta= 0.15
     Davidson diagonalization with overlap

---- Real-time Memory Report at c_bands before calling an iterative solver
             0 MiB given to the printing process from OS
             0 MiB allocation reported by mallinfo(arena+hblkhd)
        168962 MiB available memory on the node where the printing process lives
------------------
     ethr =  4.77E-08,  avg # of iterations =  2.0

     negative rho (up, down):  7.938E-01 0.000E+00

     total cpu time spent up to now is      474.3 secs

     total energy              =   -4399.92329766 Ry
     estimated scf accuracy    <       0.00014428 Ry

     iteration # 32     ecut=    60.00 Ry     beta= 0.15
     Davidson diagonalization with overlap

---- Real-time Memory Report at c_bands before calling an iterative solver
             0 MiB given to the printing process from OS
             0 MiB allocation reported by mallinfo(arena+hblkhd)
        168972 MiB available memory on the node where the printing process lives
------------------
     ethr =  3.39E-08,  avg # of iterations =  2.1

     negative rho (up, down):  7.934E-01 0.000E+00

     total cpu time spent up to now is      487.9 secs

     total energy              =   -4399.92330354 Ry
     estimated scf accuracy    <       0.00006644 Ry

     iteration # 33     ecut=    60.00 Ry     beta= 0.15
     Davidson diagonalization with overlap

---- Real-time Memory Report at c_bands before calling an iterative solver
             0 MiB given to the printing process from OS
             0 MiB allocation reported by mallinfo(arena+hblkhd)
        168974 MiB available memory on the node where the printing process lives
------------------
     ethr =  1.56E-08,  avg # of iterations =  2.0

     negative rho (up, down):  7.929E-01 0.000E+00

     total cpu time spent up to now is      501.7 secs

     total energy              =   -4399.92330999 Ry
     estimated scf accuracy    <       0.00003679 Ry

     iteration # 34     ecut=    60.00 Ry     beta= 0.15
     Davidson diagonalization with overlap

---- Real-time Memory Report at c_bands before calling an iterative solver
             0 MiB given to the printing process from OS
             0 MiB allocation reported by mallinfo(arena+hblkhd)
        168988 MiB available memory on the node where the printing process lives
------------------
     ethr =  8.66E-09,  avg # of iterations =  2.2

     negative rho (up, down):  7.926E-01 0.000E+00

     total cpu time spent up to now is      515.3 secs

     total energy              =   -4399.92331580 Ry
     estimated scf accuracy    <       0.00002085 Ry

     iteration # 35     ecut=    60.00 Ry     beta= 0.15
     Davidson diagonalization with overlap

---- Real-time Memory Report at c_bands before calling an iterative solver
             0 MiB given to the printing process from OS
             0 MiB allocation reported by mallinfo(arena+hblkhd)
        168987 MiB available memory on the node where the printing process lives
------------------
     ethr =  4.91E-09,  avg # of iterations =  2.8

     negative rho (up, down):  7.922E-01 0.000E+00

     total cpu time spent up to now is      529.1 secs

     total energy              =   -4399.92332041 Ry
     estimated scf accuracy    <       0.00001536 Ry

     iteration # 36     ecut=    60.00 Ry     beta= 0.15
     Davidson diagonalization with overlap

---- Real-time Memory Report at c_bands before calling an iterative solver
             0 MiB given to the printing process from OS
             0 MiB allocation reported by mallinfo(arena+hblkhd)
        168986 MiB available memory on the node where the printing process lives
------------------
     ethr =  3.61E-09,  avg # of iterations =  3.7

     negative rho (up, down):  7.922E-01 0.000E+00

     total cpu time spent up to now is      543.7 secs

     total energy              =   -4399.92332158 Ry
     estimated scf accuracy    <       0.00000599 Ry

     iteration # 37     ecut=    60.00 Ry     beta= 0.15
     Davidson diagonalization with overlap

---- Real-time Memory Report at c_bands before calling an iterative solver
             0 MiB given to the printing process from OS
             0 MiB allocation reported by mallinfo(arena+hblkhd)
        168975 MiB available memory on the node where the printing process lives
------------------
     ethr =  1.41E-09,  avg # of iterations =  2.1

     negative rho (up, down):  7.923E-01 0.000E+00

     total cpu time spent up to now is      557.2 secs

     total energy              =   -4399.92332258 Ry
     estimated scf accuracy    <       0.00000380 Ry

     iteration # 38     ecut=    60.00 Ry     beta= 0.15
     Davidson diagonalization with overlap

---- Real-time Memory Report at c_bands before calling an iterative solver
             0 MiB given to the printing process from OS
             0 MiB allocation reported by mallinfo(arena+hblkhd)
        168993 MiB available memory on the node where the printing process lives
------------------
     ethr =  8.95E-10,  avg # of iterations =  2.3

     negative rho (up, down):  7.924E-01 0.000E+00

     total cpu time spent up to now is      571.1 secs

     total energy              =   -4399.92332309 Ry
     estimated scf accuracy    <       0.00000307 Ry

     iteration # 39     ecut=    60.00 Ry     beta= 0.15
     Davidson diagonalization with overlap

---- Real-time Memory Report at c_bands before calling an iterative solver
             0 MiB given to the printing process from OS
             0 MiB allocation reported by mallinfo(arena+hblkhd)
        168987 MiB available memory on the node where the printing process lives
------------------
     ethr =  7.23E-10,  avg # of iterations =  2.8

     negative rho (up, down):  7.925E-01 0.000E+00

     total cpu time spent up to now is      585.1 secs

     total energy              =   -4399.92332316 Ry
     estimated scf accuracy    <       0.00000204 Ry

     iteration # 40     ecut=    60.00 Ry     beta= 0.15
     Davidson diagonalization with overlap

---- Real-time Memory Report at c_bands before calling an iterative solver
             0 MiB given to the printing process from OS
             0 MiB allocation reported by mallinfo(arena+hblkhd)
        168990 MiB available memory on the node where the printing process lives
------------------
     ethr =  4.80E-10,  avg # of iterations =  2.8

     negative rho (up, down):  7.926E-01 0.000E+00

     total cpu time spent up to now is      599.0 secs

     total energy              =   -4399.92332311 Ry
     estimated scf accuracy    <       0.00000097 Ry

     iteration # 41     ecut=    60.00 Ry     beta= 0.15
     Davidson diagonalization with overlap

---- Real-time Memory Report at c_bands before calling an iterative solver
             0 MiB given to the printing process from OS
             0 MiB allocation reported by mallinfo(arena+hblkhd)
        168990 MiB available memory on the node where the printing process lives
------------------
     ethr =  2.29E-10,  avg # of iterations =  2.3

     negative rho (up, down):  7.925E-01 0.000E+00

     total cpu time spent up to now is      612.8 secs

     total energy              =   -4399.92332314 Ry
     estimated scf accuracy    <       0.00000052 Ry

     iteration # 42     ecut=    60.00 Ry     beta= 0.15
     Davidson diagonalization with overlap

---- Real-time Memory Report at c_bands before calling an iterative solver
             0 MiB given to the printing process from OS
             0 MiB allocation reported by mallinfo(arena+hblkhd)
        168989 MiB available memory on the node where the printing process lives
------------------
     ethr =  1.23E-10,  avg # of iterations =  1.0

     negative rho (up, down):  7.925E-01 0.000E+00

     total cpu time spent up to now is      625.2 secs

     total energy              =   -4399.92332305 Ry
     estimated scf accuracy    <       0.00000038 Ry

     iteration # 43     ecut=    60.00 Ry     beta= 0.15
     Davidson diagonalization with overlap

---- Real-time Memory Report at c_bands before calling an iterative solver
             0 MiB given to the printing process from OS
             0 MiB allocation reported by mallinfo(arena+hblkhd)
        168989 MiB available memory on the node where the printing process lives
------------------
     ethr =  9.01E-11,  avg # of iterations =  2.0

     negative rho (up, down):  7.925E-01 0.000E+00

     total cpu time spent up to now is      638.9 secs

     total energy              =   -4399.92332318 Ry
     estimated scf accuracy    <       0.00000012 Ry

     iteration # 44     ecut=    60.00 Ry     beta= 0.15
     Davidson diagonalization with overlap

---- Real-time Memory Report at c_bands before calling an iterative solver
             0 MiB given to the printing process from OS
             0 MiB allocation reported by mallinfo(arena+hblkhd)
        168994 MiB available memory on the node where the printing process lives
------------------
     ethr =  2.80E-11,  avg # of iterations =  2.8

     negative rho (up, down):  7.925E-01 0.000E+00

     total cpu time spent up to now is      653.1 secs

     total energy              =   -4399.92332315 Ry
     estimated scf accuracy    <       0.00000009 Ry

     iteration # 45     ecut=    60.00 Ry     beta= 0.15
     Davidson diagonalization with overlap

---- Real-time Memory Report at c_bands before calling an iterative solver
             0 MiB given to the printing process from OS
             0 MiB allocation reported by mallinfo(arena+hblkhd)
        168984 MiB available memory on the node where the printing process lives
------------------
     ethr =  2.01E-11,  avg # of iterations =  2.1

     negative rho (up, down):  7.925E-01 0.000E+00

     total cpu time spent up to now is      666.8 secs

     total energy              =   -4399.92332315 Ry
     estimated scf accuracy    <       0.00000005 Ry

     iteration # 46     ecut=    60.00 Ry     beta= 0.15
     Davidson diagonalization with overlap

---- Real-time Memory Report at c_bands before calling an iterative solver
             0 MiB given to the printing process from OS
             0 MiB allocation reported by mallinfo(arena+hblkhd)
        168982 MiB available memory on the node where the printing process lives
------------------
     ethr =  1.23E-11,  avg # of iterations =  1.9

     negative rho (up, down):  7.925E-01 0.000E+00

     total cpu time spent up to now is      680.1 secs

     total energy              =   -4399.92332316 Ry
     estimated scf accuracy    <       0.00000004 Ry

     iteration # 47     ecut=    60.00 Ry     beta= 0.15
     Davidson diagonalization with overlap

---- Real-time Memory Report at c_bands before calling an iterative solver
             0 MiB given to the printing process from OS
             0 MiB allocation reported by mallinfo(arena+hblkhd)
        168983 MiB available memory on the node where the printing process lives
------------------
     ethr =  9.41E-12,  avg # of iterations =  2.1

     negative rho (up, down):  7.925E-01 0.000E+00

     total cpu time spent up to now is      694.1 secs

     total energy              =   -4399.92332322 Ry
     estimated scf accuracy    <       0.00000003 Ry

     iteration # 48     ecut=    60.00 Ry     beta= 0.15
     Davidson diagonalization with overlap

---- Real-time Memory Report at c_bands before calling an iterative solver
             0 MiB given to the printing process from OS
             0 MiB allocation reported by mallinfo(arena+hblkhd)
        168985 MiB available memory on the node where the printing process lives
------------------
     ethr =  6.11E-12,  avg # of iterations =  3.6

     negative rho (up, down):  7.924E-01 0.000E+00

     total cpu time spent up to now is      708.7 secs

     total energy              =   -4399.92332324 Ry
     estimated scf accuracy    <       0.00000001 Ry

     iteration # 49     ecut=    60.00 Ry     beta= 0.15
     Davidson diagonalization with overlap

---- Real-time Memory Report at c_bands before calling an iterative solver
             0 MiB given to the printing process from OS
             0 MiB allocation reported by mallinfo(arena+hblkhd)
        168985 MiB available memory on the node where the printing process lives
------------------
     ethr =  2.90E-12,  avg # of iterations =  3.7

     negative rho (up, down):  7.924E-01 0.000E+00

     total cpu time spent up to now is      722.3 secs

     End of self-consistent calculation

          k = 0.0000 0.0000 0.0000 ( 65197 PWs)   bands (ev):

   -92.7462 -92.6944 -92.6008 -92.5526 -92.4950 -92.4530 -92.4352 -92.3133
   -56.0996 -56.0802 -55.9578 -55.9469 -55.9403 -55.9337 -55.8975 -55.8698
   -55.8538 -55.8526 -55.8464 -55.8021 -55.7835 -55.7460 -55.7275 -55.6951
   -55.6879 -55.6410 -55.6405 -55.6381 -55.6297 -55.5882 -55.5656 -55.4788
   -31.3213 -31.3022 -31.1597 -31.0899 -31.0734 -30.9858 -30.8563 -30.8384
   -29.8935 -29.8511 -29.8243 -29.7164 -15.1265 -15.0842 -15.0013 -14.8722
   -14.6769 -14.5579 -14.2634 -14.2446 -14.2155 -14.1686 -14.1241 -14.1096
   -14.1022 -14.0824 -14.0670 -14.0156 -13.9763 -13.8234 -13.6407 -13.6114
   -13.5808 -13.5447 -13.5315 -13.4775 -13.4446 -13.3656 -13.2940 -13.1738
   -13.1541 -13.1439 -13.1188 -13.1008 -13.0920 -13.0515 -13.0417 -13.0333
   -12.9961 -12.9668 -12.9462 -12.9100 -12.8955 -12.8798 -12.8136 -12.8046
   -12.7992 -12.7385 -12.7095 -12.6922 -12.3862 -12.2401 -12.0794 -12.0060
   -11.9072 -11.8331 -11.8217 -11.7995 -11.7818 -11.7181 -11.7005 -11.6663
   -11.6365 -11.5253 -11.4454 -11.4419  -2.9869  -2.7548  -2.5253  -2.3774
    -2.3154  -2.1731  -1.8654  -1.8506  -1.8316  -1.7451  -1.7279  -1.6596
    -1.6434  -1.6023  -1.5586  -1.3772  -1.1514  -1.1207  -0.9760  -0.9615
    -0.9160  -0.8950  -0.8504  -0.8351  -0.7797  -0.7520  -0.6791  -0.6691
    -0.5921  -0.4604  -0.4477  -0.4181  -0.3375  -0.3147  -0.2884  -0.2452
    -0.1736  -0.1307  -0.0764  -0.0536   0.0107   0.0829   0.1346   0.1560
     0.1661   0.4255   0.4417   0.6140   0.6782   0.7418   0.7866   0.8790
     0.8902   0.9064   0.9772   1.0045   1.0380   1.0961   1.2283   1.2842
     1.3064   1.3304   1.3433   1.4047   1.4759   1.5837   1.5988   1.6548
     1.6681   1.7122   1.7314   1.7409   1.7956   1.8517   1.8604   1.8935
     1.9193   1.9804   2.1114   2.1983   2.2401   2.2546   2.4026   2.4169
     2.4663   2.4677   2.5744   2.6111   2.6326   2.6555   2.6744   2.7440
     2.7593   2.8610   2.9003   2.9064   2.9123   2.9799   2.9903   3.0091
     3.0157   3.0243   3.0348   3.0443   3.0576   3.0648   3.0747   3.0833
     3.0908   3.1113   3.1327   3.1376   3.1498   3.1724   3.2906   3.3946
     4.0634   4.3804   4.7263   4.8490   4.9941   5.8756   5.9281   5.9591
     6.0025   6.2708   6.3160   6.4595   6.4692   6.7519   6.9819   7.0750
     7.1928   7.2747   7.4028   7.5947   7.6274   7.6492   7.7317   7.8829
     8.0002   8.0848   8.1341   8.1967   8.4277   8.6068   8.8015   8.8768

     occupation numbers 
     1.0000   1.0000   1.0000   1.0000   1.0000   1.0000   1.0000   1.0000
     1.0000   1.0000   1.0000   1.0000   1.0000   1.0000   1.0000   1.0000
     1.0000   1.0000   1.0000   1.0000   1.0000   1.0000   1.0000   1.0000
     1.0000   1.0000   1.0000   1.0000   1.0000   1.0000   1.0000   1.0000
     1.0000   1.0000   1.0000   1.0000   1.0000   1.0000   1.0000   1.0000
     1.0000   1.0000   1.0000   1.0000   1.0000   1.0000   1.0000   1.0000
     1.0000   1.0000   1.0000   1.0000   1.0000   1.0000   1.0000   1.0000
     1.0000   1.0000   1.0000   1.0000   1.0000   1.0000   1.0000   1.0000
     1.0000   1.0000   1.0000   1.0000   1.0000   1.0000   1.0000   1.0000
     1.0000   1.0000   1.0000   1.0000   1.0000   1.0000   1.0000   1.0000
     1.0000   1.0000   1.0000   1.0000   1.0000   1.0000   1.0000   1.0000
     1.0000   1.0000   1.0000   1.0000   1.0000   1.0000   1.0000   1.0000
     1.0000   1.0000   1.0000   1.0000   1.0000   1.0000   1.0000   1.0000
     1.0000   1.0000   1.0000   1.0000   1.0000   1.0000   1.0000   1.0000
     1.0000   1.0000   1.0000   1.0000   1.0000   1.0000   1.0000   1.0000
     1.0000   1.0000   1.0000   1.0000   1.0000   1.0000   1.0000   1.0000
     1.0000   1.0000   1.0000   1.0000   1.0000   1.0000   1.0000   1.0000
     1.0000   1.0000   1.0000   1.0000   1.0000   1.0000   1.0000   1.0000
     1.0000   1.0000   1.0000   1.0000   1.0000   1.0000   1.0000   1.0000
     1.0000   1.0000   1.0000   1.0000   0.9999   0.9999   0.9999   0.9998
     0.9998   0.9998   0.9997   0.9996   0.9996   0.9994   0.9989   0.9985
     0.9983   0.9981   0.9980   0.9973   0.9963   0.9941   0.9938   0.9921
     0.9917   0.9901   0.9893   0.9889   0.9863   0.9831   0.9826   0.9803
     0.9784   0.9733   0.9588   0.9461   0.9390   0.9363   0.9041   0.9004
     0.8869   0.8865   0.8531   0.8402   0.8324   0.8237   0.8163   0.7876
     0.7809   0.7338   0.7143   0.7112   0.7082   0.6728   0.6672   0.6570
     0.6534   0.6487   0.6429   0.6376   0.6302   0.6262   0.6206   0.6157
     0.6114   0.5997   0.5874   0.5846   0.5775   0.5643   0.4946   0.4333
     0.1228   0.0514   0.0160   0.0100   0.0055   0.0001   0.0000   0.0000
     0.0000   0.0000   0.0000   0.0000   0.0000   0.0000   0.0000   0.0000
     0.0000   0.0000   0.0000   0.0000   0.0000   0.0000   0.0000   0.0000
     0.0000   0.0000   0.0000   0.0000   0.0000   0.0000   0.0000   0.0000

          k = 0.0000 0.2500 0.0000 ( 65257 PWs)   bands (ev):

   -92.7462 -92.6944 -92.6008 -92.5526 -92.4950 -92.4530 -92.4352 -92.3133
   -56.0996 -56.0802 -55.9578 -55.9469 -55.9403 -55.9337 -55.8975 -55.8698
   -55.8538 -55.8526 -55.8464 -55.8021 -55.7835 -55.7460 -55.7275 -55.6951
   -55.6879 -55.6410 -55.6405 -55.6381 -55.6297 -55.5882 -55.5656 -55.4788
   -31.3211 -31.3020 -31.1599 -31.0898 -31.0736 -30.9856 -30.8565 -30.8386
   -29.8929 -29.8508 -29.8250 -29.7168 -15.0898 -15.0580 -14.9765 -14.8426
   -14.7197 -14.5460 -14.4099 -14.2297 -14.1951 -14.1745 -14.1437 -14.0889
   -14.0779 -14.0659 -14.0466 -13.9899 -13.8952 -13.8548 -13.6918 -13.6654
   -13.6227 -13.5854 -13.5337 -13.4968 -13.4484 -13.3869 -13.3512 -13.2853
   -13.2220 -13.1912 -13.1525 -13.1362 -13.0804 -13.0284 -13.0043 -12.9774
   -12.9477 -12.9284 -12.9109 -12.9013 -12.8786 -12.8416 -12.7955 -12.7555
   -12.7144 -12.7008 -12.6513 -12.5688 -12.4475 -12.2913 -12.1357 -12.0716
   -11.8727 -11.8300 -11.8017 -11.7737 -11.7573 -11.7100 -11.6985 -11.6757
   -11.6420 -11.5395 -11.4871 -11.4766  -2.8515  -2.6305  -2.4928  -2.3103
    -2.2669  -2.1034  -1.8825  -1.7995  -1.7865  -1.7254  -1.6254  -1.6103
    -1.5767  -1.5494  -1.5056  -1.3083  -1.1784  -1.1674  -1.0901  -1.0810
    -0.9769  -0.9467  -0.8879  -0.8620  -0.8229  -0.7586  -0.7323  -0.6994
    -0.6694  -0.6525  -0.6193  -0.5458  -0.4947  -0.4213  -0.3139  -0.2876
    -0.2494  -0.1360  -0.1000  -0.0406   0.0129   0.0653   0.0834   0.1140
     0.1714   0.4726   0.5613   0.5968   0.6782   0.7242   0.7435   0.8625
     0.8812   0.9790   1.0034   1.0310   1.1450   1.2394   1.2614   1.2870
     1.3057   1.3286   1.3892   1.4168   1.4453   1.4918   1.5263   1.5583
     1.6449   1.6781   1.7058   1.7637   1.8161   1.8532   1.8789   1.9057
     1.9251   2.0180   2.1516   2.2209   2.2378   2.3142   2.3587   2.3997
     2.4048   2.4698   2.5094   2.5917   2.6257   2.6518   2.7483   2.8207
     2.8470   2.8762   2.8984   2.9143   2.9232   2.9290   2.9375   2.9680
     2.9708   2.9882   2.9960   3.0026   3.0254   3.0320   3.0444   3.0630
     3.0735   3.0789   3.1139   3.1303   3.1898   3.5565   3.6030   3.8364
     4.2506   4.3748   4.6729   5.0009   5.0206   5.6078   5.7706   5.9302
     6.0166   6.0573   6.0764   6.1462   6.5754   6.8905   6.9363   7.0879
     7.3020   7.4485   7.4669   7.5257   7.6140   7.7729   7.8203   8.0004
     8.0665   8.1200   8.1753   8.2658   8.3751   8.5581   8.7572   8.9200

     occupation numbers 
     1.0000   1.0000   1.0000   1.0000   1.0000   1.0000   1.0000   1.0000
     1.0000   1.0000   1.0000   1.0000   1.0000   1.0000   1.0000   1.0000
     1.0000   1.0000   1.0000   1.0000   1.0000   1.0000   1.0000   1.0000
     1.0000   1.0000   1.0000   1.0000   1.0000   1.0000   1.0000   1.0000
     1.0000   1.0000   1.0000   1.0000   1.0000   1.0000   1.0000   1.0000
     1.0000   1.0000   1.0000   1.0000   1.0000   1.0000   1.0000   1.0000
     1.0000   1.0000   1.0000   1.0000   1.0000   1.0000   1.0000   1.0000
     1.0000   1.0000   1.0000   1.0000   1.0000   1.0000   1.0000   1.0000
     1.0000   1.0000   1.0000   1.0000   1.0000   1.0000   1.0000   1.0000
     1.0000   1.0000   1.0000   1.0000   1.0000   1.0000   1.0000   1.0000
     1.0000   1.0000   1.0000   1.0000   1.0000   1.0000   1.0000   1.0000
     1.0000   1.0000   1.0000   1.0000   1.0000   1.0000   1.0000   1.0000
     1.0000   1.0000   1.0000   1.0000   1.0000   1.0000   1.0000   1.0000
     1.0000   1.0000   1.0000   1.0000   1.0000   1.0000   1.0000   1.0000
     1.0000   1.0000   1.0000   1.0000   1.0000   1.0000   1.0000   1.0000
     1.0000   1.0000   1.0000   1.0000   1.0000   1.0000   1.0000   1.0000
     1.0000   1.0000   1.0000   1.0000   1.0000   1.0000   1.0000   1.0000
     1.0000   1.0000   1.0000   1.0000   1.0000   1.0000   1.0000   1.0000
     1.0000   1.0000   1.0000   1.0000   1.0000   1.0000   1.0000   1.0000
     1.0000   1.0000   1.0000   1.0000   0.9999   0.9999   0.9999   0.9998
     0.9998   0.9997   0.9996   0.9996   0.9992   0.9988   0.9986   0.9985
     0.9983   0.9981   0.9975   0.9972   0.9968   0.9961   0.9954   0.9947
     0.9925   0.9914   0.9904   0.9879   0.9852   0.9830   0.9814   0.9795
     0.9780   0.9697   0.9533   0.9423   0.9394   0.9245   0.9147   0.9048
     0.9035   0.8859   0.8742   0.8471   0.8349   0.8251   0.7857   0.7531
     0.7406   0.7263   0.7153   0.7072   0.7026   0.6996   0.6952   0.6792
     0.6777   0.6683   0.6642   0.6606   0.6481   0.6444   0.6376   0.6272
     0.6212   0.6182   0.5983   0.5888   0.5541   0.3415   0.3165   0.2050
     0.0751   0.0522   0.0194   0.0053   0.0049   0.0003   0.0001   0.0000
     0.0000   0.0000   0.0000   0.0000   0.0000   0.0000   0.0000   0.0000
     0.0000   0.0000   0.0000   0.0000   0.0000   0.0000   0.0000   0.0000
     0.0000   0.0000   0.0000   0.0000   0.0000   0.0000   0.0000   0.0000

          k = 0.0000-0.5000 0.0000 ( 65180 PWs)   bands (ev):

   -92.7462 -92.6944 -92.6008 -92.5526 -92.4950 -92.4530 -92.4352 -92.3133
   -56.0996 -56.0802 -55.9578 -55.9469 -55.9403 -55.9337 -55.8975 -55.8698
   -55.8538 -55.8526 -55.8464 -55.8021 -55.7835 -55.7460 -55.7275 -55.6951
   -55.6879 -55.6410 -55.6405 -55.6381 -55.6297 -55.5882 -55.5656 -55.4788
   -31.3209 -31.3019 -31.1601 -31.0897 -31.0737 -30.9854 -30.8567 -30.8388
   -29.8922 -29.8505 -29.8256 -29.7171 -15.0550 -15.0070 -14.9527 -14.8256
   -14.7392 -14.6050 -14.4454 -14.3304 -14.2021 -14.1272 -14.0858 -14.0806
   -14.0308 -14.0159 -13.9655 -13.9408 -13.9220 -13.8874 -13.8464 -13.8035
   -13.6279 -13.5691 -13.5371 -13.5012 -13.4342 -13.4028 -13.3611 -13.3267
   -13.3177 -13.2611 -13.1534 -13.1374 -13.0711 -13.0128 -13.0002 -12.9723
   -12.9687 -12.9259 -12.9042 -12.8747 -12.7835 -12.7547 -12.7488 -12.7109
   -12.7005 -12.6955 -12.5584 -12.5021 -12.3663 -12.3592 -12.2369 -12.1895
   -11.8269 -11.8242 -11.7968 -11.7594 -11.7249 -11.7138 -11.6720 -11.6680
   -11.6240 -11.5609 -11.5477 -11.5337  -2.6362  -2.5783  -2.4274  -2.3553
    -2.0715  -1.9903  -1.8618  -1.7257  -1.6832  -1.6685  -1.5905  -1.5589
    -1.4762  -1.4414  -1.3624  -1.3239  -1.2861  -1.2587  -1.1996  -1.1627
    -1.1165  -1.0796  -1.0469  -1.0146  -0.9029  -0.8590  -0.8230  -0.8187
    -0.7342  -0.7041  -0.6820  -0.6349  -0.5448  -0.4759  -0.3854  -0.3498
    -0.2523  -0.2213  -0.0752  -0.0277  -0.0048   0.0374   0.1546   0.2222
     0.3466   0.4157   0.4259   0.5508   0.6080   0.6907   0.8303   0.9338
     0.9670   1.0079   1.0181   1.0491   1.0684   1.1031   1.1194   1.1347
     1.2413   1.3015   1.3351   1.3588   1.6303   1.6492   1.6728   1.7595
     1.7856   1.8249   1.8383   1.8657   1.8824   1.8860   1.9129   1.9589
     1.9850   2.0129   2.0226   2.0513   2.1050   2.1933   2.2279   2.3919
     2.5540   2.5614   2.5837   2.6197   2.6252   2.6369   2.6869   2.6994
     2.7538   2.7594   2.7775   2.8522   2.8712   2.9381   2.9400   2.9682
     2.9720   2.9849   2.9873   2.9930   2.9992   3.0045   3.0177   3.0324
     3.0415   3.1003   3.1031   3.1197   3.1777   4.0770   4.0902   4.1415
     4.2251   4.6875   4.8637   4.9892   5.1396   5.3852   5.4320   5.5484
     5.7076   5.9868   6.0013   6.1081   6.7296   6.8258   6.9333   7.1930
     7.2983   7.3941   7.4505   7.6151   7.7145   7.7772   7.8704   7.9215
     8.1682   8.1973   8.3435   8.4563   8.6289   8.7468   8.7818   8.8189

     occupation numbers 
     1.0000   1.0000   1.0000   1.0000   1.0000   1.0000   1.0000   1.0000
     1.0000   1.0000   1.0000   1.0000   1.0000   1.0000   1.0000   1.0000
     1.0000   1.0000   1.0000   1.0000   1.0000   1.0000   1.0000   1.0000
     1.0000   1.0000   1.0000   1.0000   1.0000   1.0000   1.0000   1.0000
     1.0000   1.0000   1.0000   1.0000   1.0000   1.0000   1.0000   1.0000
     1.0000   1.0000   1.0000   1.0000   1.0000   1.0000   1.0000   1.0000
     1.0000   1.0000   1.0000   1.0000   1.0000   1.0000   1.0000   1.0000
     1.0000   1.0000   1.0000   1.0000   1.0000   1.0000   1.0000   1.0000
     1.0000   1.0000   1.0000   1.0000   1.0000   1.0000   1.0000   1.0000
     1.0000   1.0000   1.0000   1.0000   1.0000   1.0000   1.0000   1.0000
     1.0000   1.0000   1.0000   1.0000   1.0000   1.0000   1.0000   1.0000
     1.0000   1.0000   1.0000   1.0000   1.0000   1.0000   1.0000   1.0000
     1.0000   1.0000   1.0000   1.0000   1.0000   1.0000   1.0000   1.0000
     1.0000   1.0000   1.0000   1.0000   1.0000   1.0000   1.0000   1.0000
     1.0000   1.0000   1.0000   1.0000   1.0000   1.0000   1.0000   1.0000
     1.0000   1.0000   1.0000   1.0000   1.0000   1.0000   1.0000   1.0000
     1.0000   1.0000   1.0000   1.0000   1.0000   1.0000   1.0000   1.0000
     1.0000   1.0000   1.0000   1.0000   1.0000   1.0000   1.0000   1.0000
     1.0000   1.0000   1.0000   1.0000   1.0000   1.0000   1.0000   1.0000
     1.0000   1.0000   1.0000   1.0000   1.0000   0.9999   0.9999   0.9998
     0.9997   0.9996   0.9996   0.9995   0.9995   0.9994   0.9993   0.9993
     0.9988   0.9984   0.9981   0.9978   0.9929   0.9923   0.9915   0.9881
     0.9868   0.9847   0.9839   0.9822   0.9811   0.9809   0.9789   0.9752
     0.9729   0.9702   0.9692   0.9661   0.9597   0.9469   0.9411   0.9067
     0.8600   0.8575   0.8499   0.8371   0.8351   0.8307   0.8113   0.8063
     0.7833   0.7809   0.7729   0.7381   0.7288   0.6949   0.6939   0.6791
     0.6770   0.6701   0.6689   0.6658   0.6624   0.6595   0.6523   0.6442
     0.6392   0.6060   0.6044   0.5949   0.5612   0.1187   0.1149   0.1008
     0.0806   0.0184   0.0094   0.0056   0.0029   0.0009   0.0007   0.0004
     0.0002   0.0000   0.0000   0.0000   0.0000   0.0000   0.0000   0.0000
     0.0000   0.0000   0.0000   0.0000   0.0000   0.0000   0.0000   0.0000
     0.0000   0.0000   0.0000   0.0000   0.0000   0.0000   0.0000   0.0000

          k = 0.2500 0.2500 0.0000 ( 65198 PWs)   bands (ev):

   -92.7462 -92.6944 -92.6008 -92.5526 -92.4950 -92.4530 -92.4352 -92.3133
   -56.0996 -56.0802 -55.9578 -55.9469 -55.9403 -55.9337 -55.8975 -55.8698
   -55.8538 -55.8526 -55.8464 -55.8021 -55.7835 -55.7460 -55.7275 -55.6951
   -55.6879 -55.6410 -55.6405 -55.6381 -55.6297 -55.5882 -55.5656 -55.4788
   -31.3194 -31.3038 -31.1595 -31.0895 -31.0740 -30.9859 -30.8545 -30.8406
   -29.8919 -29.8518 -29.8246 -29.7172 -15.0612 -15.0233 -14.9484 -14.8323
   -14.7111 -14.5880 -14.5150 -14.3074 -14.1527 -14.1403 -14.1033 -14.0756
   -14.0510 -14.0252 -13.9920 -13.9515 -13.8848 -13.8682 -13.7068 -13.6930
   -13.6626 -13.6444 -13.5815 -13.5543 -13.4768 -13.4690 -13.3490 -13.3127
   -13.2723 -13.1860 -13.1452 -13.0943 -13.0628 -13.0411 -13.0142 -12.9905
   -12.9608 -12.9312 -12.8930 -12.8541 -12.8075 -12.7869 -12.7696 -12.7586
   -12.7520 -12.7225 -12.5444 -12.4960 -12.4552 -12.3203 -12.1724 -12.1171
   -11.8449 -11.8136 -11.8024 -11.7949 -11.7333 -11.6978 -11.6916 -11.6562
   -11.6476 -11.5563 -11.5154 -11.4979  -2.7132  -2.5047  -2.3868  -2.2915
    -2.1717  -2.1069  -1.9072  -1.7643  -1.7450  -1.7129  -1.6200  -1.5870
    -1.4927  -1.4654  -1.4147  -1.2841  -1.2361  -1.1616  -1.1179  -1.0724
    -1.0495  -1.0255  -0.9824  -0.9679  -0.8771  -0.8271  -0.7584  -0.7120
    -0.6830  -0.6330  -0.6201  -0.5563  -0.5055  -0.4430  -0.4147  -0.3240
    -0.2756  -0.2458  -0.2079  -0.1529  -0.0781  -0.0422  -0.0162   0.0548
     0.0904   0.3648   0.5151   0.5474   0.6059   0.6461   0.6995   0.7478
     0.8200   0.8568   1.1295   1.1953   1.2688   1.2938   1.3452   1.3729
     1.4097   1.4474   1.4638   1.4922   1.5371   1.5461   1.5614   1.6063
     1.6417   1.6836   1.7397   1.7747   1.7901   1.8174   1.8540   1.9076
     1.9304   2.0584   2.1296   2.1664   2.1894   2.2544   2.3189   2.3497
     2.3866   2.4126   2.4206   2.5346   2.5709   2.6649   2.7465   2.8314
     2.8501   2.8546   2.8729   2.8893   2.9004   2.9121   2.9173   2.9299
     2.9443   2.9574   2.9722   2.9810   2.9909   3.0142   3.0250   3.0342
     3.0649   3.3658   3.4577   3.5086   3.5703   3.5888   3.8211   3.9088
     4.2577   4.4638   4.6789   4.9335   5.1507   5.6075   5.6646   5.7338
     5.7942   5.8540   6.0991   6.1465   6.1947   6.8068   6.8756   7.0794
     7.2659   7.5213   7.5707   7.6766   7.7828   7.8373   7.9523   8.0945
     8.1950   8.2589   8.2972   8.3538   8.3860   8.4179   8.6192   8.8412

     occupation numbers 
     1.0000   1.0000   1.0000   1.0000   1.0000   1.0000   1.0000   1.0000
     1.0000   1.0000   1.0000   1.0000   1.0000   1.0000   1.0000   1.0000
     1.0000   1.0000   1.0000   1.0000   1.0000   1.0000   1.0000   1.0000
     1.0000   1.0000   1.0000   1.0000   1.0000   1.0000   1.0000   1.0000
     1.0000   1.0000   1.0000   1.0000   1.0000   1.0000   1.0000   1.0000
     1.0000   1.0000   1.0000   1.0000   1.0000   1.0000   1.0000   1.0000
     1.0000   1.0000   1.0000   1.0000   1.0000   1.0000   1.0000   1.0000
     1.0000   1.0000   1.0000   1.0000   1.0000   1.0000   1.0000   1.0000
     1.0000   1.0000   1.0000   1.0000   1.0000   1.0000   1.0000   1.0000
     1.0000   1.0000   1.0000   1.0000   1.0000   1.0000   1.0000   1.0000
     1.0000   1.0000   1.0000   1.0000   1.0000   1.0000   1.0000   1.0000
     1.0000   1.0000   1.0000   1.0000   1.0000   1.0000   1.0000   1.0000
     1.0000   1.0000   1.0000   1.0000   1.0000   1.0000   1.0000   1.0000
     1.0000   1.0000   1.0000   1.0000   1.0000   1.0000   1.0000   1.0000
     1.0000   1.0000   1.0000   1.0000   1.0000   1.0000   1.0000   1.0000
     1.0000   1.0000   1.0000   1.0000   1.0000   1.0000   1.0000   1.0000
     1.0000   1.0000   1.0000   1.0000   1.0000   1.0000   1.0000   1.0000
     1.0000   1.0000   1.0000   1.0000   1.0000   1.0000   1.0000   1.0000
     1.0000   1.0000   1.0000   1.0000   1.0000   1.0000   1.0000   1.0000
     1.0000   1.0000   1.0000   1.0000   1.0000   1.0000   0.9999   0.9999
     0.9999   0.9998   0.9993   0.9990   0.9986   0.9984   0.9980   0.9977
     0.9973   0.9968   0.9965   0.9961   0.9952   0.9950   0.9947   0.9936
     0.9926   0.9912   0.9890   0.9874   0.9866   0.9851   0.9830   0.9793
     0.9776   0.9653   0.9564   0.9511   0.9475   0.9364   0.9235   0.9167
     0.9080   0.9015   0.8994   0.8663   0.8543   0.8200   0.7865   0.7480
     0.7391   0.7369   0.7280   0.7198   0.7142   0.7083   0.7056   0.6992
     0.6917   0.6848   0.6770   0.6722   0.6669   0.6542   0.6483   0.6432
     0.6261   0.4501   0.3968   0.3679   0.3340   0.3240   0.2115   0.1758
     0.0736   0.0396   0.0190   0.0071   0.0028   0.0003   0.0002   0.0001
     0.0001   0.0001   0.0000   0.0000   0.0000   0.0000   0.0000   0.0000
     0.0000   0.0000   0.0000   0.0000   0.0000   0.0000   0.0000   0.0000
     0.0000   0.0000   0.0000   0.0000   0.0000   0.0000   0.0000   0.0000

          k = 0.2500-0.5000 0.0000 ( 65138 PWs)   bands (ev):

   -92.7462 -92.6944 -92.6008 -92.5526 -92.4950 -92.4530 -92.4352 -92.3133
   -56.0996 -56.0802 -55.9578 -55.9469 -55.9403 -55.9337 -55.8975 -55.8698
   -55.8538 -55.8526 -55.8464 -55.8021 -55.7835 -55.7460 -55.7275 -55.6951
   -55.6879 -55.6410 -55.6405 -55.6381 -55.6297 -55.5882 -55.5656 -55.4788
   -31.3192 -31.3037 -31.1597 -31.0894 -31.0741 -30.9857 -30.8547 -30.8408
   -29.8913 -29.8515 -29.8252 -29.7175 -15.0246 -14.9801 -14.9100 -14.7963
   -14.7615 -14.6452 -14.5492 -14.4258 -14.1173 -14.0633 -14.0386 -14.0145
   -14.0000 -13.9875 -13.9492 -13.9290 -13.9024 -13.8640 -13.8389 -13.7901
   -13.7102 -13.6620 -13.5969 -13.5825 -13.5128 -13.4831 -13.4017 -13.3717
   -13.2508 -13.1856 -13.1646 -13.0786 -13.0340 -13.0275 -13.0169 -12.9873
   -12.9558 -12.9276 -12.9159 -12.8546 -12.7968 -12.7730 -12.7412 -12.7286
   -12.6993 -12.6674 -12.5651 -12.4641 -12.3637 -12.3187 -12.2296 -12.1983
   -11.8206 -11.8085 -11.7976 -11.7701 -11.7391 -11.7102 -11.6695 -11.6422
   -11.6200 -11.5742 -11.5486 -11.5379  -2.4940  -2.4302  -2.3012  -2.2241
    -2.0922  -2.0102  -1.8863  -1.7366  -1.6800  -1.6598  -1.5983  -1.5850
    -1.4868  -1.4208  -1.3360  -1.2849  -1.2760  -1.2135  -1.1703  -1.1365
    -1.0881  -1.0511  -1.0164  -0.9773  -0.9635  -0.9203  -0.8914  -0.8471
    -0.8180  -0.7504  -0.6462  -0.6113  -0.5302  -0.4645  -0.4117  -0.3728
    -0.3551  -0.2934  -0.1396  -0.1302  -0.0164   0.0067   0.0169   0.0609
     0.0975   0.1290   0.1626   0.2306   0.5131   0.6025   0.6574   0.7138
     0.9955   1.0094   1.1011   1.1282   1.2931   1.3292   1.3674   1.3926
     1.4050   1.4271   1.4907   1.5412   1.5744   1.6458   1.7472   1.7786
     1.7986   1.8088   1.8439   1.8607   1.8662   1.9086   1.9208   1.9404
     1.9721   1.9879   2.0149   2.0456   2.1045   2.1488   2.2258   2.3599
     2.5092   2.5256   2.5431   2.5686   2.5958   2.6238   2.6459   2.6587
     2.6805   2.7583   2.7821   2.8330   2.8536   2.8587   2.8705   2.8888
     2.9018   2.9223   2.9281   2.9714   2.9767   2.9879   2.9950   3.0042
     3.0149   3.5269   3.5618   3.6974   3.7521   4.0783   4.1380   4.1468
     4.2788   4.7079   4.8840   5.0225   5.1035   5.2609   5.4014   5.5727
     5.6315   5.7276   5.7533   6.2229   6.3711   6.4692   6.6506   7.1140
     7.4658   7.5480   7.6695   7.7710   7.8113   7.8470   8.0051   8.2631
     8.2946   8.3802   8.4491   8.5029   8.5295   8.6061   8.6782   8.7367

     occupation numbers 
     1.0000   1.0000   1.0000   1.0000   1.0000   1.0000   1.0000   1.0000
     1.0000   1.0000   1.0000   1.0000   1.0000   1.0000   1.0000   1.0000
     1.0000   1.0000   1.0000   1.0000   1.0000   1.0000   1.0000   1.0000
     1.0000   1.0000   1.0000   1.0000   1.0000   1.0000   1.0000   1.0000
     1.0000   1.0000   1.0000   1.0000   1.0000   1.0000   1.0000   1.0000
     1.0000   1.0000   1.0000   1.0000   1.0000   1.0000   1.0000   1.0000
     1.0000   1.0000   1.0000   1.0000   1.0000   1.0000   1.0000   1.0000
     1.0000   1.0000   1.0000   1.0000   1.0000   1.0000   1.0000   1.0000
     1.0000   1.0000   1.0000   1.0000   1.0000   1.0000   1.0000   1.0000
     1.0000   1.0000   1.0000   1.0000   1.0000   1.0000   1.0000   1.0000
     1.0000   1.0000   1.0000   1.0000   1.0000   1.0000   1.0000   1.0000
     1.0000   1.0000   1.0000   1.0000   1.0000   1.0000   1.0000   1.0000
     1.0000   1.0000   1.0000   1.0000   1.0000   1.0000   1.0000   1.0000
     1.0000   1.0000   1.0000   1.0000   1.0000   1.0000   1.0000   1.0000
     1.0000   1.0000   1.0000   1.0000   1.0000   1.0000   1.0000   1.0000
     1.0000   1.0000   1.0000   1.0000   1.0000   1.0000   1.0000   1.0000
     1.0000   1.0000   1.0000   1.0000   1.0000   1.0000   1.0000   1.0000
     1.0000   1.0000   1.0000   1.0000   1.0000   1.0000   1.0000   1.0000
     1.0000   1.0000   1.0000   1.0000   1.0000   1.0000   1.0000   1.0000
     1.0000   1.0000   1.0000   1.0000   1.0000   1.0000   1.0000   0.9999
     0.9997   0.9996   0.9994   0.9993   0.9984   0.9981   0.9978   0.9975
     0.9973   0.9971   0.9961   0.9951   0.9944   0.9924   0.9886   0.9872
     0.9862   0.9856   0.9836   0.9826   0.9822   0.9792   0.9783   0.9768
     0.9741   0.9726   0.9700   0.9668   0.9597   0.9537   0.9415   0.9144
     0.8742   0.8692   0.8635   0.8551   0.8457   0.8356   0.8274   0.8224
     0.8139   0.7813   0.7708   0.7472   0.7374   0.7349   0.7291   0.7201
     0.7135   0.7031   0.7001   0.6774   0.6745   0.6685   0.6647   0.6597
     0.6539   0.3577   0.3386   0.2684   0.2423   0.1184   0.1017   0.0994
     0.0693   0.0171   0.0087   0.0049   0.0034   0.0016   0.0008   0.0003
     0.0002   0.0001   0.0001   0.0000   0.0000   0.0000   0.0000   0.0000
     0.0000   0.0000   0.0000   0.0000   0.0000   0.0000   0.0000   0.0000
     0.0000   0.0000   0.0000   0.0000   0.0000   0.0000   0.0000   0.0000

          k =-0.5000-0.5000 0.0000 ( 65132 PWs)   bands (ev):

   -92.7462 -92.6944 -92.6008 -92.5526 -92.4950 -92.4530 -92.4352 -92.3133
   -56.0996 -56.0802 -55.9578 -55.9469 -55.9403 -55.9337 -55.8975 -55.8698
   -55.8538 -55.8526 -55.8464 -55.8021 -55.7835 -55.7460 -55.7275 -55.6951
   -55.6879 -55.6410 -55.6405 -55.6381 -55.6297 -55.5882 -55.5656 -55.4788
   -31.3170 -31.3059 -31.1593 -31.0891 -31.0745 -30.9860 -30.8518 -30.8437
   -29.8902 -29.8526 -29.8248 -29.7179 -14.9785 -14.9527 -14.8360 -14.8224
   -14.7235 -14.6932 -14.6540 -14.5239 -14.0290 -14.0171 -13.9843 -13.9632
   -13.9470 -13.9254 -13.9056 -13.8950 -13.8731 -13.8707 -13.8526 -13.7766
   -13.7714 -13.7298 -13.7068 -13.6886 -13.6019 -13.5472 -13.4410 -13.4164
   -13.2024 -13.1613 -13.0927 -13.0689 -13.0330 -13.0283 -13.0186 -13.0003
   -12.9899 -12.9262 -12.8559 -12.8527 -12.8134 -12.8037 -12.7718 -12.7506
   -12.6487 -12.6411 -12.5814 -12.4326 -12.3601 -12.2728 -12.2283 -12.2100
   -11.8173 -11.8046 -11.7867 -11.7700 -11.7350 -11.7184 -11.6820 -11.6225
   -11.6021 -11.5968 -11.5465 -11.5436  -2.2685  -2.1947  -2.1866  -2.1137
    -2.0749  -1.9964  -1.9285  -1.8019  -1.6866  -1.6573  -1.6149  -1.5608
    -1.4883  -1.4732  -1.4034  -1.3605  -1.2428  -1.2133  -1.1647  -1.1374
    -1.0730  -1.0264  -1.0083  -0.9964  -0.9407  -0.8979  -0.8796  -0.7691
    -0.7131  -0.6663  -0.6162  -0.5875  -0.5716  -0.5398  -0.5004  -0.4603
    -0.4527  -0.3675  -0.2994  -0.2555  -0.2290  -0.1558  -0.0945  -0.0908
    -0.0279   0.0033   0.0089   0.0217   0.4856   0.5243   0.6075   0.6184
     1.0206   1.0347   1.0707   1.1068   1.3789   1.3973   1.4041   1.4456
     1.5727   1.6657   1.6940   1.7296   1.7579   1.7718   1.7825   1.8145
     1.8275   1.8422   1.8479   1.9005   1.9060   1.9330   1.9443   1.9654
     1.9789   2.0193   2.0445   2.0582   2.0903   2.1198   2.1875   2.2542
     2.5225   2.5507   2.5670   2.5915   2.6028   2.6229   2.6355   2.6555
     2.6640   2.6824   2.7038   2.7153   2.7585   2.7852   2.7864   2.8070
     2.8199   2.8427   2.8562   2.8579   2.8820   2.9717   2.9837   2.9996
     3.0116   3.9545   3.9944   4.0014   4.0498   4.2736   4.3460   4.3732
     4.6137   4.7359   4.8186   4.9484   5.0381   5.0474   5.1643   5.2586
     5.4090   5.8365   5.8634   5.9289   6.0232   6.5208   6.5728   6.6271
     7.7205   7.8724   7.9047   7.9312   7.9444   7.9636   7.9942   8.0586
     8.2331   8.4514   8.5108   8.5543   8.5791   8.5922   8.6245   8.6668

     occupation numbers 
     1.0000   1.0000   1.0000   1.0000   1.0000   1.0000   1.0000   1.0000
     1.0000   1.0000   1.0000   1.0000   1.0000   1.0000   1.0000   1.0000
     1.0000   1.0000   1.0000   1.0000   1.0000   1.0000   1.0000   1.0000
     1.0000   1.0000   1.0000   1.0000   1.0000   1.0000   1.0000   1.0000
     1.0000   1.0000   1.0000   1.0000   1.0000   1.0000   1.0000   1.0000
     1.0000   1.0000   1.0000   1.0000   1.0000   1.0000   1.0000   1.0000
     1.0000   1.0000   1.0000   1.0000   1.0000   1.0000   1.0000   1.0000
     1.0000   1.0000   1.0000   1.0000   1.0000   1.0000   1.0000   1.0000
     1.0000   1.0000   1.0000   1.0000   1.0000   1.0000   1.0000   1.0000
     1.0000   1.0000   1.0000   1.0000   1.0000   1.0000   1.0000   1.0000
     1.0000   1.0000   1.0000   1.0000   1.0000   1.0000   1.0000   1.0000
     1.0000   1.0000   1.0000   1.0000   1.0000   1.0000   1.0000   1.0000
     1.0000   1.0000   1.0000   1.0000   1.0000   1.0000   1.0000   1.0000
     1.0000   1.0000   1.0000   1.0000   1.0000   1.0000   1.0000   1.0000
     1.0000   1.0000   1.0000   1.0000   1.0000   1.0000   1.0000   1.0000
     1.0000   1.0000   1.0000   1.0000   1.0000   1.0000   1.0000   1.0000
     1.0000   1.0000   1.0000   1.0000   1.0000   1.0000   1.0000   1.0000
     1.0000   1.0000   1.0000   1.0000   1.0000   1.0000   1.0000   1.0000
     1.0000   1.0000   1.0000   1.0000   1.0000   1.0000   1.0000   1.0000
     1.0000   1.0000   1.0000   1.0000   1.0000   1.0000   1.0000   1.0000
     0.9996   0.9996   0.9995   0.9994   0.9976   0.9974   0.9973   0.9968
     0.9944   0.9918   0.9908   0.9894   0.9882   0.9875   0.9870   0.9853
     0.9846   0.9837   0.9834   0.9798   0.9794   0.9774   0.9765   0.9747
     0.9734   0.9695   0.9669   0.9653   0.9615   0.9577   0.9479   0.9364
     0.8701   0.8611   0.8556   0.8472   0.8432   0.8359   0.8312   0.8237
     0.8204   0.8131   0.8045   0.7997   0.7813   0.7694   0.7688   0.7594
     0.7534   0.7426   0.7361   0.7353   0.7234   0.6772   0.6708   0.6622
     0.6557   0.1588   0.1449   0.1425   0.1269   0.0703   0.0570   0.0525
     0.0240   0.0154   0.0112   0.0067   0.0045   0.0044   0.0026   0.0017
     0.0008   0.0001   0.0001   0.0000   0.0000   0.0000   0.0000   0.0000
     0.0000   0.0000   0.0000   0.0000   0.0000   0.0000   0.0000   0.0000
     0.0000   0.0000   0.0000   0.0000   0.0000   0.0000   0.0000   0.0000

          k = 0.2500 0.0000 0.0000 ( 65257 PWs)   bands (ev):

   -92.7462 -92.6944 -92.6008 -92.5526 -92.4950 -92.4530 -92.4352 -92.3133
[...]
     0.7455   0.7308   0.7151   0.7138   0.7027   0.6988   0.6913   0.6795
     0.6768   0.6625   0.6567   0.6535   0.6463   0.6346   0.6218   0.6194
     0.6151   0.6105   0.6053   0.5993   0.5275   0.3571   0.3193   0.2030
     0.0790   0.0463   0.0218   0.0055   0.0047   0.0003   0.0001   0.0000
     0.0000   0.0000   0.0000   0.0000   0.0000   0.0000   0.0000   0.0000
     0.0000   0.0000   0.0000   0.0000   0.0000   0.0000   0.0000   0.0000
     0.0000   0.0000   0.0000   0.0000   0.0000   0.0000   0.0000   0.0000

          k =-0.5000 0.0000 0.0000 ( 65180 PWs)   bands (ev):

   -92.7462 -92.6944 -92.6008 -92.5526 -92.4950 -92.4530 -92.4352 -92.3133
   -56.0996 -56.0802 -55.9578 -55.9469 -55.9403 -55.9337 -55.8975 -55.8698
   -55.8538 -55.8526 -55.8464 -55.8021 -55.7835 -55.7460 -55.7275 -55.6951
   -55.6879 -55.6410 -55.6405 -55.6381 -55.6297 -55.5882 -55.5656 -55.4788
   -31.3173 -31.3062 -31.1589 -31.0894 -31.0742 -30.9864 -30.8515 -30.8432
   -29.8914 -29.8532 -29.8235 -29.7173 -15.0603 -15.0093 -14.9476 -14.8333
   -14.7348 -14.5892 -14.4490 -14.2915 -14.1773 -14.1642 -14.1530 -14.0956
   -14.0370 -14.0056 -13.9556 -13.9407 -13.9275 -13.8808 -13.8524 -13.7607
   -13.5999 -13.5635 -13.5389 -13.5311 -13.4561 -13.4087 -13.3680 -13.3112
   -13.2878 -13.2752 -13.0978 -13.0870 -13.0666 -13.0572 -13.0357 -13.0137
   -12.9848 -12.9649 -12.8553 -12.8334 -12.7938 -12.7765 -12.7718 -12.7277
   -12.6840 -12.6748 -12.5847 -12.4679 -12.3702 -12.3199 -12.2456 -12.2132
   -11.8237 -11.8025 -11.7955 -11.7819 -11.7636 -11.7224 -11.6587 -11.6405
   -11.6074 -11.5642 -11.5551 -11.5391  -2.6268  -2.5882  -2.4249  -2.3855
    -2.0715  -1.9951  -1.8499  -1.7311  -1.6912  -1.6448  -1.5986  -1.5736
    -1.4502  -1.4062  -1.3903  -1.3083  -1.2726  -1.2574  -1.2258  -1.1664
    -1.0993  -1.0709  -1.0383  -0.9450  -0.8996  -0.8504  -0.8176  -0.7970
    -0.7641  -0.7172  -0.6931  -0.6546  -0.5505  -0.4875  -0.4115  -0.3527
    -0.1959  -0.1565  -0.1017  -0.0567  -0.0044   0.0103   0.1484   0.1802
     0.2194   0.3949   0.4944   0.5427   0.6262   0.6868   0.8126   0.8247
     0.9587   0.9863   1.0403   1.0723   1.1044   1.1170   1.1647   1.1863
     1.2550   1.3027   1.3479   1.3625   1.6536   1.6646   1.6835   1.7069
     1.8124   1.8249   1.8378   1.8437   1.8784   1.8874   1.9226   1.9502
     1.9720   2.0323   2.0441   2.0998   2.1169   2.1766   2.2815   2.3817
     2.4567   2.4720   2.5487   2.5811   2.6006   2.6777   2.6865   2.6950
     2.7222   2.7486   2.7929   2.8404   2.9003   2.9093   2.9552   2.9601
     2.9679   2.9731   2.9890   2.9993   3.0122   3.0179   3.0400   3.0440
     3.0644   3.0841   3.0891   3.2177   3.2238   4.0161   4.0834   4.1557
     4.2710   4.7470   4.8211   5.0052   5.0262   5.4585   5.4789   5.5681
     5.6161   5.9887   6.0028   6.1200   6.7723   6.7929   6.9820   7.2539
     7.2924   7.3459   7.4357   7.6026   7.6533   7.7384   7.8500   7.9348
     8.1542   8.2325   8.3321   8.4764   8.5860   8.7257   8.8072   8.8526

     occupation numbers 
     1.0000   1.0000   1.0000   1.0000   1.0000   1.0000   1.0000   1.0000
     1.0000   1.0000   1.0000   1.0000   1.0000   1.0000   1.0000   1.0000
     1.0000   1.0000   1.0000   1.0000   1.0000   1.0000   1.0000   1.0000
     1.0000   1.0000   1.0000   1.0000   1.0000   1.0000   1.0000   1.0000
     1.0000   1.0000   1.0000   1.0000   1.0000   1.0000   1.0000   1.0000
     1.0000   1.0000   1.0000   1.0000   1.0000   1.0000   1.0000   1.0000
     1.0000   1.0000   1.0000   1.0000   1.0000   1.0000   1.0000   1.0000
     1.0000   1.0000   1.0000   1.0000   1.0000   1.0000   1.0000   1.0000
     1.0000   1.0000   1.0000   1.0000   1.0000   1.0000   1.0000   1.0000
     1.0000   1.0000   1.0000   1.0000   1.0000   1.0000   1.0000   1.0000
     1.0000   1.0000   1.0000   1.0000   1.0000   1.0000   1.0000   1.0000
     1.0000   1.0000   1.0000   1.0000   1.0000   1.0000   1.0000   1.0000
     1.0000   1.0000   1.0000   1.0000   1.0000   1.0000   1.0000   1.0000
     1.0000   1.0000   1.0000   1.0000   1.0000   1.0000   1.0000   1.0000
     1.0000   1.0000   1.0000   1.0000   1.0000   1.0000   1.0000   1.0000
     1.0000   1.0000   1.0000   1.0000   1.0000   1.0000   1.0000   1.0000
     1.0000   1.0000   1.0000   1.0000   1.0000   1.0000   1.0000   1.0000
     1.0000   1.0000   1.0000   1.0000   1.0000   1.0000   1.0000   1.0000
     1.0000   1.0000   1.0000   1.0000   1.0000   1.0000   1.0000   1.0000
     1.0000   1.0000   1.0000   1.0000   1.0000   0.9999   0.9999   0.9999
     0.9997   0.9997   0.9996   0.9995   0.9994   0.9993   0.9992   0.9991
     0.9987   0.9983   0.9980   0.9978   0.9922   0.9918   0.9912   0.9903
     0.9854   0.9847   0.9840   0.9836   0.9814   0.9808   0.9782   0.9760
     0.9741   0.9682   0.9669   0.9603   0.9581   0.9496   0.9312   0.9092
     0.8896   0.8853   0.8617   0.8508   0.8440   0.8150   0.8115   0.8081
     0.7969   0.7856   0.7659   0.7437   0.7143   0.7097   0.6859   0.6834
     0.6792   0.6765   0.6680   0.6624   0.6553   0.6522   0.6400   0.6378
     0.6264   0.6153   0.6124   0.5377   0.5341   0.1377   0.1168   0.0971
     0.0709   0.0148   0.0111   0.0052   0.0048   0.0006   0.0006   0.0003
     0.0003   0.0000   0.0000   0.0000   0.0000   0.0000   0.0000   0.0000
     0.0000   0.0000   0.0000   0.0000   0.0000   0.0000   0.0000   0.0000
     0.0000   0.0000   0.0000   0.0000   0.0000   0.0000   0.0000   0.0000

          k =-0.2500 0.2500 0.0000 ( 65198 PWs)   bands (ev):

   -92.7462 -92.6944 -92.6008 -92.5526 -92.4950 -92.4530 -92.4352 -92.3133
   -56.0996 -56.0802 -55.9578 -55.9469 -55.9403 -55.9337 -55.8975 -55.8698
   -55.8538 -55.8526 -55.8464 -55.8021 -55.7835 -55.7460 -55.7275 -55.6951
   -55.6879 -55.6410 -55.6405 -55.6381 -55.6297 -55.5882 -55.5656 -55.4788
   -31.3194 -31.3038 -31.1595 -31.0895 -31.0740 -30.9859 -30.8545 -30.8406
   -29.8919 -29.8518 -29.8246 -29.7172 -15.0626 -15.0221 -14.9472 -14.8305
   -14.7169 -14.5933 -14.5066 -14.2984 -14.1595 -14.1313 -14.1165 -14.0707
   -14.0459 -14.0236 -14.0057 -13.9577 -13.8803 -13.8685 -13.7164 -13.6890
   -13.6596 -13.6397 -13.5840 -13.5416 -13.4799 -13.4707 -13.3534 -13.3076
   -13.2664 -13.1903 -13.1468 -13.0842 -13.0556 -13.0340 -13.0247 -12.9890
   -12.9704 -12.9385 -12.8918 -12.8564 -12.8161 -12.7988 -12.7758 -12.7604
   -12.7356 -12.7154 -12.5529 -12.4858 -12.4440 -12.3260 -12.1666 -12.1243
   -11.8441 -11.8226 -11.7957 -11.7831 -11.7427 -11.7076 -11.6850 -11.6626
   -11.6405 -11.5561 -11.5108 -11.5012  -2.7115  -2.5036  -2.3827  -2.2932
    -2.1760  -2.1095  -1.9048  -1.7613  -1.7426  -1.7109  -1.6206  -1.5859
    -1.4926  -1.4583  -1.4323  -1.2899  -1.2338  -1.1647  -1.1374  -1.0758
    -1.0556  -1.0151  -0.9866  -0.9464  -0.8836  -0.8353  -0.7695  -0.7036
    -0.6792  -0.6284  -0.6001  -0.5537  -0.4948  -0.4457  -0.4097  -0.3048
    -0.2773  -0.2641  -0.2188  -0.1554  -0.0809  -0.0428  -0.0066   0.0586
     0.0885   0.3451   0.5177   0.5557   0.5957   0.6527   0.6974   0.7534
     0.8242   0.8557   1.1375   1.2456   1.2858   1.3202   1.3258   1.3669
     1.3833   1.4285   1.4609   1.4738   1.4998   1.5463   1.5610   1.6015
     1.6229   1.6672   1.7530   1.7655   1.7900   1.8186   1.8532   1.8907
     1.9358   2.0474   2.1623   2.1873   2.2343   2.2534   2.3163   2.3610
     2.3887   2.4121   2.4330   2.5346   2.5707   2.6643   2.7473   2.8388
     2.8469   2.8639   2.8699   2.8820   2.8953   2.9046   2.9209   2.9325
     2.9424   2.9529   2.9641   2.9733   2.9842   3.0154   3.0252   3.0333
     3.0668   3.3591   3.4400   3.5098   3.5749   3.5981   3.8063   3.9173
     4.2564   4.4617   4.6793   4.9442   5.1507   5.6083   5.6621   5.7411
     5.7896   5.8550   6.0993   6.1555   6.1812   6.7901   6.8749   7.0868
     7.2990   7.5343   7.5782   7.6383   7.7544   7.8512   7.9536   8.1137
     8.1877   8.2222   8.2980   8.3281   8.4085   8.4409   8.6606   8.8423

     occupation numbers 
     1.0000   1.0000   1.0000   1.0000   1.0000   1.0000   1.0000   1.0000
     1.0000   1.0000   1.0000   1.0000   1.0000   1.0000   1.0000   1.0000
     1.0000   1.0000   1.0000   1.0000   1.0000   1.0000   1.0000   1.0000
     1.0000   1.0000   1.0000   1.0000   1.0000   1.0000   1.0000   1.0000
     1.0000   1.0000   1.0000   1.0000   1.0000   1.0000   1.0000   1.0000
     1.0000   1.0000   1.0000   1.0000   1.0000   1.0000   1.0000   1.0000
     1.0000   1.0000   1.0000   1.0000   1.0000   1.0000   1.0000   1.0000
     1.0000   1.0000   1.0000   1.0000   1.0000   1.0000   1.0000   1.0000
     1.0000   1.0000   1.0000   1.0000   1.0000   1.0000   1.0000   1.0000
     1.0000   1.0000   1.0000   1.0000   1.0000   1.0000   1.0000   1.0000
     1.0000   1.0000   1.0000   1.0000   1.0000   1.0000   1.0000   1.0000
     1.0000   1.0000   1.0000   1.0000   1.0000   1.0000   1.0000   1.0000
     1.0000   1.0000   1.0000   1.0000   1.0000   1.0000   1.0000   1.0000
     1.0000   1.0000   1.0000   1.0000   1.0000   1.0000   1.0000   1.0000
     1.0000   1.0000   1.0000   1.0000   1.0000   1.0000   1.0000   1.0000
     1.0000   1.0000   1.0000   1.0000   1.0000   1.0000   1.0000   1.0000
     1.0000   1.0000   1.0000   1.0000   1.0000   1.0000   1.0000   1.0000
     1.0000   1.0000   1.0000   1.0000   1.0000   1.0000   1.0000   1.0000
     1.0000   1.0000   1.0000   1.0000   1.0000   1.0000   1.0000   1.0000
     1.0000   1.0000   1.0000   1.0000   1.0000   1.0000   0.9999   0.9999
     0.9999   0.9998   0.9993   0.9987   0.9985   0.9982   0.9982   0.9978
     0.9976   0.9970   0.9966   0.9964   0.9959   0.9950   0.9947   0.9937
     0.9931   0.9917   0.9884   0.9878   0.9866   0.9851   0.9830   0.9805
     0.9771   0.9666   0.9517   0.9479   0.9400   0.9366   0.9241   0.9141
     0.9075   0.9016   0.8961   0.8663   0.8544   0.8203   0.7861   0.7445
     0.7406   0.7324   0.7294   0.7235   0.7168   0.7121   0.7038   0.6978
     0.6927   0.6872   0.6812   0.6764   0.6705   0.6536   0.6482   0.6437
     0.6250   0.4541   0.4070   0.3672   0.3315   0.3191   0.2179   0.1725
     0.0738   0.0398   0.0190   0.0068   0.0028   0.0003   0.0002   0.0001
     0.0001   0.0001   0.0000   0.0000   0.0000   0.0000   0.0000   0.0000
     0.0000   0.0000   0.0000   0.0000   0.0000   0.0000   0.0000   0.0000
     0.0000   0.0000   0.0000   0.0000   0.0000   0.0000   0.0000   0.0000

          k =-0.5000 0.2500 0.0000 ( 65138 PWs)   bands (ev):

   -92.7462 -92.6944 -92.6008 -92.5526 -92.4950 -92.4530 -92.4352 -92.3133
   -56.0996 -56.0802 -55.9578 -55.9469 -55.9403 -55.9337 -55.8975 -55.8698
   -55.8538 -55.8526 -55.8464 -55.8021 -55.7835 -55.7460 -55.7275 -55.6951
   -55.6879 -55.6410 -55.6405 -55.6381 -55.6297 -55.5882 -55.5656 -55.4788
   -31.3172 -31.3060 -31.1591 -31.0892 -31.0744 -30.9862 -30.8517 -30.8435
   -29.8908 -29.8529 -29.8242 -29.7176 -15.0276 -14.9827 -14.9048 -14.8015
   -14.7608 -14.6368 -14.5511 -14.4138 -14.1101 -14.0803 -14.0686 -14.0253
   -14.0012 -13.9769 -13.9413 -13.9251 -13.9077 -13.8671 -13.8524 -13.7516
   -13.6819 -13.6325 -13.6263 -13.6095 -13.5131 -13.5027 -13.4040 -13.3473
   -13.2444 -13.2077 -13.1105 -13.0716 -13.0596 -13.0353 -13.0103 -12.9888
   -12.9823 -12.9665 -12.8631 -12.8440 -12.8047 -12.7830 -12.7757 -12.7335
   -12.6657 -12.6584 -12.5828 -12.4497 -12.3654 -12.2973 -12.2360 -12.2118
   -11.8166 -11.8042 -11.7901 -11.7777 -11.7572 -11.7270 -11.6452 -11.6374
   -11.6136 -11.5785 -11.5507 -11.5414  -2.4841  -2.4424  -2.2946  -2.2522
    -2.0911  -2.0138  -1.8740  -1.7368  -1.6794  -1.6525  -1.6146  -1.5764
    -1.4955  -1.3800  -1.3230  -1.2996  -1.2734  -1.1974  -1.1684  -1.1302
    -1.1129  -1.0526  -1.0210  -0.9841  -0.9494  -0.9205  -0.8620  -0.8344
    -0.7928  -0.7574  -0.6532  -0.6281  -0.5329  -0.4784  -0.4452  -0.3843
    -0.3061  -0.2717  -0.1703  -0.1333  -0.0728  -0.0253   0.0099   0.0756
     0.1004   0.1329   0.1864   0.2257   0.5439   0.6021   0.6574   0.6682
     0.9700   1.0312   1.1049   1.1310   1.3066   1.3413   1.3792   1.3903
     1.4084   1.4263   1.4955   1.5427   1.5819   1.6138   1.7290   1.7732
     1.7991   1.8090   1.8413   1.8734   1.8887   1.8977   1.9185   1.9444
     1.9848   2.0059   2.0389   2.0653   2.0940   2.1528   2.2735   2.3729
     2.4033   2.4705   2.5075   2.5673   2.5975   2.6119   2.6536   2.6839
     2.7076   2.7481   2.7915   2.8389   2.8488   2.8609   2.8799   2.8976
     2.9084   2.9237   2.9398   2.9611   2.9729   2.9823   2.9894   2.9984
     3.0100   3.5437   3.5783   3.7298   3.7497   4.0231   4.0989   4.1639
     4.3570   4.7412   4.8389   5.0028   5.0443   5.3673   5.3906   5.5543
     5.6219   5.7069   5.7583   6.2308   6.3681   6.4773   6.6678   7.1141
     7.4646   7.5494   7.6842   7.7557   7.7669   7.8537   7.9889   8.2397
     8.3466   8.3786   8.4266   8.5005   8.5436   8.5965   8.6314   8.7199

     occupation numbers 
     1.0000   1.0000   1.0000   1.0000   1.0000   1.0000   1.0000   1.0000
     1.0000   1.0000   1.0000   1.0000   1.0000   1.0000   1.0000   1.0000
     1.0000   1.0000   1.0000   1.0000   1.0000   1.0000   1.0000   1.0000
     1.0000   1.0000   1.0000   1.0000   1.0000   1.0000   1.0000   1.0000
     1.0000   1.0000   1.0000   1.0000   1.0000   1.0000   1.0000   1.0000
     1.0000   1.0000   1.0000   1.0000   1.0000   1.0000   1.0000   1.0000
     1.0000   1.0000   1.0000   1.0000   1.0000   1.0000   1.0000   1.0000
     1.0000   1.0000   1.0000   1.0000   1.0000   1.0000   1.0000   1.0000
     1.0000   1.0000   1.0000   1.0000   1.0000   1.0000   1.0000   1.0000
     1.0000   1.0000   1.0000   1.0000   1.0000   1.0000   1.0000   1.0000
     1.0000   1.0000   1.0000   1.0000   1.0000   1.0000   1.0000   1.0000
     1.0000   1.0000   1.0000   1.0000   1.0000   1.0000   1.0000   1.0000
     1.0000   1.0000   1.0000   1.0000   1.0000   1.0000   1.0000   1.0000
     1.0000   1.0000   1.0000   1.0000   1.0000   1.0000   1.0000   1.0000
     1.0000   1.0000   1.0000   1.0000   1.0000   1.0000   1.0000   1.0000
     1.0000   1.0000   1.0000   1.0000   1.0000   1.0000   1.0000   1.0000
     1.0000   1.0000   1.0000   1.0000   1.0000   1.0000   1.0000   1.0000
     1.0000   1.0000   1.0000   1.0000   1.0000   1.0000   1.0000   1.0000
     1.0000   1.0000   1.0000   1.0000   1.0000   1.0000   1.0000   1.0000
     1.0000   1.0000   1.0000   1.0000   1.0000   1.0000   1.0000   0.9999
     0.9997   0.9996   0.9994   0.9993   0.9983   0.9980   0.9976   0.9975
     0.9973   0.9971   0.9960   0.9951   0.9942   0.9934   0.9894   0.9874
     0.9861   0.9856   0.9838   0.9817   0.9807   0.9800   0.9785   0.9764
     0.9729   0.9709   0.9675   0.9645   0.9611   0.9531   0.9328   0.9113
     0.9039   0.8857   0.8748   0.8555   0.8451   0.8399   0.8244   0.8126
     0.8029   0.7858   0.7665   0.7445   0.7397   0.7338   0.7245   0.7156
     0.7102   0.7024   0.6940   0.6828   0.6766   0.6715   0.6677   0.6629
     0.6565   0.3485   0.3297   0.2528   0.2434   0.1354   0.1124   0.0950
     0.0551   0.0151   0.0104   0.0053   0.0044   0.0010   0.0009   0.0004
     0.0003   0.0002   0.0001   0.0000   0.0000   0.0000   0.0000   0.0000
     0.0000   0.0000   0.0000   0.0000   0.0000   0.0000   0.0000   0.0000
     0.0000   0.0000   0.0000   0.0000   0.0000   0.0000   0.0000   0.0000

     the Fermi energy is     3.2814 ev

!    total energy              =   -4399.92332325 Ry
     estimated scf accuracy    <          8.5E-09 Ry
     smearing contrib. (-TS)   =      -1.14694708 Ry
     internal energy E=F+TS    =   -4398.77637617 Ry

     The total energy is F=E-TS. E is the sum of the following terms:
     one-electron contribution =  -21252.00006188 Ry
     hartree contribution      =   10753.46733273 Ry
     xc contribution           =    -686.72703151 Ry
     ewald contribution        =    7053.12856414 Ry
     one-center paw contrib.   =    -266.64517965 Ry
      -> PAW hartree energy AE =      25.15170399 Ry
      -> PAW hartree energy PS =     -25.03573065 Ry
      -> PAW xc energy AE      =     -16.51589388 Ry
      -> PAW xc energy PS      =       6.87528122 Ry
      -> total E_H with PAW    =   10753.58330607 Ry
      -> total E_XC with PAW   =    -696.36764417 Ry

     convergence has been achieved in  49 iterations

     Writing all to output data dir /bsuhome/zayahcortright/scratch/pwscf.save/
 
     init_run     :      7.70s CPU      8.06s WALL (       1 calls)
     electrons    :    701.60s CPU    713.92s WALL (       1 calls)

     Called by init_run:
     wfcinit      :      5.90s CPU      6.01s WALL (       1 calls)
     wfcinit:atom :      0.06s CPU      0.07s WALL (       5 calls)
     wfcinit:wfcr :      5.54s CPU      5.62s WALL (       5 calls)
     potinit      :      0.15s CPU      0.18s WALL (       1 calls)
     hinit0       :      0.79s CPU      0.93s WALL (       1 calls)

     Called by electrons:
     c_bands      :    554.67s CPU    559.59s WALL (      49 calls)
     sum_band     :    110.03s CPU    114.33s WALL (      49 calls)
     v_of_rho     :      5.44s CPU      5.70s WALL (      50 calls)
     v_h          :      0.47s CPU      0.47s WALL (      50 calls)
     v_xc         :      4.97s CPU      5.23s WALL (      50 calls)
     newd         :     16.86s CPU     19.27s WALL (      50 calls)
     PAW_pot      :      1.59s CPU      1.62s WALL (      50 calls)
     mix_rho      :     12.68s CPU     12.94s WALL (      49 calls)

     Called by c_bands:
     init_us_2    :      6.91s CPU      6.95s WALL (     495 calls)
     init_us_2:cp :      6.91s CPU      6.95s WALL (     495 calls)
     cegterg      :    525.01s CPU    529.75s WALL (     245 calls)

     Called by sum_band:
     sum_band:wei :      0.34s CPU      0.35s WALL (      49 calls)
     sum_band:loo :     90.24s CPU     90.87s WALL (      49 calls)
     sum_band:buf :      1.41s CPU      1.44s WALL (     245 calls)
     sum_band:ini :      3.28s CPU      3.29s WALL (     245 calls)
     sum_band:cal :     18.65s CPU     18.70s WALL (     245 calls)
     sum_band:bec :      0.56s CPU      0.56s WALL (     245 calls)
     addusdens    :     18.39s CPU     22.02s WALL (      49 calls)
                                        0.00s GPU  (      49 calls)
     addusd:skk   :      0.35s CPU      0.69s WALL (     196 calls)
                                        0.00s GPU  (     196 calls)

     Called by *egterg:
     cdiaghg      :     59.43s CPU     59.66s WALL (    1361 calls)
     cegterg:over :     38.15s CPU     38.32s WALL (    1116 calls)
     cegterg:upda :     28.28s CPU     28.60s WALL (    1116 calls)
     cegterg:last :     56.66s CPU     56.88s WALL (     447 calls)
     cdiaghg:chol :      3.46s CPU      3.49s WALL (    1361 calls)
     cdiaghg:inve :      3.68s CPU      3.70s WALL (    1361 calls)
     cdiaghg:para :      7.46s CPU      7.49s WALL (    2722 calls)
     h_psi        :    288.60s CPU    291.39s WALL (    1366 calls)
     s_psi        :     38.19s CPU     38.30s WALL (    1366 calls)
     g_psi        :      1.13s CPU      1.14s WALL (    1116 calls)

     Called by h_psi:
     h_psi:calbec :     42.71s CPU     42.85s WALL (    1366 calls)
     vloc_psi     :    204.51s CPU    206.60s WALL (    1366 calls)
     add_vuspsi   :     38.22s CPU     38.36s WALL (    1366 calls)

     General routines
     calbec       :     61.34s CPU     61.54s WALL (    1611 calls)
     fft          :      3.58s CPU      3.62s WALL (     648 calls)
     ffts         :      4.68s CPU      4.72s WALL (    5245 calls)
     fftw         :    176.65s CPU    178.15s WALL (  328004 calls)
     interpolate  :      0.41s CPU      0.41s WALL (      50 calls)
 
     Parallel routines

     PAW routines
     PAW_pot      :      1.59s CPU      1.62s WALL (      50 calls)
 
     PWSCF        :  11m51.67s CPU  12m 7.38s WALL

 
   This run was terminated on:  22:27:51  21Jun2024            

=------------------------------------------------------------------------------=
   JOB DONE.
=------------------------------------------------------------------------------=
