
     Program PWSCF v.7.2 starts on 20Jun2024 at 17:47:57 

     This program is part of the open-source Quantum ESPRESSO suite
     for quantum simulation of materials; please cite
         "P. Giannozzi et al., J. Phys.:Condens. Matter 21 395502 (2009);
         "P. Giannozzi et al., J. Phys.:Condens. Matter 29 465901 (2017);
         "P. Giannozzi et al., J. Chem. Phys. 152 154105 (2020);
          URL http://www.quantum-espresso.org", 
     in publications or presentations arising from this work. More details at
     http://www.quantum-espresso.org/quote

     Parallel version (MPI & OpenMP), running on      48 processor cores
     Number of MPI processes:                48
     Threads/MPI process:                     1

     MPI processes distributed on     1 nodes
     41853 MiB available memory on the printing compute node when the environment starts
 
     Reading input from espresso.pwi
Warning: card &CELL ignored
Warning: card / ignored
Warning: card &FCP ignored
Warning: card / ignored
Warning: card &RISM ignored
Warning: card / ignored

     Current dimensions of program PWSCF are:
     Max number of different atomic species (ntypx) = 10
     Max number of k-points (npk) =  40000
     Max angular momentum in pseudopotentials (lmaxx) =  4
     file O.pbe-n-kjpaw_psl.0.1.UPF: wavefunction(s)  2P renormalized
     signal trapping enabled: kill the code with -SIGUSR1 to stop cleanly the simulation 
 
     K-points division:     npool     =       2
     R & G space division:  proc/nbgrp/npool/nimage =      24
     Subspace diagonalization in iterative solution of the eigenvalue problem:
     one sub-group per band group will be used
     scalapack distributed-memory algorithm (size of sub-group:  3*  3 procs)

 
     Parallelization info
     --------------------
     sticks:   dense  smooth     PW     G-vecs:    dense   smooth      PW
     Min         350     175     47                61430    21716    3036
     Max         351     177     48                61449    21727    3041
     Sum        8421    4205   1137              1474595   521381   72913
 
     Using Slab Decomposition
 


     bravais-lattice index     =            0
     lattice parameter (alat)  =      14.8599  a.u.
     unit-cell volume          =    8305.1283 (a.u.)^3
     number of atoms/cell      =           51
     number of atomic types    =            4
     number of electrons       =       437.00
     number of Kohn-Sham states=          263
     kinetic-energy cutoff     =      60.0000  Ry
     charge density cutoff     =     480.0000  Ry
     scf convergence threshold =      1.0E-08
     mixing beta               =       0.1500
     number of iterations used =            8  local-TF  mixing
     Exchange-correlation= PBE
                           (   1   4   3   4   0   0   0)

     celldm(1)=  14.859904  celldm(2)=   0.000000  celldm(3)=   0.000000
     celldm(4)=   0.000000  celldm(5)=   0.000000  celldm(6)=   0.000000

     crystal axes: (cart. coord. in units of alat)
               a(1) = (   1.000000   0.000000   0.000000 )  
               a(2) = (   0.000000   1.000000   0.000000 )  
               a(3) = (   0.000000   0.000000   2.531036 )  

     reciprocal axes: (cart. coord. in units 2 pi/alat)
               b(1) = (  1.000000  0.000000  0.000000 )  
               b(2) = (  0.000000  1.000000  0.000000 )  
               b(3) = (  0.000000  0.000000  0.395095 )  


     PseudoPot. # 1 for Sr read from file:
     /bsuhome/zayahcortright/q-e/pseudo/Sr_pbe_v1.uspp.F.UPF
     MD5 check sum: 6b418c05fbe9db5448babca5e47b7a5b
     Pseudo is Ultrasoft + core correction, Zval = 10.0
     Generated by new atomic code, or converted to UPF format
     Using radial grid of  883 points,  6 beta functions with: 
                l(1) =   0
                l(2) =   0
                l(3) =   1
                l(4) =   1
                l(5) =   2
                l(6) =   2
     Q(r) pseudized with  6 coefficients,  rinner =    1.400   1.400   1.400
                                                       1.400   1.400

     PseudoPot. # 2 for O  read from file:
     /bsuhome/zayahcortright/q-e/pseudo/O.pbe-n-kjpaw_psl.0.1.UPF
     MD5 check sum: 0234752ac141de4415c5fc33072bef88
     Pseudo is Projector augmented-wave + core cor, Zval =  6.0
     Generated using "atomic" code by A. Dal Corso  v.5.0.99 svn rev. 10869
     Shape of augmentation charge: BESSEL
     Using radial grid of 1095 points,  4 beta functions with: 
                l(1) =   0
                l(2) =   0
                l(3) =   1
                l(4) =   1
     Q(r) pseudized with 0 coefficients 


     PseudoPot. # 3 for Co read from file:
     /bsuhome/zayahcortright/q-e/pseudo/Co_pbe_v1.2.uspp.F.UPF
     MD5 check sum: 5f91765df6ddd3222702df6e7b74a16d
     Pseudo is Ultrasoft + core correction, Zval = 17.0
     Generated by new atomic code, or converted to UPF format
     Using radial grid of  863 points,  6 beta functions with: 
                l(1) =   0
                l(2) =   0
                l(3) =   1
                l(4) =   1
                l(5) =   2
                l(6) =   2
     Q(r) pseudized with  8 coefficients,  rinner =    1.200   1.200   1.200
                                                       1.200   1.200

     PseudoPot. # 4 for H  read from file:
     /bsuhome/zayahcortright/q-e/pseudo/H.pbe-rrkjus_psl.1.0.0.UPF
     MD5 check sum: f52b6d4d1c606e5624b1dc7b2218f220
     Pseudo is Ultrasoft, Zval =  1.0
     Generated using "atomic" code by A. Dal Corso  v.5.1
     Using radial grid of  929 points,  2 beta functions with: 
                l(1) =   0
                l(2) =   0
     Q(r) pseudized with 0 coefficients 


     atomic species   valence    mass     pseudopotential
        Sr            10.00    87.62000     Sr( 1.00)
        O              6.00    15.99900     O ( 1.00)
        Co            17.00    58.93319     Co( 1.00)
        H              1.00     1.00800     H ( 1.00)

     No symmetry found


                                    s                        frac. trans.

      isym =  1     identity                                     

 cryst.   s( 1) = (     1          0          0      )
                  (     0          1          0      )
                  (     0          0          1      )

 cart.    s( 1) = (  1.0000000  0.0000000  0.0000000 )
                  (  0.0000000  1.0000000  0.0000000 )
                  (  0.0000000  0.0000000  1.0000000 )


   Cartesian axes

     site n.     atom                  positions (alat units)
         1           Sr  tau(   1) = (   0.2508693   0.7491307   1.7574407  )
         2           O   tau(   2) = (   0.4985141   0.5014859   1.7715967  )
         3           Sr  tau(   3) = (   0.7482398   0.7454518   1.7648669  )
         4           Sr  tau(   4) = (   0.7441748   0.2558252   1.7667843  )
         5           Sr  tau(   5) = (   0.2508693   0.7491307   1.2696799  )
         6           Sr  tau(   6) = (   0.2508693   0.7491307   0.7632319  )
         7           Co  tau(   7) = (   0.4998914   0.5001086   1.0164559  )
         8           Co  tau(   8) = (   0.4936915   0.5063085   1.5135603  )
         9           O   tau(   9) = (   0.4988895   0.7610401   1.0164559  )
        10           O   tau(  10) = (   0.2389599   0.5011105   1.0164559  )
        11           O   tau(  11) = (   0.0070918   0.7374880   1.0164559  )
        12           O   tau(  12) = (   0.0088340   0.7405089   1.5135603  )
        13           O   tau(  13) = (   0.5066944   0.7415376   1.5135603  )
        14           O   tau(  14) = (   0.2584624   0.4933056   1.5135603  )
        15           O   tau(  15) = (   0.4985141   0.5014859   0.7773880  )
        16           O   tau(  16) = (   0.4985141   0.5014859   1.2555238  )
        17           Sr  tau(  17) = (   0.7482398   0.7454518   0.7706582  )
        18           Sr  tau(  18) = (   0.7482398   0.7454518   1.2622536  )
        19           Sr  tau(  19) = (   0.7441748   0.2558252   0.7725755  )
        20           Sr  tau(  20) = (   0.7441748   0.2558252   1.2603363  )
        21           O   tau(  21) = (   0.7322655   0.0078049   1.5135603  )
        22           O   tau(  22) = (   0.7558175   0.4996027   1.5135603  )
        23           O   tau(  23) = (   0.5003973   0.2441825   1.5135603  )
        24           O   tau(  24) = (   0.7527966   0.4978604   1.0164559  )
        25           O   tau(  25) = (   0.5021396   0.2472034   1.0164559  )
        26           O   tau(  26) = (   0.7517679   0.0000000   1.0164559  )
        27           O   tau(  27) = (   0.0114961   0.4948124   1.7455321  )
        28           O   tau(  28) = (   0.0048226   0.0077944   1.7715967  )
        29           Sr  tau(  29) = (   0.2545482   0.2517602   1.7648669  )
        30           O   tau(  30) = (   0.5048017   0.0015068   1.7786929  )
        31           Co  tau(  31) = (   0.0056869   0.5006215   1.0164559  )
        32           Co  tau(  32) = (   0.0065315   0.4997770   1.5135603  )
        33           Co  tau(  33) = (   0.0061999   0.0064171   1.0164559  )
        34           Co  tau(  34) = (   0.0000000   0.0126169   1.5135603  )
        35           O   tau(  35) = (   0.0114961   0.4948124   1.2815885  )
        36           O   tau(  36) = (   0.0114961   0.4948124   0.7513233  )
        37           O   tau(  37) = (   0.0051979   0.2673486   1.0164559  )
        38           O   tau(  38) = (   0.0130029   0.2478461   1.5135603  )
        39           O   tau(  39) = (   0.0048226   0.0077944   0.7773880  )
        40           O   tau(  40) = (   0.0048226   0.0077944   1.2555238  )
        41           Sr  tau(  41) = (   0.2545482   0.2517602   0.7706582  )
        42           Sr  tau(  42) = (   0.2545482   0.2517602   1.2622536  )
        43           Co  tau(  43) = (   0.4989925   0.0073160   1.5135603  )
        44           Co  tau(  44) = (   0.4998370   0.0064714   1.0164559  )
        45           O   tau(  45) = (   0.5048017   0.0015068   0.7844841  )
        46           O   tau(  46) = (   0.5048017   0.0015068   1.2484277  )
        47           O   tau(  47) = (   0.2621260   0.0059111   1.5135603  )
        48           O   tau(  48) = (   0.2591051   0.0041689   1.0164559  )
        49           O   tau(  49) = (   0.8529874   0.2843291   2.1602013  )
        50           O   tau(  50) = (   0.8529874   0.2843291   2.3186489  )
        51           H   tau(  51) = (   0.8529874   0.2843291   2.4431567  )

   Crystallographic axes

     site n.     atom                  positions (cryst. coord.)
         1           Sr  tau(   1) = (  0.2508693  0.7491307  0.6943562  )
         2           O   tau(   2) = (  0.4985141  0.5014859  0.6999492  )
         3           Sr  tau(   3) = (  0.7482398  0.7454518  0.6972903  )
         4           Sr  tau(   4) = (  0.7441748  0.2558252  0.6980478  )
         5           Sr  tau(   5) = (  0.2508693  0.7491307  0.5016443  )
         6           Sr  tau(   6) = (  0.2508693  0.7491307  0.3015492  )
         7           Co  tau(   7) = (  0.4998914  0.5001086  0.4015968  )
         8           Co  tau(   8) = (  0.4936915  0.5063085  0.5980003  )
         9           O   tau(   9) = (  0.4988895  0.7610401  0.4015968  )
        10           O   tau(  10) = (  0.2389599  0.5011105  0.4015968  )
        11           O   tau(  11) = (  0.0070918  0.7374880  0.4015968  )
        12           O   tau(  12) = (  0.0088340  0.7405089  0.5980003  )
        13           O   tau(  13) = (  0.5066944  0.7415376  0.5980003  )
        14           O   tau(  14) = (  0.2584624  0.4933056  0.5980003  )
        15           O   tau(  15) = (  0.4985141  0.5014859  0.3071422  )
        16           O   tau(  16) = (  0.4985141  0.5014859  0.4960513  )
        17           Sr  tau(  17) = (  0.7482398  0.7454518  0.3044833  )
        18           Sr  tau(  18) = (  0.7482398  0.7454518  0.4987103  )
        19           Sr  tau(  19) = (  0.7441748  0.2558252  0.3052408  )
        20           Sr  tau(  20) = (  0.7441748  0.2558252  0.4979527  )
        21           O   tau(  21) = (  0.7322655  0.0078049  0.5980003  )
        22           O   tau(  22) = (  0.7558175  0.4996027  0.5980003  )
        23           O   tau(  23) = (  0.5003973  0.2441825  0.5980003  )
        24           O   tau(  24) = (  0.7527966  0.4978604  0.4015968  )
        25           O   tau(  25) = (  0.5021396  0.2472034  0.4015968  )
        26           O   tau(  26) = (  0.7517679  0.0000000  0.4015968  )
        27           O   tau(  27) = (  0.0114961  0.4948124  0.6896512  )
        28           O   tau(  28) = (  0.0048226  0.0077944  0.6999492  )
        29           Sr  tau(  29) = (  0.2545482  0.2517602  0.6972903  )
        30           O   tau(  30) = (  0.5048017  0.0015068  0.7027529  )
        31           Co  tau(  31) = (  0.0056869  0.5006215  0.4015968  )
        32           Co  tau(  32) = (  0.0065315  0.4997770  0.5980003  )
        33           Co  tau(  33) = (  0.0061999  0.0064171  0.4015968  )
        34           Co  tau(  34) = (  0.0000000  0.0126169  0.5980003  )
        35           O   tau(  35) = (  0.0114961  0.4948124  0.5063494  )
        36           O   tau(  36) = (  0.0114961  0.4948124  0.2968442  )
        37           O   tau(  37) = (  0.0051979  0.2673486  0.4015968  )
        38           O   tau(  38) = (  0.0130029  0.2478461  0.5980003  )
        39           O   tau(  39) = (  0.0048226  0.0077944  0.3071422  )
        40           O   tau(  40) = (  0.0048226  0.0077944  0.4960513  )
        41           Sr  tau(  41) = (  0.2545482  0.2517602  0.3044833  )
        42           Sr  tau(  42) = (  0.2545482  0.2517602  0.4987103  )
        43           Co  tau(  43) = (  0.4989925  0.0073160  0.5980003  )
        44           Co  tau(  44) = (  0.4998370  0.0064714  0.4015968  )
        45           O   tau(  45) = (  0.5048017  0.0015068  0.3099459  )
        46           O   tau(  46) = (  0.5048017  0.0015068  0.4932477  )
        47           O   tau(  47) = (  0.2621260  0.0059111  0.5980003  )
        48           O   tau(  48) = (  0.2591051  0.0041689  0.4015968  )
        49           O   tau(  49) = (  0.8529874  0.2843291  0.8534850  )
        50           O   tau(  50) = (  0.8529874  0.2843291  0.9160869  )
        51           H   tau(  51) = (  0.8529874  0.2843291  0.9652793  )

     number of k points=    10  Gaussian smearing, width (Ry)=  0.0700
                       cart. coord. in units 2pi/alat
        k(    1) = (   0.0000000   0.0000000   0.0000000), wk =   0.1250000
        k(    2) = (   0.0000000   0.2500000   0.0000000), wk =   0.2500000
        k(    3) = (   0.0000000  -0.5000000   0.0000000), wk =   0.1250000
        k(    4) = (   0.2500000   0.2500000   0.0000000), wk =   0.2500000
        k(    5) = (   0.2500000  -0.5000000   0.0000000), wk =   0.2500000
        k(    6) = (  -0.5000000  -0.5000000   0.0000000), wk =   0.1250000
        k(    7) = (   0.2500000   0.0000000   0.0000000), wk =   0.2500000
        k(    8) = (  -0.5000000   0.0000000   0.0000000), wk =   0.1250000
        k(    9) = (  -0.2500000   0.2500000   0.0000000), wk =   0.2500000
        k(   10) = (  -0.5000000   0.2500000   0.0000000), wk =   0.2500000

                       cryst. coord.
        k(    1) = (   0.0000000   0.0000000   0.0000000), wk =   0.1250000
        k(    2) = (   0.0000000   0.2500000   0.0000000), wk =   0.2500000
        k(    3) = (   0.0000000  -0.5000000   0.0000000), wk =   0.1250000
        k(    4) = (   0.2500000   0.2500000   0.0000000), wk =   0.2500000
        k(    5) = (   0.2500000  -0.5000000   0.0000000), wk =   0.2500000
        k(    6) = (  -0.5000000  -0.5000000   0.0000000), wk =   0.1250000
        k(    7) = (   0.2500000   0.0000000   0.0000000), wk =   0.2500000
        k(    8) = (  -0.5000000   0.0000000   0.0000000), wk =   0.1250000
        k(    9) = (  -0.2500000   0.2500000   0.0000000), wk =   0.2500000
        k(   10) = (  -0.5000000   0.2500000   0.0000000), wk =   0.2500000

     Dense  grid:  1474595 G-vectors     FFT dimensions: ( 108, 108, 270)

     Smooth grid:   521381 G-vectors     FFT dimensions: (  75,  75, 192)

     Dynamical RAM for                 wfc:      10.90 MB

     Dynamical RAM for     wfc (w. buffer):      65.37 MB

     Dynamical RAM for           str. fact:       3.75 MB

     Dynamical RAM for           local pot:       0.00 MB

     Dynamical RAM for          nlocal pot:      24.94 MB

     Dynamical RAM for                qrad:       7.03 MB

     Dynamical RAM for          rho,v,vnew:       6.02 MB

     Dynamical RAM for               rhoin:       2.01 MB

     Dynamical RAM for            rho*nmix:      15.00 MB

     Dynamical RAM for           G-vectors:       3.68 MB

     Dynamical RAM for          h,s,v(r/c):       1.40 MB

     Dynamical RAM for          <psi|beta>:       2.42 MB

     Dynamical RAM for                 psi:      21.79 MB

     Dynamical RAM for                hpsi:      21.79 MB

     Dynamical RAM for                spsi:      21.79 MB

     Dynamical RAM for      wfcinit/wfcrot:      34.89 MB

     Dynamical RAM for           addusdens:     101.73 MB

     Estimated static dynamical RAM per process >     122.82 MB

     Estimated max dynamical RAM per process >     239.55 MB

     Estimated total dynamical RAM >      10.88 GB

     Check: negative core charge=   -0.000004

     Initial potential from superposition of free atoms

     starting charge     428.5961, renormalised to     437.0000

     negative rho (up, down):  7.813E-01 0.000E+00
     Starting wfcs are  381 randomized atomic wfcs
     Checking if some PAW data can be deallocated... 
       PAW data deallocated on   18 nodes for type:  2

     total cpu time spent up to now is        9.9 secs

     Self-consistent Calculation

     iteration #  1     ecut=    60.00 Ry     beta= 0.15
     Davidson diagonalization with overlap

---- Real-time Memory Report at c_bands before calling an iterative solver
             0 MiB given to the printing process from OS
             0 MiB allocation reported by mallinfo(arena+hblkhd)
         32072 MiB available memory on the node where the printing process lives
------------------
     ethr =  1.00E-02,  avg # of iterations =  2.0

     negative rho (up, down):  7.715E-01 0.000E+00

     total cpu time spent up to now is       25.7 secs

     total energy              =   -4489.28000104 Ry
     estimated scf accuracy    <      49.72232537 Ry

     iteration #  2     ecut=    60.00 Ry     beta= 0.15
     Davidson diagonalization with overlap

---- Real-time Memory Report at c_bands before calling an iterative solver
             0 MiB given to the printing process from OS
             0 MiB allocation reported by mallinfo(arena+hblkhd)
         32430 MiB available memory on the node where the printing process lives
------------------
     ethr =  1.00E-02,  avg # of iterations =  1.0

     negative rho (up, down):  7.614E-01 0.000E+00

     total cpu time spent up to now is       38.8 secs

     total energy              =   -4486.81742157 Ry
     estimated scf accuracy    <      35.26147974 Ry

     iteration #  3     ecut=    60.00 Ry     beta= 0.15
     Davidson diagonalization with overlap

---- Real-time Memory Report at c_bands before calling an iterative solver
             0 MiB given to the printing process from OS
             0 MiB allocation reported by mallinfo(arena+hblkhd)
         31669 MiB available memory on the node where the printing process lives
------------------
     ethr =  8.07E-03,  avg # of iterations =  1.0

     negative rho (up, down):  7.562E-01 0.000E+00

     total cpu time spent up to now is       51.9 secs

     total energy              =   -4486.75864558 Ry
     estimated scf accuracy    <      35.11114307 Ry

     iteration #  4     ecut=    60.00 Ry     beta= 0.15
     Davidson diagonalization with overlap

---- Real-time Memory Report at c_bands before calling an iterative solver
             0 MiB given to the printing process from OS
             0 MiB allocation reported by mallinfo(arena+hblkhd)
         31643 MiB available memory on the node where the printing process lives
------------------
     ethr =  8.03E-03,  avg # of iterations =  1.0

     negative rho (up, down):  7.573E-01 0.000E+00

     total cpu time spent up to now is       65.1 secs

     total energy              =   -4486.64407378 Ry
     estimated scf accuracy    <      34.29084811 Ry

     iteration #  5     ecut=    60.00 Ry     beta= 0.15
     Davidson diagonalization with overlap

---- Real-time Memory Report at c_bands before calling an iterative solver
             0 MiB given to the printing process from OS
             0 MiB allocation reported by mallinfo(arena+hblkhd)
         31630 MiB available memory on the node where the printing process lives
------------------
     ethr =  7.85E-03,  avg # of iterations =  1.0

     negative rho (up, down):  7.339E-01 0.000E+00

     total cpu time spent up to now is       78.1 secs

     total energy              =   -4482.79558844 Ry
     estimated scf accuracy    <      23.39470952 Ry

     iteration #  6     ecut=    60.00 Ry     beta= 0.15
     Davidson diagonalization with overlap

---- Real-time Memory Report at c_bands before calling an iterative solver
             0 MiB given to the printing process from OS
             0 MiB allocation reported by mallinfo(arena+hblkhd)
         31614 MiB available memory on the node where the printing process lives
------------------
     ethr =  5.35E-03,  avg # of iterations =  2.0

     negative rho (up, down):  7.478E-01 0.000E+00

     total cpu time spent up to now is       92.5 secs

     total energy              =   -4483.99326836 Ry
     estimated scf accuracy    <      40.96680436 Ry

     iteration #  7     ecut=    60.00 Ry     beta= 0.15
     Davidson diagonalization with overlap

---- Real-time Memory Report at c_bands before calling an iterative solver
             0 MiB given to the printing process from OS
             0 MiB allocation reported by mallinfo(arena+hblkhd)
         31594 MiB available memory on the node where the printing process lives
------------------
     ethr =  5.35E-03,  avg # of iterations =  1.0

     negative rho (up, down):  7.530E-01 0.000E+00

     total cpu time spent up to now is      105.5 secs

     total energy              =   -4483.48367020 Ry
     estimated scf accuracy    <      40.95889764 Ry

     iteration #  8     ecut=    60.00 Ry     beta= 0.15
     Davidson diagonalization with overlap

---- Real-time Memory Report at c_bands before calling an iterative solver
             0 MiB given to the printing process from OS
             0 MiB allocation reported by mallinfo(arena+hblkhd)
         31575 MiB available memory on the node where the printing process lives
------------------
     ethr =  5.35E-03,  avg # of iterations =  1.0

     negative rho (up, down):  7.504E-01 0.000E+00

     total cpu time spent up to now is      118.4 secs

     total energy              =   -4483.83938993 Ry
     estimated scf accuracy    <       5.91876462 Ry

     iteration #  9     ecut=    60.00 Ry     beta= 0.15
     Davidson diagonalization with overlap

---- Real-time Memory Report at c_bands before calling an iterative solver
             0 MiB given to the printing process from OS
             0 MiB allocation reported by mallinfo(arena+hblkhd)
         31547 MiB available memory on the node where the printing process lives
------------------
     ethr =  1.35E-03,  avg # of iterations =  5.3

     negative rho (up, down):  7.643E-01 0.000E+00

     total cpu time spent up to now is      134.5 secs

     total energy              =   -4483.69710932 Ry
     estimated scf accuracy    <       3.51933963 Ry

     iteration # 10     ecut=    60.00 Ry     beta= 0.15
     Davidson diagonalization with overlap

---- Real-time Memory Report at c_bands before calling an iterative solver
             0 MiB given to the printing process from OS
             0 MiB allocation reported by mallinfo(arena+hblkhd)
         31472 MiB available memory on the node where the printing process lives
------------------
     ethr =  8.05E-04,  avg # of iterations = 10.3

     negative rho (up, down):  7.821E-01 0.000E+00

     total cpu time spent up to now is      153.7 secs

     total energy              =   -4483.52880107 Ry
     estimated scf accuracy    <       4.37358502 Ry

     iteration # 11     ecut=    60.00 Ry     beta= 0.15
     Davidson diagonalization with overlap

---- Real-time Memory Report at c_bands before calling an iterative solver
             0 MiB given to the printing process from OS
             0 MiB allocation reported by mallinfo(arena+hblkhd)
         31207 MiB available memory on the node where the printing process lives
------------------
     ethr =  8.05E-04,  avg # of iterations =  6.7

     negative rho (up, down):  7.881E-01 0.000E+00

     total cpu time spent up to now is      171.3 secs

     total energy              =   -4483.28034370 Ry
     estimated scf accuracy    <       4.21595955 Ry

     iteration # 12     ecut=    60.00 Ry     beta= 0.15
     Davidson diagonalization with overlap

---- Real-time Memory Report at c_bands before calling an iterative solver
             0 MiB given to the printing process from OS
             0 MiB allocation reported by mallinfo(arena+hblkhd)
         31044 MiB available memory on the node where the printing process lives
------------------
     ethr =  8.05E-04,  avg # of iterations =  9.1

     negative rho (up, down):  7.998E-01 0.000E+00

     total cpu time spent up to now is      189.1 secs

     total energy              =   -4483.20666237 Ry
     estimated scf accuracy    <       2.10905218 Ry

     iteration # 13     ecut=    60.00 Ry     beta= 0.15
     Davidson diagonalization with overlap

---- Real-time Memory Report at c_bands before calling an iterative solver
             0 MiB given to the printing process from OS
             0 MiB allocation reported by mallinfo(arena+hblkhd)
         30981 MiB available memory on the node where the printing process lives
------------------
     ethr =  4.83E-04,  avg # of iterations =  2.0

     negative rho (up, down):  7.992E-01 0.000E+00

     total cpu time spent up to now is      205.0 secs

     total energy              =   -4483.27991955 Ry
     estimated scf accuracy    <       1.37555164 Ry

     iteration # 14     ecut=    60.00 Ry     beta= 0.15
     Davidson diagonalization with overlap

---- Real-time Memory Report at c_bands before calling an iterative solver
             0 MiB given to the printing process from OS
             0 MiB allocation reported by mallinfo(arena+hblkhd)
         31017 MiB available memory on the node where the printing process lives
------------------
     ethr =  3.15E-04,  avg # of iterations =  6.8

     negative rho (up, down):  8.108E-01 0.000E+00

     total cpu time spent up to now is      222.0 secs

     total energy              =   -4483.15166663 Ry
     estimated scf accuracy    <       0.85377653 Ry

     iteration # 15     ecut=    60.00 Ry     beta= 0.15
     Davidson diagonalization with overlap

---- Real-time Memory Report at c_bands before calling an iterative solver
             0 MiB given to the printing process from OS
             0 MiB allocation reported by mallinfo(arena+hblkhd)
         30996 MiB available memory on the node where the printing process lives
------------------
     ethr =  1.95E-04,  avg # of iterations =  6.6

     negative rho (up, down):  8.168E-01 0.000E+00

     total cpu time spent up to now is      238.9 secs

     total energy              =   -4483.15041125 Ry
     estimated scf accuracy    <       2.01180496 Ry

     iteration # 16     ecut=    60.00 Ry     beta= 0.15
     Davidson diagonalization with overlap

---- Real-time Memory Report at c_bands before calling an iterative solver
             0 MiB given to the printing process from OS
             0 MiB allocation reported by mallinfo(arena+hblkhd)
         30998 MiB available memory on the node where the printing process lives
------------------
     ethr =  1.95E-04,  avg # of iterations =  2.5

     negative rho (up, down):  8.136E-01 0.000E+00

     total cpu time spent up to now is      254.0 secs

     total energy              =   -4483.11911222 Ry
     estimated scf accuracy    <       1.29699784 Ry

     iteration # 17     ecut=    60.00 Ry     beta= 0.15
     Davidson diagonalization with overlap

---- Real-time Memory Report at c_bands before calling an iterative solver
             0 MiB given to the printing process from OS
             0 MiB allocation reported by mallinfo(arena+hblkhd)
         31000 MiB available memory on the node where the printing process lives
------------------
     ethr =  1.95E-04,  avg # of iterations =  5.8

     negative rho (up, down):  8.174E-01 0.000E+00

     total cpu time spent up to now is      269.9 secs

     total energy              =   -4483.08907752 Ry
     estimated scf accuracy    <       0.44516551 Ry

     iteration # 18     ecut=    60.00 Ry     beta= 0.15
     Davidson diagonalization with overlap

---- Real-time Memory Report at c_bands before calling an iterative solver
             0 MiB given to the printing process from OS
             0 MiB allocation reported by mallinfo(arena+hblkhd)
         31020 MiB available memory on the node where the printing process lives
------------------
     c_bands:  1 eigenvalues not converged
     ethr =  1.02E-04,  avg # of iterations =  9.9

     negative rho (up, down):  8.194E-01 0.000E+00

     total cpu time spent up to now is      288.1 secs

     total energy              =   -4483.05197522 Ry
     estimated scf accuracy    <       0.55021092 Ry

     iteration # 19     ecut=    60.00 Ry     beta= 0.15
     Davidson diagonalization with overlap

---- Real-time Memory Report at c_bands before calling an iterative solver
             0 MiB given to the printing process from OS
             0 MiB allocation reported by mallinfo(arena+hblkhd)
         31017 MiB available memory on the node where the printing process lives
------------------
     ethr =  1.02E-04,  avg # of iterations = 11.2

     negative rho (up, down):  8.226E-01 0.000E+00

     total cpu time spent up to now is      307.0 secs

     total energy              =   -4483.03743972 Ry
     estimated scf accuracy    <       0.37679055 Ry

     iteration # 20     ecut=    60.00 Ry     beta= 0.15
     Davidson diagonalization with overlap

---- Real-time Memory Report at c_bands before calling an iterative solver
             0 MiB given to the printing process from OS
             0 MiB allocation reported by mallinfo(arena+hblkhd)
         31005 MiB available memory on the node where the printing process lives
------------------
     ethr =  8.62E-05,  avg # of iterations =  1.9

     negative rho (up, down):  8.279E-01 0.000E+00

     total cpu time spent up to now is      321.6 secs

     total energy              =   -4483.01086445 Ry
     estimated scf accuracy    <       0.32523252 Ry

     iteration # 21     ecut=    60.00 Ry     beta= 0.15
     Davidson diagonalization with overlap

---- Real-time Memory Report at c_bands before calling an iterative solver
             0 MiB given to the printing process from OS
             0 MiB allocation reported by mallinfo(arena+hblkhd)
         30943 MiB available memory on the node where the printing process lives
------------------
     ethr =  7.44E-05,  avg # of iterations =  9.6

     negative rho (up, down):  8.313E-01 0.000E+00

     total cpu time spent up to now is      340.2 secs

     total energy              =   -4482.98054018 Ry
     estimated scf accuracy    <       0.33273244 Ry

     iteration # 22     ecut=    60.00 Ry     beta= 0.15
     Davidson diagonalization with overlap

---- Real-time Memory Report at c_bands before calling an iterative solver
             0 MiB given to the printing process from OS
             0 MiB allocation reported by mallinfo(arena+hblkhd)
         30924 MiB available memory on the node where the printing process lives
------------------
     ethr =  7.44E-05,  avg # of iterations =  7.2

     negative rho (up, down):  8.409E-01 0.000E+00

     total cpu time spent up to now is      358.1 secs

     total energy              =   -4482.98768503 Ry
     estimated scf accuracy    <       0.07144128 Ry

     iteration # 23     ecut=    60.00 Ry     beta= 0.15
     Davidson diagonalization with overlap

---- Real-time Memory Report at c_bands before calling an iterative solver
             0 MiB given to the printing process from OS
             0 MiB allocation reported by mallinfo(arena+hblkhd)
         30913 MiB available memory on the node where the printing process lives
------------------
     ethr =  1.63E-05,  avg # of iterations = 10.0

     negative rho (up, down):  8.366E-01 0.000E+00

     total cpu time spent up to now is      377.1 secs

     total energy              =   -4482.98075951 Ry
     estimated scf accuracy    <       0.04113664 Ry

     iteration # 24     ecut=    60.00 Ry     beta= 0.15
     Davidson diagonalization with overlap

---- Real-time Memory Report at c_bands before calling an iterative solver
             0 MiB given to the printing process from OS
             0 MiB allocation reported by mallinfo(arena+hblkhd)
         30769 MiB available memory on the node where the printing process lives
------------------
     ethr =  9.41E-06,  avg # of iterations = 10.8

     negative rho (up, down):  8.348E-01 0.000E+00

     total cpu time spent up to now is      395.8 secs

     total energy              =   -4482.98199200 Ry
     estimated scf accuracy    <       0.02375770 Ry

     iteration # 25     ecut=    60.00 Ry     beta= 0.15
     Davidson diagonalization with overlap

---- Real-time Memory Report at c_bands before calling an iterative solver
             0 MiB given to the printing process from OS
             0 MiB allocation reported by mallinfo(arena+hblkhd)
         30721 MiB available memory on the node where the printing process lives
------------------
     ethr =  5.44E-06,  avg # of iterations =  3.5

     negative rho (up, down):  8.233E-01 0.000E+00

     total cpu time spent up to now is      411.3 secs

     total energy              =   -4482.98134129 Ry
     estimated scf accuracy    <       0.01082030 Ry

     iteration # 26     ecut=    60.00 Ry     beta= 0.15
     Davidson diagonalization with overlap

---- Real-time Memory Report at c_bands before calling an iterative solver
             0 MiB given to the printing process from OS
             0 MiB allocation reported by mallinfo(arena+hblkhd)
         30772 MiB available memory on the node where the printing process lives
------------------
     ethr =  2.48E-06,  avg # of iterations =  9.3

     negative rho (up, down):  8.060E-01 0.000E+00

     total cpu time spent up to now is      429.5 secs

     total energy              =   -4482.98049050 Ry
     estimated scf accuracy    <       0.00778728 Ry

     iteration # 27     ecut=    60.00 Ry     beta= 0.15
     Davidson diagonalization with overlap

---- Real-time Memory Report at c_bands before calling an iterative solver
             0 MiB given to the printing process from OS
             0 MiB allocation reported by mallinfo(arena+hblkhd)
         30754 MiB available memory on the node where the printing process lives
------------------
     c_bands:  1 eigenvalues not converged
     ethr =  1.78E-06,  avg # of iterations =  7.8

     negative rho (up, down):  7.957E-01 0.000E+00

     total cpu time spent up to now is      447.6 secs

     total energy              =   -4482.97963622 Ry
     estimated scf accuracy    <       0.00602596 Ry

     iteration # 28     ecut=    60.00 Ry     beta= 0.15
     Davidson diagonalization with overlap

---- Real-time Memory Report at c_bands before calling an iterative solver
             0 MiB given to the printing process from OS
             0 MiB allocation reported by mallinfo(arena+hblkhd)
         30740 MiB available memory on the node where the printing process lives
------------------
     ethr =  1.38E-06,  avg # of iterations =  8.5

     negative rho (up, down):  7.928E-01 0.000E+00

     total cpu time spent up to now is      466.3 secs

     total energy              =   -4482.97938703 Ry
     estimated scf accuracy    <       0.00271725 Ry

     iteration # 29     ecut=    60.00 Ry     beta= 0.15
     Davidson diagonalization with overlap

---- Real-time Memory Report at c_bands before calling an iterative solver
             0 MiB given to the printing process from OS
             0 MiB allocation reported by mallinfo(arena+hblkhd)
         30736 MiB available memory on the node where the printing process lives
------------------
     ethr =  6.22E-07,  avg # of iterations =  8.0

     negative rho (up, down):  7.929E-01 0.000E+00

     total cpu time spent up to now is      484.2 secs

     total energy              =   -4482.97936886 Ry
     estimated scf accuracy    <       0.00123813 Ry

     iteration # 30     ecut=    60.00 Ry     beta= 0.15
     Davidson diagonalization with overlap

---- Real-time Memory Report at c_bands before calling an iterative solver
             0 MiB given to the printing process from OS
             0 MiB allocation reported by mallinfo(arena+hblkhd)
         30703 MiB available memory on the node where the printing process lives
------------------
     ethr =  2.83E-07,  avg # of iterations =  3.0

     negative rho (up, down):  7.928E-01 0.000E+00

     total cpu time spent up to now is      499.4 secs

     total energy              =   -4482.97935514 Ry
     estimated scf accuracy    <       0.00057785 Ry

     iteration # 31     ecut=    60.00 Ry     beta= 0.15
     Davidson diagonalization with overlap

---- Real-time Memory Report at c_bands before calling an iterative solver
             0 MiB given to the printing process from OS
             0 MiB allocation reported by mallinfo(arena+hblkhd)
         30719 MiB available memory on the node where the printing process lives
------------------
     ethr =  1.32E-07,  avg # of iterations =  4.1

     negative rho (up, down):  7.925E-01 0.000E+00

     total cpu time spent up to now is      514.9 secs

     total energy              =   -4482.97932726 Ry
     estimated scf accuracy    <       0.00030496 Ry

     iteration # 32     ecut=    60.00 Ry     beta= 0.15
     Davidson diagonalization with overlap

---- Real-time Memory Report at c_bands before calling an iterative solver
             0 MiB given to the printing process from OS
             0 MiB allocation reported by mallinfo(arena+hblkhd)
         30751 MiB available memory on the node where the printing process lives
------------------
     ethr =  6.98E-08,  avg # of iterations =  4.5

     negative rho (up, down):  7.924E-01 0.000E+00

     total cpu time spent up to now is      530.9 secs

     total energy              =   -4482.97933989 Ry
     estimated scf accuracy    <       0.00009368 Ry

     iteration # 33     ecut=    60.00 Ry     beta= 0.15
     Davidson diagonalization with overlap

---- Real-time Memory Report at c_bands before calling an iterative solver
             0 MiB given to the printing process from OS
             0 MiB allocation reported by mallinfo(arena+hblkhd)
         30762 MiB available memory on the node where the printing process lives
------------------
     ethr =  2.14E-08,  avg # of iterations =  2.0

     negative rho (up, down):  7.925E-01 0.000E+00

     total cpu time spent up to now is      545.6 secs

     total energy              =   -4482.97932640 Ry
     estimated scf accuracy    <       0.00007263 Ry

     iteration # 34     ecut=    60.00 Ry     beta= 0.15
     Davidson diagonalization with overlap

---- Real-time Memory Report at c_bands before calling an iterative solver
             0 MiB given to the printing process from OS
             0 MiB allocation reported by mallinfo(arena+hblkhd)
         30805 MiB available memory on the node where the printing process lives
------------------
     ethr =  1.66E-08,  avg # of iterations =  4.1

     negative rho (up, down):  7.925E-01 0.000E+00

     total cpu time spent up to now is      561.0 secs

     total energy              =   -4482.97932958 Ry
     estimated scf accuracy    <       0.00004434 Ry

     iteration # 35     ecut=    60.00 Ry     beta= 0.15
     Davidson diagonalization with overlap

---- Real-time Memory Report at c_bands before calling an iterative solver
             0 MiB given to the printing process from OS
             0 MiB allocation reported by mallinfo(arena+hblkhd)
         30777 MiB available memory on the node where the printing process lives
------------------
     ethr =  1.01E-08,  avg # of iterations =  2.3

     negative rho (up, down):  7.924E-01 0.000E+00

     total cpu time spent up to now is      575.7 secs

     total energy              =   -4482.97933852 Ry
     estimated scf accuracy    <       0.00003003 Ry

     iteration # 36     ecut=    60.00 Ry     beta= 0.15
     Davidson diagonalization with overlap

---- Real-time Memory Report at c_bands before calling an iterative solver
             0 MiB given to the printing process from OS
             0 MiB allocation reported by mallinfo(arena+hblkhd)
         30785 MiB available memory on the node where the printing process lives
------------------
     ethr =  6.87E-09,  avg # of iterations =  2.9

     negative rho (up, down):  7.924E-01 0.000E+00

     total cpu time spent up to now is      590.5 secs

     total energy              =   -4482.97934667 Ry
     estimated scf accuracy    <       0.00002158 Ry

     iteration # 37     ecut=    60.00 Ry     beta= 0.15
     Davidson diagonalization with overlap

---- Real-time Memory Report at c_bands before calling an iterative solver
             0 MiB given to the printing process from OS
             0 MiB allocation reported by mallinfo(arena+hblkhd)
         30784 MiB available memory on the node where the printing process lives
------------------
     ethr =  4.94E-09,  avg # of iterations =  4.5

     negative rho (up, down):  7.924E-01 0.000E+00

     total cpu time spent up to now is      606.4 secs

     total energy              =   -4482.97935107 Ry
     estimated scf accuracy    <       0.00000999 Ry

     iteration # 38     ecut=    60.00 Ry     beta= 0.15
     Davidson diagonalization with overlap

---- Real-time Memory Report at c_bands before calling an iterative solver
             0 MiB given to the printing process from OS
             0 MiB allocation reported by mallinfo(arena+hblkhd)
         30780 MiB available memory on the node where the printing process lives
------------------
     ethr =  2.29E-09,  avg # of iterations =  3.8

     negative rho (up, down):  7.924E-01 0.000E+00

     total cpu time spent up to now is      621.8 secs

     total energy              =   -4482.97935206 Ry
     estimated scf accuracy    <       0.00000670 Ry

     iteration # 39     ecut=    60.00 Ry     beta= 0.15
     Davidson diagonalization with overlap

---- Real-time Memory Report at c_bands before calling an iterative solver
             0 MiB given to the printing process from OS
             0 MiB allocation reported by mallinfo(arena+hblkhd)
         30783 MiB available memory on the node where the printing process lives
------------------
     ethr =  1.53E-09,  avg # of iterations =  3.7

     negative rho (up, down):  7.923E-01 0.000E+00

     total cpu time spent up to now is      637.1 secs

     total energy              =   -4482.97935381 Ry
     estimated scf accuracy    <       0.00000453 Ry

     iteration # 40     ecut=    60.00 Ry     beta= 0.15
     Davidson diagonalization with overlap

---- Real-time Memory Report at c_bands before calling an iterative solver
             0 MiB given to the printing process from OS
             0 MiB allocation reported by mallinfo(arena+hblkhd)
         30783 MiB available memory on the node where the printing process lives
------------------
     ethr =  1.04E-09,  avg # of iterations =  4.1

     negative rho (up, down):  7.923E-01 0.000E+00

     total cpu time spent up to now is      652.8 secs

     total energy              =   -4482.97935446 Ry
     estimated scf accuracy    <       0.00000334 Ry

     iteration # 41     ecut=    60.00 Ry     beta= 0.15
     Davidson diagonalization with overlap

---- Real-time Memory Report at c_bands before calling an iterative solver
             0 MiB given to the printing process from OS
             0 MiB allocation reported by mallinfo(arena+hblkhd)
         30783 MiB available memory on the node where the printing process lives
------------------
     ethr =  7.64E-10,  avg # of iterations =  3.6

     negative rho (up, down):  7.923E-01 0.000E+00

     total cpu time spent up to now is      668.0 secs

     total energy              =   -4482.97935447 Ry
     estimated scf accuracy    <       0.00000234 Ry

     iteration # 42     ecut=    60.00 Ry     beta= 0.15
     Davidson diagonalization with overlap

---- Real-time Memory Report at c_bands before calling an iterative solver
             0 MiB given to the printing process from OS
             0 MiB allocation reported by mallinfo(arena+hblkhd)
         30781 MiB available memory on the node where the printing process lives
------------------
     ethr =  5.35E-10,  avg # of iterations =  5.0

     negative rho (up, down):  7.923E-01 0.000E+00

     total cpu time spent up to now is      684.0 secs

     total energy              =   -4482.97935389 Ry
     estimated scf accuracy    <       0.00000148 Ry

     iteration # 43     ecut=    60.00 Ry     beta= 0.15
     Davidson diagonalization with overlap

---- Real-time Memory Report at c_bands before calling an iterative solver
             0 MiB given to the printing process from OS
             0 MiB allocation reported by mallinfo(arena+hblkhd)
         30785 MiB available memory on the node where the printing process lives
------------------
     ethr =  3.39E-10,  avg # of iterations =  5.2

     negative rho (up, down):  7.923E-01 0.000E+00

     total cpu time spent up to now is      700.1 secs

     total energy              =   -4482.97935408 Ry
     estimated scf accuracy    <       0.00000047 Ry

     iteration # 44     ecut=    60.00 Ry     beta= 0.15
     Davidson diagonalization with overlap

---- Real-time Memory Report at c_bands before calling an iterative solver
             0 MiB given to the printing process from OS
             0 MiB allocation reported by mallinfo(arena+hblkhd)
         30780 MiB available memory on the node where the printing process lives
------------------
     ethr =  1.09E-10,  avg # of iterations =  2.0

     negative rho (up, down):  7.923E-01 0.000E+00

     total cpu time spent up to now is      714.7 secs

     total energy              =   -4482.97935410 Ry
     estimated scf accuracy    <       0.00000045 Ry

     iteration # 45     ecut=    60.00 Ry     beta= 0.15
     Davidson diagonalization with overlap

---- Real-time Memory Report at c_bands before calling an iterative solver
             0 MiB given to the printing process from OS
             0 MiB allocation reported by mallinfo(arena+hblkhd)
         30785 MiB available memory on the node where the printing process lives
------------------
     ethr =  1.04E-10,  avg # of iterations =  1.6

     negative rho (up, down):  7.923E-01 0.000E+00

     total cpu time spent up to now is      729.2 secs

     total energy              =   -4482.97935423 Ry
     estimated scf accuracy    <       0.00000042 Ry

     iteration # 46     ecut=    60.00 Ry     beta= 0.15
     Davidson diagonalization with overlap

---- Real-time Memory Report at c_bands before calling an iterative solver
             0 MiB given to the printing process from OS
             0 MiB allocation reported by mallinfo(arena+hblkhd)
         30796 MiB available memory on the node where the printing process lives
------------------
     ethr =  9.72E-11,  avg # of iterations =  3.3

     negative rho (up, down):  7.923E-01 0.000E+00

     total cpu time spent up to now is      744.7 secs

     total energy              =   -4482.97935439 Ry
     estimated scf accuracy    <       0.00000037 Ry

     iteration # 47     ecut=    60.00 Ry     beta= 0.15
     Davidson diagonalization with overlap

---- Real-time Memory Report at c_bands before calling an iterative solver
             0 MiB given to the printing process from OS
             0 MiB allocation reported by mallinfo(arena+hblkhd)
         30805 MiB available memory on the node where the printing process lives
------------------
     ethr =  8.43E-11,  avg # of iterations =  4.3

     negative rho (up, down):  7.923E-01 0.000E+00

     total cpu time spent up to now is      761.0 secs

     total energy              =   -4482.97935450 Ry
     estimated scf accuracy    <       0.00000022 Ry

     iteration # 48     ecut=    60.00 Ry     beta= 0.15
     Davidson diagonalization with overlap

---- Real-time Memory Report at c_bands before calling an iterative solver
             0 MiB given to the printing process from OS
             0 MiB allocation reported by mallinfo(arena+hblkhd)
         30804 MiB available memory on the node where the printing process lives
------------------
     ethr =  5.02E-11,  avg # of iterations =  5.1

     negative rho (up, down):  7.923E-01 0.000E+00

     total cpu time spent up to now is      777.3 secs

     total energy              =   -4482.97935450 Ry
     estimated scf accuracy    <       0.00000009 Ry

     iteration # 49     ecut=    60.00 Ry     beta= 0.15
     Davidson diagonalization with overlap

---- Real-time Memory Report at c_bands before calling an iterative solver
             0 MiB given to the printing process from OS
             0 MiB allocation reported by mallinfo(arena+hblkhd)
         30804 MiB available memory on the node where the printing process lives
------------------
     ethr =  2.14E-11,  avg # of iterations =  5.4

     negative rho (up, down):  7.923E-01 0.000E+00

     total cpu time spent up to now is      794.2 secs

     total energy              =   -4482.97935451 Ry
     estimated scf accuracy    <       0.00000003 Ry

     iteration # 50     ecut=    60.00 Ry     beta= 0.15
     Davidson diagonalization with overlap

---- Real-time Memory Report at c_bands before calling an iterative solver
             0 MiB given to the printing process from OS
             0 MiB allocation reported by mallinfo(arena+hblkhd)
         30801 MiB available memory on the node where the printing process lives
------------------
     ethr =  7.64E-12,  avg # of iterations =  2.6

     negative rho (up, down):  7.923E-01 0.000E+00

     total cpu time spent up to now is      808.9 secs

     total energy              =   -4482.97935452 Ry
     estimated scf accuracy    <       0.00000002 Ry

     iteration # 51     ecut=    60.00 Ry     beta= 0.15
     Davidson diagonalization with overlap

---- Real-time Memory Report at c_bands before calling an iterative solver
             0 MiB given to the printing process from OS
             0 MiB allocation reported by mallinfo(arena+hblkhd)
         30856 MiB available memory on the node where the printing process lives
------------------
     ethr =  3.85E-12,  avg # of iterations =  4.7

     negative rho (up, down):  7.923E-01 0.000E+00

     total cpu time spent up to now is      824.6 secs

     End of self-consistent calculation

          k = 0.0000 0.0000 0.0000 ( 65197 PWs)   bands (ev):

   -92.3511 -92.2977 -92.2052 -92.1565 -92.0979 -92.0575 -92.0401 -91.9177
   -55.7043 -55.6841 -55.5630 -55.5522 -55.5450 -55.5390 -55.5020 -55.4747
   -55.4582 -55.4565 -55.4490 -55.4059 -55.3877 -55.3497 -55.3312 -55.2978
   -55.2917 -55.2463 -55.2450 -55.2432 -55.2347 -55.1921 -55.1709 -55.0841
   -30.9383 -30.9195 -30.8137 -30.7783 -30.6916 -30.6423 -30.5210 -30.4839
   -29.5020 -29.4596 -29.4327 -29.3241 -22.2595 -14.7361 -14.6985 -14.6130
   -14.4833 -14.2968 -14.1762 -13.8757 -13.8610 -13.8280 -13.7910 -13.7808
   -13.7421 -13.7296 -13.7164 -13.7007 -13.6858 -13.6389 -13.5860 -13.4364
   -13.2616 -13.2258 -13.1928 -13.1633 -13.1469 -13.0998 -13.0625 -12.9853
   -12.9122 -12.8149 -12.8033 -12.7712 -12.7582 -12.7360 -12.7173 -12.6882
   -12.6631 -12.6526 -12.6198 -12.5985 -12.5952 -12.5796 -12.5524 -12.5425
   -12.4681 -12.4635 -12.4456 -12.3939 -12.3575 -12.3425 -12.0034 -11.8586
   -11.7253 -11.6523 -11.5161 -11.4416 -11.4301 -11.4084 -11.3906 -11.3265
   -11.3089 -11.2750 -11.2453 -11.1340 -11.0536 -11.0502  -5.9746  -3.1616
    -3.1582  -2.5961  -2.3629  -2.1335  -1.9869  -1.9232  -1.7805  -1.4738
    -1.4594  -1.4388  -1.3556  -1.3377  -1.2695  -1.2542  -1.2120  -1.1673
    -0.9866  -0.7632  -0.7332  -0.5843  -0.5703  -0.5268  -0.5064  -0.4633
    -0.4486  -0.3880  -0.3610  -0.2922  -0.2810  -0.2004  -0.0744  -0.0598
    -0.0299   0.0524   0.0642   0.0757   0.1370   0.2158   0.2446   0.3089
     0.3315   0.3867   0.4675   0.5249   0.5460   0.5528   0.8086   0.8261
     0.9950   1.0652   1.1269   1.1678   1.2650   1.2766   1.2932   1.3639
     1.3919   1.4269   1.4849   1.6199   1.6711   1.6937   1.7130   1.7241
     1.7916   1.8693   1.9636   1.9811   2.0333   2.0552   2.0938   2.1166
     2.1226   2.1777   2.2342   2.2394   2.2678   2.2975   2.3689   2.4976
     2.5776   2.6265   2.6400   2.7894   2.8017   2.8515   2.8612   2.9592
     3.0018   3.0216   3.0313   3.0425   3.0479   3.0638   3.1421   3.2511
     3.2862   3.2985   3.3052   3.3725   3.3759   3.4007   3.4090   3.4165
     3.4257   3.4357   3.4479   3.4544   3.4680   3.4758   3.4831   3.5040
     3.5253   3.5305   3.5423   3.5599   3.6831   3.7351   4.4112   4.7471
     4.7848   5.1302   5.3778   5.4522   5.7464   6.2724   6.3123   6.3398
     6.6180   6.6312   6.6619   6.7103   7.0035   7.1332   7.2001   7.3451
     7.6388   7.7046   7.8809   7.8902   7.9157   7.9400   7.9909   8.0519
     8.3126   8.3726   8.3984   8.4406   8.5057   8.5716   8.6633

     occupation numbers 
     1.0000   1.0000   1.0000   1.0000   1.0000   1.0000   1.0000   1.0000
     1.0000   1.0000   1.0000   1.0000   1.0000   1.0000   1.0000   1.0000
     1.0000   1.0000   1.0000   1.0000   1.0000   1.0000   1.0000   1.0000
     1.0000   1.0000   1.0000   1.0000   1.0000   1.0000   1.0000   1.0000
     1.0000   1.0000   1.0000   1.0000   1.0000   1.0000   1.0000   1.0000
     1.0000   1.0000   1.0000   1.0000   1.0000   1.0000   1.0000   1.0000
     1.0000   1.0000   1.0000   1.0000   1.0000   1.0000   1.0000   1.0000
     1.0000   1.0000   1.0000   1.0000   1.0000   1.0000   1.0000   1.0000
     1.0000   1.0000   1.0000   1.0000   1.0000   1.0000   1.0000   1.0000
     1.0000   1.0000   1.0000   1.0000   1.0000   1.0000   1.0000   1.0000
     1.0000   1.0000   1.0000   1.0000   1.0000   1.0000   1.0000   1.0000
     1.0000   1.0000   1.0000   1.0000   1.0000   1.0000   1.0000   1.0000
     1.0000   1.0000   1.0000   1.0000   1.0000   1.0000   1.0000   1.0000
     1.0000   1.0000   1.0000   1.0000   1.0000   1.0000   1.0000   1.0000
     1.0000   1.0000   1.0000   1.0000   1.0000   1.0000   1.0000   1.0000
     1.0000   1.0000   1.0000   1.0000   1.0000   1.0000   1.0000   1.0000
     1.0000   1.0000   1.0000   1.0000   1.0000   1.0000   1.0000   1.0000
     1.0000   1.0000   1.0000   1.0000   1.0000   1.0000   1.0000   1.0000
     1.0000   1.0000   1.0000   1.0000   1.0000   1.0000   1.0000   1.0000
     1.0000   1.0000   1.0000   1.0000   1.0000   1.0000   1.0000   1.0000
     1.0000   0.9999   0.9999   0.9999   0.9998   0.9998   0.9998   0.9997
     0.9997   0.9996   0.9994   0.9989   0.9985   0.9984   0.9982   0.9981
     0.9974   0.9963   0.9945   0.9941   0.9926   0.9919   0.9906   0.9897
     0.9894   0.9869   0.9838   0.9835   0.9817   0.9796   0.9738   0.9598
     0.9484   0.9403   0.9379   0.9058   0.9027   0.8894   0.8866   0.8562
     0.8413   0.8341   0.8305   0.8263   0.8242   0.8180   0.7857   0.7356
     0.7183   0.7120   0.7087   0.6735   0.6716   0.6582   0.6537   0.6496
     0.6445   0.6390   0.6322   0.6285   0.6209   0.6164   0.6123   0.6003
     0.5881   0.5851   0.5782   0.5680   0.4954   0.4646   0.1372   0.0557
     0.0497   0.0154   0.0057   0.0042   0.0011   0.0001   0.0000   0.0000
     0.0000   0.0000   0.0000   0.0000   0.0000   0.0000   0.0000   0.0000
     0.0000   0.0000   0.0000   0.0000   0.0000   0.0000   0.0000   0.0000
     0.0000   0.0000   0.0000   0.0000   0.0000   0.0000   0.0000

          k = 0.0000 0.2500 0.0000 ( 65257 PWs)   bands (ev):

   -92.3511 -92.2977 -92.2052 -92.1565 -92.0979 -92.0575 -92.0401 -91.9177
   -55.7043 -55.6841 -55.5630 -55.5522 -55.5450 -55.5390 -55.5020 -55.4747
   -55.4582 -55.4565 -55.4490 -55.4059 -55.3877 -55.3497 -55.3312 -55.2978
   -55.2917 -55.2463 -55.2450 -55.2432 -55.2347 -55.1921 -55.1709 -55.0841
   -30.9382 -30.9194 -30.8136 -30.7785 -30.6917 -30.6421 -30.5211 -30.4841
   -29.5014 -29.4593 -29.4333 -29.3245 -22.2595 -14.6992 -14.6723 -14.5881
   -14.4540 -14.3369 -14.1650 -14.0213 -13.8419 -13.8129 -13.7937 -13.7863
   -13.7573 -13.7048 -13.6935 -13.6817 -13.6676 -13.6198 -13.5058 -13.4679
   -13.3059 -13.2867 -13.2360 -13.1994 -13.1552 -13.1147 -13.0748 -13.0038
   -12.9710 -12.9258 -12.8660 -12.8095 -12.7904 -12.7685 -12.7485 -12.6495
   -12.6257 -12.6087 -12.5951 -12.5818 -12.5614 -12.5526 -12.5258 -12.4596
   -12.4472 -12.4098 -12.3747 -12.3531 -12.2981 -12.2168 -12.0647 -11.9099
   -11.7808 -11.7178 -11.4816 -11.4385 -11.4106 -11.3823 -11.3658 -11.3186
   -11.3070 -11.2844 -11.2509 -11.1480 -11.0953 -11.0847  -5.9746  -3.1616
    -3.1584  -2.4608  -2.2385  -2.1014  -1.9190  -1.8755  -1.7112  -1.4930
    -1.4067  -1.3936  -1.3361  -1.2346  -1.2197  -1.1855  -1.1596  -1.1160
    -0.9177  -0.7891  -0.7775  -0.7011  -0.6908  -0.5862  -0.5553  -0.4989
    -0.4741  -0.4315  -0.3697  -0.3447  -0.3101  -0.2818  -0.2642  -0.2305
    -0.1585  -0.1051  -0.0405   0.0667   0.0896   0.1290   0.2473   0.2809
     0.3397   0.3951   0.4501   0.4690   0.5023   0.5577   0.8565   0.9454
     0.9767   1.0612   1.1055   1.1237   1.2514   1.2704   1.3655   1.3891
     1.4208   1.5353   1.6223   1.6486   1.6726   1.6893   1.7182   1.7795
     1.8051   1.8329   1.8810   1.9112   1.9424   2.0214   2.0537   2.0862
     2.1446   2.1939   2.2277   2.2540   2.2876   2.3107   2.4018   2.5350
     2.6050   2.6241   2.7044   2.7468   2.7856   2.7903   2.8584   2.9011
     2.9777   3.0157   3.0225   3.0378   3.0503   3.2120   3.2334   3.2658
     3.2880   3.3047   3.3143   3.3212   3.3291   3.3597   3.3616   3.3794
     3.3827   3.3954   3.4129   3.4219   3.4329   3.4552   3.4654   3.4704
     3.5062   3.5227   3.5827   3.9347   3.9646   4.2236   4.5966   4.7381
     4.9031   5.0777   5.3992   5.4829   5.8758   5.9196   6.1552   6.2962
     6.3341   6.4445   6.5148   6.7352   6.9410   7.0656   7.2467   7.5367
     7.5894   7.6971   7.7807   7.8719   7.9285   7.9747   8.0895   8.2353
     8.3426   8.4122   8.5344   8.5828   8.6525   8.6968   8.9215

     occupation numbers 
     1.0000   1.0000   1.0000   1.0000   1.0000   1.0000   1.0000   1.0000
     1.0000   1.0000   1.0000   1.0000   1.0000   1.0000   1.0000   1.0000
     1.0000   1.0000   1.0000   1.0000   1.0000   1.0000   1.0000   1.0000
     1.0000   1.0000   1.0000   1.0000   1.0000   1.0000   1.0000   1.0000
     1.0000   1.0000   1.0000   1.0000   1.0000   1.0000   1.0000   1.0000
     1.0000   1.0000   1.0000   1.0000   1.0000   1.0000   1.0000   1.0000
     1.0000   1.0000   1.0000   1.0000   1.0000   1.0000   1.0000   1.0000
     1.0000   1.0000   1.0000   1.0000   1.0000   1.0000   1.0000   1.0000
     1.0000   1.0000   1.0000   1.0000   1.0000   1.0000   1.0000   1.0000
     1.0000   1.0000   1.0000   1.0000   1.0000   1.0000   1.0000   1.0000
     1.0000   1.0000   1.0000   1.0000   1.0000   1.0000   1.0000   1.0000
     1.0000   1.0000   1.0000   1.0000   1.0000   1.0000   1.0000   1.0000
     1.0000   1.0000   1.0000   1.0000   1.0000   1.0000   1.0000   1.0000
     1.0000   1.0000   1.0000   1.0000   1.0000   1.0000   1.0000   1.0000
     1.0000   1.0000   1.0000   1.0000   1.0000   1.0000   1.0000   1.0000
     1.0000   1.0000   1.0000   1.0000   1.0000   1.0000   1.0000   1.0000
     1.0000   1.0000   1.0000   1.0000   1.0000   1.0000   1.0000   1.0000
     1.0000   1.0000   1.0000   1.0000   1.0000   1.0000   1.0000   1.0000
     1.0000   1.0000   1.0000   1.0000   1.0000   1.0000   1.0000   1.0000
     1.0000   1.0000   1.0000   1.0000   1.0000   1.0000   1.0000   1.0000
     1.0000   0.9999   0.9999   0.9999   0.9998   0.9998   0.9997   0.9997
     0.9996   0.9993   0.9988   0.9987   0.9985   0.9984   0.9982   0.9976
     0.9973   0.9969   0.9961   0.9956   0.9950   0.9930   0.9920   0.9909
     0.9885   0.9861   0.9842   0.9826   0.9803   0.9786   0.9707   0.9548
     0.9440   0.9407   0.9253   0.9160   0.9068   0.9056   0.8874   0.8748
     0.8499   0.8363   0.8338   0.8281   0.8233   0.7542   0.7441   0.7284
     0.7173   0.7089   0.7040   0.7004   0.6963   0.6803   0.6793   0.6698
     0.6680   0.6611   0.6516   0.6466   0.6405   0.6280   0.6223   0.6195
     0.5991   0.5896   0.5546   0.3500   0.3337   0.2077   0.0856   0.0572
     0.0341   0.0186   0.0052   0.0036   0.0005   0.0004   0.0001   0.0000
     0.0000   0.0000   0.0000   0.0000   0.0000   0.0000   0.0000   0.0000
     0.0000   0.0000   0.0000   0.0000   0.0000   0.0000   0.0000   0.0000
     0.0000   0.0000   0.0000   0.0000   0.0000   0.0000   0.0000

          k = 0.0000-0.5000 0.0000 ( 65180 PWs)   bands (ev):

   -92.3511 -92.2977 -92.2052 -92.1565 -92.0979 -92.0575 -92.0401 -91.9177
   -55.7043 -55.6841 -55.5630 -55.5522 -55.5450 -55.5390 -55.5020 -55.4747
   -55.4582 -55.4565 -55.4490 -55.4059 -55.3877 -55.3497 -55.3312 -55.2978
   -55.2917 -55.2463 -55.2450 -55.2432 -55.2347 -55.1921 -55.1709 -55.0841
   -30.9380 -30.9192 -30.8135 -30.7787 -30.6919 -30.6419 -30.5213 -30.4843
   -29.5008 -29.4590 -29.4340 -29.3248 -22.2595 -14.6663 -14.6182 -14.5647
   -14.4417 -14.3505 -14.2177 -14.0626 -13.9499 -13.8125 -13.7901 -13.7447
   -13.7024 -13.6933 -13.6478 -13.6290 -13.5774 -13.5613 -13.5360 -13.5041
   -13.4812 -13.4259 -13.2391 -13.1812 -13.1626 -13.1130 -13.0749 -13.0168
   -12.9931 -12.9525 -12.9452 -12.8801 -12.7923 -12.7689 -12.7476 -12.6458
   -12.6303 -12.6186 -12.5907 -12.5825 -12.5522 -12.5397 -12.4357 -12.4142
   -12.3664 -12.3640 -12.3522 -12.3124 -12.1758 -12.1553 -12.0084 -11.9852
   -11.8806 -11.8335 -11.4355 -11.4331 -11.4057 -11.3676 -11.3335 -11.3225
   -11.2809 -11.2767 -11.2330 -11.1692 -11.1558 -11.1416  -5.9746  -3.1616
    -3.1586  -2.2459  -2.1870  -2.0354  -1.9630  -1.6821  -1.5996  -1.4704
    -1.3333  -1.2946  -1.2770  -1.1982  -1.1681  -1.0845  -1.0503  -0.9732
    -0.9329  -0.8939  -0.8672  -0.8108  -0.7721  -0.7276  -0.6907  -0.6559
    -0.6242  -0.5118  -0.4675  -0.4345  -0.4312  -0.3466  -0.3148  -0.2928
    -0.2457  -0.1588  -0.0914  -0.0053   0.0249   0.1233   0.1625   0.3156
     0.3472   0.3783   0.4226   0.5372   0.5983   0.7378   0.8045   0.8119
     0.9396   0.9807   1.0734   1.2174   1.3227   1.3549   1.3939   1.3987
     1.4332   1.4552   1.4914   1.5057   1.5219   1.6269   1.6868   1.7177
     1.7405   2.0060   2.0333   2.0515   2.1396   2.1658   2.2036   2.2158
     2.2523   2.2631   2.2666   2.2992   2.3457   2.3707   2.3948   2.4124
     2.4397   2.4936   2.5761   2.6035   2.7787   2.9489   2.9570   2.9712
     3.0079   3.0174   3.0217   3.0258   3.0494   3.0797   3.0921   3.1466
     3.1663   3.2410   3.2577   3.3258   3.3305   3.3582   3.3584   3.3774
     3.3797   3.3847   3.3896   3.3926   3.4054   3.4252   3.4264   3.4919
     3.4960   3.5121   3.5671   4.4636   4.4659   4.5146   4.5797   4.9913
     5.0962   5.2262   5.3127   5.5287   5.6519   5.8177   5.8973   6.0332
     6.2187   6.3681   6.3859   6.5074   7.0169   7.0822   7.1048   7.4327
     7.5478   7.6675   7.7416   8.0053   8.0574   8.1821   8.2121   8.3459
     8.4894   8.6466   8.6903   8.7115   8.8284   8.8518   8.9488

     occupation numbers 
     1.0000   1.0000   1.0000   1.0000   1.0000   1.0000   1.0000   1.0000
     1.0000   1.0000   1.0000   1.0000   1.0000   1.0000   1.0000   1.0000
     1.0000   1.0000   1.0000   1.0000   1.0000   1.0000   1.0000   1.0000
     1.0000   1.0000   1.0000   1.0000   1.0000   1.0000   1.0000   1.0000
     1.0000   1.0000   1.0000   1.0000   1.0000   1.0000   1.0000   1.0000
     1.0000   1.0000   1.0000   1.0000   1.0000   1.0000   1.0000   1.0000
     1.0000   1.0000   1.0000   1.0000   1.0000   1.0000   1.0000   1.0000
     1.0000   1.0000   1.0000   1.0000   1.0000   1.0000   1.0000   1.0000
     1.0000   1.0000   1.0000   1.0000   1.0000   1.0000   1.0000   1.0000
     1.0000   1.0000   1.0000   1.0000   1.0000   1.0000   1.0000   1.0000
     1.0000   1.0000   1.0000   1.0000   1.0000   1.0000   1.0000   1.0000
     1.0000   1.0000   1.0000   1.0000   1.0000   1.0000   1.0000   1.0000
     1.0000   1.0000   1.0000   1.0000   1.0000   1.0000   1.0000   1.0000
     1.0000   1.0000   1.0000   1.0000   1.0000   1.0000   1.0000   1.0000
     1.0000   1.0000   1.0000   1.0000   1.0000   1.0000   1.0000   1.0000
     1.0000   1.0000   1.0000   1.0000   1.0000   1.0000   1.0000   1.0000
     1.0000   1.0000   1.0000   1.0000   1.0000   1.0000   1.0000   1.0000
     1.0000   1.0000   1.0000   1.0000   1.0000   1.0000   1.0000   1.0000
     1.0000   1.0000   1.0000   1.0000   1.0000   1.0000   1.0000   1.0000
     1.0000   1.0000   1.0000   1.0000   1.0000   1.0000   1.0000   1.0000
     1.0000   1.0000   0.9999   0.9999   0.9998   0.9997   0.9996   0.9996
     0.9996   0.9995   0.9994   0.9994   0.9993   0.9988   0.9984   0.9982
     0.9980   0.9934   0.9926   0.9920   0.9887   0.9875   0.9856   0.9849
     0.9827   0.9820   0.9818   0.9795   0.9758   0.9736   0.9714   0.9696
     0.9667   0.9603   0.9487   0.9442   0.9084   0.8596   0.8569   0.8521
     0.8391   0.8357   0.8341   0.8326   0.8236   0.8117   0.8067   0.7838
     0.7751   0.7404   0.7324   0.6981   0.6956   0.6811   0.6810   0.6709
     0.6696   0.6669   0.6642   0.6626   0.6557   0.6448   0.6441   0.6073
     0.6049   0.5957   0.5638   0.1209   0.1202   0.1063   0.0896   0.0253
     0.0174   0.0106   0.0075   0.0030   0.0017   0.0007   0.0005   0.0002
     0.0001   0.0000   0.0000   0.0000   0.0000   0.0000   0.0000   0.0000
     0.0000   0.0000   0.0000   0.0000   0.0000   0.0000   0.0000   0.0000
     0.0000   0.0000   0.0000   0.0000   0.0000   0.0000   0.0000

          k = 0.2500 0.2500 0.0000 ( 65198 PWs)   bands (ev):

   -92.3511 -92.2977 -92.2052 -92.1565 -92.0979 -92.0575 -92.0401 -91.9177
   -55.7043 -55.6841 -55.5630 -55.5522 -55.5450 -55.5390 -55.5020 -55.4747
   -55.4582 -55.4565 -55.4490 -55.4059 -55.3877 -55.3497 -55.3312 -55.2978
   -55.2917 -55.2463 -55.2450 -55.2432 -55.2347 -55.1921 -55.1709 -55.0841
   -30.9364 -30.9211 -30.8134 -30.7782 -30.6921 -30.6423 -30.5203 -30.4850
   -29.5004 -29.4603 -29.4329 -29.3249 -22.2595 -14.6711 -14.6371 -14.5601
   -14.4438 -14.3278 -14.2050 -14.1263 -13.9252 -13.7893 -13.7653 -13.7551
   -13.7177 -13.6906 -13.6650 -13.6423 -13.6142 -13.5800 -13.4974 -13.4816
   -13.3215 -13.3071 -13.2762 -13.2585 -13.2133 -13.1684 -13.1155 -13.0860
   -12.9926 -12.9544 -12.8910 -12.8056 -12.7683 -12.7477 -12.7055 -12.6815
   -12.6355 -12.6089 -12.6065 -12.5767 -12.5600 -12.5215 -12.4665 -12.4270
   -12.4072 -12.4027 -12.3784 -12.3726 -12.1961 -12.1133 -12.1032 -11.9391
   -11.8175 -11.7624 -11.4538 -11.4222 -11.4112 -11.4036 -11.3420 -11.3065
   -11.3002 -11.2647 -11.2564 -11.1647 -11.1236 -11.1060  -5.9746  -3.1618
    -3.1584  -2.3227  -2.1129  -1.9957  -1.9013  -1.7798  -1.7146  -1.5180
    -1.3719  -1.3519  -1.3231  -1.2294  -1.1954  -1.1022  -1.0755  -1.0249
    -0.8932  -0.8457  -0.7725  -0.7278  -0.6835  -0.6591  -0.6343  -0.5919
    -0.5767  -0.4868  -0.4371  -0.3725  -0.3251  -0.2958  -0.2422  -0.2322
    -0.1689  -0.1174  -0.0605  -0.0280   0.0574   0.1092   0.1380   0.1791
     0.2330   0.2981   0.3414   0.3658   0.4336   0.4731   0.7510   0.8981
     0.9352   0.9851   1.0300   1.0802   1.1334   1.2025   1.2372   1.5120
     1.5828   1.6570   1.6832   1.7278   1.7616   1.7976   1.8343   1.8519
     1.8806   1.9195   1.9309   1.9479   1.9890   2.0275   2.0696   2.1139
     2.1537   2.1676   2.1939   2.2328   2.2838   2.3113   2.4426   2.5135
     2.5530   2.5813   2.6398   2.7066   2.7386   2.7767   2.7984   2.8101
     2.9230   2.9613   3.0205   3.0412   3.0543   3.2231   3.2407   3.2469
     3.2623   3.2767   3.2903   3.3022   3.3096   3.3202   3.3336   3.3452
     3.3648   3.3713   3.3821   3.4028   3.4165   3.4266   3.4571   3.7588
     3.8495   3.8885   3.9537   3.9644   4.1958   4.3004   4.6301   4.7929
     4.9726   5.1289   5.3163   5.5320   5.9039   5.9978   6.0151   6.1235
     6.1879   6.2316   6.3394   6.4203   6.9392   7.0030   7.1142   7.2535
     7.7088   7.7962   7.8500   7.9244   8.0131   8.1286   8.2582   8.3192
     8.4131   8.4612   8.5495   8.6948   8.7200   8.7681   8.8697

     occupation numbers 
     1.0000   1.0000   1.0000   1.0000   1.0000   1.0000   1.0000   1.0000
     1.0000   1.0000   1.0000   1.0000   1.0000   1.0000   1.0000   1.0000
     1.0000   1.0000   1.0000   1.0000   1.0000   1.0000   1.0000   1.0000
     1.0000   1.0000   1.0000   1.0000   1.0000   1.0000   1.0000   1.0000
     1.0000   1.0000   1.0000   1.0000   1.0000   1.0000   1.0000   1.0000
     1.0000   1.0000   1.0000   1.0000   1.0000   1.0000   1.0000   1.0000
     1.0000   1.0000   1.0000   1.0000   1.0000   1.0000   1.0000   1.0000
     1.0000   1.0000   1.0000   1.0000   1.0000   1.0000   1.0000   1.0000
     1.0000   1.0000   1.0000   1.0000   1.0000   1.0000   1.0000   1.0000
     1.0000   1.0000   1.0000   1.0000   1.0000   1.0000   1.0000   1.0000
     1.0000   1.0000   1.0000   1.0000   1.0000   1.0000   1.0000   1.0000
     1.0000   1.0000   1.0000   1.0000   1.0000   1.0000   1.0000   1.0000
     1.0000   1.0000   1.0000   1.0000   1.0000   1.0000   1.0000   1.0000
     1.0000   1.0000   1.0000   1.0000   1.0000   1.0000   1.0000   1.0000
     1.0000   1.0000   1.0000   1.0000   1.0000   1.0000   1.0000   1.0000
     1.0000   1.0000   1.0000   1.0000   1.0000   1.0000   1.0000   1.0000
     1.0000   1.0000   1.0000   1.0000   1.0000   1.0000   1.0000   1.0000
     1.0000   1.0000   1.0000   1.0000   1.0000   1.0000   1.0000   1.0000
     1.0000   1.0000   1.0000   1.0000   1.0000   1.0000   1.0000   1.0000
     1.0000   1.0000   1.0000   1.0000   1.0000   1.0000   1.0000   1.0000
     1.0000   1.0000   1.0000   0.9999   0.9999   0.9999   0.9999   0.9993
     0.9991   0.9986   0.9985   0.9981   0.9978   0.9973   0.9969   0.9966
     0.9961   0.9954   0.9952   0.9948   0.9939   0.9928   0.9914   0.9898
     0.9881   0.9874   0.9861   0.9839   0.9806   0.9786   0.9664   0.9577
     0.9522   0.9479   0.9379   0.9248   0.9178   0.9089   0.9035   0.9005
     0.8680   0.8555   0.8345   0.8268   0.8217   0.7490   0.7406   0.7376
     0.7301   0.7230   0.7162   0.7102   0.7064   0.7010   0.6940   0.6879
     0.6776   0.6741   0.6683   0.6571   0.6496   0.6440   0.6270   0.4506
     0.3979   0.3758   0.3396   0.3338   0.2198   0.1766   0.0781   0.0485
     0.0270   0.0154   0.0074   0.0029   0.0005   0.0003   0.0003   0.0001
     0.0001   0.0001   0.0000   0.0000   0.0000   0.0000   0.0000   0.0000
     0.0000   0.0000   0.0000   0.0000   0.0000   0.0000   0.0000   0.0000
     0.0000   0.0000   0.0000   0.0000   0.0000   0.0000   0.0000

          k = 0.2500-0.5000 0.0000 ( 65138 PWs)   bands (ev):

   -92.3511 -92.2977 -92.2052 -92.1565 -92.0979 -92.0575 -92.0401 -91.9177
   -55.7043 -55.6841 -55.5630 -55.5522 -55.5450 -55.5390 -55.5020 -55.4747
   -55.4582 -55.4565 -55.4490 -55.4059 -55.3877 -55.3497 -55.3312 -55.2978
   -55.2917 -55.2463 -55.2450 -55.2432 -55.2347 -55.1921 -55.1709 -55.0841
   -30.9362 -30.9210 -30.8134 -30.7784 -30.6923 -30.6421 -30.5204 -30.4852
   -29.4998 -29.4600 -29.4336 -29.3252 -22.2595 -14.6360 -14.5913 -14.5219
   -14.4115 -14.3739 -14.2571 -14.1657 -14.0436 -13.7889 -13.7287 -13.6798
   -13.6525 -13.6300 -13.6159 -13.5998 -13.5618 -13.5489 -13.5187 -13.4788
   -13.4641 -13.4168 -13.3227 -13.2751 -13.2289 -13.1956 -13.1366 -13.1236
   -13.0416 -13.0100 -12.8677 -12.8037 -12.7884 -12.7362 -12.6922 -12.6516
   -12.6353 -12.6052 -12.5958 -12.5841 -12.5708 -12.5332 -12.4487 -12.4333
   -12.3985 -12.3765 -12.3163 -12.2846 -12.1825 -12.1160 -11.9829 -11.9651
   -11.8751 -11.8435 -11.4293 -11.4174 -11.4063 -11.3787 -11.3479 -11.3189
   -11.2786 -11.2506 -11.2288 -11.1825 -11.1567 -11.1458  -5.9746  -3.1617
    -3.1586  -2.1043  -2.0392  -1.9094  -1.8320  -1.7028  -1.6197  -1.4950
    -1.3446  -1.2900  -1.2691  -1.2068  -1.1931  -1.0951  -1.0296  -0.9440
    -0.8953  -0.8865  -0.8218  -0.7808  -0.7455  -0.6978  -0.6613  -0.6262
    -0.5858  -0.5732  -0.5297  -0.5017  -0.4592  -0.4292  -0.3615  -0.2596
    -0.2232  -0.1444  -0.0797  -0.0302   0.0123   0.0322   0.0854   0.2450
     0.2513   0.3597   0.3932   0.4045   0.4500   0.4786   0.5153   0.5472
     0.6203   0.8868   0.9731   1.0395   1.0994   1.3725   1.3923   1.4831
     1.5118   1.6804   1.7123   1.7545   1.7800   1.7952   1.8159   1.8768
     1.9238   1.9588   2.0323   2.1195   2.1573   2.1788   2.1933   2.2258
     2.2428   2.2478   2.2893   2.3053   2.3232   2.3532   2.3742   2.4041
     2.4321   2.4921   2.5317   2.6079   2.7474   2.9014   2.9176   2.9349
     2.9612   2.9872   3.0099   3.0230   3.0380   3.0418   3.0556   3.0763
     3.1725   3.2207   3.2422   3.2454   3.2594   3.2802   3.2944   3.3130
     3.3198   3.3531   3.3639   3.3795   3.3866   3.3958   3.4067   3.9171
     3.9339   4.0899   4.1402   4.4657   4.5189   4.5240   4.6465   5.0473
     5.1289   5.2655   5.3497   5.4955   5.6206   5.7184   5.8635   5.9270
     6.0633   6.1298   6.3121   6.5425   6.5704   6.6727   7.1561   7.2396
     7.5929   7.7160   7.9567   8.0614   8.1662   8.2004   8.3207   8.4579
     8.5430   8.5801   8.6834   8.8032   8.8761   8.9351   8.9835

     occupation numbers 
     1.0000   1.0000   1.0000   1.0000   1.0000   1.0000   1.0000   1.0000
     1.0000   1.0000   1.0000   1.0000   1.0000   1.0000   1.0000   1.0000
     1.0000   1.0000   1.0000   1.0000   1.0000   1.0000   1.0000   1.0000
     1.0000   1.0000   1.0000   1.0000   1.0000   1.0000   1.0000   1.0000
     1.0000   1.0000   1.0000   1.0000   1.0000   1.0000   1.0000   1.0000
     1.0000   1.0000   1.0000   1.0000   1.0000   1.0000   1.0000   1.0000
     1.0000   1.0000   1.0000   1.0000   1.0000   1.0000   1.0000   1.0000
     1.0000   1.0000   1.0000   1.0000   1.0000   1.0000   1.0000   1.0000
     1.0000   1.0000   1.0000   1.0000   1.0000   1.0000   1.0000   1.0000
     1.0000   1.0000   1.0000   1.0000   1.0000   1.0000   1.0000   1.0000
     1.0000   1.0000   1.0000   1.0000   1.0000   1.0000   1.0000   1.0000
     1.0000   1.0000   1.0000   1.0000   1.0000   1.0000   1.0000   1.0000
     1.0000   1.0000   1.0000   1.0000   1.0000   1.0000   1.0000   1.0000
     1.0000   1.0000   1.0000   1.0000   1.0000   1.0000   1.0000   1.0000
     1.0000   1.0000   1.0000   1.0000   1.0000   1.0000   1.0000   1.0000
     1.0000   1.0000   1.0000   1.0000   1.0000   1.0000   1.0000   1.0000
     1.0000   1.0000   1.0000   1.0000   1.0000   1.0000   1.0000   1.0000
     1.0000   1.0000   1.0000   1.0000   1.0000   1.0000   1.0000   1.0000
     1.0000   1.0000   1.0000   1.0000   1.0000   1.0000   1.0000   1.0000
     1.0000   1.0000   1.0000   1.0000   1.0000   1.0000   1.0000   1.0000
     1.0000   1.0000   1.0000   1.0000   0.9999   0.9997   0.9997   0.9994
     0.9993   0.9985   0.9982   0.9978   0.9976   0.9974   0.9971   0.9962
     0.9953   0.9946   0.9926   0.9896   0.9879   0.9869   0.9861   0.9843
     0.9833   0.9830   0.9802   0.9790   0.9777   0.9752   0.9733   0.9704
     0.9676   0.9605   0.9552   0.9435   0.9158   0.8747   0.8697   0.8642
     0.8555   0.8465   0.8384   0.8336   0.8280   0.8265   0.8212   0.8131
     0.7723   0.7501   0.7399   0.7383   0.7315   0.7213   0.7141   0.7047
     0.7012   0.6838   0.6781   0.6697   0.6659   0.6609   0.6550   0.3597
     0.3504   0.2690   0.2450   0.1202   0.1052   0.1038   0.0746   0.0208
     0.0154   0.0091   0.0065   0.0034   0.0019   0.0012   0.0006   0.0004
     0.0002   0.0001   0.0000   0.0000   0.0000   0.0000   0.0000   0.0000
     0.0000   0.0000   0.0000   0.0000   0.0000   0.0000   0.0000   0.0000
     0.0000   0.0000   0.0000   0.0000   0.0000   0.0000   0.0000

          k =-0.5000-0.5000 0.0000 ( 65132 PWs)   bands (ev):

   -92.3511 -92.2977 -92.2052 -92.1565 -92.0979 -92.0575 -92.0401 -91.9177
   -55.7043 -55.6841 -55.5630 -55.5522 -55.5450 -55.5390 -55.5020 -55.4747
   -55.4582 -55.4565 -55.4490 -55.4059 -55.3877 -55.3497 -55.3312 -55.2978
   -55.2917 -55.2463 -55.2450 -55.2432 -55.2347 -55.1921 -55.1709 -55.0841
   -30.9339 -30.9233 -30.8132 -30.7780 -30.6927 -30.6423 -30.5195 -30.4861
   -29.4987 -29.4611 -29.4332 -29.3256 -22.2595 -14.5903 -14.5636 -14.4475
   -14.4347 -14.3386 -14.3040 -14.2716 -14.1409 -13.7885 -13.6407 -13.6327
   -13.5961 -13.5771 -13.5587 -13.5439 -13.5163 -13.5075 -13.4880 -13.4862
   -13.4710 -13.3907 -13.3860 -13.3519 -13.3274 -13.3230 -13.2228 -13.2073
   -13.0862 -13.0576 -12.8200 -12.7845 -12.7100 -12.7009 -12.6853 -12.6502
   -12.6458 -12.6358 -12.6163 -12.5808 -12.5333 -12.5230 -12.4712 -12.4472
   -12.4383 -12.3969 -12.2659 -12.2584 -12.1988 -12.0834 -11.9794 -11.9121
   -11.8813 -11.8557 -11.4258 -11.4132 -11.3955 -11.3788 -11.3441 -11.3273
   -11.2910 -11.2310 -11.2107 -11.2049 -11.1545 -11.1516  -5.9746  -3.1619
    -3.1585  -1.8802  -1.8051  -1.7961  -1.7226  -1.6837  -1.6052  -1.5375
    -1.4113  -1.2946  -1.2654  -1.2248  -1.1684  -1.0967  -1.0816  -1.0115
    -0.9685  -0.8524  -0.8252  -0.7755  -0.7448  -0.6807  -0.6369  -0.6177
    -0.6070  -0.5525  -0.5059  -0.4924  -0.3788  -0.3228  -0.2755  -0.2266
    -0.2007  -0.1869  -0.1525  -0.1138  -0.0777  -0.0641   0.0210   0.0867
     0.1359   0.1571   0.2330   0.2861   0.2926   0.3543   0.3803   0.3920
     0.4014   0.8557   0.8896   0.9898   1.0009   1.4008   1.4162   1.4505
     1.4865   1.7633   1.7823   1.7886   1.8275   1.9619   2.0556   2.0828
     2.1183   2.1343   2.1561   2.1678   2.1998   2.2059   2.2174   2.2265
     2.2883   2.2934   2.3203   2.3224   2.3497   2.3602   2.4023   2.4297
     2.4415   2.4772   2.5020   2.5760   2.6424   2.9132   2.9459   2.9648
     2.9854   2.9862   3.0090   3.0245   3.0332   3.0452   3.0525   3.0595
     3.0750   3.0961   3.1089   3.1734   3.1773   3.2005   3.2113   3.2253
     3.2437   3.2478   3.2573   3.3602   3.3649   3.3907   3.4016   4.3421
     4.3665   4.3827   4.4078   4.6669   4.7370   4.7667   5.0067   5.1274
     5.1756   5.2122   5.3298   5.3865   5.4355   5.5538   5.5647   5.7572
     5.9729   6.0102   6.1174   6.2850   6.6235   6.6671   6.7934   7.2779
     7.5116   7.5919   7.6772   8.2722   8.2897   8.3702   8.4997   8.5893
     8.6671   8.7508   8.8787   8.8919   8.9079   8.9486   9.0363

     occupation numbers 
     1.0000   1.0000   1.0000   1.0000   1.0000   1.0000   1.0000   1.0000
     1.0000   1.0000   1.0000   1.0000   1.0000   1.0000   1.0000   1.0000
     1.0000   1.0000   1.0000   1.0000   1.0000   1.0000   1.0000   1.0000
     1.0000   1.0000   1.0000   1.0000   1.0000   1.0000   1.0000   1.0000
     1.0000   1.0000   1.0000   1.0000   1.0000   1.0000   1.0000   1.0000
     1.0000   1.0000   1.0000   1.0000   1.0000   1.0000   1.0000   1.0000
[...]
     0.0000   0.0000   0.0000   0.0000   0.0000   0.0000   0.0000   0.0000
     0.0000   0.0000   0.0000   0.0000   0.0000   0.0000   0.0000

          k =-0.5000 0.0000 0.0000 ( 65180 PWs)   bands (ev):

   -92.3511 -92.2977 -92.2052 -92.1565 -92.0979 -92.0575 -92.0401 -91.9177
   -55.7043 -55.6841 -55.5630 -55.5522 -55.5450 -55.5390 -55.5020 -55.4747
   -55.4582 -55.4565 -55.4490 -55.4059 -55.3877 -55.3497 -55.3312 -55.2978
   -55.2917 -55.2463 -55.2450 -55.2432 -55.2347 -55.1921 -55.1709 -55.0841
   -30.9343 -30.9236 -30.8134 -30.7776 -30.6924 -30.6427 -30.5193 -30.4857
   -29.5000 -29.4617 -29.4319 -29.3250 -22.2595 -14.6707 -14.6217 -14.5596
   -14.4496 -14.3459 -14.2008 -14.0646 -13.9141 -13.7936 -13.7871 -13.7800
   -13.7629 -13.7147 -13.6518 -13.6186 -13.5716 -13.5625 -13.5441 -13.4959
   -13.4783 -13.3875 -13.2111 -13.1876 -13.1517 -13.1428 -13.0989 -13.0224
   -13.0036 -12.9300 -12.9072 -12.9068 -12.7700 -12.7150 -12.7027 -12.6797
   -12.6744 -12.6637 -12.6057 -12.5845 -12.5300 -12.5195 -12.4537 -12.4253
   -12.4238 -12.3800 -12.3007 -12.2917 -12.2019 -12.1231 -11.9893 -11.9712
   -11.8878 -11.8549 -11.4323 -11.4114 -11.4043 -11.3903 -11.3724 -11.3312
   -11.2671 -11.2493 -11.2166 -11.1724 -11.1632 -11.1471  -5.9746  -3.1620
    -3.1582  -2.2361  -2.1972  -2.0328  -1.9936  -1.6814  -1.6059  -1.4580
    -1.3392  -1.3005  -1.2544  -1.2070  -1.1810  -1.0592  -1.0141  -1.0001
    -0.9171  -0.8813  -0.8681  -0.8342  -0.7779  -0.7090  -0.6794  -0.6506
    -0.5570  -0.5088  -0.4605  -0.4282  -0.4067  -0.3764  -0.3284  -0.3038
    -0.2669  -0.1683  -0.0997  -0.0329   0.0291   0.1816   0.2253   0.2881
     0.3187   0.3708   0.3975   0.5289   0.5639   0.6047   0.7857   0.8840
     0.9316   1.0053   1.0630   1.1998   1.2130   1.3420   1.3734   1.4275
     1.4536   1.4901   1.5040   1.5515   1.5748   1.6386   1.6869   1.7336
     1.7439   2.0330   2.0458   2.0563   2.0807   2.1962   2.2041   2.2142
     2.2280   2.2616   2.2713   2.3065   2.3376   2.3562   2.4233   2.4278
     2.4873   2.4999   2.5641   2.6676   2.7647   2.8458   2.8614   2.9432
     2.9744   2.9973   3.0226   3.0410   3.0689   3.0772   3.0865   3.1157
     3.1817   3.2266   3.2740   3.2999   3.3467   3.3514   3.3521   3.3642
     3.3783   3.3904   3.4045   3.4082   3.4291   3.4346   3.4568   3.4771
     3.4816   3.6080   3.6146   4.4040   4.4551   4.5209   4.6351   4.9959
     5.1553   5.1654   5.3247   5.4457   5.6917   5.8571   5.9271   5.9855
     6.2521   6.3673   6.3784   6.4263   6.9649   7.1035   7.1796   7.4463
     7.5194   7.6135   7.8153   8.0776   8.1304   8.1668   8.1996   8.3243
     8.4534   8.5965   8.6626   8.7330   8.7670   8.8623   8.9273

     occupation numbers 
     1.0000   1.0000   1.0000   1.0000   1.0000   1.0000   1.0000   1.0000
     1.0000   1.0000   1.0000   1.0000   1.0000   1.0000   1.0000   1.0000
     1.0000   1.0000   1.0000   1.0000   1.0000   1.0000   1.0000   1.0000
     1.0000   1.0000   1.0000   1.0000   1.0000   1.0000   1.0000   1.0000
     1.0000   1.0000   1.0000   1.0000   1.0000   1.0000   1.0000   1.0000
     1.0000   1.0000   1.0000   1.0000   1.0000   1.0000   1.0000   1.0000
     1.0000   1.0000   1.0000   1.0000   1.0000   1.0000   1.0000   1.0000
     1.0000   1.0000   1.0000   1.0000   1.0000   1.0000   1.0000   1.0000
     1.0000   1.0000   1.0000   1.0000   1.0000   1.0000   1.0000   1.0000
     1.0000   1.0000   1.0000   1.0000   1.0000   1.0000   1.0000   1.0000
     1.0000   1.0000   1.0000   1.0000   1.0000   1.0000   1.0000   1.0000
     1.0000   1.0000   1.0000   1.0000   1.0000   1.0000   1.0000   1.0000
     1.0000   1.0000   1.0000   1.0000   1.0000   1.0000   1.0000   1.0000
     1.0000   1.0000   1.0000   1.0000   1.0000   1.0000   1.0000   1.0000
     1.0000   1.0000   1.0000   1.0000   1.0000   1.0000   1.0000   1.0000
     1.0000   1.0000   1.0000   1.0000   1.0000   1.0000   1.0000   1.0000
     1.0000   1.0000   1.0000   1.0000   1.0000   1.0000   1.0000   1.0000
     1.0000   1.0000   1.0000   1.0000   1.0000   1.0000   1.0000   1.0000
     1.0000   1.0000   1.0000   1.0000   1.0000   1.0000   1.0000   1.0000
     1.0000   1.0000   1.0000   1.0000   1.0000   1.0000   1.0000   1.0000
     1.0000   1.0000   0.9999   0.9999   0.9999   0.9997   0.9997   0.9996
     0.9995   0.9994   0.9994   0.9992   0.9991   0.9988   0.9984   0.9980
     0.9979   0.9926   0.9922   0.9919   0.9911   0.9860   0.9855   0.9850
     0.9842   0.9821   0.9815   0.9789   0.9765   0.9749   0.9685   0.9680
     0.9611   0.9595   0.9505   0.9327   0.9118   0.8910   0.8866   0.8615
     0.8510   0.8429   0.8337   0.8268   0.8160   0.8127   0.8090   0.7970
     0.7682   0.7474   0.7243   0.7113   0.6872   0.6847   0.6843   0.6779
     0.6704   0.6638   0.6561   0.6541   0.6426   0.6396   0.6272   0.6157
     0.6131   0.5397   0.5359   0.1396   0.1234   0.1046   0.0770   0.0249
     0.0140   0.0135   0.0072   0.0043   0.0014   0.0006   0.0004   0.0003
     0.0001   0.0000   0.0000   0.0000   0.0000   0.0000   0.0000   0.0000
     0.0000   0.0000   0.0000   0.0000   0.0000   0.0000   0.0000   0.0000
     0.0000   0.0000   0.0000   0.0000   0.0000   0.0000   0.0000

          k =-0.2500 0.2500 0.0000 ( 65198 PWs)   bands (ev):

   -92.3511 -92.2977 -92.2052 -92.1565 -92.0979 -92.0575 -92.0401 -91.9177
   -55.7043 -55.6841 -55.5630 -55.5522 -55.5450 -55.5390 -55.5020 -55.4747
   -55.4582 -55.4565 -55.4490 -55.4059 -55.3877 -55.3497 -55.3312 -55.2978
   -55.2917 -55.2463 -55.2450 -55.2432 -55.2347 -55.1921 -55.1709 -55.0841
   -30.9364 -30.9211 -30.8134 -30.7782 -30.6921 -30.6423 -30.5203 -30.4850
   -29.5004 -29.4603 -29.4329 -29.3249 -22.2595 -14.6725 -14.6358 -14.5590
   -14.4416 -14.3342 -14.2097 -14.1180 -13.9166 -13.7894 -13.7723 -13.7442
   -13.7329 -13.6846 -13.6608 -13.6399 -13.6293 -13.5844 -13.4934 -13.4824
   -13.3316 -13.3025 -13.2750 -13.2540 -13.2137 -13.1551 -13.1113 -13.0959
   -12.9979 -12.9498 -12.8847 -12.8089 -12.7696 -12.7362 -12.7014 -12.6669
   -12.6463 -12.6141 -12.6022 -12.5885 -12.5666 -12.5301 -12.4551 -12.4343
   -12.4318 -12.4180 -12.3653 -12.3522 -12.2022 -12.1029 -12.0908 -11.9449
   -11.8109 -11.7713 -11.4530 -11.4312 -11.4043 -11.3917 -11.3515 -11.3162
   -11.2937 -11.2713 -11.2491 -11.1645 -11.1190 -11.1093  -5.9746  -3.1618
    -3.1584  -2.3210  -2.1118  -1.9913  -1.9033  -1.7840  -1.7172  -1.5156
    -1.3687  -1.3496  -1.3211  -1.2299  -1.1942  -1.1019  -1.0685  -1.0427
    -0.8987  -0.8435  -0.7760  -0.7475  -0.6869  -0.6647  -0.6241  -0.5954
    -0.5554  -0.4936  -0.4457  -0.3844  -0.3159  -0.2921  -0.2392  -0.2112
    -0.1653  -0.1076  -0.0633  -0.0225   0.0764   0.1104   0.1177   0.1673
     0.2306   0.2974   0.3422   0.3720   0.4373   0.4714   0.7321   0.8995
     0.9434   0.9783   1.0351   1.0767   1.1400   1.2047   1.2373   1.5195
     1.6334   1.6732   1.7064   1.7120   1.7552   1.7725   1.8162   1.8478
     1.8634   1.8893   1.9292   1.9428   1.9887   2.0059   2.0510   2.1270
     2.1423   2.1672   2.1970   2.2315   2.2688   2.3143   2.4316   2.5445
     2.5779   2.6212   2.6414   2.7048   2.7503   2.7780   2.7998   2.8219
     2.9235   2.9605   3.0202   3.0377   3.0572   3.2301   3.2381   3.2522
     3.2620   3.2728   3.2860   3.2926   3.3108   3.3183   3.3344   3.3437
     3.3565   3.3657   3.3734   3.4051   3.4161   3.4257   3.4588   3.7519
     3.8326   3.8915   3.9519   3.9778   4.1804   4.3089   4.6300   4.7917
     4.9713   5.1286   5.3263   5.5290   5.9299   5.9896   6.0040   6.1210
     6.1850   6.2372   6.3516   6.3976   6.9363   7.0304   7.1191   7.2252
     7.7048   7.7858   7.8763   7.9464   7.9774   8.1551   8.2477   8.3166
     8.3938   8.4557   8.5869   8.6874   8.7151   8.7635   8.8718

     occupation numbers 
     1.0000   1.0000   1.0000   1.0000   1.0000   1.0000   1.0000   1.0000
     1.0000   1.0000   1.0000   1.0000   1.0000   1.0000   1.0000   1.0000
     1.0000   1.0000   1.0000   1.0000   1.0000   1.0000   1.0000   1.0000
     1.0000   1.0000   1.0000   1.0000   1.0000   1.0000   1.0000   1.0000
     1.0000   1.0000   1.0000   1.0000   1.0000   1.0000   1.0000   1.0000
     1.0000   1.0000   1.0000   1.0000   1.0000   1.0000   1.0000   1.0000
     1.0000   1.0000   1.0000   1.0000   1.0000   1.0000   1.0000   1.0000
     1.0000   1.0000   1.0000   1.0000   1.0000   1.0000   1.0000   1.0000
     1.0000   1.0000   1.0000   1.0000   1.0000   1.0000   1.0000   1.0000
     1.0000   1.0000   1.0000   1.0000   1.0000   1.0000   1.0000   1.0000
     1.0000   1.0000   1.0000   1.0000   1.0000   1.0000   1.0000   1.0000
     1.0000   1.0000   1.0000   1.0000   1.0000   1.0000   1.0000   1.0000
     1.0000   1.0000   1.0000   1.0000   1.0000   1.0000   1.0000   1.0000
     1.0000   1.0000   1.0000   1.0000   1.0000   1.0000   1.0000   1.0000
     1.0000   1.0000   1.0000   1.0000   1.0000   1.0000   1.0000   1.0000
     1.0000   1.0000   1.0000   1.0000   1.0000   1.0000   1.0000   1.0000
     1.0000   1.0000   1.0000   1.0000   1.0000   1.0000   1.0000   1.0000
     1.0000   1.0000   1.0000   1.0000   1.0000   1.0000   1.0000   1.0000
     1.0000   1.0000   1.0000   1.0000   1.0000   1.0000   1.0000   1.0000
     1.0000   1.0000   1.0000   1.0000   1.0000   1.0000   1.0000   1.0000
     1.0000   1.0000   1.0000   0.9999   0.9999   0.9999   0.9999   0.9993
     0.9988   0.9985   0.9983   0.9982   0.9978   0.9976   0.9971   0.9967
     0.9964   0.9960   0.9952   0.9950   0.9939   0.9934   0.9921   0.9892
     0.9886   0.9874   0.9859   0.9840   0.9816   0.9784   0.9676   0.9534
     0.9484   0.9412   0.9376   0.9252   0.9152   0.9086   0.9032   0.8975
     0.8678   0.8557   0.8346   0.8281   0.8206   0.7457   0.7419   0.7350
     0.7303   0.7249   0.7183   0.7150   0.7058   0.7020   0.6936   0.6887
     0.6820   0.6771   0.6730   0.6559   0.6498   0.6445   0.6260   0.4546
     0.4076   0.3741   0.3406   0.3266   0.2266   0.1734   0.0781   0.0487
     0.0271   0.0155   0.0071   0.0030   0.0004   0.0003   0.0003   0.0001
     0.0001   0.0001   0.0000   0.0000   0.0000   0.0000   0.0000   0.0000
     0.0000   0.0000   0.0000   0.0000   0.0000   0.0000   0.0000   0.0000
     0.0000   0.0000   0.0000   0.0000   0.0000   0.0000   0.0000

          k =-0.5000 0.2500 0.0000 ( 65138 PWs)   bands (ev):

   -92.3511 -92.2977 -92.2052 -92.1565 -92.0979 -92.0575 -92.0401 -91.9177
   -55.7043 -55.6841 -55.5630 -55.5522 -55.5450 -55.5390 -55.5020 -55.4747
   -55.4582 -55.4565 -55.4490 -55.4059 -55.3877 -55.3497 -55.3312 -55.2978
   -55.2917 -55.2463 -55.2450 -55.2432 -55.2347 -55.1921 -55.1709 -55.0841
   -30.9341 -30.9234 -30.8133 -30.7778 -30.6925 -30.6425 -30.5194 -30.4859
   -29.4994 -29.4614 -29.4325 -29.3253 -22.2595 -14.6383 -14.5948 -14.5168
   -14.4167 -14.3733 -14.2479 -14.1667 -14.0330 -13.7887 -13.7227 -13.6943
   -13.6821 -13.6393 -13.6191 -13.5901 -13.5563 -13.5482 -13.5233 -13.4832
   -13.4739 -13.3751 -13.2949 -13.2480 -13.2442 -13.2333 -13.1550 -13.1287
   -13.0439 -12.9849 -12.8620 -12.8257 -12.7438 -12.7173 -12.6874 -12.6763
   -12.6424 -12.6276 -12.6091 -12.6004 -12.5343 -12.5232 -12.4630 -12.4372
   -12.4258 -12.3865 -12.2828 -12.2756 -12.2001 -12.1026 -11.9846 -11.9445
   -11.8809 -11.8561 -11.4252 -11.4128 -11.3988 -11.3866 -11.3660 -11.3359
   -11.2541 -11.2459 -11.2224 -11.1867 -11.1587 -11.1494  -5.9746  -3.1619
    -3.1584  -2.0940  -2.0518  -1.9027  -1.8606  -1.7009  -1.6247  -1.4821
    -1.3452  -1.2889  -1.2616  -1.2231  -1.1837  -1.1036  -0.9886  -0.9321
    -0.9085  -0.8832  -0.8086  -0.7773  -0.7414  -0.7218  -0.6615  -0.6327
    -0.5934  -0.5585  -0.5298  -0.4725  -0.4453  -0.4036  -0.3696  -0.2657
    -0.2405  -0.1510  -0.0916  -0.0597  -0.0017   0.0816   0.1130   0.2176
     0.2464   0.3095   0.3530   0.3837   0.4612   0.4882   0.5194   0.5766
     0.6147   0.9201   0.9727   1.0398   1.0514   1.3510   1.4116   1.4873
     1.5116   1.6924   1.7277   1.7656   1.7794   1.7975   1.8155   1.8835
     1.9283   1.9644   1.9946   2.1035   2.1458   2.1811   2.1911   2.2231
     2.2539   2.2693   2.2813   2.3027   2.3275   2.3693   2.3951   2.4255
     2.4514   2.4760   2.5418   2.6598   2.7610   2.7905   2.8602   2.9011
     2.9589   2.9970   3.0044   3.0206   3.0370   3.0469   3.0755   3.1005
     3.1814   3.2241   3.2382   3.2446   3.2660   3.2878   3.3005   3.3148
     3.3288   3.3483   3.3624   3.3720   3.3798   3.3894   3.4022   3.9251
     3.9601   4.1210   4.1415   4.4124   4.4785   4.5320   4.7305   5.0559
     5.1582   5.1994   5.3370   5.4524   5.7082   5.7656   5.8126   5.9081
     6.0387   6.1311   6.3625   6.4898   6.5613   6.6471   7.1789   7.3478
     7.5177   7.6949   7.9584   8.0532   8.1755   8.2291   8.3083   8.4824
     8.5579   8.5889   8.6866   8.8063   8.8665   8.9131   8.9395

     occupation numbers 
     1.0000   1.0000   1.0000   1.0000   1.0000   1.0000   1.0000   1.0000
     1.0000   1.0000   1.0000   1.0000   1.0000   1.0000   1.0000   1.0000
     1.0000   1.0000   1.0000   1.0000   1.0000   1.0000   1.0000   1.0000
     1.0000   1.0000   1.0000   1.0000   1.0000   1.0000   1.0000   1.0000
     1.0000   1.0000   1.0000   1.0000   1.0000   1.0000   1.0000   1.0000
     1.0000   1.0000   1.0000   1.0000   1.0000   1.0000   1.0000   1.0000
     1.0000   1.0000   1.0000   1.0000   1.0000   1.0000   1.0000   1.0000
     1.0000   1.0000   1.0000   1.0000   1.0000   1.0000   1.0000   1.0000
     1.0000   1.0000   1.0000   1.0000   1.0000   1.0000   1.0000   1.0000
     1.0000   1.0000   1.0000   1.0000   1.0000   1.0000   1.0000   1.0000
     1.0000   1.0000   1.0000   1.0000   1.0000   1.0000   1.0000   1.0000
     1.0000   1.0000   1.0000   1.0000   1.0000   1.0000   1.0000   1.0000
     1.0000   1.0000   1.0000   1.0000   1.0000   1.0000   1.0000   1.0000
     1.0000   1.0000   1.0000   1.0000   1.0000   1.0000   1.0000   1.0000
     1.0000   1.0000   1.0000   1.0000   1.0000   1.0000   1.0000   1.0000
     1.0000   1.0000   1.0000   1.0000   1.0000   1.0000   1.0000   1.0000
     1.0000   1.0000   1.0000   1.0000   1.0000   1.0000   1.0000   1.0000
     1.0000   1.0000   1.0000   1.0000   1.0000   1.0000   1.0000   1.0000
     1.0000   1.0000   1.0000   1.0000   1.0000   1.0000   1.0000   1.0000
     1.0000   1.0000   1.0000   1.0000   1.0000   1.0000   1.0000   1.0000
     1.0000   1.0000   1.0000   1.0000   1.0000   0.9997   0.9996   0.9994
     0.9993   0.9984   0.9981   0.9977   0.9976   0.9973   0.9971   0.9961
     0.9953   0.9945   0.9937   0.9902   0.9884   0.9867   0.9862   0.9845
     0.9826   0.9816   0.9808   0.9792   0.9773   0.9738   0.9713   0.9682
     0.9654   0.9625   0.9538   0.9342   0.9127   0.9055   0.8869   0.8748
     0.8563   0.8431   0.8404   0.8345   0.8284   0.8246   0.8134   0.8033
     0.7683   0.7485   0.7418   0.7387   0.7283   0.7175   0.7110   0.7037
     0.6965   0.6863   0.6789   0.6737   0.6695   0.6644   0.6574   0.3553
     0.3361   0.2540   0.2443   0.1368   0.1165   0.1017   0.0586   0.0202
     0.0138   0.0118   0.0068   0.0042   0.0013   0.0010   0.0008   0.0005
     0.0002   0.0001   0.0000   0.0000   0.0000   0.0000   0.0000   0.0000
     0.0000   0.0000   0.0000   0.0000   0.0000   0.0000   0.0000   0.0000
     0.0000   0.0000   0.0000   0.0000   0.0000   0.0000   0.0000

     the Fermi energy is     3.6752 ev

!    total energy              =   -4482.97935453 Ry
     estimated scf accuracy    <          8.2E-09 Ry
     smearing contrib. (-TS)   =      -1.17185898 Ry
     internal energy E=F+TS    =   -4481.80749554 Ry

     The total energy is F=E-TS. E is the sum of the following terms:
     one-electron contribution =  -20252.41496115 Ry
     hartree contribution      =   10265.69143761 Ry
     xc contribution           =    -701.58971178 Ry
     ewald contribution        =    6492.15893608 Ry
     one-center paw contrib.   =    -285.65319629 Ry
      -> PAW hartree energy AE =      25.17700760 Ry
      -> PAW hartree energy PS =     -25.06078024 Ry
      -> PAW xc energy AE      =     -16.51944100 Ry
      -> PAW xc energy PS      =       6.87901894 Ry
      -> total E_H with PAW    =   10265.80766498 Ry
      -> total E_XC with PAW   =    -711.23013385 Ry

     convergence has been achieved in  51 iterations

     Writing all to output data dir /bsuhome/zayahcortright/scratch/pwscf.save/
 
     init_run     :      9.05s CPU      9.47s WALL (       1 calls)
     electrons    :    801.98s CPU    814.93s WALL (       1 calls)

     Called by init_run:
     wfcinit      :      7.32s CPU      7.44s WALL (       1 calls)
     wfcinit:atom :      0.06s CPU      0.07s WALL (       5 calls)
     wfcinit:wfcr :      6.96s CPU      7.04s WALL (       5 calls)
     potinit      :      0.22s CPU      0.24s WALL (       1 calls)
     hinit0       :      0.62s CPU      0.82s WALL (       1 calls)

     Called by electrons:
     c_bands      :    635.81s CPU    641.08s WALL (      51 calls)
     sum_band     :    123.65s CPU    128.08s WALL (      51 calls)
     v_of_rho     :      5.79s CPU      6.08s WALL (      52 calls)
     v_h          :      0.52s CPU      0.52s WALL (      52 calls)
     v_xc         :      5.27s CPU      5.56s WALL (      52 calls)
     newd         :     21.43s CPU     23.93s WALL (      52 calls)
     PAW_pot      :      1.70s CPU      1.72s WALL (      52 calls)
     mix_rho      :     13.25s CPU     13.53s WALL (      51 calls)

     Called by c_bands:
     init_us_2    :      7.08s CPU      7.14s WALL (     515 calls)
     init_us_2:cp :      7.07s CPU      7.14s WALL (     515 calls)
     cegterg      :    599.20s CPU    604.08s WALL (     255 calls)

     Called by sum_band:
     sum_band:wei :      0.37s CPU      0.37s WALL (      51 calls)
     sum_band:loo :    101.08s CPU    101.88s WALL (      51 calls)
     sum_band:buf :      1.57s CPU      1.59s WALL (     255 calls)
     sum_band:ini :      3.18s CPU      3.20s WALL (     255 calls)
     sum_band:cal :     21.52s CPU     21.61s WALL (     255 calls)
     sum_band:bec :      0.64s CPU      0.65s WALL (     255 calls)
     addusdens    :     18.83s CPU     22.42s WALL (      51 calls)
                                        0.00s GPU  (      51 calls)
     addusd:skk   :      0.37s CPU      0.75s WALL (     204 calls)
                                        0.00s GPU  (     204 calls)

     Called by *egterg:
     cdiaghg      :     64.32s CPU     64.59s WALL (    1484 calls)
     cegterg:over :     46.45s CPU     46.59s WALL (    1229 calls)
     cegterg:upda :     33.24s CPU     33.59s WALL (    1229 calls)
     cegterg:last :     68.18s CPU     68.36s WALL (     476 calls)
     cdiaghg:chol :      3.70s CPU      3.72s WALL (    1484 calls)
     cdiaghg:inve :      4.04s CPU      4.05s WALL (    1484 calls)
     cdiaghg:para :      8.22s CPU      8.26s WALL (    2968 calls)
     h_psi        :    324.87s CPU    327.69s WALL (    1489 calls)
     s_psi        :     43.23s CPU     43.34s WALL (    1489 calls)
     g_psi        :      1.17s CPU      1.18s WALL (    1229 calls)

     Called by h_psi:
     h_psi:calbec :     49.67s CPU     49.85s WALL (    1489 calls)
     vloc_psi     :    228.53s CPU    230.65s WALL (    1489 calls)
     add_vuspsi   :     43.49s CPU     43.64s WALL (    1489 calls)

     General routines
     calbec       :     71.18s CPU     71.45s WALL (    1744 calls)
     fft          :      6.31s CPU      6.36s WALL (     674 calls)
     ffts         :      4.85s CPU      4.89s WALL (    5317 calls)
     fftw         :    191.47s CPU    193.01s WALL (  350537 calls)
     interpolate  :      0.44s CPU      0.45s WALL (      52 calls)
 
     Parallel routines

     PAW routines
     PAW_pot      :      1.70s CPU      1.72s WALL (      52 calls)
 
     PWSCF        :  13m32.85s CPU  13m49.26s WALL

 
   This run was terminated on:  18: 1:46  20Jun2024            

=------------------------------------------------------------------------------=
   JOB DONE.
=------------------------------------------------------------------------------=
