
     Program PWSCF v.7.2 starts on 20Jun2024 at 15:16:36 

     This program is part of the open-source Quantum ESPRESSO suite
     for quantum simulation of materials; please cite
         "P. Giannozzi et al., J. Phys.:Condens. Matter 21 395502 (2009);
         "P. Giannozzi et al., J. Phys.:Condens. Matter 29 465901 (2017);
         "P. Giannozzi et al., J. Chem. Phys. 152 154105 (2020);
          URL http://www.quantum-espresso.org", 
     in publications or presentations arising from this work. More details at
     http://www.quantum-espresso.org/quote

     Parallel version (MPI & OpenMP), running on      48 processor cores
     Number of MPI processes:                48
     Threads/MPI process:                     1

     MPI processes distributed on     1 nodes
     41859 MiB available memory on the printing compute node when the environment starts
 
     Reading input from espresso.pwi
Warning: card &CELL ignored
Warning: card / ignored
Warning: card &FCP ignored
Warning: card / ignored
Warning: card &RISM ignored
Warning: card / ignored

     Current dimensions of program PWSCF are:
     Max number of different atomic species (ntypx) = 10
     Max number of k-points (npk) =  40000
     Max angular momentum in pseudopotentials (lmaxx) =  4
     file O.pbe-n-kjpaw_psl.0.1.UPF: wavefunction(s)  2P renormalized
     signal trapping enabled: kill the code with -SIGUSR1 to stop cleanly the simulation 
 
     K-points division:     npool     =       2
     R & G space division:  proc/nbgrp/npool/nimage =      24
     Subspace diagonalization in iterative solution of the eigenvalue problem:
     one sub-group per band group will be used
     scalapack distributed-memory algorithm (size of sub-group:  3*  3 procs)

 
     Parallelization info
     --------------------
     sticks:   dense  smooth     PW     G-vecs:    dense   smooth      PW
     Min         350     175     47                61430    21716    3036
     Max         351     177     48                61449    21727    3041
     Sum        8421    4205   1137              1474595   521381   72913
 
     Using Slab Decomposition
 


     bravais-lattice index     =            0
     lattice parameter (alat)  =      14.8599  a.u.
     unit-cell volume          =    8305.1283 (a.u.)^3
     number of atoms/cell      =           51
     number of atomic types    =            4
     number of electrons       =       437.00
     number of Kohn-Sham states=          263
     kinetic-energy cutoff     =      60.0000  Ry
     charge density cutoff     =     480.0000  Ry
     scf convergence threshold =      1.0E-08
     mixing beta               =       0.1500
     number of iterations used =            8  local-TF  mixing
     Exchange-correlation= PBE
                           (   1   4   3   4   0   0   0)

     celldm(1)=  14.859904  celldm(2)=   0.000000  celldm(3)=   0.000000
     celldm(4)=   0.000000  celldm(5)=   0.000000  celldm(6)=   0.000000

     crystal axes: (cart. coord. in units of alat)
               a(1) = (   1.000000   0.000000   0.000000 )  
               a(2) = (   0.000000   1.000000   0.000000 )  
               a(3) = (   0.000000   0.000000   2.531036 )  

     reciprocal axes: (cart. coord. in units 2 pi/alat)
               b(1) = (  1.000000  0.000000  0.000000 )  
               b(2) = (  0.000000  1.000000  0.000000 )  
               b(3) = (  0.000000  0.000000  0.395095 )  


     PseudoPot. # 1 for Sr read from file:
     /bsuhome/zayahcortright/q-e/pseudo/Sr_pbe_v1.uspp.F.UPF
     MD5 check sum: 6b418c05fbe9db5448babca5e47b7a5b
     Pseudo is Ultrasoft + core correction, Zval = 10.0
     Generated by new atomic code, or converted to UPF format
     Using radial grid of  883 points,  6 beta functions with: 
                l(1) =   0
                l(2) =   0
                l(3) =   1
                l(4) =   1
                l(5) =   2
                l(6) =   2
     Q(r) pseudized with  6 coefficients,  rinner =    1.400   1.400   1.400
                                                       1.400   1.400

     PseudoPot. # 2 for O  read from file:
     /bsuhome/zayahcortright/q-e/pseudo/O.pbe-n-kjpaw_psl.0.1.UPF
     MD5 check sum: 0234752ac141de4415c5fc33072bef88
     Pseudo is Projector augmented-wave + core cor, Zval =  6.0
     Generated using "atomic" code by A. Dal Corso  v.5.0.99 svn rev. 10869
     Shape of augmentation charge: BESSEL
     Using radial grid of 1095 points,  4 beta functions with: 
                l(1) =   0
                l(2) =   0
                l(3) =   1
                l(4) =   1
     Q(r) pseudized with 0 coefficients 


     PseudoPot. # 3 for Co read from file:
     /bsuhome/zayahcortright/q-e/pseudo/Co_pbe_v1.2.uspp.F.UPF
     MD5 check sum: 5f91765df6ddd3222702df6e7b74a16d
     Pseudo is Ultrasoft + core correction, Zval = 17.0
     Generated by new atomic code, or converted to UPF format
     Using radial grid of  863 points,  6 beta functions with: 
                l(1) =   0
                l(2) =   0
                l(3) =   1
                l(4) =   1
                l(5) =   2
                l(6) =   2
     Q(r) pseudized with  8 coefficients,  rinner =    1.200   1.200   1.200
                                                       1.200   1.200

     PseudoPot. # 4 for H  read from file:
     /bsuhome/zayahcortright/q-e/pseudo/H.pbe-rrkjus_psl.1.0.0.UPF
     MD5 check sum: f52b6d4d1c606e5624b1dc7b2218f220
     Pseudo is Ultrasoft, Zval =  1.0
     Generated using "atomic" code by A. Dal Corso  v.5.1
     Using radial grid of  929 points,  2 beta functions with: 
                l(1) =   0
                l(2) =   0
     Q(r) pseudized with 0 coefficients 


     atomic species   valence    mass     pseudopotential
        Sr            10.00    87.62000     Sr( 1.00)
        O              6.00    15.99900     O ( 1.00)
        Co            17.00    58.93319     Co( 1.00)
        H              1.00     1.00800     H ( 1.00)

     No symmetry found


                                    s                        frac. trans.

      isym =  1     identity                                     

 cryst.   s( 1) = (     1          0          0      )
                  (     0          1          0      )
                  (     0          0          1      )

 cart.    s( 1) = (  1.0000000  0.0000000  0.0000000 )
                  (  0.0000000  1.0000000  0.0000000 )
                  (  0.0000000  0.0000000  1.0000000 )


   Cartesian axes

     site n.     atom                  positions (alat units)
         1           Sr  tau(   1) = (   0.2508693   0.7491307   1.7574407  )
         2           O   tau(   2) = (   0.4985141   0.5014859   1.7715967  )
         3           Sr  tau(   3) = (   0.7482398   0.7454518   1.7648669  )
         4           Sr  tau(   4) = (   0.7441748   0.2558252   1.7667843  )
         5           Sr  tau(   5) = (   0.2508693   0.7491307   1.2696799  )
         6           Sr  tau(   6) = (   0.2508693   0.7491307   0.7632319  )
         7           Co  tau(   7) = (   0.4998914   0.5001086   1.0164559  )
         8           Co  tau(   8) = (   0.4936915   0.5063085   1.5135603  )
         9           O   tau(   9) = (   0.4988895   0.7610401   1.0164559  )
        10           O   tau(  10) = (   0.2389599   0.5011105   1.0164559  )
        11           O   tau(  11) = (   0.0070918   0.7374880   1.0164559  )
        12           O   tau(  12) = (   0.0088340   0.7405089   1.5135603  )
        13           O   tau(  13) = (   0.5066944   0.7415376   1.5135603  )
        14           O   tau(  14) = (   0.2584624   0.4933056   1.5135603  )
        15           O   tau(  15) = (   0.4985141   0.5014859   0.7773880  )
        16           O   tau(  16) = (   0.4985141   0.5014859   1.2555238  )
        17           Sr  tau(  17) = (   0.7482398   0.7454518   0.7706582  )
        18           Sr  tau(  18) = (   0.7482398   0.7454518   1.2622536  )
        19           Sr  tau(  19) = (   0.7441748   0.2558252   0.7725755  )
        20           Sr  tau(  20) = (   0.7441748   0.2558252   1.2603363  )
        21           O   tau(  21) = (   0.7322655   0.0078049   1.5135603  )
        22           O   tau(  22) = (   0.7558175   0.4996027   1.5135603  )
        23           O   tau(  23) = (   0.5003973   0.2441825   1.5135603  )
        24           O   tau(  24) = (   0.7527966   0.4978604   1.0164559  )
        25           O   tau(  25) = (   0.5021396   0.2472034   1.0164559  )
        26           O   tau(  26) = (   0.7517679   0.0000000   1.0164559  )
        27           O   tau(  27) = (   0.0114961   0.4948124   1.7455321  )
        28           O   tau(  28) = (   0.0048226   0.0077944   1.7715967  )
        29           Sr  tau(  29) = (   0.2545482   0.2517602   1.7648669  )
        30           O   tau(  30) = (   0.5048017   0.0015068   1.7786929  )
        31           Co  tau(  31) = (   0.0056869   0.5006215   1.0164559  )
        32           Co  tau(  32) = (   0.0065315   0.4997770   1.5135603  )
        33           Co  tau(  33) = (   0.0061999   0.0064171   1.0164559  )
        34           Co  tau(  34) = (   0.0000000   0.0126169   1.5135603  )
        35           O   tau(  35) = (   0.0114961   0.4948124   1.2815885  )
        36           O   tau(  36) = (   0.0114961   0.4948124   0.7513233  )
        37           O   tau(  37) = (   0.0051979   0.2673486   1.0164559  )
        38           O   tau(  38) = (   0.0130029   0.2478461   1.5135603  )
        39           O   tau(  39) = (   0.0048226   0.0077944   0.7773880  )
        40           O   tau(  40) = (   0.0048226   0.0077944   1.2555238  )
        41           Sr  tau(  41) = (   0.2545482   0.2517602   0.7706582  )
        42           Sr  tau(  42) = (   0.2545482   0.2517602   1.2622536  )
        43           Co  tau(  43) = (   0.4989925   0.0073160   1.5135603  )
        44           Co  tau(  44) = (   0.4998370   0.0064714   1.0164559  )
        45           O   tau(  45) = (   0.5048017   0.0015068   0.7844841  )
        46           O   tau(  46) = (   0.5048017   0.0015068   1.2484277  )
        47           O   tau(  47) = (   0.2621260   0.0059111   1.5135603  )
        48           O   tau(  48) = (   0.2591051   0.0041689   1.0164559  )
        49           O   tau(  49) = (   0.5686583   0.9951520   2.1602013  )
        50           O   tau(  50) = (   0.5686583   0.9951520   2.3186489  )
        51           H   tau(  51) = (   0.5686583   0.9951520   2.4431567  )

   Crystallographic axes

     site n.     atom                  positions (cryst. coord.)
         1           Sr  tau(   1) = (  0.2508693  0.7491307  0.6943562  )
         2           O   tau(   2) = (  0.4985141  0.5014859  0.6999492  )
         3           Sr  tau(   3) = (  0.7482398  0.7454518  0.6972903  )
         4           Sr  tau(   4) = (  0.7441748  0.2558252  0.6980478  )
         5           Sr  tau(   5) = (  0.2508693  0.7491307  0.5016443  )
         6           Sr  tau(   6) = (  0.2508693  0.7491307  0.3015492  )
         7           Co  tau(   7) = (  0.4998914  0.5001086  0.4015968  )
         8           Co  tau(   8) = (  0.4936915  0.5063085  0.5980003  )
         9           O   tau(   9) = (  0.4988895  0.7610401  0.4015968  )
        10           O   tau(  10) = (  0.2389599  0.5011105  0.4015968  )
        11           O   tau(  11) = (  0.0070918  0.7374880  0.4015968  )
        12           O   tau(  12) = (  0.0088340  0.7405089  0.5980003  )
        13           O   tau(  13) = (  0.5066944  0.7415376  0.5980003  )
        14           O   tau(  14) = (  0.2584624  0.4933056  0.5980003  )
        15           O   tau(  15) = (  0.4985141  0.5014859  0.3071422  )
        16           O   tau(  16) = (  0.4985141  0.5014859  0.4960513  )
        17           Sr  tau(  17) = (  0.7482398  0.7454518  0.3044833  )
        18           Sr  tau(  18) = (  0.7482398  0.7454518  0.4987103  )
        19           Sr  tau(  19) = (  0.7441748  0.2558252  0.3052408  )
        20           Sr  tau(  20) = (  0.7441748  0.2558252  0.4979527  )
        21           O   tau(  21) = (  0.7322655  0.0078049  0.5980003  )
        22           O   tau(  22) = (  0.7558175  0.4996027  0.5980003  )
        23           O   tau(  23) = (  0.5003973  0.2441825  0.5980003  )
        24           O   tau(  24) = (  0.7527966  0.4978604  0.4015968  )
        25           O   tau(  25) = (  0.5021396  0.2472034  0.4015968  )
        26           O   tau(  26) = (  0.7517679  0.0000000  0.4015968  )
        27           O   tau(  27) = (  0.0114961  0.4948124  0.6896512  )
        28           O   tau(  28) = (  0.0048226  0.0077944  0.6999492  )
        29           Sr  tau(  29) = (  0.2545482  0.2517602  0.6972903  )
        30           O   tau(  30) = (  0.5048017  0.0015068  0.7027529  )
        31           Co  tau(  31) = (  0.0056869  0.5006215  0.4015968  )
        32           Co  tau(  32) = (  0.0065315  0.4997770  0.5980003  )
        33           Co  tau(  33) = (  0.0061999  0.0064171  0.4015968  )
        34           Co  tau(  34) = (  0.0000000  0.0126169  0.5980003  )
        35           O   tau(  35) = (  0.0114961  0.4948124  0.5063494  )
        36           O   tau(  36) = (  0.0114961  0.4948124  0.2968442  )
        37           O   tau(  37) = (  0.0051979  0.2673486  0.4015968  )
        38           O   tau(  38) = (  0.0130029  0.2478461  0.5980003  )
        39           O   tau(  39) = (  0.0048226  0.0077944  0.3071422  )
        40           O   tau(  40) = (  0.0048226  0.0077944  0.4960513  )
        41           Sr  tau(  41) = (  0.2545482  0.2517602  0.3044833  )
        42           Sr  tau(  42) = (  0.2545482  0.2517602  0.4987103  )
        43           Co  tau(  43) = (  0.4989925  0.0073160  0.5980003  )
        44           Co  tau(  44) = (  0.4998370  0.0064714  0.4015968  )
        45           O   tau(  45) = (  0.5048017  0.0015068  0.3099459  )
        46           O   tau(  46) = (  0.5048017  0.0015068  0.4932477  )
        47           O   tau(  47) = (  0.2621260  0.0059111  0.5980003  )
        48           O   tau(  48) = (  0.2591051  0.0041689  0.4015968  )
        49           O   tau(  49) = (  0.5686583  0.9951520  0.8534850  )
        50           O   tau(  50) = (  0.5686583  0.9951520  0.9160869  )
        51           H   tau(  51) = (  0.5686583  0.9951520  0.9652793  )

     number of k points=    10  Gaussian smearing, width (Ry)=  0.0700
                       cart. coord. in units 2pi/alat
        k(    1) = (   0.0000000   0.0000000   0.0000000), wk =   0.1250000
        k(    2) = (   0.0000000   0.2500000   0.0000000), wk =   0.2500000
        k(    3) = (   0.0000000  -0.5000000   0.0000000), wk =   0.1250000
        k(    4) = (   0.2500000   0.2500000   0.0000000), wk =   0.2500000
        k(    5) = (   0.2500000  -0.5000000   0.0000000), wk =   0.2500000
        k(    6) = (  -0.5000000  -0.5000000   0.0000000), wk =   0.1250000
        k(    7) = (   0.2500000   0.0000000   0.0000000), wk =   0.2500000
        k(    8) = (  -0.5000000   0.0000000   0.0000000), wk =   0.1250000
        k(    9) = (  -0.2500000   0.2500000   0.0000000), wk =   0.2500000
        k(   10) = (  -0.5000000   0.2500000   0.0000000), wk =   0.2500000

                       cryst. coord.
        k(    1) = (   0.0000000   0.0000000   0.0000000), wk =   0.1250000
        k(    2) = (   0.0000000   0.2500000   0.0000000), wk =   0.2500000
        k(    3) = (   0.0000000  -0.5000000   0.0000000), wk =   0.1250000
        k(    4) = (   0.2500000   0.2500000   0.0000000), wk =   0.2500000
        k(    5) = (   0.2500000  -0.5000000   0.0000000), wk =   0.2500000
        k(    6) = (  -0.5000000  -0.5000000   0.0000000), wk =   0.1250000
        k(    7) = (   0.2500000   0.0000000   0.0000000), wk =   0.2500000
        k(    8) = (  -0.5000000   0.0000000   0.0000000), wk =   0.1250000
        k(    9) = (  -0.2500000   0.2500000   0.0000000), wk =   0.2500000
        k(   10) = (  -0.5000000   0.2500000   0.0000000), wk =   0.2500000

     Dense  grid:  1474595 G-vectors     FFT dimensions: ( 108, 108, 270)

     Smooth grid:   521381 G-vectors     FFT dimensions: (  75,  75, 192)

     Dynamical RAM for                 wfc:      10.90 MB

     Dynamical RAM for     wfc (w. buffer):      65.37 MB

     Dynamical RAM for           str. fact:       3.75 MB

     Dynamical RAM for           local pot:       0.00 MB

     Dynamical RAM for          nlocal pot:      24.94 MB

     Dynamical RAM for                qrad:       7.03 MB

     Dynamical RAM for          rho,v,vnew:       6.02 MB

     Dynamical RAM for               rhoin:       2.01 MB

     Dynamical RAM for            rho*nmix:      15.00 MB

     Dynamical RAM for           G-vectors:       3.68 MB

     Dynamical RAM for          h,s,v(r/c):       1.40 MB

     Dynamical RAM for          <psi|beta>:       2.42 MB

     Dynamical RAM for                 psi:      21.79 MB

     Dynamical RAM for                hpsi:      21.79 MB

     Dynamical RAM for                spsi:      21.79 MB

     Dynamical RAM for      wfcinit/wfcrot:      34.89 MB

     Dynamical RAM for           addusdens:     101.73 MB

     Estimated static dynamical RAM per process >     122.82 MB

     Estimated max dynamical RAM per process >     239.55 MB

     Estimated total dynamical RAM >      10.88 GB

     Check: negative core charge=   -0.000004

     Initial potential from superposition of free atoms

     starting charge     428.5961, renormalised to     437.0000

     negative rho (up, down):  7.814E-01 0.000E+00
     Starting wfcs are  381 randomized atomic wfcs
     Checking if some PAW data can be deallocated... 
       PAW data deallocated on   18 nodes for type:  2

     total cpu time spent up to now is       10.4 secs

     Self-consistent Calculation

     iteration #  1     ecut=    60.00 Ry     beta= 0.15
     Davidson diagonalization with overlap

---- Real-time Memory Report at c_bands before calling an iterative solver
             0 MiB given to the printing process from OS
             0 MiB allocation reported by mallinfo(arena+hblkhd)
         32107 MiB available memory on the node where the printing process lives
------------------
     ethr =  1.00E-02,  avg # of iterations =  2.0

     negative rho (up, down):  7.716E-01 0.000E+00

     total cpu time spent up to now is       26.3 secs

     total energy              =   -4489.33141322 Ry
     estimated scf accuracy    <      49.76909620 Ry

     iteration #  2     ecut=    60.00 Ry     beta= 0.15
     Davidson diagonalization with overlap

---- Real-time Memory Report at c_bands before calling an iterative solver
             0 MiB given to the printing process from OS
             0 MiB allocation reported by mallinfo(arena+hblkhd)
         32470 MiB available memory on the node where the printing process lives
------------------
     ethr =  1.00E-02,  avg # of iterations =  1.0

     negative rho (up, down):  7.614E-01 0.000E+00

     total cpu time spent up to now is       39.1 secs

     total energy              =   -4486.82449713 Ry
     estimated scf accuracy    <      35.47189074 Ry

     iteration #  3     ecut=    60.00 Ry     beta= 0.15
     Davidson diagonalization with overlap

---- Real-time Memory Report at c_bands before calling an iterative solver
             0 MiB given to the printing process from OS
             0 MiB allocation reported by mallinfo(arena+hblkhd)
         31713 MiB available memory on the node where the printing process lives
------------------
     ethr =  8.12E-03,  avg # of iterations =  1.0

     negative rho (up, down):  7.564E-01 0.000E+00

     total cpu time spent up to now is       52.0 secs

     total energy              =   -4486.77948320 Ry
     estimated scf accuracy    <      35.42049961 Ry

     iteration #  4     ecut=    60.00 Ry     beta= 0.15
     Davidson diagonalization with overlap

---- Real-time Memory Report at c_bands before calling an iterative solver
             0 MiB given to the printing process from OS
             0 MiB allocation reported by mallinfo(arena+hblkhd)
         31696 MiB available memory on the node where the printing process lives
------------------
     ethr =  8.11E-03,  avg # of iterations =  1.0

     negative rho (up, down):  7.576E-01 0.000E+00

     total cpu time spent up to now is       64.9 secs

     total energy              =   -4486.57406581 Ry
     estimated scf accuracy    <      34.23050265 Ry

     iteration #  5     ecut=    60.00 Ry     beta= 0.15
     Davidson diagonalization with overlap

---- Real-time Memory Report at c_bands before calling an iterative solver
             0 MiB given to the printing process from OS
             0 MiB allocation reported by mallinfo(arena+hblkhd)
         31684 MiB available memory on the node where the printing process lives
------------------
     ethr =  7.83E-03,  avg # of iterations =  1.0

     negative rho (up, down):  7.334E-01 0.000E+00

     total cpu time spent up to now is       77.6 secs

     total energy              =   -4482.42336199 Ry
     estimated scf accuracy    <      22.44434861 Ry

     iteration #  6     ecut=    60.00 Ry     beta= 0.15
     Davidson diagonalization with overlap

---- Real-time Memory Report at c_bands before calling an iterative solver
             0 MiB given to the printing process from OS
             0 MiB allocation reported by mallinfo(arena+hblkhd)
         31664 MiB available memory on the node where the printing process lives
------------------
     ethr =  5.14E-03,  avg # of iterations =  2.0

     negative rho (up, down):  7.492E-01 0.000E+00

     total cpu time spent up to now is       92.0 secs

     total energy              =   -4483.36339538 Ry
     estimated scf accuracy    <      32.46313898 Ry

     iteration #  7     ecut=    60.00 Ry     beta= 0.15
     Davidson diagonalization with overlap

---- Real-time Memory Report at c_bands before calling an iterative solver
             0 MiB given to the printing process from OS
             0 MiB allocation reported by mallinfo(arena+hblkhd)
         31632 MiB available memory on the node where the printing process lives
------------------
     ethr =  5.14E-03,  avg # of iterations =  1.0

     negative rho (up, down):  7.541E-01 0.000E+00

     total cpu time spent up to now is      104.8 secs

     total energy              =   -4483.70455408 Ry
     estimated scf accuracy    <      30.97539617 Ry

     iteration #  8     ecut=    60.00 Ry     beta= 0.15
     Davidson diagonalization with overlap

---- Real-time Memory Report at c_bands before calling an iterative solver
             0 MiB given to the printing process from OS
             0 MiB allocation reported by mallinfo(arena+hblkhd)
         31620 MiB available memory on the node where the printing process lives
------------------
     ethr =  5.14E-03,  avg # of iterations =  1.0

     negative rho (up, down):  7.517E-01 0.000E+00

     total cpu time spent up to now is      117.3 secs

     total energy              =   -4483.85697654 Ry
     estimated scf accuracy    <       6.60087737 Ry

     iteration #  9     ecut=    60.00 Ry     beta= 0.15
     Davidson diagonalization with overlap

---- Real-time Memory Report at c_bands before calling an iterative solver
             0 MiB given to the printing process from OS
             0 MiB allocation reported by mallinfo(arena+hblkhd)
         31595 MiB available memory on the node where the printing process lives
------------------
     ethr =  1.51E-03,  avg # of iterations =  3.2

     negative rho (up, down):  7.667E-01 0.000E+00

     total cpu time spent up to now is      131.9 secs

     total energy              =   -4483.75408638 Ry
     estimated scf accuracy    <       3.94814362 Ry

     iteration # 10     ecut=    60.00 Ry     beta= 0.15
     Davidson diagonalization with overlap

---- Real-time Memory Report at c_bands before calling an iterative solver
             0 MiB given to the printing process from OS
             0 MiB allocation reported by mallinfo(arena+hblkhd)
         31545 MiB available memory on the node where the printing process lives
------------------
     ethr =  9.03E-04,  avg # of iterations = 11.6

     negative rho (up, down):  7.901E-01 0.000E+00

     total cpu time spent up to now is      151.0 secs

     total energy              =   -4483.47575357 Ry
     estimated scf accuracy    <       4.38453234 Ry

     iteration # 11     ecut=    60.00 Ry     beta= 0.15
     Davidson diagonalization with overlap

---- Real-time Memory Report at c_bands before calling an iterative solver
             0 MiB given to the printing process from OS
             0 MiB allocation reported by mallinfo(arena+hblkhd)
         31178 MiB available memory on the node where the printing process lives
------------------
     ethr =  9.03E-04,  avg # of iterations =  5.2

     negative rho (up, down):  7.937E-01 0.000E+00

     total cpu time spent up to now is      166.6 secs

     total energy              =   -4483.19157009 Ry
     estimated scf accuracy    <       3.74249259 Ry

     iteration # 12     ecut=    60.00 Ry     beta= 0.15
     Davidson diagonalization with overlap

---- Real-time Memory Report at c_bands before calling an iterative solver
             0 MiB given to the printing process from OS
             0 MiB allocation reported by mallinfo(arena+hblkhd)
         31115 MiB available memory on the node where the printing process lives
------------------
     ethr =  8.56E-04,  avg # of iterations =  7.3

     negative rho (up, down):  8.027E-01 0.000E+00

     total cpu time spent up to now is      183.0 secs

     total energy              =   -4483.21273823 Ry
     estimated scf accuracy    <       1.90758629 Ry

     iteration # 13     ecut=    60.00 Ry     beta= 0.15
     Davidson diagonalization with overlap

---- Real-time Memory Report at c_bands before calling an iterative solver
             0 MiB given to the printing process from OS
             0 MiB allocation reported by mallinfo(arena+hblkhd)
         31090 MiB available memory on the node where the printing process lives
------------------
     ethr =  4.37E-04,  avg # of iterations =  2.3

     negative rho (up, down):  8.037E-01 0.000E+00

     total cpu time spent up to now is      197.1 secs

     total energy              =   -4483.25375090 Ry
     estimated scf accuracy    <       1.04274921 Ry

     iteration # 14     ecut=    60.00 Ry     beta= 0.15
     Davidson diagonalization with overlap

---- Real-time Memory Report at c_bands before calling an iterative solver
             0 MiB given to the printing process from OS
             0 MiB allocation reported by mallinfo(arena+hblkhd)
         31113 MiB available memory on the node where the printing process lives
------------------
     ethr =  2.39E-04,  avg # of iterations = 10.7

     negative rho (up, down):  8.165E-01 0.000E+00

     total cpu time spent up to now is      215.2 secs

     total energy              =   -4483.09729596 Ry
     estimated scf accuracy    <       0.70806903 Ry

     iteration # 15     ecut=    60.00 Ry     beta= 0.15
     Davidson diagonalization with overlap

---- Real-time Memory Report at c_bands before calling an iterative solver
             0 MiB given to the printing process from OS
             0 MiB allocation reported by mallinfo(arena+hblkhd)
         31063 MiB available memory on the node where the printing process lives
------------------
     ethr =  1.62E-04,  avg # of iterations =  5.7

     negative rho (up, down):  8.193E-01 0.000E+00

     total cpu time spent up to now is      231.5 secs

     total energy              =   -4483.13342554 Ry
     estimated scf accuracy    <       3.08903415 Ry

     iteration # 16     ecut=    60.00 Ry     beta= 0.15
     Davidson diagonalization with overlap

---- Real-time Memory Report at c_bands before calling an iterative solver
             0 MiB given to the printing process from OS
             0 MiB allocation reported by mallinfo(arena+hblkhd)
         31089 MiB available memory on the node where the printing process lives
------------------
     ethr =  1.62E-04,  avg # of iterations =  4.4

     negative rho (up, down):  8.172E-01 0.000E+00

     total cpu time spent up to now is      246.4 secs

     total energy              =   -4483.09734162 Ry
     estimated scf accuracy    <       1.30599712 Ry

     iteration # 17     ecut=    60.00 Ry     beta= 0.15
     Davidson diagonalization with overlap

---- Real-time Memory Report at c_bands before calling an iterative solver
             0 MiB given to the printing process from OS
             0 MiB allocation reported by mallinfo(arena+hblkhd)
         31080 MiB available memory on the node where the printing process lives
------------------
     ethr =  1.62E-04,  avg # of iterations =  1.7

     negative rho (up, down):  8.202E-01 0.000E+00

     total cpu time spent up to now is      260.4 secs

     total energy              =   -4483.04589655 Ry
     estimated scf accuracy    <       0.48982621 Ry

     iteration # 18     ecut=    60.00 Ry     beta= 0.15
     Davidson diagonalization with overlap

---- Real-time Memory Report at c_bands before calling an iterative solver
             0 MiB given to the printing process from OS
             0 MiB allocation reported by mallinfo(arena+hblkhd)
         31079 MiB available memory on the node where the printing process lives
------------------
     c_bands:  1 eigenvalues not converged
     ethr =  1.12E-04,  avg # of iterations = 14.5

     negative rho (up, down):  8.214E-01 0.000E+00

     total cpu time spent up to now is      280.4 secs

     total energy              =   -4483.02704149 Ry
     estimated scf accuracy    <       1.03351990 Ry

     iteration # 19     ecut=    60.00 Ry     beta= 0.15
     Davidson diagonalization with overlap

---- Real-time Memory Report at c_bands before calling an iterative solver
             0 MiB given to the printing process from OS
             0 MiB allocation reported by mallinfo(arena+hblkhd)
         31062 MiB available memory on the node where the printing process lives
------------------
     ethr =  1.12E-04,  avg # of iterations =  1.5

     negative rho (up, down):  8.255E-01 0.000E+00

     total cpu time spent up to now is      294.1 secs

     total energy              =   -4483.00787848 Ry
     estimated scf accuracy    <       0.39886136 Ry

     iteration # 20     ecut=    60.00 Ry     beta= 0.15
     Davidson diagonalization with overlap

---- Real-time Memory Report at c_bands before calling an iterative solver
             0 MiB given to the printing process from OS
             0 MiB allocation reported by mallinfo(arena+hblkhd)
         31077 MiB available memory on the node where the printing process lives
------------------
     ethr =  9.13E-05,  avg # of iterations =  7.6

     negative rho (up, down):  8.282E-01 0.000E+00

     total cpu time spent up to now is      310.9 secs

     total energy              =   -4482.96687981 Ry
     estimated scf accuracy    <       0.46322430 Ry

     iteration # 21     ecut=    60.00 Ry     beta= 0.15
     Davidson diagonalization with overlap

---- Real-time Memory Report at c_bands before calling an iterative solver
             0 MiB given to the printing process from OS
             0 MiB allocation reported by mallinfo(arena+hblkhd)
         31062 MiB available memory on the node where the printing process lives
------------------
     ethr =  9.13E-05,  avg # of iterations =  8.0

     negative rho (up, down):  8.387E-01 0.000E+00

     total cpu time spent up to now is      328.8 secs

     total energy              =   -4482.97497374 Ry
     estimated scf accuracy    <       0.05847962 Ry

     iteration # 22     ecut=    60.00 Ry     beta= 0.15
     Davidson diagonalization with overlap

---- Real-time Memory Report at c_bands before calling an iterative solver
             0 MiB given to the printing process from OS
             0 MiB allocation reported by mallinfo(arena+hblkhd)
         31042 MiB available memory on the node where the printing process lives
------------------
     ethr =  1.34E-05,  avg # of iterations = 12.5

     negative rho (up, down):  8.421E-01 0.000E+00

     total cpu time spent up to now is      350.0 secs

     total energy              =   -4482.97438272 Ry
     estimated scf accuracy    <       0.04216724 Ry

     iteration # 23     ecut=    60.00 Ry     beta= 0.15
     Davidson diagonalization with overlap

---- Real-time Memory Report at c_bands before calling an iterative solver
             0 MiB given to the printing process from OS
             0 MiB allocation reported by mallinfo(arena+hblkhd)
         30872 MiB available memory on the node where the printing process lives
------------------
     ethr =  9.65E-06,  avg # of iterations =  1.9

     negative rho (up, down):  8.174E-01 0.000E+00

     total cpu time spent up to now is      364.3 secs

     total energy              =   -4482.96785687 Ry
     estimated scf accuracy    <       0.02872867 Ry

     iteration # 24     ecut=    60.00 Ry     beta= 0.15
     Davidson diagonalization with overlap

---- Real-time Memory Report at c_bands before calling an iterative solver
             0 MiB given to the printing process from OS
             0 MiB allocation reported by mallinfo(arena+hblkhd)
         30853 MiB available memory on the node where the printing process lives
------------------
     ethr =  6.57E-06,  avg # of iterations = 11.8

     negative rho (up, down):  8.207E-01 0.000E+00

     total cpu time spent up to now is      383.8 secs

     total energy              =   -4482.96836749 Ry
     estimated scf accuracy    <       0.01273800 Ry

     iteration # 25     ecut=    60.00 Ry     beta= 0.15
     Davidson diagonalization with overlap

---- Real-time Memory Report at c_bands before calling an iterative solver
             0 MiB given to the printing process from OS
             0 MiB allocation reported by mallinfo(arena+hblkhd)
         30845 MiB available memory on the node where the printing process lives
------------------
     ethr =  2.91E-06,  avg # of iterations =  9.4

     negative rho (up, down):  8.069E-01 0.000E+00

     total cpu time spent up to now is      402.2 secs

     total energy              =   -4482.96724641 Ry
     estimated scf accuracy    <       0.00865650 Ry

     iteration # 26     ecut=    60.00 Ry     beta= 0.15
     Davidson diagonalization with overlap

---- Real-time Memory Report at c_bands before calling an iterative solver
             0 MiB given to the printing process from OS
             0 MiB allocation reported by mallinfo(arena+hblkhd)
         30816 MiB available memory on the node where the printing process lives
------------------
     ethr =  1.98E-06,  avg # of iterations =  5.7

     negative rho (up, down):  7.952E-01 0.000E+00

     total cpu time spent up to now is      418.6 secs

     total energy              =   -4482.96645446 Ry
     estimated scf accuracy    <       0.00505228 Ry

     iteration # 27     ecut=    60.00 Ry     beta= 0.15
     Davidson diagonalization with overlap

---- Real-time Memory Report at c_bands before calling an iterative solver
             0 MiB given to the printing process from OS
             0 MiB allocation reported by mallinfo(arena+hblkhd)
         30804 MiB available memory on the node where the printing process lives
------------------
     ethr =  1.16E-06,  avg # of iterations =  8.9

     negative rho (up, down):  7.947E-01 0.000E+00

     total cpu time spent up to now is      437.9 secs

     total energy              =   -4482.96665818 Ry
     estimated scf accuracy    <       0.00173417 Ry

     iteration # 28     ecut=    60.00 Ry     beta= 0.15
     Davidson diagonalization with overlap

---- Real-time Memory Report at c_bands before calling an iterative solver
             0 MiB given to the printing process from OS
             0 MiB allocation reported by mallinfo(arena+hblkhd)
         30755 MiB available memory on the node where the printing process lives
------------------
     ethr =  3.97E-07,  avg # of iterations =  2.1

     negative rho (up, down):  7.945E-01 0.000E+00

     total cpu time spent up to now is      452.7 secs

     total energy              =   -4482.96661881 Ry
     estimated scf accuracy    <       0.00121353 Ry

     iteration # 29     ecut=    60.00 Ry     beta= 0.15
     Davidson diagonalization with overlap

---- Real-time Memory Report at c_bands before calling an iterative solver
             0 MiB given to the printing process from OS
             0 MiB allocation reported by mallinfo(arena+hblkhd)
         30761 MiB available memory on the node where the printing process lives
------------------
     ethr =  2.78E-07,  avg # of iterations =  3.2

     negative rho (up, down):  7.934E-01 0.000E+00

     total cpu time spent up to now is      467.7 secs

     total energy              =   -4482.96660981 Ry
     estimated scf accuracy    <       0.00070141 Ry

     iteration # 30     ecut=    60.00 Ry     beta= 0.15
     Davidson diagonalization with overlap

---- Real-time Memory Report at c_bands before calling an iterative solver
             0 MiB given to the printing process from OS
             0 MiB allocation reported by mallinfo(arena+hblkhd)
         30786 MiB available memory on the node where the printing process lives
------------------
     ethr =  1.61E-07,  avg # of iterations =  5.0

     negative rho (up, down):  7.932E-01 0.000E+00

     total cpu time spent up to now is      483.5 secs

     total energy              =   -4482.96659184 Ry
     estimated scf accuracy    <       0.00039961 Ry

     iteration # 31     ecut=    60.00 Ry     beta= 0.15
     Davidson diagonalization with overlap

---- Real-time Memory Report at c_bands before calling an iterative solver
             0 MiB given to the printing process from OS
             0 MiB allocation reported by mallinfo(arena+hblkhd)
         30833 MiB available memory on the node where the printing process lives
------------------
     ethr =  9.14E-08,  avg # of iterations =  9.7

     negative rho (up, down):  7.929E-01 0.000E+00

     total cpu time spent up to now is      501.1 secs

     total energy              =   -4482.96658791 Ry
     estimated scf accuracy    <       0.00014952 Ry

     iteration # 32     ecut=    60.00 Ry     beta= 0.15
     Davidson diagonalization with overlap

---- Real-time Memory Report at c_bands before calling an iterative solver
             0 MiB given to the printing process from OS
             0 MiB allocation reported by mallinfo(arena+hblkhd)
         30854 MiB available memory on the node where the printing process lives
------------------
     ethr =  3.42E-08,  avg # of iterations =  3.7

     negative rho (up, down):  7.926E-01 0.000E+00

     total cpu time spent up to now is      516.3 secs

     total energy              =   -4482.96658564 Ry
     estimated scf accuracy    <       0.00009752 Ry

     iteration # 33     ecut=    60.00 Ry     beta= 0.15
     Davidson diagonalization with overlap

---- Real-time Memory Report at c_bands before calling an iterative solver
             0 MiB given to the printing process from OS
             0 MiB allocation reported by mallinfo(arena+hblkhd)
         30855 MiB available memory on the node where the printing process lives
------------------
     ethr =  2.23E-08,  avg # of iterations =  2.9

     negative rho (up, down):  7.922E-01 0.000E+00

     total cpu time spent up to now is      531.1 secs

     total energy              =   -4482.96659052 Ry
     estimated scf accuracy    <       0.00006453 Ry

     iteration # 34     ecut=    60.00 Ry     beta= 0.15
     Davidson diagonalization with overlap

---- Real-time Memory Report at c_bands before calling an iterative solver
             0 MiB given to the printing process from OS
             0 MiB allocation reported by mallinfo(arena+hblkhd)
         30925 MiB available memory on the node where the printing process lives
------------------
     ethr =  1.48E-08,  avg # of iterations =  3.7

     negative rho (up, down):  7.921E-01 0.000E+00

     total cpu time spent up to now is      546.3 secs

     total energy              =   -4482.96659731 Ry
     estimated scf accuracy    <       0.00002390 Ry

     iteration # 35     ecut=    60.00 Ry     beta= 0.15
     Davidson diagonalization with overlap

---- Real-time Memory Report at c_bands before calling an iterative solver
             0 MiB given to the printing process from OS
             0 MiB allocation reported by mallinfo(arena+hblkhd)
         30912 MiB available memory on the node where the printing process lives
------------------
     ethr =  5.47E-09,  avg # of iterations =  2.7

     negative rho (up, down):  7.921E-01 0.000E+00

     total cpu time spent up to now is      561.1 secs

     total energy              =   -4482.96660378 Ry
     estimated scf accuracy    <       0.00001829 Ry

     iteration # 36     ecut=    60.00 Ry     beta= 0.15
     Davidson diagonalization with overlap

---- Real-time Memory Report at c_bands before calling an iterative solver
             0 MiB given to the printing process from OS
             0 MiB allocation reported by mallinfo(arena+hblkhd)
         30911 MiB available memory on the node where the printing process lives
------------------
     ethr =  4.19E-09,  avg # of iterations =  3.2

     negative rho (up, down):  7.922E-01 0.000E+00

     total cpu time spent up to now is      576.3 secs

     total energy              =   -4482.96660881 Ry
     estimated scf accuracy    <       0.00000926 Ry

     iteration # 37     ecut=    60.00 Ry     beta= 0.15
     Davidson diagonalization with overlap

---- Real-time Memory Report at c_bands before calling an iterative solver
             0 MiB given to the printing process from OS
             0 MiB allocation reported by mallinfo(arena+hblkhd)
         30915 MiB available memory on the node where the printing process lives
------------------
     ethr =  2.12E-09,  avg # of iterations =  4.4

     negative rho (up, down):  7.922E-01 0.000E+00

     total cpu time spent up to now is      592.1 secs

     total energy              =   -4482.96661039 Ry
     estimated scf accuracy    <       0.00000534 Ry

     iteration # 38     ecut=    60.00 Ry     beta= 0.15
     Davidson diagonalization with overlap

---- Real-time Memory Report at c_bands before calling an iterative solver
             0 MiB given to the printing process from OS
             0 MiB allocation reported by mallinfo(arena+hblkhd)
         30907 MiB available memory on the node where the printing process lives
------------------
     ethr =  1.22E-09,  avg # of iterations =  3.2

     negative rho (up, down):  7.923E-01 0.000E+00

     total cpu time spent up to now is      607.3 secs

     total energy              =   -4482.96661074 Ry
     estimated scf accuracy    <       0.00000351 Ry

     iteration # 39     ecut=    60.00 Ry     beta= 0.15
     Davidson diagonalization with overlap

---- Real-time Memory Report at c_bands before calling an iterative solver
             0 MiB given to the printing process from OS
             0 MiB allocation reported by mallinfo(arena+hblkhd)
         30914 MiB available memory on the node where the printing process lives
------------------
     ethr =  8.02E-10,  avg # of iterations =  2.8

     negative rho (up, down):  7.924E-01 0.000E+00

     total cpu time spent up to now is      622.0 secs

     total energy              =   -4482.96661074 Ry
     estimated scf accuracy    <       0.00000236 Ry

     iteration # 40     ecut=    60.00 Ry     beta= 0.15
     Davidson diagonalization with overlap

---- Real-time Memory Report at c_bands before calling an iterative solver
             0 MiB given to the printing process from OS
             0 MiB allocation reported by mallinfo(arena+hblkhd)
         30928 MiB available memory on the node where the printing process lives
------------------
     ethr =  5.40E-10,  avg # of iterations =  3.6

     negative rho (up, down):  7.924E-01 0.000E+00

     total cpu time spent up to now is      637.4 secs

     total energy              =   -4482.96661102 Ry
     estimated scf accuracy    <       0.00000131 Ry

     iteration # 41     ecut=    60.00 Ry     beta= 0.15
     Davidson diagonalization with overlap

---- Real-time Memory Report at c_bands before calling an iterative solver
             0 MiB given to the printing process from OS
             0 MiB allocation reported by mallinfo(arena+hblkhd)
         30961 MiB available memory on the node where the printing process lives
------------------
     ethr =  3.00E-10,  avg # of iterations =  2.4

     negative rho (up, down):  7.924E-01 0.000E+00

     total cpu time spent up to now is      652.0 secs

     total energy              =   -4482.96661121 Ry
     estimated scf accuracy    <       0.00000098 Ry

     iteration # 42     ecut=    60.00 Ry     beta= 0.15
     Davidson diagonalization with overlap

---- Real-time Memory Report at c_bands before calling an iterative solver
             0 MiB given to the printing process from OS
             0 MiB allocation reported by mallinfo(arena+hblkhd)
         30955 MiB available memory on the node where the printing process lives
------------------
     ethr =  2.24E-10,  avg # of iterations =  4.2

     negative rho (up, down):  7.923E-01 0.000E+00

     total cpu time spent up to now is      667.7 secs

     total energy              =   -4482.96661122 Ry
     estimated scf accuracy    <       0.00000060 Ry

     iteration # 43     ecut=    60.00 Ry     beta= 0.15
     Davidson diagonalization with overlap

---- Real-time Memory Report at c_bands before calling an iterative solver
             0 MiB given to the printing process from OS
             0 MiB allocation reported by mallinfo(arena+hblkhd)
         30945 MiB available memory on the node where the printing process lives
------------------
     ethr =  1.37E-10,  avg # of iterations =  3.9

     negative rho (up, down):  7.923E-01 0.000E+00

     total cpu time spent up to now is      682.9 secs

     total energy              =   -4482.96661112 Ry
     estimated scf accuracy    <       0.00000029 Ry

     iteration # 44     ecut=    60.00 Ry     beta= 0.15
     Davidson diagonalization with overlap

---- Real-time Memory Report at c_bands before calling an iterative solver
             0 MiB given to the printing process from OS
             0 MiB allocation reported by mallinfo(arena+hblkhd)
         30940 MiB available memory on the node where the printing process lives
------------------
     ethr =  6.61E-11,  avg # of iterations =  4.4

     negative rho (up, down):  7.923E-01 0.000E+00

     total cpu time spent up to now is      700.1 secs

     total energy              =   -4482.96661114 Ry
     estimated scf accuracy    <       0.00000007 Ry

     iteration # 45     ecut=    60.00 Ry     beta= 0.15
     Davidson diagonalization with overlap

---- Real-time Memory Report at c_bands before calling an iterative solver
             0 MiB given to the printing process from OS
             0 MiB allocation reported by mallinfo(arena+hblkhd)
         30921 MiB available memory on the node where the printing process lives
------------------
     ethr =  1.50E-11,  avg # of iterations =  2.6

     negative rho (up, down):  7.923E-01 0.000E+00

     total cpu time spent up to now is      715.2 secs

     total energy              =   -4482.96661116 Ry
     estimated scf accuracy    <       0.00000004 Ry

     iteration # 46     ecut=    60.00 Ry     beta= 0.15
     Davidson diagonalization with overlap

---- Real-time Memory Report at c_bands before calling an iterative solver
             0 MiB given to the printing process from OS
             0 MiB allocation reported by mallinfo(arena+hblkhd)
         30755 MiB available memory on the node where the printing process lives
------------------
     ethr =  9.76E-12,  avg # of iterations =  2.5

     negative rho (up, down):  7.923E-01 0.000E+00

     total cpu time spent up to now is      729.9 secs

     total energy              =   -4482.96661119 Ry
     estimated scf accuracy    <       0.00000003 Ry

     iteration # 47     ecut=    60.00 Ry     beta= 0.15
     Davidson diagonalization with overlap

---- Real-time Memory Report at c_bands before calling an iterative solver
             0 MiB given to the printing process from OS
             0 MiB allocation reported by mallinfo(arena+hblkhd)
         30796 MiB available memory on the node where the printing process lives
------------------
     ethr =  7.45E-12,  avg # of iterations =  4.2

     negative rho (up, down):  7.923E-01 0.000E+00

     total cpu time spent up to now is      745.3 secs

     total energy              =   -4482.96661121 Ry
     estimated scf accuracy    <       0.00000002 Ry

     iteration # 48     ecut=    60.00 Ry     beta= 0.15
     Davidson diagonalization with overlap

---- Real-time Memory Report at c_bands before calling an iterative solver
             0 MiB given to the printing process from OS
             0 MiB allocation reported by mallinfo(arena+hblkhd)
         30744 MiB available memory on the node where the printing process lives
------------------
     ethr =  5.14E-12,  avg # of iterations =  4.3

     negative rho (up, down):  7.923E-01 0.000E+00

     total cpu time spent up to now is      760.8 secs

     total energy              =   -4482.96661121 Ry
     estimated scf accuracy    <       0.00000002 Ry

     iteration # 49     ecut=    60.00 Ry     beta= 0.15
     Davidson diagonalization with overlap

---- Real-time Memory Report at c_bands before calling an iterative solver
             0 MiB given to the printing process from OS
             0 MiB allocation reported by mallinfo(arena+hblkhd)
         30840 MiB available memory on the node where the printing process lives
------------------
     ethr =  4.03E-12,  avg # of iterations =  3.7

     negative rho (up, down):  7.923E-01 0.000E+00

     total cpu time spent up to now is      776.3 secs

     total energy              =   -4482.96661122 Ry
     estimated scf accuracy    <       0.00000001 Ry

     iteration # 50     ecut=    60.00 Ry     beta= 0.15
     Davidson diagonalization with overlap

---- Real-time Memory Report at c_bands before calling an iterative solver
             0 MiB given to the printing process from OS
             0 MiB allocation reported by mallinfo(arena+hblkhd)
         30816 MiB available memory on the node where the printing process lives
------------------
     ethr =  3.15E-12,  avg # of iterations =  3.3

     negative rho (up, down):  7.923E-01 0.000E+00

     total cpu time spent up to now is      791.3 secs

     total energy              =   -4482.96661122 Ry
     estimated scf accuracy    <       0.00000001 Ry

     iteration # 51     ecut=    60.00 Ry     beta= 0.15
     Davidson diagonalization with overlap

---- Real-time Memory Report at c_bands before calling an iterative solver
             0 MiB given to the printing process from OS
             0 MiB allocation reported by mallinfo(arena+hblkhd)
         30820 MiB available memory on the node where the printing process lives
------------------
     ethr =  2.48E-12,  avg # of iterations =  3.7

     negative rho (up, down):  7.923E-01 0.000E+00

     total cpu time spent up to now is      806.6 secs

     End of self-consistent calculation

          k = 0.0000 0.0000 0.0000 ( 65197 PWs)   bands (ev):

   -92.3216 -92.2640 -92.1749 -92.1270 -92.0669 -92.0275 -92.0102 -91.8857
   -55.6748 -55.6500 -55.5329 -55.5226 -55.5138 -55.5093 -55.4696 -55.4446
   -55.4282 -55.4265 -55.4158 -55.3755 -55.3586 -55.3188 -55.3007 -55.2667
   -55.2626 -55.2164 -55.2134 -55.2130 -55.2048 -55.1600 -55.1410 -55.0531
   -30.9080 -30.8890 -30.7497 -30.7480 -30.6659 -30.6613 -30.5956 -30.4835
   -29.4732 -29.4299 -29.4039 -29.2956 -22.2424 -14.7067 -14.6733 -14.5854
   -14.4551 -14.2744 -14.1510 -13.8480 -13.8321 -13.7985 -13.7626 -13.7543
   -13.7171 -13.7090 -13.6928 -13.6765 -13.6574 -13.6187 -13.5565 -13.4090
   -13.2436 -13.1991 -13.1658 -13.1428 -13.1209 -13.0761 -13.0352 -12.9550
   -12.8822 -12.7852 -12.7655 -12.7408 -12.7308 -12.7062 -12.6887 -12.6785
   -12.6383 -12.6269 -12.5968 -12.5703 -12.5624 -12.5498 -12.5415 -12.5286
   -12.5090 -12.4819 -12.4503 -12.4158 -12.3748 -12.3634 -11.9733 -11.8283
   -11.7106 -11.6522 -11.4873 -11.4125 -11.4012 -11.3794 -11.3617 -11.2976
   -11.2802 -11.2457 -11.2166 -11.1057 -11.0248 -11.0213  -5.7805  -3.1500
    -3.1456  -2.5677  -2.3338  -2.1045  -1.9588  -1.8943  -1.7509  -1.4456
    -1.4314  -1.4094  -1.3291  -1.3099  -1.2417  -1.2260  -1.1835  -1.1390
    -0.9583  -0.7374  -0.7076  -0.5548  -0.5415  -0.4992  -0.4808  -0.4364
    -0.4210  -0.3587  -0.3324  -0.2657  -0.2526  -0.1712  -0.0453  -0.0306
    -0.0024   0.0637   0.0808   0.0949   0.1655   0.2441   0.2798   0.3362
     0.3645   0.4137   0.4962   0.5542   0.5707   0.5822   0.8353   0.8505
     1.0249   1.0949   1.1602   1.1889   1.2901   1.3064   1.3179   1.3918
     1.4194   1.4539   1.5138   1.6488   1.7028   1.7210   1.7350   1.7471
     1.8197   1.8993   1.9893   2.0009   2.0647   2.0868   2.1221   2.1418
     2.1471   2.2038   2.2521   2.2803   2.2945   2.3332   2.3957   2.5245
     2.6039   2.6540   2.6624   2.8191   2.8330   2.8800   2.8909   2.9880
     3.0303   3.0543   3.0738   3.0850   3.0902   3.1027   3.1674   3.2804
     3.3118   3.3278   3.3351   3.4015   3.4048   3.4298   3.4384   3.4452
     3.4558   3.4641   3.4764   3.4818   3.4960   3.5047   3.5127   3.5334
     3.5545   3.5598   3.5715   3.5975   3.7131   3.7561   4.4350   4.7412
     4.8318   5.1495   5.4009   5.5178   5.6713   6.2881   6.3340   6.3649
     6.6262   6.6337   6.6917   6.7395   6.9477   7.1605   7.3367   7.3714
     7.3868   7.6635   7.8070   7.9199   7.9474   7.9703   8.0192   8.1136
     8.3127   8.3293   8.3488   8.3897   8.5238   8.5725   8.5948

     occupation numbers 
     1.0000   1.0000   1.0000   1.0000   1.0000   1.0000   1.0000   1.0000
     1.0000   1.0000   1.0000   1.0000   1.0000   1.0000   1.0000   1.0000
     1.0000   1.0000   1.0000   1.0000   1.0000   1.0000   1.0000   1.0000
     1.0000   1.0000   1.0000   1.0000   1.0000   1.0000   1.0000   1.0000
     1.0000   1.0000   1.0000   1.0000   1.0000   1.0000   1.0000   1.0000
     1.0000   1.0000   1.0000   1.0000   1.0000   1.0000   1.0000   1.0000
     1.0000   1.0000   1.0000   1.0000   1.0000   1.0000   1.0000   1.0000
     1.0000   1.0000   1.0000   1.0000   1.0000   1.0000   1.0000   1.0000
     1.0000   1.0000   1.0000   1.0000   1.0000   1.0000   1.0000   1.0000
     1.0000   1.0000   1.0000   1.0000   1.0000   1.0000   1.0000   1.0000
     1.0000   1.0000   1.0000   1.0000   1.0000   1.0000   1.0000   1.0000
     1.0000   1.0000   1.0000   1.0000   1.0000   1.0000   1.0000   1.0000
     1.0000   1.0000   1.0000   1.0000   1.0000   1.0000   1.0000   1.0000
     1.0000   1.0000   1.0000   1.0000   1.0000   1.0000   1.0000   1.0000
     1.0000   1.0000   1.0000   1.0000   1.0000   1.0000   1.0000   1.0000
     1.0000   1.0000   1.0000   1.0000   1.0000   1.0000   1.0000   1.0000
     1.0000   1.0000   1.0000   1.0000   1.0000   1.0000   1.0000   1.0000
     1.0000   1.0000   1.0000   1.0000   1.0000   1.0000   1.0000   1.0000
     1.0000   1.0000   1.0000   1.0000   1.0000   1.0000   1.0000   1.0000
     1.0000   1.0000   1.0000   1.0000   1.0000   1.0000   1.0000   1.0000
     1.0000   0.9999   0.9999   0.9999   0.9998   0.9998   0.9998   0.9997
     0.9997   0.9996   0.9994   0.9989   0.9985   0.9984   0.9983   0.9982
     0.9974   0.9963   0.9946   0.9943   0.9926   0.9919   0.9906   0.9899
     0.9897   0.9871   0.9845   0.9828   0.9819   0.9792   0.9741   0.9602
     0.9490   0.9407   0.9392   0.9058   0.9023   0.8897   0.8867   0.8565
     0.8418   0.8331   0.8257   0.8214   0.8194   0.8145   0.7877   0.7358
     0.7204   0.7123   0.7086   0.6739   0.6721   0.6586   0.6539   0.6502
     0.6444   0.6397   0.6329   0.6299   0.6219   0.6170   0.6124   0.6006
     0.5884   0.5854   0.5786   0.5635   0.4953   0.4698   0.1392   0.0620
     0.0472   0.0160   0.0059   0.0036   0.0018   0.0001   0.0000   0.0000
     0.0000   0.0000   0.0000   0.0000   0.0000   0.0000   0.0000   0.0000
     0.0000   0.0000   0.0000   0.0000   0.0000   0.0000   0.0000   0.0000
     0.0000   0.0000   0.0000   0.0000   0.0000   0.0000   0.0000

          k = 0.0000 0.2500 0.0000 ( 65257 PWs)   bands (ev):

   -92.3216 -92.2640 -92.1749 -92.1270 -92.0669 -92.0275 -92.0102 -91.8857
   -55.6748 -55.6500 -55.5329 -55.5226 -55.5138 -55.5093 -55.4696 -55.4446
   -55.4282 -55.4265 -55.4158 -55.3755 -55.3586 -55.3188 -55.3007 -55.2667
   -55.2626 -55.2164 -55.2134 -55.2130 -55.2048 -55.1600 -55.1410 -55.0531
   -30.9078 -30.8888 -30.7494 -30.7482 -30.6662 -30.6615 -30.5953 -30.4837
   -29.4726 -29.4296 -29.4045 -29.2959 -22.2424 -14.6695 -14.6475 -14.5603
   -14.4260 -14.3123 -14.1411 -13.9936 -13.8135 -13.7863 -13.7633 -13.7588
   -13.7323 -13.6776 -13.6710 -13.6572 -13.6411 -13.6041 -13.4773 -13.4401
   -13.2783 -13.2668 -13.2079 -13.1748 -13.1355 -13.0909 -13.0535 -12.9735
   -12.9407 -12.8993 -12.8514 -12.7791 -12.7551 -12.7384 -12.7219 -12.6378
   -12.6099 -12.5908 -12.5656 -12.5434 -12.5326 -12.5106 -12.4968 -12.4882
   -12.4427 -12.4323 -12.4280 -12.4043 -12.2749 -12.2011 -12.0346 -11.8796
   -11.7663 -11.7192 -11.4528 -11.4093 -11.3819 -11.3534 -11.3367 -11.2897
   -11.2781 -11.2556 -11.2217 -11.1199 -11.0665 -11.0558  -5.7805  -3.1502
    -3.1456  -2.4326  -2.2094  -2.0728  -1.8903  -1.8469  -1.6819  -1.4658
    -1.3774  -1.3643  -1.3105  -1.2061  -1.1913  -1.1572  -1.1315  -1.0882
    -0.8894  -0.7620  -0.7494  -0.6752  -0.6622  -0.5576  -0.5262  -0.4722
    -0.4480  -0.4029  -0.3422  -0.3170  -0.2832  -0.2528  -0.2359  -0.2024
    -0.1293  -0.0767  -0.0257   0.0908   0.1068   0.1553   0.2773   0.3083
     0.3724   0.4231   0.4709   0.4988   0.5325   0.5909   0.8840   0.9714
     1.0014   1.0897   1.1319   1.1495   1.2796   1.2982   1.3942   1.4172
     1.4485   1.5629   1.6460   1.6789   1.6985   1.7125   1.7472   1.8080
     1.8324   1.8603   1.9098   1.9386   1.9680   2.0459   2.0740   2.1153
     2.1675   2.2235   2.2641   2.2837   2.3154   2.3425   2.4288   2.5608
     2.6300   2.6471   2.7329   2.7768   2.8156   2.8217   2.8860   2.9303
     3.0069   3.0443   3.0611   3.0853   3.1031   3.2413   3.2635   3.2954
     3.3144   3.3338   3.3430   3.3508   3.3592   3.3883   3.3903   3.4072
     3.4116   3.4246   3.4406   3.4504   3.4618   3.4845   3.4948   3.4995
     3.5348   3.5518   3.6123   3.9749   3.9857   4.2502   4.6208   4.7546
     4.9315   5.0904   5.4219   5.5665   5.7963   5.9162   6.1713   6.3247
     6.3464   6.4733   6.5418   6.7484   6.8804   7.0419   7.3054   7.4359
     7.5606   7.7408   7.8145   7.8713   7.9439   7.9867   8.0919   8.2006
     8.2252   8.4249   8.4769   8.5555   8.6008   8.6968   8.9465

     occupation numbers 
     1.0000   1.0000   1.0000   1.0000   1.0000   1.0000   1.0000   1.0000
     1.0000   1.0000   1.0000   1.0000   1.0000   1.0000   1.0000   1.0000
     1.0000   1.0000   1.0000   1.0000   1.0000   1.0000   1.0000   1.0000
     1.0000   1.0000   1.0000   1.0000   1.0000   1.0000   1.0000   1.0000
     1.0000   1.0000   1.0000   1.0000   1.0000   1.0000   1.0000   1.0000
     1.0000   1.0000   1.0000   1.0000   1.0000   1.0000   1.0000   1.0000
     1.0000   1.0000   1.0000   1.0000   1.0000   1.0000   1.0000   1.0000
     1.0000   1.0000   1.0000   1.0000   1.0000   1.0000   1.0000   1.0000
     1.0000   1.0000   1.0000   1.0000   1.0000   1.0000   1.0000   1.0000
     1.0000   1.0000   1.0000   1.0000   1.0000   1.0000   1.0000   1.0000
     1.0000   1.0000   1.0000   1.0000   1.0000   1.0000   1.0000   1.0000
     1.0000   1.0000   1.0000   1.0000   1.0000   1.0000   1.0000   1.0000
     1.0000   1.0000   1.0000   1.0000   1.0000   1.0000   1.0000   1.0000
     1.0000   1.0000   1.0000   1.0000   1.0000   1.0000   1.0000   1.0000
     1.0000   1.0000   1.0000   1.0000   1.0000   1.0000   1.0000   1.0000
     1.0000   1.0000   1.0000   1.0000   1.0000   1.0000   1.0000   1.0000
     1.0000   1.0000   1.0000   1.0000   1.0000   1.0000   1.0000   1.0000
     1.0000   1.0000   1.0000   1.0000   1.0000   1.0000   1.0000   1.0000
     1.0000   1.0000   1.0000   1.0000   1.0000   1.0000   1.0000   1.0000
     1.0000   1.0000   1.0000   1.0000   1.0000   1.0000   1.0000   1.0000
     1.0000   0.9999   0.9999   0.9999   0.9998   0.9998   0.9997   0.9997
     0.9996   0.9993   0.9989   0.9987   0.9986   0.9985   0.9982   0.9976
     0.9973   0.9969   0.9962   0.9956   0.9951   0.9931   0.9923   0.9909
     0.9888   0.9861   0.9838   0.9826   0.9805   0.9785   0.9710   0.9554
     0.9448   0.9419   0.9256   0.9159   0.9067   0.9052   0.8881   0.8750
     0.8501   0.8367   0.8305   0.8213   0.8143   0.7545   0.7440   0.7285
     0.7190   0.7093   0.7046   0.7006   0.6962   0.6809   0.6799   0.6709
     0.6685   0.6614   0.6527   0.6474   0.6411   0.6283   0.6226   0.6199
     0.5998   0.5900   0.5548   0.3443   0.3384   0.2091   0.0869   0.0596
     0.0343   0.0198   0.0054   0.0029   0.0010   0.0005   0.0001   0.0001
     0.0000   0.0000   0.0000   0.0000   0.0000   0.0000   0.0000   0.0000
     0.0000   0.0000   0.0000   0.0000   0.0000   0.0000   0.0000   0.0000
     0.0000   0.0000   0.0000   0.0000   0.0000   0.0000   0.0000

          k = 0.0000-0.5000 0.0000 ( 65180 PWs)   bands (ev):

   -92.3216 -92.2640 -92.1749 -92.1270 -92.0669 -92.0275 -92.0102 -91.8857
   -55.6748 -55.6500 -55.5329 -55.5226 -55.5138 -55.5093 -55.4696 -55.4446
   -55.4282 -55.4265 -55.4158 -55.3755 -55.3586 -55.3188 -55.3007 -55.2667
   -55.2626 -55.2164 -55.2134 -55.2130 -55.2048 -55.1600 -55.1410 -55.0531
   -30.9076 -30.8887 -30.7490 -30.7484 -30.6666 -30.6616 -30.5950 -30.4840
   -29.4719 -29.4293 -29.4052 -29.2962 -22.2424 -14.6391 -14.5897 -14.5385
   -14.4146 -14.3245 -14.1881 -14.0433 -13.9204 -13.7828 -13.7606 -13.7228
   -13.6794 -13.6636 -13.6213 -13.5996 -13.5532 -13.5404 -13.5097 -13.4744
   -13.4578 -13.4104 -13.2098 -13.1579 -13.1440 -13.0833 -13.0628 -12.9876
   -12.9738 -12.9255 -12.9149 -12.8497 -12.7478 -12.7374 -12.7163 -12.6776
   -12.6035 -12.5887 -12.5602 -12.5400 -12.5128 -12.5044 -12.4873 -12.4316
   -12.4192 -12.4080 -12.3357 -12.2823 -12.1458 -12.1336 -11.9801 -11.9548
   -11.8818 -11.8348 -11.4063 -11.4044 -11.3771 -11.3388 -11.3048 -11.2938
   -11.2514 -11.2475 -11.2035 -11.1413 -11.1273 -11.1129  -5.7805  -3.1503
    -3.1456  -2.2183  -2.1580  -2.0064  -1.9335  -1.6553  -1.5702  -1.4426
    -1.3034  -1.2708  -1.2480  -1.1693  -1.1384  -1.0569  -1.0215  -0.9465
    -0.9041  -0.8642  -0.8376  -0.7846  -0.7442  -0.6998  -0.6628  -0.6279
    -0.5947  -0.4838  -0.4383  -0.4074  -0.4064  -0.3201  -0.2871  -0.2639
    -0.2168  -0.1341  -0.0626   0.0117   0.0403   0.1496   0.2003   0.3451
     0.3623   0.4033   0.4488   0.5813   0.6256   0.7674   0.8305   0.8386
     0.9676   1.0017   1.1031   1.2461   1.3528   1.3831   1.4147   1.4242
     1.4584   1.4825   1.5201   1.5390   1.5476   1.6559   1.7147   1.7375
     1.7636   2.0203   2.0584   2.0808   2.1754   2.1946   2.2298   2.2483
     2.2818   2.2911   2.2932   2.3338   2.3718   2.3975   2.4206   2.4392
     2.4692   2.5241   2.6005   2.6265   2.8111   2.9771   2.9847   2.9992
     3.0381   3.0452   3.0561   3.0787   3.1021   3.1137   3.1223   3.1754
     3.1951   3.2712   3.2842   3.3509   3.3618   3.3853   3.3860   3.4073
     3.4103   3.4126   3.4176   3.4214   3.4342   3.4550   3.4554   3.5201
     3.5259   3.5414   3.5959   4.4833   4.5194   4.5460   4.6029   4.9647
     5.1221   5.2425   5.4658   5.5291   5.5827   5.8474   5.9617   5.9913
     6.2339   6.3869   6.3972   6.4151   7.0175   7.0845   7.1478   7.4148
     7.5605   7.5700   7.7597   7.9970   8.0810   8.0974   8.2299   8.3302
     8.4324   8.5685   8.6494   8.7124   8.7520   8.8594   8.9732

     occupation numbers 
     1.0000   1.0000   1.0000   1.0000   1.0000   1.0000   1.0000   1.0000
     1.0000   1.0000   1.0000   1.0000   1.0000   1.0000   1.0000   1.0000
     1.0000   1.0000   1.0000   1.0000   1.0000   1.0000   1.0000   1.0000
     1.0000   1.0000   1.0000   1.0000   1.0000   1.0000   1.0000   1.0000
     1.0000   1.0000   1.0000   1.0000   1.0000   1.0000   1.0000   1.0000
     1.0000   1.0000   1.0000   1.0000   1.0000   1.0000   1.0000   1.0000
     1.0000   1.0000   1.0000   1.0000   1.0000   1.0000   1.0000   1.0000
     1.0000   1.0000   1.0000   1.0000   1.0000   1.0000   1.0000   1.0000
     1.0000   1.0000   1.0000   1.0000   1.0000   1.0000   1.0000   1.0000
     1.0000   1.0000   1.0000   1.0000   1.0000   1.0000   1.0000   1.0000
     1.0000   1.0000   1.0000   1.0000   1.0000   1.0000   1.0000   1.0000
     1.0000   1.0000   1.0000   1.0000   1.0000   1.0000   1.0000   1.0000
     1.0000   1.0000   1.0000   1.0000   1.0000   1.0000   1.0000   1.0000
     1.0000   1.0000   1.0000   1.0000   1.0000   1.0000   1.0000   1.0000
     1.0000   1.0000   1.0000   1.0000   1.0000   1.0000   1.0000   1.0000
     1.0000   1.0000   1.0000   1.0000   1.0000   1.0000   1.0000   1.0000
     1.0000   1.0000   1.0000   1.0000   1.0000   1.0000   1.0000   1.0000
     1.0000   1.0000   1.0000   1.0000   1.0000   1.0000   1.0000   1.0000
     1.0000   1.0000   1.0000   1.0000   1.0000   1.0000   1.0000   1.0000
     1.0000   1.0000   1.0000   1.0000   1.0000   1.0000   1.0000   1.0000
     1.0000   1.0000   0.9999   0.9999   0.9998   0.9997   0.9997   0.9996
     0.9996   0.9995   0.9994   0.9994   0.9993   0.9988   0.9984   0.9983
     0.9980   0.9938   0.9928   0.9921   0.9884   0.9875   0.9858   0.9847
     0.9827   0.9821   0.9820   0.9791   0.9761   0.9739   0.9718   0.9699
     0.9668   0.9603   0.9495   0.9454   0.9078   0.8601   0.8576   0.8527
     0.8390   0.8364   0.8324   0.8238   0.8147   0.8101   0.8066   0.7842
     0.7755   0.7403   0.7340   0.7005   0.6949   0.6825   0.6822   0.6708
     0.6692   0.6680   0.6653   0.6632   0.6562   0.6448   0.6446   0.6082
     0.6049   0.5960   0.5644   0.1239   0.1133   0.1059   0.0912   0.0307
     0.0177   0.0112   0.0045   0.0034   0.0027   0.0007   0.0004   0.0003
     0.0001   0.0000   0.0000   0.0000   0.0000   0.0000   0.0000   0.0000
     0.0000   0.0000   0.0000   0.0000   0.0000   0.0000   0.0000   0.0000
     0.0000   0.0000   0.0000   0.0000   0.0000   0.0000   0.0000

          k = 0.2500 0.2500 0.0000 ( 65198 PWs)   bands (ev):

   -92.3216 -92.2640 -92.1749 -92.1270 -92.0669 -92.0275 -92.0102 -91.8857
   -55.6748 -55.6500 -55.5329 -55.5226 -55.5138 -55.5093 -55.4696 -55.4446
   -55.4282 -55.4265 -55.4158 -55.3755 -55.3586 -55.3188 -55.3007 -55.2667
   -55.2626 -55.2164 -55.2134 -55.2130 -55.2048 -55.1600 -55.1410 -55.0531
   -30.9060 -30.8906 -30.7492 -30.7478 -30.6661 -30.6619 -30.5955 -30.4839
   -29.4716 -29.4306 -29.4041 -29.2963 -22.2424 -14.6419 -14.6117 -14.5326
   -14.4155 -14.3036 -14.1795 -14.0984 -13.9001 -13.7608 -13.7368 -13.7263
   -13.6919 -13.6615 -13.6405 -13.6195 -13.5896 -13.5635 -13.4697 -13.4548
   -13.2931 -13.2809 -13.2504 -13.2299 -13.1997 -13.1412 -13.1009 -13.0561
   -12.9692 -12.9330 -12.8615 -12.7743 -12.7346 -12.7076 -12.6787 -12.6516
   -12.6303 -12.5951 -12.5787 -12.5658 -12.5439 -12.5116 -12.4832 -12.4611
   -12.4125 -12.3990 -12.3734 -12.3445 -12.2105 -12.0944 -12.0831 -11.9088
   -11.7967 -11.7682 -11.4249 -11.3929 -11.3824 -11.3749 -11.3127 -11.2775
   -11.2711 -11.2358 -11.2279 -11.1364 -11.0948 -11.0772  -5.7805  -3.1501
    -3.1458  -2.2946  -2.0837  -1.9670  -1.8735  -1.7510  -1.6851  -1.4911
    -1.3431  -1.3224  -1.2968  -1.2011  -1.1669  -1.0739  -1.0474  -0.9972
    -0.8642  -0.8175  -0.7463  -0.6997  -0.6568  -0.6310  -0.6054  -0.5641
    -0.5479  -0.4587  -0.4087  -0.3481  -0.2978  -0.2674  -0.2136  -0.2038
    -0.1411  -0.0913  -0.0423  -0.0004   0.0796   0.1360   0.1638   0.2068
     0.2596   0.3273   0.3718   0.3924   0.4637   0.4996   0.7776   0.9212
     0.9631   1.0112   1.0601   1.1028   1.1743   1.2263   1.2628   1.5356
     1.6097   1.6842   1.7117   1.7514   1.7907   1.8244   1.8617   1.8791
     1.9079   1.9456   1.9550   1.9754   2.0118   2.0538   2.0959   2.1438
     2.1834   2.1921   2.2247   2.2618   2.3150   2.3412   2.4718   2.5394
     2.5807   2.6102   2.6616   2.7373   2.7675   2.8056   2.8284   2.8394
     2.9517   2.9869   3.0737   3.0867   3.0997   3.2523   3.2694   3.2763
     3.2917   3.3050   3.3183   3.3316   3.3394   3.3484   3.3621   3.3730
     3.3936   3.3996   3.4109   3.4308   3.4455   3.4554   3.4860   3.7884
     3.8806   3.9136   3.9809   4.0046   4.2172   4.3301   4.6612   4.7999
     5.0088   5.1382   5.3418   5.6218   5.8987   5.9314   6.0099   6.1367
     6.2196   6.2577   6.3587   6.4321   6.8992   7.0046   7.0943   7.1683
     7.7239   7.7949   7.8320   7.8922   8.0393   8.1557   8.2444   8.2661
     8.3463   8.4556   8.5952   8.6725   8.7156   8.7471   8.8462

     occupation numbers 
     1.0000   1.0000   1.0000   1.0000   1.0000   1.0000   1.0000   1.0000
     1.0000   1.0000   1.0000   1.0000   1.0000   1.0000   1.0000   1.0000
     1.0000   1.0000   1.0000   1.0000   1.0000   1.0000   1.0000   1.0000
     1.0000   1.0000   1.0000   1.0000   1.0000   1.0000   1.0000   1.0000
     1.0000   1.0000   1.0000   1.0000   1.0000   1.0000   1.0000   1.0000
     1.0000   1.0000   1.0000   1.0000   1.0000   1.0000   1.0000   1.0000
     1.0000   1.0000   1.0000   1.0000   1.0000   1.0000   1.0000   1.0000
     1.0000   1.0000   1.0000   1.0000   1.0000   1.0000   1.0000   1.0000
     1.0000   1.0000   1.0000   1.0000   1.0000   1.0000   1.0000   1.0000
     1.0000   1.0000   1.0000   1.0000   1.0000   1.0000   1.0000   1.0000
     1.0000   1.0000   1.0000   1.0000   1.0000   1.0000   1.0000   1.0000
     1.0000   1.0000   1.0000   1.0000   1.0000   1.0000   1.0000   1.0000
     1.0000   1.0000   1.0000   1.0000   1.0000   1.0000   1.0000   1.0000
     1.0000   1.0000   1.0000   1.0000   1.0000   1.0000   1.0000   1.0000
     1.0000   1.0000   1.0000   1.0000   1.0000   1.0000   1.0000   1.0000
     1.0000   1.0000   1.0000   1.0000   1.0000   1.0000   1.0000   1.0000
     1.0000   1.0000   1.0000   1.0000   1.0000   1.0000   1.0000   1.0000
     1.0000   1.0000   1.0000   1.0000   1.0000   1.0000   1.0000   1.0000
     1.0000   1.0000   1.0000   1.0000   1.0000   1.0000   1.0000   1.0000
     1.0000   1.0000   1.0000   1.0000   1.0000   1.0000   1.0000   1.0000
     1.0000   1.0000   1.0000   0.9999   0.9999   0.9999   0.9999   0.9994
     0.9991   0.9987   0.9985   0.9981   0.9978   0.9974   0.9969   0.9966
     0.9962   0.9955   0.9953   0.9949   0.9940   0.9929   0.9916   0.9898
     0.9881   0.9877   0.9860   0.9839   0.9805   0.9786   0.9665   0.9583
     0.9525   0.9480   0.9394   0.9246   0.9181   0.9092   0.9035   0.9007
     0.8684   0.8569   0.8258   0.8208   0.8156   0.7493   0.7411   0.7378
     0.7303   0.7237   0.7171   0.7104   0.7064   0.7018   0.6947   0.6890
     0.6782   0.6749   0.6689   0.6581   0.6500   0.6446   0.6275   0.4507
     0.3972   0.3784   0.3410   0.3283   0.2235   0.1767   0.0778   0.0520
     0.0264   0.0167   0.0075   0.0022   0.0006   0.0005   0.0003   0.0002
     0.0001   0.0001   0.0000   0.0000   0.0000   0.0000   0.0000   0.0000
     0.0000   0.0000   0.0000   0.0000   0.0000   0.0000   0.0000   0.0000
     0.0000   0.0000   0.0000   0.0000   0.0000   0.0000   0.0000

          k = 0.2500-0.5000 0.0000 ( 65138 PWs)   bands (ev):

   -92.3216 -92.2640 -92.1749 -92.1270 -92.0669 -92.0275 -92.0102 -91.8857
   -55.6748 -55.6500 -55.5329 -55.5226 -55.5138 -55.5093 -55.4696 -55.4446
   -55.4282 -55.4265 -55.4158 -55.3755 -55.3586 -55.3188 -55.3007 -55.2667
   -55.2626 -55.2164 -55.2134 -55.2130 -55.2048 -55.1600 -55.1410 -55.0531
   -30.9058 -30.8904 -30.7488 -30.7480 -30.6664 -30.6620 -30.5952 -30.4842
   -29.4710 -29.4303 -29.4048 -29.2967 -22.2424 -14.6090 -14.5627 -14.4956
   -14.3831 -14.3486 -14.2279 -14.1443 -14.0160 -13.7606 -13.7000 -13.6548
   -13.6242 -13.6052 -13.5874 -13.5711 -13.5394 -13.5278 -13.4912 -13.4490
   -13.4375 -13.4033 -13.2937 -13.2455 -13.2177 -13.1659 -13.1225 -13.0964
   -13.0185 -12.9915 -12.8375 -12.7734 -12.7545 -12.6885 -12.6616 -12.6464
   -12.6194 -12.6007 -12.5750 -12.5510 -12.5432 -12.4994 -12.4859 -12.4557
   -12.4233 -12.4188 -12.2862 -12.2548 -12.1524 -12.1110 -11.9535 -11.9519
   -11.8761 -11.8354 -11.4003 -11.3885 -11.3774 -11.3501 -11.3188 -11.2903
   -11.2493 -11.2215 -11.1994 -11.1544 -11.1283 -11.1170  -5.7805  -3.1503
    -3.1458  -2.0771  -2.0102  -1.8806  -1.8025  -1.6759  -1.5908  -1.4671
    -1.3155  -1.2643  -1.2409  -1.1775  -1.1640  -1.0676  -1.0006  -0.9145
    -0.8682  -0.8583  -0.7929  -0.7538  -0.7163  -0.6698  -0.6333  -0.5980
    -0.5570  -0.5469  -0.5011  -0.4730  -0.4326  -0.4015  -0.3337  -0.2359
    -0.1943  -0.1178  -0.0548  -0.0087   0.0387   0.0623   0.1065   0.2718
     0.2859   0.3751   0.4242   0.4317   0.4765   0.5056   0.5509   0.5753
     0.6493   0.9054   0.9961   1.0668   1.1412   1.3919   1.4209   1.5090
     1.5362   1.7065   1.7358   1.7819   1.8064   1.8249   1.8437   1.9024
     1.9439   1.9846   2.0591   2.1435   2.1887   2.2091   2.2190   2.2594
     2.2720   2.2753   2.3208   2.3355   2.3530   2.3737   2.4067   2.4312
     2.4602   2.5216   2.5559   2.6320   2.7791   2.9308   2.9462   2.9641
     2.9893   3.0127   3.0416   3.0680   3.0760   3.0797   3.1003   3.1160
     3.2011   3.2502   3.2694   3.2716   3.2891   3.3096   3.3235   3.3422
     3.3491   3.3784   3.3908   3.4073   3.4158   3.4236   3.4362   3.9510
     3.9583   4.1198   4.1683   4.5035   4.5486   4.5587   4.6727   5.0336
     5.1459   5.2728   5.4727   5.5266   5.6281   5.6969   5.8774   5.9714
     6.0938   6.1092   6.2967   6.4812   6.5856   6.6520   7.0838   7.2588
     7.5065   7.6217   7.9750   8.0832   8.1905   8.2157   8.3604   8.4509
     8.5050   8.5805   8.6871   8.7466   8.8417   8.8834   8.9377

     occupation numbers 
     1.0000   1.0000   1.0000   1.0000   1.0000   1.0000   1.0000   1.0000
     1.0000   1.0000   1.0000   1.0000   1.0000   1.0000   1.0000   1.0000
     1.0000   1.0000   1.0000   1.0000   1.0000   1.0000   1.0000   1.0000
     1.0000   1.0000   1.0000   1.0000   1.0000   1.0000   1.0000   1.0000
     1.0000   1.0000   1.0000   1.0000   1.0000   1.0000   1.0000   1.0000
     1.0000   1.0000   1.0000   1.0000   1.0000   1.0000   1.0000   1.0000
     1.0000   1.0000   1.0000   1.0000   1.0000   1.0000   1.0000   1.0000
     1.0000   1.0000   1.0000   1.0000   1.0000   1.0000   1.0000   1.0000
     1.0000   1.0000   1.0000   1.0000   1.0000   1.0000   1.0000   1.0000
     1.0000   1.0000   1.0000   1.0000   1.0000   1.0000   1.0000   1.0000
     1.0000   1.0000   1.0000   1.0000   1.0000   1.0000   1.0000   1.0000
     1.0000   1.0000   1.0000   1.0000   1.0000   1.0000   1.0000   1.0000
     1.0000   1.0000   1.0000   1.0000   1.0000   1.0000   1.0000   1.0000
     1.0000   1.0000   1.0000   1.0000   1.0000   1.0000   1.0000   1.0000
     1.0000   1.0000   1.0000   1.0000   1.0000   1.0000   1.0000   1.0000
     1.0000   1.0000   1.0000   1.0000   1.0000   1.0000   1.0000   1.0000
     1.0000   1.0000   1.0000   1.0000   1.0000   1.0000   1.0000   1.0000
     1.0000   1.0000   1.0000   1.0000   1.0000   1.0000   1.0000   1.0000
     1.0000   1.0000   1.0000   1.0000   1.0000   1.0000   1.0000   1.0000
     1.0000   1.0000   1.0000   1.0000   1.0000   1.0000   1.0000   1.0000
     1.0000   1.0000   1.0000   1.0000   0.9999   0.9997   0.9997   0.9994
     0.9994   0.9985   0.9983   0.9979   0.9976   0.9974   0.9971   0.9963
     0.9955   0.9947   0.9927   0.9898   0.9878   0.9868   0.9863   0.9841
     0.9833   0.9831   0.9801   0.9790   0.9777   0.9760   0.9731   0.9707
     0.9677   0.9606   0.9560   0.9445   0.9154   0.8749   0.8701   0.8644
     0.8561   0.8480   0.8377   0.8279   0.8249   0.8234   0.8154   0.8091
     0.7729   0.7503   0.7411   0.7401   0.7316   0.7215   0.7145   0.7050
     0.7014   0.6862   0.6796   0.6708   0.6662   0.6620   0.6552   0.3575
     0.3535   0.2690   0.2458   0.1179   0.1052   0.1025   0.0754   0.0243
     0.0162   0.0100   0.0043   0.0034   0.0021   0.0015   0.0006   0.0004
     0.0002   0.0002   0.0001   0.0000   0.0000   0.0000   0.0000   0.0000
     0.0000   0.0000   0.0000   0.0000   0.0000   0.0000   0.0000   0.0000
     0.0000   0.0000   0.0000   0.0000   0.0000   0.0000   0.0000

          k =-0.5000-0.5000 0.0000 ( 65132 PWs)   bands (ev):

   -92.3216 -92.2640 -92.1749 -92.1270 -92.0669 -92.0275 -92.0102 -91.8857
   -55.6748 -55.6500 -55.5329 -55.5226 -55.5138 -55.5093 -55.4696 -55.4446
   -55.4282 -55.4265 -55.4158 -55.3755 -55.3586 -55.3188 -55.3007 -55.2667
   -55.2626 -55.2164 -55.2134 -55.2130 -55.2048 -55.1600 -55.1410 -55.0531
   -30.9036 -30.8927 -30.7486 -30.7476 -30.6663 -30.6624 -30.5954 -30.4844
   -29.4700 -29.4313 -29.4044 -29.2971 -22.2424 -14.5641 -14.5348 -14.4184
   -14.4075 -14.3151 -14.2749 -14.2474 -14.1148 -13.7606 -13.6136 -13.6036
   -13.5664 -13.5488 -13.5308 -13.5261 -13.4871 -13.4802 -13.4654 -13.4588
   -13.4423 -13.3630 -13.3563 -13.3350 -13.3178 -13.2934 -13.1990 -13.1889
   -13.0627 -13.0467 -12.7895 -12.7512 -12.6815 -12.6562 -12.6516 -12.6300
   -12.6158 -12.6082 -12.5947 -12.5823 -12.5378 -12.5036 -12.4924 -12.4673
   -12.4461 -12.4271 -12.2360 -12.2283 -12.1688 -12.0903 -11.9490 -11.9223
   -11.8758 -11.8347 -11.3967 -11.3845 -11.3667 -11.3499 -11.3153 -11.2976
   -11.2626 -11.2020 -11.1815 -11.1765 -11.1260 -11.1229  -5.7805  -3.1503
    -3.1460  -1.8548  -1.7774  -1.7652  -1.6948  -1.6553  -1.5766  -1.5091
    -1.3843  -1.2657  -1.2358  -1.1985  -1.1393  -1.0675  -1.0539  -0.9819
    -0.9396  -0.8242  -0.7979  -0.7487  -0.7151  -0.6515  -0.6092  -0.5886
    -0.5780  -0.5269  -0.4766  -0.4663  -0.3511  -0.2945  -0.2476  -0.1975
    -0.1763  -0.1649  -0.1256  -0.0848  -0.0539  -0.0361   0.0485   0.1142
     0.1653   0.1849   0.2615   0.3084   0.3337   0.3823   0.3923   0.4190
     0.4278   0.8717   0.9116   1.0088   1.0590   1.4273   1.4385   1.4724
     1.5105   1.7878   1.8075   1.8144   1.8501   1.9888   2.0851   2.1114
     2.1464   2.1546   2.1866   2.1941   2.2280   2.2339   2.2479   2.2558
     2.3144   2.3218   2.3461   2.3642   2.3750   2.3932   2.4296   2.4578
     2.4654   2.5041   2.5237   2.6044   2.6703   2.9449   2.9754   2.9938
     3.0141   3.0189   3.0498   3.0521   3.0699   3.0825   3.0942   3.0990
     3.1116   3.1266   3.1381   3.2025   3.2068   3.2269   3.2415   3.2521
     3.2703   3.2759   3.2854   3.3865   3.3915   3.4193   3.4290   4.3611
     4.3888   4.4287   4.4487   4.6961   4.7653   4.7964   5.0368   5.1489
     5.1634   5.2424   5.3763   5.4110   5.4269   5.5768   5.7043   5.7484
     5.9743   6.0031   6.1259   6.2899   6.5427   6.6669   6.7170   7.1143
     7.4976   7.5348   7.7125   8.2973   8.3184   8.3977   8.4710   8.5722
     8.6255   8.8098   8.8888   8.9127   8.9355   8.9625   8.9898

     occupation numbers 
     1.0000   1.0000   1.0000   1.0000   1.0000   1.0000   1.0000   1.0000
     1.0000   1.0000   1.0000   1.0000   1.0000   1.0000   1.0000   1.0000
     1.0000   1.0000   1.0000   1.0000   1.0000   1.0000   1.0000   1.0000
     1.0000   1.0000   1.0000   1.0000   1.0000   1.0000   1.0000   1.0000
     1.0000   1.0000   1.0000   1.0000   1.0000   1.0000   1.0000   1.0000
     1.0000   1.0000   1.0000   1.0000   1.0000   1.0000   1.0000   1.0000
[...]
     0.0000   0.0000   0.0000   0.0000   0.0000   0.0000   0.0000   0.0000
     0.0000   0.0000   0.0000   0.0000   0.0000   0.0000   0.0000

          k =-0.5000 0.0000 0.0000 ( 65180 PWs)   bands (ev):

   -92.3216 -92.2640 -92.1749 -92.1270 -92.0669 -92.0275 -92.0102 -91.8857
   -55.6748 -55.6500 -55.5329 -55.5226 -55.5138 -55.5093 -55.4696 -55.4446
   -55.4282 -55.4265 -55.4158 -55.3755 -55.3586 -55.3188 -55.3007 -55.2667
   -55.2626 -55.2164 -55.2134 -55.2130 -55.2048 -55.1600 -55.1410 -55.0531
   -30.9040 -30.8930 -30.7493 -30.7472 -30.6655 -30.6621 -30.5960 -30.4838
   -29.4712 -29.4320 -29.4031 -29.2964 -22.2424 -14.6418 -14.5954 -14.5318
   -14.4262 -14.3169 -14.1735 -14.0366 -13.8956 -13.7645 -13.7600 -13.7549
   -13.7331 -13.6859 -13.6224 -13.5899 -13.5496 -13.5385 -13.5232 -13.4675
   -13.4605 -13.3661 -13.1814 -13.1730 -13.1224 -13.1134 -13.0791 -12.9927
   -12.9790 -12.9001 -12.8819 -12.8766 -12.7431 -12.6848 -12.6765 -12.6741
   -12.6531 -12.6414 -12.5786 -12.5621 -12.5482 -12.5320 -12.4846 -12.4293
   -12.3956 -12.3727 -12.2706 -12.2616 -12.1717 -12.1489 -12.0016 -11.9588
   -11.8697 -11.8332 -11.4036 -11.3827 -11.3755 -11.3609 -11.3430 -11.3018
   -11.2383 -11.2207 -11.1883 -11.1438 -11.1344 -11.1183  -5.7805  -3.1499
    -3.1460  -2.2079  -2.1686  -2.0038  -1.9646  -1.6537  -1.5794  -1.4286
    -1.3106  -1.2725  -1.2276  -1.1783  -1.1516  -1.0306  -0.9847  -0.9724
    -0.8887  -0.8524  -0.8414  -0.8052  -0.7509  -0.6809  -0.6497  -0.6252
    -0.5298  -0.4800  -0.4328  -0.3997  -0.3773  -0.3504  -0.3003  -0.2759
    -0.2385  -0.1487  -0.0704  -0.0142   0.0518   0.2181   0.2491   0.3180
     0.3340   0.4047   0.4242   0.5580   0.5898   0.6250   0.8157   0.9133
     0.9596   1.0224   1.1080   1.2265   1.2434   1.3737   1.4011   1.4528
     1.4722   1.5173   1.5332   1.5766   1.6023   1.6650   1.7124   1.7604
     1.7673   2.0616   2.0708   2.0868   2.0994   2.2241   2.2316   2.2410
     2.2603   2.2855   2.2978   2.3351   2.3686   2.3879   2.4528   2.4566
     2.5127   2.5267   2.5919   2.6872   2.7971   2.8748   2.8901   2.9748
     3.0040   3.0286   3.0879   3.0915   3.0980   3.1040   3.1149   3.1421
     3.2114   3.2572   3.2965   3.3320   3.3743   3.3800   3.3808   3.3937
     3.4060   3.4190   3.4342   3.4364   3.4589   3.4635   3.4866   3.5066
     3.5111   3.6396   3.6444   4.4244   4.4783   4.5416   4.6904   4.9713
     5.1565   5.2380   5.3587   5.5527   5.6219   5.9035   5.9245   6.0157
     6.1720   6.3623   6.4025   6.4183   6.9645   7.0904   7.2060   7.4466
     7.5536   7.6350   7.7077   7.9254   8.1070   8.1168   8.2119   8.3285
     8.4887   8.5836   8.6293   8.6884   8.7647   8.8753   8.9826

     occupation numbers 
     1.0000   1.0000   1.0000   1.0000   1.0000   1.0000   1.0000   1.0000
     1.0000   1.0000   1.0000   1.0000   1.0000   1.0000   1.0000   1.0000
     1.0000   1.0000   1.0000   1.0000   1.0000   1.0000   1.0000   1.0000
     1.0000   1.0000   1.0000   1.0000   1.0000   1.0000   1.0000   1.0000
     1.0000   1.0000   1.0000   1.0000   1.0000   1.0000   1.0000   1.0000
     1.0000   1.0000   1.0000   1.0000   1.0000   1.0000   1.0000   1.0000
     1.0000   1.0000   1.0000   1.0000   1.0000   1.0000   1.0000   1.0000
     1.0000   1.0000   1.0000   1.0000   1.0000   1.0000   1.0000   1.0000
     1.0000   1.0000   1.0000   1.0000   1.0000   1.0000   1.0000   1.0000
     1.0000   1.0000   1.0000   1.0000   1.0000   1.0000   1.0000   1.0000
     1.0000   1.0000   1.0000   1.0000   1.0000   1.0000   1.0000   1.0000
     1.0000   1.0000   1.0000   1.0000   1.0000   1.0000   1.0000   1.0000
     1.0000   1.0000   1.0000   1.0000   1.0000   1.0000   1.0000   1.0000
     1.0000   1.0000   1.0000   1.0000   1.0000   1.0000   1.0000   1.0000
     1.0000   1.0000   1.0000   1.0000   1.0000   1.0000   1.0000   1.0000
     1.0000   1.0000   1.0000   1.0000   1.0000   1.0000   1.0000   1.0000
     1.0000   1.0000   1.0000   1.0000   1.0000   1.0000   1.0000   1.0000
     1.0000   1.0000   1.0000   1.0000   1.0000   1.0000   1.0000   1.0000
     1.0000   1.0000   1.0000   1.0000   1.0000   1.0000   1.0000   1.0000
     1.0000   1.0000   1.0000   1.0000   1.0000   1.0000   1.0000   1.0000
     1.0000   1.0000   0.9999   0.9999   0.9999   0.9997   0.9997   0.9996
     0.9995   0.9994   0.9994   0.9992   0.9991   0.9988   0.9985   0.9981
     0.9980   0.9927   0.9924   0.9919   0.9914   0.9861   0.9857   0.9851
     0.9840   0.9825   0.9817   0.9790   0.9764   0.9748   0.9685   0.9681
     0.9617   0.9599   0.9508   0.9347   0.9112   0.8912   0.8869   0.8609
     0.8510   0.8424   0.8203   0.8189   0.8163   0.8139   0.8096   0.7984
     0.7682   0.7470   0.7280   0.7102   0.6883   0.6853   0.6849   0.6781
     0.6715   0.6645   0.6562   0.6550   0.6427   0.6401   0.6272   0.6159
     0.6133   0.5387   0.5359   0.1427   0.1254   0.1071   0.0717   0.0300
     0.0156   0.0114   0.0070   0.0030   0.0022   0.0005   0.0005   0.0003
     0.0001   0.0000   0.0000   0.0000   0.0000   0.0000   0.0000   0.0000
     0.0000   0.0000   0.0000   0.0000   0.0000   0.0000   0.0000   0.0000
     0.0000   0.0000   0.0000   0.0000   0.0000   0.0000   0.0000

          k =-0.2500 0.2500 0.0000 ( 65198 PWs)   bands (ev):

   -92.3216 -92.2640 -92.1749 -92.1270 -92.0669 -92.0275 -92.0102 -91.8857
   -55.6748 -55.6500 -55.5329 -55.5226 -55.5138 -55.5093 -55.4696 -55.4446
   -55.4282 -55.4265 -55.4158 -55.3755 -55.3586 -55.3188 -55.3007 -55.2667
   -55.2626 -55.2164 -55.2134 -55.2130 -55.2048 -55.1600 -55.1410 -55.0531
   -30.9060 -30.8906 -30.7492 -30.7478 -30.6661 -30.6619 -30.5955 -30.4839
   -29.4716 -29.4306 -29.4041 -29.2963 -22.2424 -14.6434 -14.6105 -14.5312
   -14.4133 -14.3102 -14.1841 -14.0902 -13.8916 -13.7610 -13.7448 -13.7146
   -13.7049 -13.6576 -13.6324 -13.6180 -13.6097 -13.5645 -13.4662 -13.4551
   -13.3023 -13.2762 -13.2505 -13.2279 -13.2007 -13.1269 -13.0918 -13.0658
   -12.9681 -12.9423 -12.8550 -12.7781 -12.7366 -12.6989 -12.6722 -12.6460
   -12.6232 -12.5988 -12.5864 -12.5704 -12.5576 -12.5176 -12.4855 -12.4523
   -12.4187 -12.4006 -12.3901 -12.3225 -12.1942 -12.1102 -12.0728 -11.9145
   -11.7981 -11.7656 -11.4242 -11.4023 -11.3753 -11.3629 -11.3224 -11.2873
   -11.2645 -11.2427 -11.2203 -11.1362 -11.0901 -11.0807  -5.7805  -3.1501
    -3.1458  -2.2929  -2.0827  -1.9627  -1.8754  -1.7552  -1.6877  -1.4888
    -1.3397  -1.3202  -1.2947  -1.2016  -1.1657  -1.0736  -1.0408  -1.0147
    -0.8699  -0.8153  -0.7493  -0.7196  -0.6607  -0.6360  -0.5958  -0.5666
    -0.5270  -0.4652  -0.4178  -0.3599  -0.2888  -0.2635  -0.2102  -0.1818
    -0.1375  -0.0829  -0.0439   0.0051   0.0979   0.1366   0.1442   0.1926
     0.2580   0.3277   0.3742   0.3979   0.4643   0.4987   0.7597   0.9219
     0.9713   1.0065   1.0613   1.1039   1.1772   1.2327   1.2606   1.5429
     1.6613   1.7002   1.7289   1.7403   1.7820   1.8010   1.8436   1.8742
     1.8915   1.9176   1.9551   1.9681   2.0154   2.0296   2.0745   2.1551
     2.1737   2.1919   2.2298   2.2588   2.2989   2.3453   2.4616   2.5689
     2.6055   2.6445   2.6688   2.7353   2.7800   2.8072   2.8299   2.8504
     2.9520   2.9854   3.0737   3.0863   3.1005   3.2588   3.2675   3.2812
     3.2921   3.3020   3.3149   3.3208   3.3386   3.3465   3.3635   3.3726
     3.3859   3.3948   3.4003   3.4327   3.4449   3.4545   3.4878   3.7814
     3.8627   3.9181   3.9923   4.0047   4.2017   4.3386   4.6600   4.8006
     5.0048   5.1416   5.3509   5.6212   5.9013   5.9297   6.0088   6.1410
     6.2162   6.2591   6.3608   6.4280   6.9189   6.9855   7.0925   7.1623
     7.7241   7.8057   7.8462   7.8916   7.9997   8.1938   8.2355   8.2543
     8.3742   8.4250   8.5990   8.6799   8.7285   8.7412   8.8381

     occupation numbers 
     1.0000   1.0000   1.0000   1.0000   1.0000   1.0000   1.0000   1.0000
     1.0000   1.0000   1.0000   1.0000   1.0000   1.0000   1.0000   1.0000
     1.0000   1.0000   1.0000   1.0000   1.0000   1.0000   1.0000   1.0000
     1.0000   1.0000   1.0000   1.0000   1.0000   1.0000   1.0000   1.0000
     1.0000   1.0000   1.0000   1.0000   1.0000   1.0000   1.0000   1.0000
     1.0000   1.0000   1.0000   1.0000   1.0000   1.0000   1.0000   1.0000
     1.0000   1.0000   1.0000   1.0000   1.0000   1.0000   1.0000   1.0000
     1.0000   1.0000   1.0000   1.0000   1.0000   1.0000   1.0000   1.0000
     1.0000   1.0000   1.0000   1.0000   1.0000   1.0000   1.0000   1.0000
     1.0000   1.0000   1.0000   1.0000   1.0000   1.0000   1.0000   1.0000
     1.0000   1.0000   1.0000   1.0000   1.0000   1.0000   1.0000   1.0000
     1.0000   1.0000   1.0000   1.0000   1.0000   1.0000   1.0000   1.0000
     1.0000   1.0000   1.0000   1.0000   1.0000   1.0000   1.0000   1.0000
     1.0000   1.0000   1.0000   1.0000   1.0000   1.0000   1.0000   1.0000
     1.0000   1.0000   1.0000   1.0000   1.0000   1.0000   1.0000   1.0000
     1.0000   1.0000   1.0000   1.0000   1.0000   1.0000   1.0000   1.0000
     1.0000   1.0000   1.0000   1.0000   1.0000   1.0000   1.0000   1.0000
     1.0000   1.0000   1.0000   1.0000   1.0000   1.0000   1.0000   1.0000
     1.0000   1.0000   1.0000   1.0000   1.0000   1.0000   1.0000   1.0000
     1.0000   1.0000   1.0000   1.0000   1.0000   1.0000   1.0000   1.0000
     1.0000   1.0000   1.0000   0.9999   0.9999   0.9999   0.9999   0.9993
     0.9988   0.9985   0.9983   0.9982   0.9979   0.9977   0.9971   0.9967
     0.9965   0.9960   0.9953   0.9950   0.9939   0.9936   0.9923   0.9893
     0.9885   0.9877   0.9858   0.9841   0.9816   0.9783   0.9676   0.9542
     0.9487   0.9423   0.9381   0.9251   0.9152   0.9088   0.9031   0.8978
     0.8683   0.8574   0.8258   0.8209   0.8153   0.7462   0.7421   0.7354
     0.7301   0.7253   0.7188   0.7158   0.7068   0.7028   0.6940   0.6892
     0.6822   0.6775   0.6745   0.6571   0.6504   0.6451   0.6265   0.4549
     0.4075   0.3759   0.3348   0.3282   0.2304   0.1734   0.0781   0.0519
     0.0268   0.0165   0.0073   0.0022   0.0006   0.0005   0.0003   0.0001
     0.0001   0.0001   0.0000   0.0000   0.0000   0.0000   0.0000   0.0000
     0.0000   0.0000   0.0000   0.0000   0.0000   0.0000   0.0000   0.0000
     0.0000   0.0000   0.0000   0.0000   0.0000   0.0000   0.0000

          k =-0.5000 0.2500 0.0000 ( 65138 PWs)   bands (ev):

   -92.3216 -92.2640 -92.1749 -92.1270 -92.0669 -92.0275 -92.0102 -91.8857
   -55.6748 -55.6500 -55.5329 -55.5226 -55.5138 -55.5093 -55.4696 -55.4446
   -55.4282 -55.4265 -55.4158 -55.3755 -55.3586 -55.3188 -55.3007 -55.2667
   -55.2626 -55.2164 -55.2134 -55.2130 -55.2048 -55.1600 -55.1410 -55.0531
   -30.9038 -30.8929 -30.7490 -30.7474 -30.6659 -30.6623 -30.5957 -30.4841
   -29.4706 -29.4316 -29.4037 -29.2967 -22.2424 -14.6099 -14.5682 -14.4890
   -14.3915 -14.3466 -14.2198 -14.1394 -14.0102 -13.7607 -13.6955 -13.6658
   -13.6532 -13.6105 -13.5933 -13.5621 -13.5348 -13.5228 -13.5012 -13.4620
   -13.4470 -13.3532 -13.2659 -13.2345 -13.2149 -13.2055 -13.1390 -13.0987
   -13.0225 -12.9657 -12.8317 -12.7951 -12.7040 -12.6882 -12.6592 -12.6465
   -12.6289 -12.6129 -12.5935 -12.5738 -12.5626 -12.4997 -12.4906 -12.4539
   -12.4125 -12.4005 -12.2529 -12.2455 -12.1700 -12.1174 -11.9649 -11.9541
   -11.8675 -11.8354 -11.3965 -11.3839 -11.3698 -11.3579 -11.3368 -11.3065
   -11.2256 -11.2170 -11.1936 -11.1582 -11.1299 -11.1207  -5.7805  -3.1501
    -3.1460  -2.0661  -2.0234  -1.8738  -1.8315  -1.6728  -1.5983  -1.4529
    -1.3171  -1.2617  -1.2338  -1.1943  -1.1542  -1.0747  -0.9600  -0.9034
    -0.8797  -0.8555  -0.7820  -0.7488  -0.7136  -0.6930  -0.6330  -0.6065
    -0.5649  -0.5294  -0.5009  -0.4445  -0.4180  -0.3756  -0.3426  -0.2396
    -0.2120  -0.1321  -0.0636  -0.0342   0.0203   0.1105   0.1424   0.2431
     0.2787   0.3345   0.3868   0.4026   0.4892   0.5132   0.5438   0.6057
     0.6433   0.9387   0.9972   1.0624   1.1037   1.3803   1.4300   1.5116
     1.5338   1.7172   1.7554   1.7920   1.8077   1.8259   1.8438   1.9119
     1.9528   1.9917   2.0162   2.1372   2.1675   2.2050   2.2189   2.2557
     2.2822   2.2936   2.3113   2.3327   2.3567   2.4021   2.4243   2.4539
     2.4758   2.5021   2.5688   2.6824   2.7910   2.8208   2.8889   2.9305
     2.9907   3.0266   3.0350   3.0667   3.0865   3.0962   3.1040   3.1267
     3.2107   3.2534   3.2655   3.2731   3.2939   3.3169   3.3298   3.3440
     3.3575   3.3766   3.3893   3.4008   3.4085   3.4180   3.4297   3.9502
     3.9990   4.1490   4.1732   4.4350   4.5057   4.5570   4.7742   5.0426
     5.1591   5.2531   5.3674   5.5461   5.6978   5.7857   5.8168   5.9508
     6.0641   6.1064   6.3036   6.4492   6.6048   6.6387   7.1171   7.2975
     7.4821   7.5845   7.9888   8.0851   8.1904   8.2361   8.3442   8.4517
     8.4965   8.5950   8.6762   8.7537   8.8544   8.8863   8.9380

     occupation numbers 
     1.0000   1.0000   1.0000   1.0000   1.0000   1.0000   1.0000   1.0000
     1.0000   1.0000   1.0000   1.0000   1.0000   1.0000   1.0000   1.0000
     1.0000   1.0000   1.0000   1.0000   1.0000   1.0000   1.0000   1.0000
     1.0000   1.0000   1.0000   1.0000   1.0000   1.0000   1.0000   1.0000
     1.0000   1.0000   1.0000   1.0000   1.0000   1.0000   1.0000   1.0000
     1.0000   1.0000   1.0000   1.0000   1.0000   1.0000   1.0000   1.0000
     1.0000   1.0000   1.0000   1.0000   1.0000   1.0000   1.0000   1.0000
     1.0000   1.0000   1.0000   1.0000   1.0000   1.0000   1.0000   1.0000
     1.0000   1.0000   1.0000   1.0000   1.0000   1.0000   1.0000   1.0000
     1.0000   1.0000   1.0000   1.0000   1.0000   1.0000   1.0000   1.0000
     1.0000   1.0000   1.0000   1.0000   1.0000   1.0000   1.0000   1.0000
     1.0000   1.0000   1.0000   1.0000   1.0000   1.0000   1.0000   1.0000
     1.0000   1.0000   1.0000   1.0000   1.0000   1.0000   1.0000   1.0000
     1.0000   1.0000   1.0000   1.0000   1.0000   1.0000   1.0000   1.0000
     1.0000   1.0000   1.0000   1.0000   1.0000   1.0000   1.0000   1.0000
     1.0000   1.0000   1.0000   1.0000   1.0000   1.0000   1.0000   1.0000
     1.0000   1.0000   1.0000   1.0000   1.0000   1.0000   1.0000   1.0000
     1.0000   1.0000   1.0000   1.0000   1.0000   1.0000   1.0000   1.0000
     1.0000   1.0000   1.0000   1.0000   1.0000   1.0000   1.0000   1.0000
     1.0000   1.0000   1.0000   1.0000   1.0000   1.0000   1.0000   1.0000
     1.0000   1.0000   1.0000   1.0000   0.9999   0.9997   0.9996   0.9994
     0.9994   0.9984   0.9981   0.9977   0.9976   0.9974   0.9971   0.9961
     0.9954   0.9945   0.9939   0.9900   0.9888   0.9870   0.9863   0.9843
     0.9827   0.9819   0.9808   0.9792   0.9774   0.9735   0.9714   0.9684
     0.9660   0.9630   0.9542   0.9356   0.9126   0.9054   0.8872   0.8749
     0.8556   0.8431   0.8401   0.8284   0.8208   0.8170   0.8140   0.8048
     0.7685   0.7488   0.7430   0.7394   0.7292   0.7178   0.7113   0.7041
     0.6971   0.6871   0.6804   0.6743   0.6702   0.6650   0.6587   0.3579
     0.3312   0.2549   0.2435   0.1392   0.1172   0.1029   0.0562   0.0235
     0.0154   0.0108   0.0068   0.0031   0.0015   0.0010   0.0009   0.0004
     0.0002   0.0002   0.0001   0.0000   0.0000   0.0000   0.0000   0.0000
     0.0000   0.0000   0.0000   0.0000   0.0000   0.0000   0.0000   0.0000
     0.0000   0.0000   0.0000   0.0000   0.0000   0.0000   0.0000

     the Fermi energy is     3.7051 ev

!    total energy              =   -4482.96661121 Ry
     estimated scf accuracy    <          4.5E-09 Ry
     smearing contrib. (-TS)   =      -1.17311696 Ry
     internal energy E=F+TS    =   -4481.79349425 Ry

     The total energy is F=E-TS. E is the sum of the following terms:
     one-electron contribution =  -20253.76232969 Ry
     hartree contribution      =   10266.79173894 Ry
     xc contribution           =    -701.57669083 Ry
     ewald contribution        =    6492.41285049 Ry
     one-center paw contrib.   =    -285.65906316 Ry
      -> PAW hartree energy AE =      25.18315778 Ry
      -> PAW hartree energy PS =     -25.06687604 Ry
      -> PAW xc energy AE      =     -16.52029935 Ry
      -> PAW xc energy PS      =       6.87992399 Ry
      -> total E_H with PAW    =   10266.90802068 Ry
      -> total E_XC with PAW   =    -711.21706619 Ry

     convergence has been achieved in  51 iterations

     Writing all to output data dir /bsuhome/zayahcortright/scratch/pwscf.save/
 
     init_run     :      8.64s CPU      9.25s WALL (       1 calls)
     electrons    :    783.19s CPU    796.40s WALL (       1 calls)

     Called by init_run:
     wfcinit      :      6.79s CPU      7.00s WALL (       1 calls)
     wfcinit:atom :      0.05s CPU      0.07s WALL (       5 calls)
     wfcinit:wfcr :      6.46s CPU      6.62s WALL (       5 calls)
     potinit      :      0.22s CPU      0.23s WALL (       1 calls)
     hinit0       :      0.74s CPU      1.00s WALL (       1 calls)

     Called by electrons:
     c_bands      :    619.05s CPU    624.49s WALL (      51 calls)
     sum_band     :    121.85s CPU    126.28s WALL (      51 calls)
     v_of_rho     :      5.60s CPU      5.93s WALL (      52 calls)
     v_h          :      0.48s CPU      0.48s WALL (      52 calls)
     v_xc         :      5.12s CPU      5.45s WALL (      52 calls)
     newd         :     21.59s CPU     24.22s WALL (      52 calls)
     PAW_pot      :      1.67s CPU      1.70s WALL (      52 calls)
     mix_rho      :     13.07s CPU     13.34s WALL (      51 calls)

     Called by c_bands:
     init_us_2    :      7.35s CPU      7.41s WALL (     515 calls)
     init_us_2:cp :      7.34s CPU      7.40s WALL (     515 calls)
     cegterg      :    591.05s CPU    596.30s WALL (     255 calls)

     Called by sum_band:
     sum_band:wei :      0.35s CPU      0.36s WALL (      51 calls)
     sum_band:loo :     98.99s CPU     99.77s WALL (      51 calls)
     sum_band:buf :      1.63s CPU      1.64s WALL (     255 calls)
     sum_band:ini :      3.45s CPU      3.46s WALL (     255 calls)
     sum_band:cal :     21.16s CPU     21.22s WALL (     255 calls)
     sum_band:bec :      0.66s CPU      0.67s WALL (     255 calls)
     addusdens    :     18.75s CPU     22.37s WALL (      51 calls)
                                        0.00s GPU  (      51 calls)
     addusd:skk   :      0.40s CPU      0.77s WALL (     204 calls)
                                        0.00s GPU  (     204 calls)

     Called by *egterg:
     cdiaghg      :     65.19s CPU     65.46s WALL (    1454 calls)
     cegterg:over :     45.10s CPU     45.26s WALL (    1199 calls)
     cegterg:upda :     33.89s CPU     34.27s WALL (    1199 calls)
     cegterg:last :     67.04s CPU     67.26s WALL (     475 calls)
     cdiaghg:chol :      3.75s CPU      3.77s WALL (    1454 calls)
     cdiaghg:inve :      4.00s CPU      4.02s WALL (    1454 calls)
     cdiaghg:para :      8.24s CPU      8.30s WALL (    2908 calls)
     h_psi        :    317.90s CPU    321.01s WALL (    1459 calls)
     s_psi        :     43.45s CPU     43.63s WALL (    1459 calls)
     g_psi        :      1.09s CPU      1.09s WALL (    1199 calls)

     Called by h_psi:
     h_psi:calbec :     49.22s CPU     49.45s WALL (    1459 calls)
     vloc_psi     :    221.66s CPU    223.97s WALL (    1459 calls)
     add_vuspsi   :     43.75s CPU     43.90s WALL (    1459 calls)

     General routines
     calbec       :     70.37s CPU     70.66s WALL (    1714 calls)
     fft          :      6.48s CPU      6.53s WALL (     674 calls)
     ffts         :      4.90s CPU      4.93s WALL (    5387 calls)
     fftw         :    189.82s CPU    191.56s WALL (  351891 calls)
     interpolate  :      0.42s CPU      0.43s WALL (      52 calls)
 
     Parallel routines

     PAW routines
     PAW_pot      :      1.67s CPU      1.70s WALL (      52 calls)
 
     PWSCF        :  13m13.97s CPU  13m30.83s WALL

 
   This run was terminated on:  15:30: 7  20Jun2024            

=------------------------------------------------------------------------------=
   JOB DONE.
=------------------------------------------------------------------------------=
