
     Program PWSCF v.7.2 starts on 20Jun2024 at 14:34:48 

     This program is part of the open-source Quantum ESPRESSO suite
     for quantum simulation of materials; please cite
         "P. Giannozzi et al., J. Phys.:Condens. Matter 21 395502 (2009);
         "P. Giannozzi et al., J. Phys.:Condens. Matter 29 465901 (2017);
         "P. Giannozzi et al., J. Chem. Phys. 152 154105 (2020);
          URL http://www.quantum-espresso.org", 
     in publications or presentations arising from this work. More details at
     http://www.quantum-espresso.org/quote

     Parallel version (MPI & OpenMP), running on      48 processor cores
     Number of MPI processes:                48
     Threads/MPI process:                     1

     MPI processes distributed on     1 nodes
     41855 MiB available memory on the printing compute node when the environment starts
 
     Reading input from espresso.pwi
Warning: card &CELL ignored
Warning: card / ignored
Warning: card &FCP ignored
Warning: card / ignored
Warning: card &RISM ignored
Warning: card / ignored

     Current dimensions of program PWSCF are:
     Max number of different atomic species (ntypx) = 10
     Max number of k-points (npk) =  40000
     Max angular momentum in pseudopotentials (lmaxx) =  4
     file O.pbe-n-kjpaw_psl.0.1.UPF: wavefunction(s)  2P renormalized
     signal trapping enabled: kill the code with -SIGUSR1 to stop cleanly the simulation 
 
     K-points division:     npool     =       2
     R & G space division:  proc/nbgrp/npool/nimage =      24
     Subspace diagonalization in iterative solution of the eigenvalue problem:
     one sub-group per band group will be used
     scalapack distributed-memory algorithm (size of sub-group:  3*  3 procs)

 
     Parallelization info
     --------------------
     sticks:   dense  smooth     PW     G-vecs:    dense   smooth      PW
     Min         350     175     47                61430    21716    3036
     Max         351     177     48                61449    21727    3041
     Sum        8421    4205   1137              1474595   521381   72913
 
     Using Slab Decomposition
 


     bravais-lattice index     =            0
     lattice parameter (alat)  =      14.8599  a.u.
     unit-cell volume          =    8305.1283 (a.u.)^3
     number of atoms/cell      =           51
     number of atomic types    =            4
     number of electrons       =       437.00
     number of Kohn-Sham states=          263
     kinetic-energy cutoff     =      60.0000  Ry
     charge density cutoff     =     480.0000  Ry
     scf convergence threshold =      1.0E-08
     mixing beta               =       0.1500
     number of iterations used =            8  local-TF  mixing
     Exchange-correlation= PBE
                           (   1   4   3   4   0   0   0)

     celldm(1)=  14.859904  celldm(2)=   0.000000  celldm(3)=   0.000000
     celldm(4)=   0.000000  celldm(5)=   0.000000  celldm(6)=   0.000000

     crystal axes: (cart. coord. in units of alat)
               a(1) = (   1.000000   0.000000   0.000000 )  
               a(2) = (   0.000000   1.000000   0.000000 )  
               a(3) = (   0.000000   0.000000   2.531036 )  

     reciprocal axes: (cart. coord. in units 2 pi/alat)
               b(1) = (  1.000000  0.000000  0.000000 )  
               b(2) = (  0.000000  1.000000  0.000000 )  
               b(3) = (  0.000000  0.000000  0.395095 )  


     PseudoPot. # 1 for Sr read from file:
     /bsuhome/zayahcortright/q-e/pseudo/Sr_pbe_v1.uspp.F.UPF
     MD5 check sum: 6b418c05fbe9db5448babca5e47b7a5b
     Pseudo is Ultrasoft + core correction, Zval = 10.0
     Generated by new atomic code, or converted to UPF format
     Using radial grid of  883 points,  6 beta functions with: 
                l(1) =   0
                l(2) =   0
                l(3) =   1
                l(4) =   1
                l(5) =   2
                l(6) =   2
     Q(r) pseudized with  6 coefficients,  rinner =    1.400   1.400   1.400
                                                       1.400   1.400

     PseudoPot. # 2 for O  read from file:
     /bsuhome/zayahcortright/q-e/pseudo/O.pbe-n-kjpaw_psl.0.1.UPF
     MD5 check sum: 0234752ac141de4415c5fc33072bef88
     Pseudo is Projector augmented-wave + core cor, Zval =  6.0
     Generated using "atomic" code by A. Dal Corso  v.5.0.99 svn rev. 10869
     Shape of augmentation charge: BESSEL
     Using radial grid of 1095 points,  4 beta functions with: 
                l(1) =   0
                l(2) =   0
                l(3) =   1
                l(4) =   1
     Q(r) pseudized with 0 coefficients 


     PseudoPot. # 3 for Co read from file:
     /bsuhome/zayahcortright/q-e/pseudo/Co_pbe_v1.2.uspp.F.UPF
     MD5 check sum: 5f91765df6ddd3222702df6e7b74a16d
     Pseudo is Ultrasoft + core correction, Zval = 17.0
     Generated by new atomic code, or converted to UPF format
     Using radial grid of  863 points,  6 beta functions with: 
                l(1) =   0
                l(2) =   0
                l(3) =   1
                l(4) =   1
                l(5) =   2
                l(6) =   2
     Q(r) pseudized with  8 coefficients,  rinner =    1.200   1.200   1.200
                                                       1.200   1.200

     PseudoPot. # 4 for H  read from file:
     /bsuhome/zayahcortright/q-e/pseudo/H.pbe-rrkjus_psl.1.0.0.UPF
     MD5 check sum: f52b6d4d1c606e5624b1dc7b2218f220
     Pseudo is Ultrasoft, Zval =  1.0
     Generated using "atomic" code by A. Dal Corso  v.5.1
     Using radial grid of  929 points,  2 beta functions with: 
                l(1) =   0
                l(2) =   0
     Q(r) pseudized with 0 coefficients 


     atomic species   valence    mass     pseudopotential
        Sr            10.00    87.62000     Sr( 1.00)
        O              6.00    15.99900     O ( 1.00)
        Co            17.00    58.93319     Co( 1.00)
        H              1.00     1.00800     H ( 1.00)

     No symmetry found


                                    s                        frac. trans.

      isym =  1     identity                                     

 cryst.   s( 1) = (     1          0          0      )
                  (     0          1          0      )
                  (     0          0          1      )

 cart.    s( 1) = (  1.0000000  0.0000000  0.0000000 )
                  (  0.0000000  1.0000000  0.0000000 )
                  (  0.0000000  0.0000000  1.0000000 )


   Cartesian axes

     site n.     atom                  positions (alat units)
         1           Sr  tau(   1) = (   0.2508693   0.7491307   1.7574407  )
         2           O   tau(   2) = (   0.4985141   0.5014859   1.7715967  )
         3           Sr  tau(   3) = (   0.7482398   0.7454518   1.7648669  )
         4           Sr  tau(   4) = (   0.7441748   0.2558252   1.7667843  )
         5           Sr  tau(   5) = (   0.2508693   0.7491307   1.2696799  )
         6           Sr  tau(   6) = (   0.2508693   0.7491307   0.7632319  )
         7           Co  tau(   7) = (   0.4998914   0.5001086   1.0164559  )
         8           Co  tau(   8) = (   0.4936915   0.5063085   1.5135603  )
         9           O   tau(   9) = (   0.4988895   0.7610401   1.0164559  )
        10           O   tau(  10) = (   0.2389599   0.5011105   1.0164559  )
        11           O   tau(  11) = (   0.0070918   0.7374880   1.0164559  )
        12           O   tau(  12) = (   0.0088340   0.7405089   1.5135603  )
        13           O   tau(  13) = (   0.5066944   0.7415376   1.5135603  )
        14           O   tau(  14) = (   0.2584624   0.4933056   1.5135603  )
        15           O   tau(  15) = (   0.4985141   0.5014859   0.7773880  )
        16           O   tau(  16) = (   0.4985141   0.5014859   1.2555238  )
        17           Sr  tau(  17) = (   0.7482398   0.7454518   0.7706582  )
        18           Sr  tau(  18) = (   0.7482398   0.7454518   1.2622536  )
        19           Sr  tau(  19) = (   0.7441748   0.2558252   0.7725755  )
        20           Sr  tau(  20) = (   0.7441748   0.2558252   1.2603363  )
        21           O   tau(  21) = (   0.7322655   0.0078049   1.5135603  )
        22           O   tau(  22) = (   0.7558175   0.4996027   1.5135603  )
        23           O   tau(  23) = (   0.5003973   0.2441825   1.5135603  )
        24           O   tau(  24) = (   0.7527966   0.4978604   1.0164559  )
        25           O   tau(  25) = (   0.5021396   0.2472034   1.0164559  )
        26           O   tau(  26) = (   0.7517679   0.0000000   1.0164559  )
        27           O   tau(  27) = (   0.0114961   0.4948124   1.7455321  )
        28           O   tau(  28) = (   0.0048226   0.0077944   1.7715967  )
        29           Sr  tau(  29) = (   0.2545482   0.2517602   1.7648669  )
        30           O   tau(  30) = (   0.5048017   0.0015068   1.7786929  )
        31           Co  tau(  31) = (   0.0056869   0.5006215   1.0164559  )
        32           Co  tau(  32) = (   0.0065315   0.4997770   1.5135603  )
        33           Co  tau(  33) = (   0.0061999   0.0064171   1.0164559  )
        34           Co  tau(  34) = (   0.0000000   0.0126169   1.5135603  )
        35           O   tau(  35) = (   0.0114961   0.4948124   1.2815885  )
        36           O   tau(  36) = (   0.0114961   0.4948124   0.7513233  )
        37           O   tau(  37) = (   0.0051979   0.2673486   1.0164559  )
        38           O   tau(  38) = (   0.0130029   0.2478461   1.5135603  )
        39           O   tau(  39) = (   0.0048226   0.0077944   0.7773880  )
        40           O   tau(  40) = (   0.0048226   0.0077944   1.2555238  )
        41           Sr  tau(  41) = (   0.2545482   0.2517602   0.7706582  )
        42           Sr  tau(  42) = (   0.2545482   0.2517602   1.2622536  )
        43           Co  tau(  43) = (   0.4989925   0.0073160   1.5135603  )
        44           Co  tau(  44) = (   0.4998370   0.0064714   1.0164559  )
        45           O   tau(  45) = (   0.5048017   0.0015068   0.7844841  )
        46           O   tau(  46) = (   0.5048017   0.0015068   1.2484277  )
        47           O   tau(  47) = (   0.2621260   0.0059111   1.5135603  )
        48           O   tau(  48) = (   0.2591051   0.0041689   1.0164559  )
        49           O   tau(  49) = (   0.5686583   0.5686583   2.1602013  )
        50           O   tau(  50) = (   0.5686583   0.5686583   2.3186489  )
        51           H   tau(  51) = (   0.5686583   0.5686583   2.4431567  )

   Crystallographic axes

     site n.     atom                  positions (cryst. coord.)
         1           Sr  tau(   1) = (  0.2508693  0.7491307  0.6943562  )
         2           O   tau(   2) = (  0.4985141  0.5014859  0.6999492  )
         3           Sr  tau(   3) = (  0.7482398  0.7454518  0.6972903  )
         4           Sr  tau(   4) = (  0.7441748  0.2558252  0.6980478  )
         5           Sr  tau(   5) = (  0.2508693  0.7491307  0.5016443  )
         6           Sr  tau(   6) = (  0.2508693  0.7491307  0.3015492  )
         7           Co  tau(   7) = (  0.4998914  0.5001086  0.4015968  )
         8           Co  tau(   8) = (  0.4936915  0.5063085  0.5980003  )
         9           O   tau(   9) = (  0.4988895  0.7610401  0.4015968  )
        10           O   tau(  10) = (  0.2389599  0.5011105  0.4015968  )
        11           O   tau(  11) = (  0.0070918  0.7374880  0.4015968  )
        12           O   tau(  12) = (  0.0088340  0.7405089  0.5980003  )
        13           O   tau(  13) = (  0.5066944  0.7415376  0.5980003  )
        14           O   tau(  14) = (  0.2584624  0.4933056  0.5980003  )
        15           O   tau(  15) = (  0.4985141  0.5014859  0.3071422  )
        16           O   tau(  16) = (  0.4985141  0.5014859  0.4960513  )
        17           Sr  tau(  17) = (  0.7482398  0.7454518  0.3044833  )
        18           Sr  tau(  18) = (  0.7482398  0.7454518  0.4987103  )
        19           Sr  tau(  19) = (  0.7441748  0.2558252  0.3052408  )
        20           Sr  tau(  20) = (  0.7441748  0.2558252  0.4979527  )
        21           O   tau(  21) = (  0.7322655  0.0078049  0.5980003  )
        22           O   tau(  22) = (  0.7558175  0.4996027  0.5980003  )
        23           O   tau(  23) = (  0.5003973  0.2441825  0.5980003  )
        24           O   tau(  24) = (  0.7527966  0.4978604  0.4015968  )
        25           O   tau(  25) = (  0.5021396  0.2472034  0.4015968  )
        26           O   tau(  26) = (  0.7517679  0.0000000  0.4015968  )
        27           O   tau(  27) = (  0.0114961  0.4948124  0.6896512  )
        28           O   tau(  28) = (  0.0048226  0.0077944  0.6999492  )
        29           Sr  tau(  29) = (  0.2545482  0.2517602  0.6972903  )
        30           O   tau(  30) = (  0.5048017  0.0015068  0.7027529  )
        31           Co  tau(  31) = (  0.0056869  0.5006215  0.4015968  )
        32           Co  tau(  32) = (  0.0065315  0.4997770  0.5980003  )
        33           Co  tau(  33) = (  0.0061999  0.0064171  0.4015968  )
        34           Co  tau(  34) = (  0.0000000  0.0126169  0.5980003  )
        35           O   tau(  35) = (  0.0114961  0.4948124  0.5063494  )
        36           O   tau(  36) = (  0.0114961  0.4948124  0.2968442  )
        37           O   tau(  37) = (  0.0051979  0.2673486  0.4015968  )
        38           O   tau(  38) = (  0.0130029  0.2478461  0.5980003  )
        39           O   tau(  39) = (  0.0048226  0.0077944  0.3071422  )
        40           O   tau(  40) = (  0.0048226  0.0077944  0.4960513  )
        41           Sr  tau(  41) = (  0.2545482  0.2517602  0.3044833  )
        42           Sr  tau(  42) = (  0.2545482  0.2517602  0.4987103  )
        43           Co  tau(  43) = (  0.4989925  0.0073160  0.5980003  )
        44           Co  tau(  44) = (  0.4998370  0.0064714  0.4015968  )
        45           O   tau(  45) = (  0.5048017  0.0015068  0.3099459  )
        46           O   tau(  46) = (  0.5048017  0.0015068  0.4932477  )
        47           O   tau(  47) = (  0.2621260  0.0059111  0.5980003  )
        48           O   tau(  48) = (  0.2591051  0.0041689  0.4015968  )
        49           O   tau(  49) = (  0.5686583  0.5686583  0.8534850  )
        50           O   tau(  50) = (  0.5686583  0.5686583  0.9160869  )
        51           H   tau(  51) = (  0.5686583  0.5686583  0.9652793  )

     number of k points=    10  Gaussian smearing, width (Ry)=  0.0700
                       cart. coord. in units 2pi/alat
        k(    1) = (   0.0000000   0.0000000   0.0000000), wk =   0.1250000
        k(    2) = (   0.0000000   0.2500000   0.0000000), wk =   0.2500000
        k(    3) = (   0.0000000  -0.5000000   0.0000000), wk =   0.1250000
        k(    4) = (   0.2500000   0.2500000   0.0000000), wk =   0.2500000
        k(    5) = (   0.2500000  -0.5000000   0.0000000), wk =   0.2500000
        k(    6) = (  -0.5000000  -0.5000000   0.0000000), wk =   0.1250000
        k(    7) = (   0.2500000   0.0000000   0.0000000), wk =   0.2500000
        k(    8) = (  -0.5000000   0.0000000   0.0000000), wk =   0.1250000
        k(    9) = (  -0.2500000   0.2500000   0.0000000), wk =   0.2500000
        k(   10) = (  -0.5000000   0.2500000   0.0000000), wk =   0.2500000

                       cryst. coord.
        k(    1) = (   0.0000000   0.0000000   0.0000000), wk =   0.1250000
        k(    2) = (   0.0000000   0.2500000   0.0000000), wk =   0.2500000
        k(    3) = (   0.0000000  -0.5000000   0.0000000), wk =   0.1250000
        k(    4) = (   0.2500000   0.2500000   0.0000000), wk =   0.2500000
        k(    5) = (   0.2500000  -0.5000000   0.0000000), wk =   0.2500000
        k(    6) = (  -0.5000000  -0.5000000   0.0000000), wk =   0.1250000
        k(    7) = (   0.2500000   0.0000000   0.0000000), wk =   0.2500000
        k(    8) = (  -0.5000000   0.0000000   0.0000000), wk =   0.1250000
        k(    9) = (  -0.2500000   0.2500000   0.0000000), wk =   0.2500000
        k(   10) = (  -0.5000000   0.2500000   0.0000000), wk =   0.2500000

     Dense  grid:  1474595 G-vectors     FFT dimensions: ( 108, 108, 270)

     Smooth grid:   521381 G-vectors     FFT dimensions: (  75,  75, 192)

     Dynamical RAM for                 wfc:      10.90 MB

     Dynamical RAM for     wfc (w. buffer):      65.37 MB

     Dynamical RAM for           str. fact:       3.75 MB

     Dynamical RAM for           local pot:       0.00 MB

     Dynamical RAM for          nlocal pot:      24.94 MB

     Dynamical RAM for                qrad:       7.03 MB

     Dynamical RAM for          rho,v,vnew:       6.02 MB

     Dynamical RAM for               rhoin:       2.01 MB

     Dynamical RAM for            rho*nmix:      15.00 MB

     Dynamical RAM for           G-vectors:       3.68 MB

     Dynamical RAM for          h,s,v(r/c):       1.40 MB

     Dynamical RAM for          <psi|beta>:       2.42 MB

     Dynamical RAM for                 psi:      21.79 MB

     Dynamical RAM for                hpsi:      21.79 MB

     Dynamical RAM for                spsi:      21.79 MB

     Dynamical RAM for      wfcinit/wfcrot:      34.89 MB

     Dynamical RAM for           addusdens:     101.73 MB

     Estimated static dynamical RAM per process >     122.82 MB

     Estimated max dynamical RAM per process >     239.55 MB

     Estimated total dynamical RAM >      10.88 GB

     Check: negative core charge=   -0.000004

     Initial potential from superposition of free atoms

     starting charge     428.5961, renormalised to     437.0000

     negative rho (up, down):  7.814E-01 0.000E+00
     Starting wfcs are  381 randomized atomic wfcs
     Checking if some PAW data can be deallocated... 
       PAW data deallocated on   18 nodes for type:  2

     total cpu time spent up to now is        9.6 secs

     Self-consistent Calculation

     iteration #  1     ecut=    60.00 Ry     beta= 0.15
     Davidson diagonalization with overlap

---- Real-time Memory Report at c_bands before calling an iterative solver
             0 MiB given to the printing process from OS
             0 MiB allocation reported by mallinfo(arena+hblkhd)
         32090 MiB available memory on the node where the printing process lives
------------------
     ethr =  1.00E-02,  avg # of iterations =  2.0

     negative rho (up, down):  7.716E-01 0.000E+00

     total cpu time spent up to now is       25.4 secs

     total energy              =   -4489.31211005 Ry
     estimated scf accuracy    <      49.82048696 Ry

     iteration #  2     ecut=    60.00 Ry     beta= 0.15
     Davidson diagonalization with overlap

---- Real-time Memory Report at c_bands before calling an iterative solver
             0 MiB given to the printing process from OS
             0 MiB allocation reported by mallinfo(arena+hblkhd)
         32450 MiB available memory on the node where the printing process lives
------------------
     ethr =  1.00E-02,  avg # of iterations =  1.0

     negative rho (up, down):  7.613E-01 0.000E+00

     total cpu time spent up to now is       38.5 secs

     total energy              =   -4486.81529428 Ry
     estimated scf accuracy    <      35.42667588 Ry

     iteration #  3     ecut=    60.00 Ry     beta= 0.15
     Davidson diagonalization with overlap

---- Real-time Memory Report at c_bands before calling an iterative solver
             0 MiB given to the printing process from OS
             0 MiB allocation reported by mallinfo(arena+hblkhd)
         31672 MiB available memory on the node where the printing process lives
------------------
     ethr =  8.11E-03,  avg # of iterations =  1.0

     negative rho (up, down):  7.562E-01 0.000E+00

     total cpu time spent up to now is       51.5 secs

     total energy              =   -4486.76555128 Ry
     estimated scf accuracy    <      35.26070479 Ry

     iteration #  4     ecut=    60.00 Ry     beta= 0.15
     Davidson diagonalization with overlap

---- Real-time Memory Report at c_bands before calling an iterative solver
             0 MiB given to the printing process from OS
             0 MiB allocation reported by mallinfo(arena+hblkhd)
         31674 MiB available memory on the node where the printing process lives
------------------
     ethr =  8.07E-03,  avg # of iterations =  1.0

     negative rho (up, down):  7.574E-01 0.000E+00

     total cpu time spent up to now is       64.5 secs

     total energy              =   -4486.62553507 Ry
     estimated scf accuracy    <      34.31486999 Ry

     iteration #  5     ecut=    60.00 Ry     beta= 0.15
     Davidson diagonalization with overlap

---- Real-time Memory Report at c_bands before calling an iterative solver
             0 MiB given to the printing process from OS
             0 MiB allocation reported by mallinfo(arena+hblkhd)
         31649 MiB available memory on the node where the printing process lives
------------------
     ethr =  7.85E-03,  avg # of iterations =  1.0

     negative rho (up, down):  7.334E-01 0.000E+00

     total cpu time spent up to now is       78.3 secs

     total energy              =   -4482.62749492 Ry
     estimated scf accuracy    <      22.96100359 Ry

     iteration #  6     ecut=    60.00 Ry     beta= 0.15
     Davidson diagonalization with overlap

---- Real-time Memory Report at c_bands before calling an iterative solver
             0 MiB given to the printing process from OS
             0 MiB allocation reported by mallinfo(arena+hblkhd)
         31633 MiB available memory on the node where the printing process lives
------------------
     ethr =  5.25E-03,  avg # of iterations =  2.0

     negative rho (up, down):  7.481E-01 0.000E+00

     total cpu time spent up to now is       92.9 secs

     total energy              =   -4483.89372507 Ry
     estimated scf accuracy    <      41.48355363 Ry

     iteration #  7     ecut=    60.00 Ry     beta= 0.15
     Davidson diagonalization with overlap

---- Real-time Memory Report at c_bands before calling an iterative solver
             0 MiB given to the printing process from OS
             0 MiB allocation reported by mallinfo(arena+hblkhd)
         31608 MiB available memory on the node where the printing process lives
------------------
     ethr =  5.25E-03,  avg # of iterations =  1.0

     negative rho (up, down):  7.539E-01 0.000E+00

     total cpu time spent up to now is      105.9 secs

     total energy              =   -4483.41850058 Ry
     estimated scf accuracy    <      43.84288686 Ry

     iteration #  8     ecut=    60.00 Ry     beta= 0.15
     Davidson diagonalization with overlap

---- Real-time Memory Report at c_bands before calling an iterative solver
             0 MiB given to the printing process from OS
             0 MiB allocation reported by mallinfo(arena+hblkhd)
         31589 MiB available memory on the node where the printing process lives
------------------
     ethr =  5.25E-03,  avg # of iterations =  1.0

     negative rho (up, down):  7.512E-01 0.000E+00

     total cpu time spent up to now is      119.0 secs

     total energy              =   -4483.82821960 Ry
     estimated scf accuracy    <       6.26524791 Ry

     iteration #  9     ecut=    60.00 Ry     beta= 0.15
     Davidson diagonalization with overlap

---- Real-time Memory Report at c_bands before calling an iterative solver
             0 MiB given to the printing process from OS
             0 MiB allocation reported by mallinfo(arena+hblkhd)
         31571 MiB available memory on the node where the printing process lives
------------------
     ethr =  1.43E-03,  avg # of iterations =  3.5

     negative rho (up, down):  7.639E-01 0.000E+00

     total cpu time spent up to now is      134.3 secs

     total energy              =   -4483.80174777 Ry
     estimated scf accuracy    <       3.61835026 Ry

     iteration # 10     ecut=    60.00 Ry     beta= 0.15
     Davidson diagonalization with overlap

---- Real-time Memory Report at c_bands before calling an iterative solver
             0 MiB given to the printing process from OS
             0 MiB allocation reported by mallinfo(arena+hblkhd)
         31519 MiB available memory on the node where the printing process lives
------------------
     ethr =  8.28E-04,  avg # of iterations = 12.1

     negative rho (up, down):  7.852E-01 0.000E+00

     total cpu time spent up to now is      154.2 secs

     total energy              =   -4483.54809868 Ry
     estimated scf accuracy    <       4.87047032 Ry

     iteration # 11     ecut=    60.00 Ry     beta= 0.15
     Davidson diagonalization with overlap

---- Real-time Memory Report at c_bands before calling an iterative solver
             0 MiB given to the printing process from OS
             0 MiB allocation reported by mallinfo(arena+hblkhd)
         31241 MiB available memory on the node where the printing process lives
------------------
     ethr =  8.28E-04,  avg # of iterations =  6.8

     negative rho (up, down):  7.906E-01 0.000E+00

     total cpu time spent up to now is      171.3 secs

     total energy              =   -4483.26773708 Ry
     estimated scf accuracy    <       4.50676854 Ry

     iteration # 12     ecut=    60.00 Ry     beta= 0.15
     Davidson diagonalization with overlap

---- Real-time Memory Report at c_bands before calling an iterative solver
             0 MiB given to the printing process from OS
             0 MiB allocation reported by mallinfo(arena+hblkhd)
         31103 MiB available memory on the node where the printing process lives
------------------
     ethr =  8.28E-04,  avg # of iterations =  8.4

     negative rho (up, down):  8.017E-01 0.000E+00

     total cpu time spent up to now is      188.5 secs

     total energy              =   -4483.17401868 Ry
     estimated scf accuracy    <       2.40386717 Ry

     iteration # 13     ecut=    60.00 Ry     beta= 0.15
     Davidson diagonalization with overlap

---- Real-time Memory Report at c_bands before calling an iterative solver
             0 MiB given to the printing process from OS
             0 MiB allocation reported by mallinfo(arena+hblkhd)
         31065 MiB available memory on the node where the printing process lives
------------------
     ethr =  5.50E-04,  avg # of iterations =  2.8

     negative rho (up, down):  7.990E-01 0.000E+00

     total cpu time spent up to now is      203.3 secs

     total energy              =   -4483.28873931 Ry
     estimated scf accuracy    <       1.91789919 Ry

     iteration # 14     ecut=    60.00 Ry     beta= 0.15
     Davidson diagonalization with overlap

---- Real-time Memory Report at c_bands before calling an iterative solver
             0 MiB given to the printing process from OS
             0 MiB allocation reported by mallinfo(arena+hblkhd)
         31100 MiB available memory on the node where the printing process lives
------------------
     ethr =  4.39E-04,  avg # of iterations =  1.2

     negative rho (up, down):  8.075E-01 0.000E+00

     total cpu time spent up to now is      216.5 secs

     total energy              =   -4483.20753372 Ry
     estimated scf accuracy    <       1.02383963 Ry

     iteration # 15     ecut=    60.00 Ry     beta= 0.15
     Davidson diagonalization with overlap

---- Real-time Memory Report at c_bands before calling an iterative solver
             0 MiB given to the printing process from OS
             0 MiB allocation reported by mallinfo(arena+hblkhd)
         31123 MiB available memory on the node where the printing process lives
------------------
     ethr =  2.34E-04,  avg # of iterations =  5.8

     negative rho (up, down):  8.107E-01 0.000E+00

     total cpu time spent up to now is      233.0 secs

     total energy              =   -4483.16095322 Ry
     estimated scf accuracy    <       1.38531078 Ry

     iteration # 16     ecut=    60.00 Ry     beta= 0.15
     Davidson diagonalization with overlap

---- Real-time Memory Report at c_bands before calling an iterative solver
             0 MiB given to the printing process from OS
             0 MiB allocation reported by mallinfo(arena+hblkhd)
         31101 MiB available memory on the node where the printing process lives
------------------
     ethr =  2.34E-04,  avg # of iterations =  2.9

     negative rho (up, down):  8.135E-01 0.000E+00

     total cpu time spent up to now is      247.4 secs

     total energy              =   -4483.14027868 Ry
     estimated scf accuracy    <       0.96450514 Ry

     iteration # 17     ecut=    60.00 Ry     beta= 0.15
     Davidson diagonalization with overlap

---- Real-time Memory Report at c_bands before calling an iterative solver
             0 MiB given to the printing process from OS
             0 MiB allocation reported by mallinfo(arena+hblkhd)
         31091 MiB available memory on the node where the printing process lives
------------------
     ethr =  2.21E-04,  avg # of iterations =  6.2

     negative rho (up, down):  8.166E-01 0.000E+00

     total cpu time spent up to now is      263.5 secs

     total energy              =   -4483.10578152 Ry
     estimated scf accuracy    <       0.41346143 Ry

     iteration # 18     ecut=    60.00 Ry     beta= 0.15
     Davidson diagonalization with overlap

---- Real-time Memory Report at c_bands before calling an iterative solver
             0 MiB given to the printing process from OS
             0 MiB allocation reported by mallinfo(arena+hblkhd)
         31078 MiB available memory on the node where the printing process lives
------------------
     ethr =  9.46E-05,  avg # of iterations =  9.4

     negative rho (up, down):  8.178E-01 0.000E+00

     total cpu time spent up to now is      281.9 secs

     total energy              =   -4483.06623385 Ry
     estimated scf accuracy    <       0.37400595 Ry

     iteration # 19     ecut=    60.00 Ry     beta= 0.15
     Davidson diagonalization with overlap

---- Real-time Memory Report at c_bands before calling an iterative solver
             0 MiB given to the printing process from OS
             0 MiB allocation reported by mallinfo(arena+hblkhd)
         31057 MiB available memory on the node where the printing process lives
------------------
     ethr =  8.56E-05,  avg # of iterations =  6.2

     negative rho (up, down):  8.264E-01 0.000E+00

     total cpu time spent up to now is      298.8 secs

     total energy              =   -4483.02340364 Ry
     estimated scf accuracy    <       0.33743771 Ry

     iteration # 20     ecut=    60.00 Ry     beta= 0.15
     Davidson diagonalization with overlap

---- Real-time Memory Report at c_bands before calling an iterative solver
             0 MiB given to the printing process from OS
             0 MiB allocation reported by mallinfo(arena+hblkhd)
         31058 MiB available memory on the node where the printing process lives
------------------
     ethr =  7.72E-05,  avg # of iterations =  9.7

     negative rho (up, down):  8.250E-01 0.000E+00

     total cpu time spent up to now is      317.6 secs

     total energy              =   -4483.01325530 Ry
     estimated scf accuracy    <       0.30812248 Ry

     iteration # 21     ecut=    60.00 Ry     beta= 0.15
     Davidson diagonalization with overlap

---- Real-time Memory Report at c_bands before calling an iterative solver
             0 MiB given to the printing process from OS
             0 MiB allocation reported by mallinfo(arena+hblkhd)
         31030 MiB available memory on the node where the printing process lives
------------------
     ethr =  7.05E-05,  avg # of iterations =  3.1

     negative rho (up, down):  8.211E-01 0.000E+00

     total cpu time spent up to now is      332.5 secs

     total energy              =   -4482.99737712 Ry
     estimated scf accuracy    <       0.31924683 Ry

     iteration # 22     ecut=    60.00 Ry     beta= 0.15
     Davidson diagonalization with overlap

---- Real-time Memory Report at c_bands before calling an iterative solver
             0 MiB given to the printing process from OS
             0 MiB allocation reported by mallinfo(arena+hblkhd)
         31037 MiB available memory on the node where the printing process lives
------------------
     ethr =  7.05E-05,  avg # of iterations =  4.6

     negative rho (up, down):  8.006E-01 0.000E+00

     total cpu time spent up to now is      348.0 secs

     total energy              =   -4482.98247082 Ry
     estimated scf accuracy    <       0.12587266 Ry

     iteration # 23     ecut=    60.00 Ry     beta= 0.15
     Davidson diagonalization with overlap

---- Real-time Memory Report at c_bands before calling an iterative solver
             0 MiB given to the printing process from OS
             0 MiB allocation reported by mallinfo(arena+hblkhd)
         31039 MiB available memory on the node where the printing process lives
------------------
     ethr =  2.88E-05,  avg # of iterations = 11.8

     negative rho (up, down):  8.318E-01 0.000E+00

     total cpu time spent up to now is      367.1 secs

     total energy              =   -4482.97383502 Ry
     estimated scf accuracy    <       0.06198953 Ry

     iteration # 24     ecut=    60.00 Ry     beta= 0.15
     Davidson diagonalization with overlap

---- Real-time Memory Report at c_bands before calling an iterative solver
             0 MiB given to the printing process from OS
             0 MiB allocation reported by mallinfo(arena+hblkhd)
         30987 MiB available memory on the node where the printing process lives
------------------
     ethr =  1.42E-05,  avg # of iterations = 11.4

     negative rho (up, down):  8.333E-01 0.000E+00

     total cpu time spent up to now is      386.8 secs

     total energy              =   -4482.97473183 Ry
     estimated scf accuracy    <       0.02411672 Ry

     iteration # 25     ecut=    60.00 Ry     beta= 0.15
     Davidson diagonalization with overlap

---- Real-time Memory Report at c_bands before calling an iterative solver
             0 MiB given to the printing process from OS
             0 MiB allocation reported by mallinfo(arena+hblkhd)
         30860 MiB available memory on the node where the printing process lives
------------------
     ethr =  5.52E-06,  avg # of iterations =  8.4

     negative rho (up, down):  8.076E-01 0.000E+00

     total cpu time spent up to now is      405.0 secs

     total energy              =   -4482.97312821 Ry
     estimated scf accuracy    <       0.01317176 Ry

     iteration # 26     ecut=    60.00 Ry     beta= 0.15
     Davidson diagonalization with overlap

---- Real-time Memory Report at c_bands before calling an iterative solver
             0 MiB given to the printing process from OS
             0 MiB allocation reported by mallinfo(arena+hblkhd)
         30843 MiB available memory on the node where the printing process lives
------------------
     c_bands:  1 eigenvalues not converged
     ethr =  3.01E-06,  avg # of iterations =  7.8

     negative rho (up, down):  8.057E-01 0.000E+00

     total cpu time spent up to now is      422.8 secs

     total energy              =   -4482.97265011 Ry
     estimated scf accuracy    <       0.00932347 Ry

     iteration # 27     ecut=    60.00 Ry     beta= 0.15
     Davidson diagonalization with overlap

---- Real-time Memory Report at c_bands before calling an iterative solver
             0 MiB given to the printing process from OS
             0 MiB allocation reported by mallinfo(arena+hblkhd)
         30847 MiB available memory on the node where the printing process lives
------------------
     ethr =  2.13E-06,  avg # of iterations =  3.9

     negative rho (up, down):  7.956E-01 0.000E+00

     total cpu time spent up to now is      438.4 secs

     total energy              =   -4482.97192520 Ry
     estimated scf accuracy    <       0.00574811 Ry

     iteration # 28     ecut=    60.00 Ry     beta= 0.15
     Davidson diagonalization with overlap

---- Real-time Memory Report at c_bands before calling an iterative solver
             0 MiB given to the printing process from OS
             0 MiB allocation reported by mallinfo(arena+hblkhd)
         30857 MiB available memory on the node where the printing process lives
------------------
     c_bands:  1 eigenvalues not converged
     ethr =  1.32E-06,  avg # of iterations =  8.9

     negative rho (up, down):  7.931E-01 0.000E+00

     total cpu time spent up to now is      457.2 secs

     total energy              =   -4482.97181475 Ry
     estimated scf accuracy    <       0.00257236 Ry

     iteration # 29     ecut=    60.00 Ry     beta= 0.15
     Davidson diagonalization with overlap

---- Real-time Memory Report at c_bands before calling an iterative solver
             0 MiB given to the printing process from OS
             0 MiB allocation reported by mallinfo(arena+hblkhd)
         30857 MiB available memory on the node where the printing process lives
------------------
     ethr =  5.89E-07,  avg # of iterations =  8.3

     negative rho (up, down):  7.936E-01 0.000E+00

     total cpu time spent up to now is      474.8 secs

     total energy              =   -4482.97191362 Ry
     estimated scf accuracy    <       0.00099131 Ry

     iteration # 30     ecut=    60.00 Ry     beta= 0.15
     Davidson diagonalization with overlap

---- Real-time Memory Report at c_bands before calling an iterative solver
             0 MiB given to the printing process from OS
             0 MiB allocation reported by mallinfo(arena+hblkhd)
         30806 MiB available memory on the node where the printing process lives
------------------
     ethr =  2.27E-07,  avg # of iterations =  2.8

     negative rho (up, down):  7.938E-01 0.000E+00

     total cpu time spent up to now is      489.4 secs

     total energy              =   -4482.97188021 Ry
     estimated scf accuracy    <       0.00060253 Ry

     iteration # 31     ecut=    60.00 Ry     beta= 0.15
     Davidson diagonalization with overlap

---- Real-time Memory Report at c_bands before calling an iterative solver
             0 MiB given to the printing process from OS
             0 MiB allocation reported by mallinfo(arena+hblkhd)
         30854 MiB available memory on the node where the printing process lives
------------------
     ethr =  1.38E-07,  avg # of iterations =  9.8

     negative rho (up, down):  7.927E-01 0.000E+00

     total cpu time spent up to now is      507.2 secs

     total energy              =   -4482.97189243 Ry
     estimated scf accuracy    <       0.00022845 Ry

     iteration # 32     ecut=    60.00 Ry     beta= 0.15
     Davidson diagonalization with overlap

---- Real-time Memory Report at c_bands before calling an iterative solver
             0 MiB given to the printing process from OS
             0 MiB allocation reported by mallinfo(arena+hblkhd)
         30824 MiB available memory on the node where the printing process lives
------------------
     ethr =  5.23E-08,  avg # of iterations =  4.3

     negative rho (up, down):  7.923E-01 0.000E+00

     total cpu time spent up to now is      523.0 secs

     total energy              =   -4482.97189302 Ry
     estimated scf accuracy    <       0.00014911 Ry

     iteration # 33     ecut=    60.00 Ry     beta= 0.15
     Davidson diagonalization with overlap

---- Real-time Memory Report at c_bands before calling an iterative solver
             0 MiB given to the printing process from OS
             0 MiB allocation reported by mallinfo(arena+hblkhd)
         30823 MiB available memory on the node where the printing process lives
------------------
     ethr =  3.41E-08,  avg # of iterations =  2.8

     negative rho (up, down):  7.922E-01 0.000E+00

     total cpu time spent up to now is      537.8 secs

     total energy              =   -4482.97189544 Ry
     estimated scf accuracy    <       0.00008130 Ry

     iteration # 34     ecut=    60.00 Ry     beta= 0.15
     Davidson diagonalization with overlap

---- Real-time Memory Report at c_bands before calling an iterative solver
             0 MiB given to the printing process from OS
             0 MiB allocation reported by mallinfo(arena+hblkhd)
         30846 MiB available memory on the node where the printing process lives
------------------
     ethr =  1.86E-08,  avg # of iterations =  2.0

     negative rho (up, down):  7.923E-01 0.000E+00

     total cpu time spent up to now is      552.2 secs

     total energy              =   -4482.97188856 Ry
     estimated scf accuracy    <       0.00005901 Ry

     iteration # 35     ecut=    60.00 Ry     beta= 0.15
     Davidson diagonalization with overlap

---- Real-time Memory Report at c_bands before calling an iterative solver
             0 MiB given to the printing process from OS
             0 MiB allocation reported by mallinfo(arena+hblkhd)
         30847 MiB available memory on the node where the printing process lives
------------------
     ethr =  1.35E-08,  avg # of iterations =  3.5

     negative rho (up, down):  7.922E-01 0.000E+00

     total cpu time spent up to now is      567.5 secs

     total energy              =   -4482.97189364 Ry
     estimated scf accuracy    <       0.00003797 Ry

     iteration # 36     ecut=    60.00 Ry     beta= 0.15
     Davidson diagonalization with overlap

---- Real-time Memory Report at c_bands before calling an iterative solver
             0 MiB given to the printing process from OS
             0 MiB allocation reported by mallinfo(arena+hblkhd)
         30835 MiB available memory on the node where the printing process lives
------------------
     ethr =  8.69E-09,  avg # of iterations =  2.8

     negative rho (up, down):  7.922E-01 0.000E+00

     total cpu time spent up to now is      582.3 secs

     total energy              =   -4482.97189545 Ry
     estimated scf accuracy    <       0.00002158 Ry

     iteration # 37     ecut=    60.00 Ry     beta= 0.15
     Davidson diagonalization with overlap

---- Real-time Memory Report at c_bands before calling an iterative solver
             0 MiB given to the printing process from OS
             0 MiB allocation reported by mallinfo(arena+hblkhd)
         30859 MiB available memory on the node where the printing process lives
------------------
     ethr =  4.94E-09,  avg # of iterations =  3.0

     negative rho (up, down):  7.921E-01 0.000E+00

     total cpu time spent up to now is      597.0 secs

     total energy              =   -4482.97189872 Ry
     estimated scf accuracy    <       0.00001817 Ry

     iteration # 38     ecut=    60.00 Ry     beta= 0.15
     Davidson diagonalization with overlap

---- Real-time Memory Report at c_bands before calling an iterative solver
             0 MiB given to the printing process from OS
             0 MiB allocation reported by mallinfo(arena+hblkhd)
         30880 MiB available memory on the node where the printing process lives
------------------
     ethr =  4.16E-09,  avg # of iterations =  4.5

     negative rho (up, down):  7.921E-01 0.000E+00

     total cpu time spent up to now is      612.6 secs

     total energy              =   -4482.97189986 Ry
     estimated scf accuracy    <       0.00000581 Ry

     iteration # 39     ecut=    60.00 Ry     beta= 0.15
     Davidson diagonalization with overlap

---- Real-time Memory Report at c_bands before calling an iterative solver
             0 MiB given to the printing process from OS
             0 MiB allocation reported by mallinfo(arena+hblkhd)
         30884 MiB available memory on the node where the printing process lives
------------------
     ethr =  1.33E-09,  avg # of iterations =  2.7

     negative rho (up, down):  7.922E-01 0.000E+00

     total cpu time spent up to now is      627.0 secs

     total energy              =   -4482.97189980 Ry
     estimated scf accuracy    <       0.00000498 Ry

     iteration # 40     ecut=    60.00 Ry     beta= 0.15
     Davidson diagonalization with overlap

---- Real-time Memory Report at c_bands before calling an iterative solver
             0 MiB given to the printing process from OS
             0 MiB allocation reported by mallinfo(arena+hblkhd)
         30881 MiB available memory on the node where the printing process lives
------------------
     ethr =  1.14E-09,  avg # of iterations =  2.5

     negative rho (up, down):  7.922E-01 0.000E+00

     total cpu time spent up to now is      641.5 secs

     total energy              =   -4482.97190000 Ry
     estimated scf accuracy    <       0.00000335 Ry

     iteration # 41     ecut=    60.00 Ry     beta= 0.15
     Davidson diagonalization with overlap

---- Real-time Memory Report at c_bands before calling an iterative solver
             0 MiB given to the printing process from OS
             0 MiB allocation reported by mallinfo(arena+hblkhd)
         30880 MiB available memory on the node where the printing process lives
------------------
     ethr =  7.67E-10,  avg # of iterations =  3.4

     negative rho (up, down):  7.923E-01 0.000E+00

     total cpu time spent up to now is      656.6 secs

     total energy              =   -4482.97190025 Ry
     estimated scf accuracy    <       0.00000200 Ry

     iteration # 42     ecut=    60.00 Ry     beta= 0.15
     Davidson diagonalization with overlap

---- Real-time Memory Report at c_bands before calling an iterative solver
             0 MiB given to the printing process from OS
             0 MiB allocation reported by mallinfo(arena+hblkhd)
         30885 MiB available memory on the node where the printing process lives
------------------
     ethr =  4.57E-10,  avg # of iterations =  2.1

     negative rho (up, down):  7.923E-01 0.000E+00

     total cpu time spent up to now is      671.0 secs

     total energy              =   -4482.97190035 Ry
     estimated scf accuracy    <       0.00000152 Ry

     iteration # 43     ecut=    60.00 Ry     beta= 0.15
     Davidson diagonalization with overlap

---- Real-time Memory Report at c_bands before calling an iterative solver
             0 MiB given to the printing process from OS
             0 MiB allocation reported by mallinfo(arena+hblkhd)
         30885 MiB available memory on the node where the printing process lives
------------------
     ethr =  3.49E-10,  avg # of iterations =  2.7

     negative rho (up, down):  7.923E-01 0.000E+00

     total cpu time spent up to now is      686.0 secs

     total energy              =   -4482.97190040 Ry
     estimated scf accuracy    <       0.00000104 Ry

     iteration # 44     ecut=    60.00 Ry     beta= 0.15
     Davidson diagonalization with overlap

---- Real-time Memory Report at c_bands before calling an iterative solver
             0 MiB given to the printing process from OS
             0 MiB allocation reported by mallinfo(arena+hblkhd)
         30883 MiB available memory on the node where the printing process lives
------------------
     ethr =  2.38E-10,  avg # of iterations =  3.6

     negative rho (up, down):  7.923E-01 0.000E+00

     total cpu time spent up to now is      701.0 secs

     total energy              =   -4482.97190035 Ry
     estimated scf accuracy    <       0.00000050 Ry

     iteration # 45     ecut=    60.00 Ry     beta= 0.15
     Davidson diagonalization with overlap

---- Real-time Memory Report at c_bands before calling an iterative solver
             0 MiB given to the printing process from OS
             0 MiB allocation reported by mallinfo(arena+hblkhd)
         30891 MiB available memory on the node where the printing process lives
------------------
     ethr =  1.15E-10,  avg # of iterations =  3.8

     negative rho (up, down):  7.923E-01 0.000E+00

     total cpu time spent up to now is      716.1 secs

     total energy              =   -4482.97190035 Ry
     estimated scf accuracy    <       0.00000029 Ry

     iteration # 46     ecut=    60.00 Ry     beta= 0.15
     Davidson diagonalization with overlap

---- Real-time Memory Report at c_bands before calling an iterative solver
             0 MiB given to the printing process from OS
             0 MiB allocation reported by mallinfo(arena+hblkhd)
         30900 MiB available memory on the node where the printing process lives
------------------
     ethr =  6.52E-11,  avg # of iterations =  3.5

     negative rho (up, down):  7.923E-01 0.000E+00

     total cpu time spent up to now is      731.1 secs

     total energy              =   -4482.97190037 Ry
     estimated scf accuracy    <       0.00000019 Ry

     iteration # 47     ecut=    60.00 Ry     beta= 0.15
     Davidson diagonalization with overlap

---- Real-time Memory Report at c_bands before calling an iterative solver
             0 MiB given to the printing process from OS
             0 MiB allocation reported by mallinfo(arena+hblkhd)
         30898 MiB available memory on the node where the printing process lives
------------------
     ethr =  4.26E-11,  avg # of iterations =  3.6

     negative rho (up, down):  7.923E-01 0.000E+00

     total cpu time spent up to now is      746.4 secs

     total energy              =   -4482.97190038 Ry
     estimated scf accuracy    <       0.00000010 Ry

     iteration # 48     ecut=    60.00 Ry     beta= 0.15
     Davidson diagonalization with overlap

---- Real-time Memory Report at c_bands before calling an iterative solver
             0 MiB given to the printing process from OS
             0 MiB allocation reported by mallinfo(arena+hblkhd)
         30903 MiB available memory on the node where the printing process lives
------------------
     ethr =  2.32E-11,  avg # of iterations =  3.5

     negative rho (up, down):  7.923E-01 0.000E+00

     total cpu time spent up to now is      761.6 secs

     total energy              =   -4482.97190039 Ry
     estimated scf accuracy    <       0.00000004 Ry

     iteration # 49     ecut=    60.00 Ry     beta= 0.15
     Davidson diagonalization with overlap

---- Real-time Memory Report at c_bands before calling an iterative solver
             0 MiB given to the printing process from OS
             0 MiB allocation reported by mallinfo(arena+hblkhd)
         30906 MiB available memory on the node where the printing process lives
------------------
     ethr =  8.48E-12,  avg # of iterations =  4.0

     negative rho (up, down):  7.923E-01 0.000E+00

     total cpu time spent up to now is      777.0 secs

     total energy              =   -4482.97190039 Ry
     estimated scf accuracy    <       0.00000002 Ry

     iteration # 50     ecut=    60.00 Ry     beta= 0.15
     Davidson diagonalization with overlap

---- Real-time Memory Report at c_bands before calling an iterative solver
             0 MiB given to the printing process from OS
             0 MiB allocation reported by mallinfo(arena+hblkhd)
         30908 MiB available memory on the node where the printing process lives
------------------
     ethr =  4.10E-12,  avg # of iterations =  2.4

     negative rho (up, down):  7.923E-01 0.000E+00

     total cpu time spent up to now is      791.3 secs

     End of self-consistent calculation

          k = 0.0000 0.0000 0.0000 ( 65197 PWs)   bands (ev):

   -92.3354 -92.2801 -92.1892 -92.1401 -92.0839 -92.0421 -92.0242 -91.8988
   -55.6885 -55.6665 -55.5471 -55.5365 -55.5282 -55.5232 -55.4846 -55.4588
   -55.4422 -55.4413 -55.4320 -55.3914 -55.3715 -55.3351 -55.3150 -55.2838
   -55.2756 -55.2305 -55.2277 -55.2271 -55.2192 -55.1727 -55.1551 -55.0660
   -30.9220 -30.9030 -30.7620 -30.7149 -30.6888 -30.6755 -30.5878 -30.5008
   -29.4868 -29.4434 -29.4177 -29.3095 -22.2512 -14.7206 -14.6851 -14.5988
   -14.4681 -14.2859 -14.1615 -13.8610 -13.8434 -13.8112 -13.7708 -13.7675
   -13.7271 -13.7223 -13.7051 -13.6867 -13.6659 -13.6292 -13.5698 -13.4222
   -13.2525 -13.2096 -13.1790 -13.1527 -13.1323 -13.0847 -13.0462 -12.9690
   -12.8964 -12.8030 -12.7578 -12.7546 -12.7438 -12.7196 -12.7021 -12.6774
   -12.6506 -12.6390 -12.6070 -12.5704 -12.5668 -12.5494 -12.5427 -12.5390
   -12.5056 -12.4837 -12.4597 -12.4288 -12.3881 -12.3703 -11.9873 -11.8425
   -11.7297 -11.6503 -11.5009 -11.4260 -11.4149 -11.3929 -11.3752 -11.3112
   -11.2940 -11.2592 -11.2302 -11.1195 -11.0386 -11.0350  -5.8326  -3.1579
    -3.1550  -2.5810  -2.3476  -2.1176  -1.9727  -1.9077  -1.7649  -1.4590
    -1.4447  -1.4233  -1.3422  -1.3231  -1.2547  -1.2389  -1.1959  -1.1529
    -0.9717  -0.7502  -0.7187  -0.5686  -0.5552  -0.5118  -0.4934  -0.4489
    -0.4338  -0.3725  -0.3460  -0.2763  -0.2674  -0.1849  -0.0584  -0.0445
    -0.0151   0.0659   0.0675   0.0870   0.1499   0.2311   0.2708   0.3218
     0.3457   0.4142   0.4772   0.5409   0.5552   0.5719   0.8245   0.8385
     1.0070   1.0805   1.1439   1.1832   1.2788   1.2907   1.3036   1.3786
     1.4065   1.4406   1.5006   1.6352   1.6878   1.7082   1.7239   1.7397
     1.8071   1.8852   1.9796   1.9916   2.0495   2.0737   2.1111   2.1281
     2.1368   2.1971   2.2478   2.2555   2.2812   2.3113   2.3828   2.5125
     2.5977   2.6405   2.6479   2.8047   2.8163   2.8695   2.8768   2.9736
     3.0168   3.0407   3.0604   3.0629   3.0718   3.0764   3.1542   3.2658
     3.3001   3.3146   3.3212   3.3870   3.3914   3.4160   3.4243   3.4317
     3.4401   3.4511   3.4631   3.4696   3.4820   3.4911   3.4999   3.5196
     3.5409   3.5459   3.5580   3.5787   3.6998   3.7462   4.4229   4.7685
     4.7853   5.1424   5.3913   5.5060   5.7128   6.2790   6.3295   6.3506
     6.6175   6.6261   6.6776   6.7247   6.9707   7.2157   7.2766   7.3841
     7.4691   7.6536   7.7948   7.9091   7.9397   7.9637   8.0418   8.1349
     8.3293   8.3702   8.3722   8.4099   8.4846   8.5573   8.5905

     occupation numbers 
     1.0000   1.0000   1.0000   1.0000   1.0000   1.0000   1.0000   1.0000
     1.0000   1.0000   1.0000   1.0000   1.0000   1.0000   1.0000   1.0000
     1.0000   1.0000   1.0000   1.0000   1.0000   1.0000   1.0000   1.0000
     1.0000   1.0000   1.0000   1.0000   1.0000   1.0000   1.0000   1.0000
     1.0000   1.0000   1.0000   1.0000   1.0000   1.0000   1.0000   1.0000
     1.0000   1.0000   1.0000   1.0000   1.0000   1.0000   1.0000   1.0000
     1.0000   1.0000   1.0000   1.0000   1.0000   1.0000   1.0000   1.0000
     1.0000   1.0000   1.0000   1.0000   1.0000   1.0000   1.0000   1.0000
     1.0000   1.0000   1.0000   1.0000   1.0000   1.0000   1.0000   1.0000
     1.0000   1.0000   1.0000   1.0000   1.0000   1.0000   1.0000   1.0000
     1.0000   1.0000   1.0000   1.0000   1.0000   1.0000   1.0000   1.0000
     1.0000   1.0000   1.0000   1.0000   1.0000   1.0000   1.0000   1.0000
     1.0000   1.0000   1.0000   1.0000   1.0000   1.0000   1.0000   1.0000
     1.0000   1.0000   1.0000   1.0000   1.0000   1.0000   1.0000   1.0000
     1.0000   1.0000   1.0000   1.0000   1.0000   1.0000   1.0000   1.0000
     1.0000   1.0000   1.0000   1.0000   1.0000   1.0000   1.0000   1.0000
     1.0000   1.0000   1.0000   1.0000   1.0000   1.0000   1.0000   1.0000
     1.0000   1.0000   1.0000   1.0000   1.0000   1.0000   1.0000   1.0000
     1.0000   1.0000   1.0000   1.0000   1.0000   1.0000   1.0000   1.0000
     1.0000   1.0000   1.0000   1.0000   1.0000   1.0000   1.0000   1.0000
     1.0000   0.9999   0.9999   0.9999   0.9998   0.9998   0.9998   0.9997
     0.9997   0.9996   0.9994   0.9989   0.9985   0.9984   0.9983   0.9981
     0.9974   0.9963   0.9945   0.9942   0.9926   0.9918   0.9905   0.9898
     0.9895   0.9867   0.9839   0.9835   0.9818   0.9798   0.9740   0.9599
     0.9478   0.9406   0.9393   0.9059   0.9030   0.8887   0.8867   0.8566
     0.8416   0.8329   0.8255   0.8245   0.8211   0.8193   0.7873   0.7361
     0.7192   0.7119   0.7085   0.6741   0.6718   0.6585   0.6539   0.6499
     0.6452   0.6392   0.6325   0.6288   0.6218   0.6167   0.6117   0.6005
     0.5882   0.5853   0.5783   0.5662   0.4948   0.4673   0.1385   0.0548
     0.0521   0.0156   0.0058   0.0035   0.0013   0.0001   0.0000   0.0000
     0.0000   0.0000   0.0000   0.0000   0.0000   0.0000   0.0000   0.0000
     0.0000   0.0000   0.0000   0.0000   0.0000   0.0000   0.0000   0.0000
     0.0000   0.0000   0.0000   0.0000   0.0000   0.0000   0.0000

          k = 0.0000 0.2500 0.0000 ( 65257 PWs)   bands (ev):

   -92.3354 -92.2801 -92.1892 -92.1401 -92.0839 -92.0421 -92.0242 -91.8988
   -55.6885 -55.6665 -55.5471 -55.5365 -55.5282 -55.5232 -55.4846 -55.4588
   -55.4422 -55.4413 -55.4320 -55.3914 -55.3715 -55.3351 -55.3150 -55.2838
   -55.2756 -55.2305 -55.2277 -55.2271 -55.2192 -55.1727 -55.1551 -55.0660
   -30.9218 -30.9029 -30.7623 -30.7137 -30.6900 -30.6757 -30.5875 -30.5012
   -29.4862 -29.4431 -29.4183 -29.3099 -22.2512 -14.6834 -14.6594 -14.5738
   -14.4388 -14.3241 -14.1513 -14.0069 -13.8267 -13.7975 -13.7745 -13.7680
   -13.7456 -13.6884 -13.6821 -13.6698 -13.6516 -13.6104 -13.4903 -13.4527
   -13.2910 -13.2756 -13.2203 -13.1869 -13.1454 -13.0982 -13.0604 -12.9878
   -12.9550 -12.9195 -12.8543 -12.7929 -12.7534 -12.7417 -12.7337 -12.6425
   -12.6212 -12.6004 -12.5791 -12.5492 -12.5246 -12.5121 -12.4956 -12.4901
   -12.4616 -12.4483 -12.4415 -12.4146 -12.2839 -12.2006 -12.0487 -11.8938
   -11.7864 -11.7181 -11.4663 -11.4228 -11.3955 -11.3670 -11.3503 -11.3032
   -11.2918 -11.2693 -11.2351 -11.1337 -11.0802 -11.0696  -5.8326  -3.1579
    -3.1552  -2.4458  -2.2233  -2.0858  -1.9041  -1.8602  -1.6958  -1.4788
    -1.3913  -1.3782  -1.3232  -1.2184  -1.2046  -1.1711  -1.1446  -1.1014
    -0.9029  -0.7739  -0.7624  -0.6879  -0.6755  -0.5709  -0.5400  -0.4851
    -0.4604  -0.4165  -0.3554  -0.3294  -0.2958  -0.2659  -0.2497  -0.2150
    -0.1424  -0.0899  -0.0340   0.0834   0.0993   0.1409   0.2699   0.3059
     0.3503   0.4127   0.4526   0.4853   0.5188   0.5769   0.8718   0.9592
     0.9966   1.0741   1.1148   1.1404   1.2638   1.2840   1.3810   1.4045
     1.4356   1.5489   1.6360   1.6651   1.6877   1.7010   1.7324   1.7954
     1.8194   1.8482   1.8964   1.9258   1.9568   2.0393   2.0659   2.1006
     2.1558   2.2135   2.2458   2.2693   2.2992   2.3249   2.4153   2.5555
     2.6182   2.6335   2.7197   2.7627   2.8014   2.8090   2.8715   2.9164
     2.9919   3.0312   3.0493   3.0625   3.0701   3.2279   3.2493   3.2817
     3.3026   3.3199   3.3293   3.3375   3.3443   3.3748   3.3766   3.3928
     3.3978   3.4102   3.4273   3.4371   3.4481   3.4704   3.4813   3.4859
     3.5216   3.5384   3.5983   3.9619   3.9721   4.2360   4.6041   4.7619
     4.9054   5.0950   5.4131   5.5273   5.8415   5.9514   6.1570   6.2943
     6.3384   6.4590   6.5311   6.7420   6.8975   7.0588   7.3009   7.5321
     7.5612   7.7024   7.8021   7.8842   7.9564   8.0200   8.0935   8.1980
     8.2396   8.4226   8.4984   8.5513   8.6000   8.6804   8.9560

     occupation numbers 
     1.0000   1.0000   1.0000   1.0000   1.0000   1.0000   1.0000   1.0000
     1.0000   1.0000   1.0000   1.0000   1.0000   1.0000   1.0000   1.0000
     1.0000   1.0000   1.0000   1.0000   1.0000   1.0000   1.0000   1.0000
     1.0000   1.0000   1.0000   1.0000   1.0000   1.0000   1.0000   1.0000
     1.0000   1.0000   1.0000   1.0000   1.0000   1.0000   1.0000   1.0000
     1.0000   1.0000   1.0000   1.0000   1.0000   1.0000   1.0000   1.0000
     1.0000   1.0000   1.0000   1.0000   1.0000   1.0000   1.0000   1.0000
     1.0000   1.0000   1.0000   1.0000   1.0000   1.0000   1.0000   1.0000
     1.0000   1.0000   1.0000   1.0000   1.0000   1.0000   1.0000   1.0000
     1.0000   1.0000   1.0000   1.0000   1.0000   1.0000   1.0000   1.0000
     1.0000   1.0000   1.0000   1.0000   1.0000   1.0000   1.0000   1.0000
     1.0000   1.0000   1.0000   1.0000   1.0000   1.0000   1.0000   1.0000
     1.0000   1.0000   1.0000   1.0000   1.0000   1.0000   1.0000   1.0000
     1.0000   1.0000   1.0000   1.0000   1.0000   1.0000   1.0000   1.0000
     1.0000   1.0000   1.0000   1.0000   1.0000   1.0000   1.0000   1.0000
     1.0000   1.0000   1.0000   1.0000   1.0000   1.0000   1.0000   1.0000
     1.0000   1.0000   1.0000   1.0000   1.0000   1.0000   1.0000   1.0000
     1.0000   1.0000   1.0000   1.0000   1.0000   1.0000   1.0000   1.0000
     1.0000   1.0000   1.0000   1.0000   1.0000   1.0000   1.0000   1.0000
     1.0000   1.0000   1.0000   1.0000   1.0000   1.0000   1.0000   1.0000
     1.0000   0.9999   0.9999   0.9999   0.9998   0.9998   0.9997   0.9997
     0.9996   0.9993   0.9989   0.9987   0.9985   0.9984   0.9982   0.9976
     0.9973   0.9969   0.9961   0.9956   0.9950   0.9929   0.9921   0.9909
     0.9887   0.9859   0.9841   0.9826   0.9806   0.9787   0.9709   0.9541
     0.9444   0.9418   0.9254   0.9160   0.9067   0.9048   0.8882   0.8750
     0.8504   0.8364   0.8297   0.8247   0.8217   0.7541   0.7440   0.7283
     0.7179   0.7092   0.7044   0.7002   0.6966   0.6806   0.6797   0.6710
     0.6683   0.6616   0.6523   0.6469   0.6408   0.6284   0.6223   0.6196
     0.5993   0.5896   0.5547   0.3437   0.3382   0.2092   0.0876   0.0559
     0.0357   0.0185   0.0053   0.0032   0.0007   0.0004   0.0001   0.0001
     0.0000   0.0000   0.0000   0.0000   0.0000   0.0000   0.0000   0.0000
     0.0000   0.0000   0.0000   0.0000   0.0000   0.0000   0.0000   0.0000
     0.0000   0.0000   0.0000   0.0000   0.0000   0.0000   0.0000

          k = 0.0000-0.5000 0.0000 ( 65180 PWs)   bands (ev):

   -92.3354 -92.2801 -92.1892 -92.1401 -92.0839 -92.0421 -92.0242 -91.8988
   -55.6885 -55.6665 -55.5471 -55.5365 -55.5282 -55.5232 -55.4846 -55.4588
   -55.4422 -55.4413 -55.4320 -55.3914 -55.3715 -55.3351 -55.3150 -55.2838
   -55.2756 -55.2305 -55.2277 -55.2271 -55.2192 -55.1727 -55.1551 -55.0660
   -30.9216 -30.9028 -30.7625 -30.7123 -30.6914 -30.6758 -30.5871 -30.5016
   -29.4855 -29.4428 -29.4189 -29.3102 -22.2512 -14.6519 -14.6030 -14.5520
   -14.4259 -14.3373 -14.2003 -14.0553 -13.9310 -13.7967 -13.7690 -13.7351
   -13.6889 -13.6775 -13.6321 -13.6123 -13.5680 -13.5502 -13.5226 -13.4869
   -13.4556 -13.4244 -13.2236 -13.1681 -13.1541 -13.0973 -13.0579 -13.0025
   -12.9929 -12.9391 -12.9289 -12.8638 -12.7542 -12.7397 -12.7036 -12.6923
   -12.6173 -12.6020 -12.5743 -12.5273 -12.5221 -12.4956 -12.4856 -12.4521
   -12.4293 -12.4213 -12.3497 -12.2963 -12.1599 -12.1365 -11.9795 -11.9691
   -11.8880 -11.8523 -11.4198 -11.4179 -11.3907 -11.3526 -11.3185 -11.3075
   -11.2648 -11.2609 -11.2168 -11.1552 -11.1411 -11.1268  -5.8326  -3.1579
    -3.1554  -2.2307  -2.1723  -2.0199  -1.9474  -1.6674  -1.5849  -1.4556
    -1.3174  -1.2827  -1.2613  -1.1834  -1.1515  -1.0706  -1.0351  -0.9586
    -0.9177  -0.8779  -0.8512  -0.7974  -0.7578  -0.7120  -0.6754  -0.6417
    -0.6081  -0.4972  -0.4521  -0.4203  -0.4184  -0.3324  -0.3005  -0.2768
    -0.2327  -0.1462  -0.0741   0.0066   0.0324   0.1533   0.1771   0.3309
     0.3526   0.3986   0.4274   0.5457   0.6306   0.7536   0.8189   0.8266
     0.9568   1.0040   1.0708   1.2381   1.3361   1.3693   1.4062   1.4139
     1.4430   1.4695   1.5068   1.5232   1.5401   1.6456   1.6997   1.7261
     1.7503   2.0165   2.0490   2.0728   2.1486   2.1771   2.2229   2.2374
     2.2701   2.2763   2.2890   2.3125   2.3598   2.3799   2.4061   2.4252
     2.4540   2.5091   2.5910   2.6257   2.7893   2.9650   2.9759   2.9842
     3.0233   3.0252   3.0434   3.0618   3.0733   3.0944   3.1074   3.1616
     3.1821   3.2586   3.2691   3.3410   3.3441   3.3726   3.3736   3.3918
     3.3950   3.3982   3.4049   3.4084   3.4205   3.4409   3.4418   3.5069
     3.5121   3.5280   3.5841   4.4682   4.4836   4.5530   4.5859   5.0135
     5.0794   5.2505   5.3302   5.5316   5.7271   5.8265   5.8793   6.0507
     6.2472   6.3386   6.3984   6.4242   7.0239   7.1092   7.1252   7.4031
     7.5425   7.7630   7.7803   7.8933   8.0715   8.1351   8.2173   8.3455
     8.4753   8.5690   8.6520   8.7086   8.7603   8.8593   8.9777

     occupation numbers 
     1.0000   1.0000   1.0000   1.0000   1.0000   1.0000   1.0000   1.0000
     1.0000   1.0000   1.0000   1.0000   1.0000   1.0000   1.0000   1.0000
     1.0000   1.0000   1.0000   1.0000   1.0000   1.0000   1.0000   1.0000
     1.0000   1.0000   1.0000   1.0000   1.0000   1.0000   1.0000   1.0000
     1.0000   1.0000   1.0000   1.0000   1.0000   1.0000   1.0000   1.0000
     1.0000   1.0000   1.0000   1.0000   1.0000   1.0000   1.0000   1.0000
     1.0000   1.0000   1.0000   1.0000   1.0000   1.0000   1.0000   1.0000
     1.0000   1.0000   1.0000   1.0000   1.0000   1.0000   1.0000   1.0000
     1.0000   1.0000   1.0000   1.0000   1.0000   1.0000   1.0000   1.0000
     1.0000   1.0000   1.0000   1.0000   1.0000   1.0000   1.0000   1.0000
     1.0000   1.0000   1.0000   1.0000   1.0000   1.0000   1.0000   1.0000
     1.0000   1.0000   1.0000   1.0000   1.0000   1.0000   1.0000   1.0000
     1.0000   1.0000   1.0000   1.0000   1.0000   1.0000   1.0000   1.0000
     1.0000   1.0000   1.0000   1.0000   1.0000   1.0000   1.0000   1.0000
     1.0000   1.0000   1.0000   1.0000   1.0000   1.0000   1.0000   1.0000
     1.0000   1.0000   1.0000   1.0000   1.0000   1.0000   1.0000   1.0000
     1.0000   1.0000   1.0000   1.0000   1.0000   1.0000   1.0000   1.0000
     1.0000   1.0000   1.0000   1.0000   1.0000   1.0000   1.0000   1.0000
     1.0000   1.0000   1.0000   1.0000   1.0000   1.0000   1.0000   1.0000
     1.0000   1.0000   1.0000   1.0000   1.0000   1.0000   1.0000   1.0000
     1.0000   1.0000   1.0000   0.9999   0.9998   0.9997   0.9997   0.9996
     0.9996   0.9995   0.9994   0.9994   0.9993   0.9988   0.9984   0.9982
     0.9980   0.9935   0.9926   0.9919   0.9890   0.9877   0.9854   0.9845
     0.9826   0.9822   0.9813   0.9797   0.9760   0.9742   0.9718   0.9699
     0.9669   0.9604   0.9488   0.9431   0.9097   0.8595   0.8558   0.8530
     0.8393   0.8386   0.8319   0.8249   0.8205   0.8122   0.8069   0.7841
     0.7750   0.7396   0.7345   0.6984   0.6967   0.6818   0.6813   0.6716
     0.6699   0.6681   0.6645   0.6626   0.6560   0.6448   0.6443   0.6077
     0.6047   0.5956   0.5631   0.1242   0.1196   0.1003   0.0920   0.0248
     0.0196   0.0103   0.0075   0.0031   0.0012   0.0008   0.0006   0.0002
     0.0001   0.0000   0.0000   0.0000   0.0000   0.0000   0.0000   0.0000
     0.0000   0.0000   0.0000   0.0000   0.0000   0.0000   0.0000   0.0000
     0.0000   0.0000   0.0000   0.0000   0.0000   0.0000   0.0000

          k = 0.2500 0.2500 0.0000 ( 65198 PWs)   bands (ev):

   -92.3354 -92.2801 -92.1892 -92.1401 -92.0839 -92.0421 -92.0242 -91.8988
   -55.6885 -55.6665 -55.5471 -55.5365 -55.5282 -55.5232 -55.4846 -55.4588
   -55.4422 -55.4413 -55.4320 -55.3914 -55.3715 -55.3351 -55.3150 -55.2838
   -55.2756 -55.2305 -55.2277 -55.2271 -55.2192 -55.1727 -55.1551 -55.0660
   -30.9201 -30.9047 -30.7619 -30.7134 -30.6899 -30.6760 -30.5877 -30.5013
   -29.4852 -29.4441 -29.4179 -29.3103 -22.2512 -14.6555 -14.6238 -14.5460
   -14.4283 -14.3156 -14.1905 -14.1117 -13.9115 -13.7693 -13.7497 -13.7386
   -13.7047 -13.6734 -13.6523 -13.6319 -13.5967 -13.5715 -13.4828 -13.4673
   -13.3063 -13.2935 -13.2628 -13.2432 -13.2053 -13.1528 -13.0964 -13.0701
   -12.9820 -12.9483 -12.8756 -12.7875 -12.7469 -12.6966 -12.6852 -12.6646
   -12.6372 -12.6032 -12.5927 -12.5704 -12.5493 -12.5125 -12.4857 -12.4645
   -12.4171 -12.4093 -12.3874 -12.3586 -12.2214 -12.0973 -12.0942 -11.9230
   -11.8168 -11.7679 -11.4385 -11.4065 -11.3960 -11.3885 -11.3263 -11.2912
   -11.2847 -11.2494 -11.2415 -11.1503 -11.1084 -11.0911  -5.8326  -3.1581
    -3.1552  -2.3077  -2.0975  -1.9798  -1.8873  -1.7644  -1.6991  -1.5039
    -1.3568  -1.3363  -1.3098  -1.2133  -1.1809  -1.0873  -1.0606  -1.0102
    -0.8775  -0.8308  -0.7590  -0.7129  -0.6689  -0.6442  -0.6189  -0.5774
    -0.5615  -0.4720  -0.4219  -0.3592  -0.3097  -0.2798  -0.2279  -0.2177
    -0.1541  -0.1028  -0.0516  -0.0133   0.0685   0.1266   0.1507   0.1945
     0.2475   0.3273   0.3546   0.3781   0.4519   0.4824   0.7652   0.9139
     0.9513   1.0068   1.0479   1.0853   1.1449   1.2147   1.2514   1.5246
     1.5973   1.6715   1.6990   1.7411   1.7767   1.8124   1.8501   1.8674
     1.8967   1.9356   1.9436   1.9625   2.0001   2.0388   2.0835   2.1398
     2.1672   2.1830   2.2100   2.2514   2.2967   2.3212   2.4561   2.5311
     2.5707   2.5963   2.6486   2.7203   2.7535   2.7918   2.8177   2.8259
     2.9352   2.9748   3.0584   3.0625   3.0696   3.2386   3.2564   3.2626
     3.2787   3.2930   3.3051   3.3181   3.3250   3.3347   3.3486   3.3597
     3.3795   3.3858   3.3969   3.4169   3.4317   3.4420   3.4724   3.7743
     3.8646   3.9023   3.9694   3.9861   4.2072   4.3158   4.6455   4.8069
     4.9751   5.1393   5.3413   5.5837   5.9509   5.9649   5.9951   6.1220
     6.2029   6.2529   6.3501   6.4061   6.9451   7.0273   7.0969   7.2013
     7.7278   7.7936   7.8400   7.8956   8.0269   8.1484   8.2563   8.2876
     8.3543   8.4497   8.6007   8.6798   8.7223   8.7459   8.8414

     occupation numbers 
     1.0000   1.0000   1.0000   1.0000   1.0000   1.0000   1.0000   1.0000
     1.0000   1.0000   1.0000   1.0000   1.0000   1.0000   1.0000   1.0000
     1.0000   1.0000   1.0000   1.0000   1.0000   1.0000   1.0000   1.0000
     1.0000   1.0000   1.0000   1.0000   1.0000   1.0000   1.0000   1.0000
     1.0000   1.0000   1.0000   1.0000   1.0000   1.0000   1.0000   1.0000
     1.0000   1.0000   1.0000   1.0000   1.0000   1.0000   1.0000   1.0000
     1.0000   1.0000   1.0000   1.0000   1.0000   1.0000   1.0000   1.0000
     1.0000   1.0000   1.0000   1.0000   1.0000   1.0000   1.0000   1.0000
     1.0000   1.0000   1.0000   1.0000   1.0000   1.0000   1.0000   1.0000
     1.0000   1.0000   1.0000   1.0000   1.0000   1.0000   1.0000   1.0000
     1.0000   1.0000   1.0000   1.0000   1.0000   1.0000   1.0000   1.0000
     1.0000   1.0000   1.0000   1.0000   1.0000   1.0000   1.0000   1.0000
     1.0000   1.0000   1.0000   1.0000   1.0000   1.0000   1.0000   1.0000
     1.0000   1.0000   1.0000   1.0000   1.0000   1.0000   1.0000   1.0000
     1.0000   1.0000   1.0000   1.0000   1.0000   1.0000   1.0000   1.0000
     1.0000   1.0000   1.0000   1.0000   1.0000   1.0000   1.0000   1.0000
     1.0000   1.0000   1.0000   1.0000   1.0000   1.0000   1.0000   1.0000
     1.0000   1.0000   1.0000   1.0000   1.0000   1.0000   1.0000   1.0000
     1.0000   1.0000   1.0000   1.0000   1.0000   1.0000   1.0000   1.0000
     1.0000   1.0000   1.0000   1.0000   1.0000   1.0000   1.0000   1.0000
     1.0000   1.0000   1.0000   0.9999   0.9999   0.9999   0.9999   0.9994
     0.9991   0.9986   0.9985   0.9981   0.9978   0.9974   0.9969   0.9966
     0.9961   0.9954   0.9953   0.9949   0.9940   0.9929   0.9915   0.9894
     0.9882   0.9874   0.9861   0.9837   0.9808   0.9790   0.9666   0.9575
     0.9519   0.9480   0.9392   0.9253   0.9180   0.9091   0.9026   0.9005
     0.8691   0.8562   0.8262   0.8246   0.8219   0.7491   0.7406   0.7376
     0.7298   0.7227   0.7167   0.7101   0.7066   0.7016   0.6944   0.6886
     0.6781   0.6748   0.6688   0.6580   0.6499   0.6442   0.6272   0.4508
     0.3982   0.3769   0.3396   0.3306   0.2217   0.1768   0.0782   0.0488
     0.0283   0.0158   0.0071   0.0025   0.0004   0.0004   0.0003   0.0002
     0.0001   0.0001   0.0000   0.0000   0.0000   0.0000   0.0000   0.0000
     0.0000   0.0000   0.0000   0.0000   0.0000   0.0000   0.0000   0.0000
     0.0000   0.0000   0.0000   0.0000   0.0000   0.0000   0.0000

          k = 0.2500-0.5000 0.0000 ( 65138 PWs)   bands (ev):

   -92.3354 -92.2801 -92.1892 -92.1401 -92.0839 -92.0421 -92.0242 -91.8988
   -55.6885 -55.6665 -55.5471 -55.5365 -55.5282 -55.5232 -55.4846 -55.4588
   -55.4422 -55.4413 -55.4320 -55.3914 -55.3715 -55.3351 -55.3150 -55.2838
   -55.2756 -55.2305 -55.2277 -55.2271 -55.2192 -55.1727 -55.1551 -55.0660
   -30.9199 -30.9045 -30.7621 -30.7121 -30.6912 -30.6762 -30.5873 -30.5017
   -29.4846 -29.4437 -29.4185 -29.3106 -22.2512 -14.6218 -14.5761 -14.5091
   -14.3943 -14.3616 -14.2406 -14.1561 -14.0270 -13.7690 -13.7136 -13.6668
   -13.6360 -13.6164 -13.5991 -13.5844 -13.5532 -13.5381 -13.5033 -13.4620
   -13.4436 -13.4107 -13.3074 -13.2591 -13.2224 -13.1799 -13.1160 -13.1048
   -13.0383 -13.0096 -12.8516 -12.7874 -12.7656 -12.6793 -12.6635 -12.6515
   -12.6331 -12.6147 -12.5887 -12.5572 -12.5417 -12.4997 -12.4832 -12.4635
   -12.4338 -12.4295 -12.3002 -12.2688 -12.1665 -12.1167 -11.9668 -11.9570
   -11.8771 -11.8539 -11.4138 -11.4020 -11.3910 -11.3638 -11.3323 -11.3040
   -11.2627 -11.2351 -11.2129 -11.1683 -11.1421 -11.1309  -5.8326  -3.1581
    -3.1553  -2.0891  -2.0246  -1.8939  -1.8164  -1.6880  -1.6053  -1.4802
    -1.3293  -1.2770  -1.2538  -1.1912  -1.1776  -1.0812  -1.0140  -0.9279
    -0.8808  -0.8711  -0.8066  -0.7669  -0.7301  -0.6829  -0.6460  -0.6109
    -0.5707  -0.5603  -0.5145  -0.4864  -0.4446  -0.4144  -0.3464  -0.2470
    -0.2099  -0.1300  -0.0648  -0.0177   0.0248   0.0474   0.1047   0.2617
     0.2737   0.3658   0.4037   0.4172   0.4612   0.4990   0.5282   0.5673
     0.6369   0.9082   1.0047   1.0371   1.1053   1.3882   1.4069   1.4984
     1.5233   1.6939   1.7250   1.7687   1.7967   1.8102   1.8310   1.8905
     1.9348   1.9729   2.0410   2.1439   2.1726   2.1966   2.2088   2.2432
     2.2589   2.2663   2.3058   2.3206   2.3404   2.3584   2.3866   2.4173
     2.4454   2.5077   2.5465   2.6253   2.7609   2.9174   2.9310   2.9501
     2.9763   3.0038   3.0273   3.0536   3.0574   3.0614   3.0732   3.0924
     3.1880   3.2377   3.2569   3.2580   3.2755   3.2960   3.3096   3.3285
     3.3364   3.3666   3.3769   3.3945   3.4020   3.4096   3.4221   3.9264
     3.9533   4.1059   4.1595   4.4775   4.5314   4.5525   4.6609   5.0663
     5.1052   5.3009   5.3645   5.5049   5.6495   5.8019   5.8182   5.9687
     6.0776   6.1077   6.3536   6.4443   6.5796   6.6393   7.1769   7.3278
     7.4616   7.6385   7.9631   8.0776   8.1832   8.2143   8.3591   8.4830
     8.5300   8.5782   8.6664   8.7866   8.8611   8.8740   8.9421

     occupation numbers 
     1.0000   1.0000   1.0000   1.0000   1.0000   1.0000   1.0000   1.0000
     1.0000   1.0000   1.0000   1.0000   1.0000   1.0000   1.0000   1.0000
     1.0000   1.0000   1.0000   1.0000   1.0000   1.0000   1.0000   1.0000
     1.0000   1.0000   1.0000   1.0000   1.0000   1.0000   1.0000   1.0000
     1.0000   1.0000   1.0000   1.0000   1.0000   1.0000   1.0000   1.0000
     1.0000   1.0000   1.0000   1.0000   1.0000   1.0000   1.0000   1.0000
     1.0000   1.0000   1.0000   1.0000   1.0000   1.0000   1.0000   1.0000
     1.0000   1.0000   1.0000   1.0000   1.0000   1.0000   1.0000   1.0000
     1.0000   1.0000   1.0000   1.0000   1.0000   1.0000   1.0000   1.0000
     1.0000   1.0000   1.0000   1.0000   1.0000   1.0000   1.0000   1.0000
     1.0000   1.0000   1.0000   1.0000   1.0000   1.0000   1.0000   1.0000
     1.0000   1.0000   1.0000   1.0000   1.0000   1.0000   1.0000   1.0000
     1.0000   1.0000   1.0000   1.0000   1.0000   1.0000   1.0000   1.0000
     1.0000   1.0000   1.0000   1.0000   1.0000   1.0000   1.0000   1.0000
     1.0000   1.0000   1.0000   1.0000   1.0000   1.0000   1.0000   1.0000
     1.0000   1.0000   1.0000   1.0000   1.0000   1.0000   1.0000   1.0000
     1.0000   1.0000   1.0000   1.0000   1.0000   1.0000   1.0000   1.0000
     1.0000   1.0000   1.0000   1.0000   1.0000   1.0000   1.0000   1.0000
     1.0000   1.0000   1.0000   1.0000   1.0000   1.0000   1.0000   1.0000
     1.0000   1.0000   1.0000   1.0000   1.0000   1.0000   1.0000   1.0000
     1.0000   1.0000   1.0000   1.0000   0.9999   0.9997   0.9997   0.9994
     0.9994   0.9985   0.9982   0.9978   0.9975   0.9974   0.9971   0.9962
     0.9954   0.9946   0.9929   0.9892   0.9879   0.9868   0.9861   0.9842
     0.9833   0.9828   0.9801   0.9791   0.9775   0.9761   0.9736   0.9707
     0.9678   0.9605   0.9554   0.9432   0.9164   0.8746   0.8704   0.8644
     0.8557   0.8462   0.8378   0.8281   0.8266   0.8251   0.8205   0.8130
     0.7724   0.7495   0.7404   0.7399   0.7313   0.7212   0.7144   0.7048
     0.7008   0.6850   0.6795   0.6701   0.6661   0.6619   0.6552   0.3633
     0.3484   0.2689   0.2433   0.1214   0.1060   0.1004   0.0749   0.0206
     0.0179   0.0084   0.0065   0.0035   0.0018   0.0009   0.0008   0.0004
     0.0002   0.0002   0.0000   0.0000   0.0000   0.0000   0.0000   0.0000
     0.0000   0.0000   0.0000   0.0000   0.0000   0.0000   0.0000   0.0000
     0.0000   0.0000   0.0000   0.0000   0.0000   0.0000   0.0000

          k =-0.5000-0.5000 0.0000 ( 65132 PWs)   bands (ev):

   -92.3354 -92.2801 -92.1892 -92.1401 -92.0839 -92.0421 -92.0242 -91.8988
   -55.6885 -55.6665 -55.5471 -55.5365 -55.5282 -55.5232 -55.4846 -55.4588
   -55.4422 -55.4413 -55.4320 -55.3914 -55.3715 -55.3351 -55.3150 -55.2838
   -55.2756 -55.2305 -55.2277 -55.2271 -55.2192 -55.1727 -55.1551 -55.0660
   -30.9176 -30.9068 -30.7617 -30.7119 -30.6910 -30.6766 -30.5876 -30.5019
   -29.4836 -29.4448 -29.4181 -29.3110 -22.2512 -14.5767 -14.5485 -14.4309
   -14.4207 -14.3280 -14.2884 -14.2580 -14.1258 -13.7689 -13.6263 -13.6146
   -13.5793 -13.5616 -13.5441 -13.5368 -13.5004 -13.4934 -13.4787 -13.4696
   -13.4531 -13.3757 -13.3702 -13.3432 -13.3221 -13.3065 -13.2055 -13.1721
   -13.0816 -13.0708 -12.8033 -12.7620 -12.6959 -12.6701 -12.6447 -12.6298
   -12.6240 -12.6181 -12.6063 -12.5963 -12.5348 -12.5051 -12.4894 -12.4734
   -12.4567 -12.4343 -12.2500 -12.2423 -12.1829 -12.0982 -11.9633 -11.9335
   -11.8658 -11.8572 -11.4103 -11.3980 -11.3802 -11.3635 -11.3288 -11.3109
   -11.2763 -11.2157 -11.1951 -11.1904 -11.1398 -11.1368  -5.8326  -3.1582
    -3.1553  -1.8657  -1.7889  -1.7808  -1.7092  -1.6688  -1.5902  -1.5222
    -1.3976  -1.2795  -1.2498  -1.2110  -1.1530  -1.0810  -1.0674  -0.9951
    -0.9534  -0.8376  -0.8103  -0.7618  -0.7291  -0.6652  -0.6216  -0.6020
    -0.5908  -0.5396  -0.4902  -0.4777  -0.3641  -0.3074  -0.2609  -0.2098
    -0.1883  -0.1764  -0.1384  -0.0991  -0.0651  -0.0502   0.0343   0.1083
     0.1515   0.1737   0.2494   0.3072   0.3091   0.3725   0.3874   0.4030
     0.4095   0.8707   0.9375   0.9820   1.0066   1.4196   1.4314   1.4608
     1.4975   1.7756   1.7953   1.8022   1.8380   1.9759   2.0719   2.0987
     2.1344   2.1555   2.1705   2.1837   2.2152   2.2235   2.2405   2.2435
     2.2996   2.3102   2.3316   2.3414   2.3620   2.3698   2.4178   2.4401
     2.4546   2.4921   2.5132   2.5919   2.6568   2.9292   2.9620   2.9765
     3.0009   3.0058   3.0330   3.0408   3.0537   3.0653   3.0734   3.0787
     3.0918   3.1120   3.1255   3.1882   3.1928   3.2131   3.2273   3.2397
     3.2566   3.2639   3.2750   3.3721   3.3785   3.4056   3.4158   4.3397
     4.3819   4.4016   4.4481   4.6814   4.7513   4.7823   5.0225   5.1415
     5.1444   5.2278   5.3465   5.4104   5.5201   5.5634   5.5836   5.7272
     6.0048   6.1091   6.1212   6.1833   6.6360   6.6798   6.7677   7.0840
     7.5475   7.5585   7.7160   8.2841   8.2997   8.3730   8.4872   8.5728
     8.6671   8.7834   8.8926   8.8994   8.9218   8.9685   9.0147

     occupation numbers 
     1.0000   1.0000   1.0000   1.0000   1.0000   1.0000   1.0000   1.0000
     1.0000   1.0000   1.0000   1.0000   1.0000   1.0000   1.0000   1.0000
     1.0000   1.0000   1.0000   1.0000   1.0000   1.0000   1.0000   1.0000
     1.0000   1.0000   1.0000   1.0000   1.0000   1.0000   1.0000   1.0000
     1.0000   1.0000   1.0000   1.0000   1.0000   1.0000   1.0000   1.0000
     1.0000   1.0000   1.0000   1.0000   1.0000   1.0000   1.0000   1.0000
     1.0000   1.0000   1.0000   1.0000   1.0000   1.0000   1.0000   1.0000
     1.0000   1.0000   1.0000   1.0000   1.0000   1.0000   1.0000   1.0000
     1.0000   1.0000   1.0000   1.0000   1.0000   1.0000   1.0000   1.0000
     1.0000   1.0000   1.0000   1.0000   1.0000   1.0000   1.0000   1.0000
     1.0000   1.0000   1.0000   1.0000   1.0000   1.0000   1.0000   1.0000
     1.0000   1.0000   1.0000   1.0000   1.0000   1.0000   1.0000   1.0000
     1.0000   1.0000   1.0000   1.0000   1.0000   1.0000   1.0000   1.0000
     1.0000   1.0000   1.0000   1.0000   1.0000   1.0000   1.0000   1.0000
[...]
     0.0000   0.0000   0.0000   0.0000   0.0000   0.0000   0.0000   0.0000
     0.0000   0.0000   0.0000   0.0000   0.0000   0.0000   0.0000

          k =-0.5000 0.0000 0.0000 ( 65180 PWs)   bands (ev):

   -92.3354 -92.2801 -92.1892 -92.1401 -92.0839 -92.0421 -92.0242 -91.8988
   -55.6885 -55.6665 -55.5471 -55.5365 -55.5282 -55.5232 -55.4846 -55.4588
   -55.4422 -55.4413 -55.4320 -55.3914 -55.3715 -55.3351 -55.3150 -55.2838
   -55.2756 -55.2305 -55.2277 -55.2271 -55.2192 -55.1727 -55.1551 -55.0660
   -30.9180 -30.9071 -30.7613 -30.7144 -30.6885 -30.6763 -30.5883 -30.5011
   -29.4848 -29.4454 -29.4169 -29.3104 -22.2512 -14.6553 -14.6079 -14.5446
   -14.4380 -14.3301 -14.1867 -14.0485 -13.9056 -13.7750 -13.7694 -13.7670
   -13.7471 -13.6954 -13.6354 -13.6023 -13.5585 -13.5497 -13.5343 -13.4810
   -13.4685 -13.3794 -13.1952 -13.1794 -13.1360 -13.1271 -13.0669 -13.0066
   -12.9968 -12.9141 -12.9004 -12.8906 -12.7294 -12.6989 -12.6888 -12.6718
   -12.6652 -12.6553 -12.5924 -12.5735 -12.5473 -12.5323 -12.4797 -12.4448
   -12.4006 -12.3728 -12.2847 -12.2756 -12.1859 -12.1579 -12.0037 -11.9730
   -11.8811 -11.8426 -11.4171 -11.3963 -11.3891 -11.3744 -11.3565 -11.3151
   -11.2520 -11.2344 -11.2020 -11.1576 -11.1481 -11.1322  -5.8326  -3.1583
    -3.1550  -2.2209  -2.1820  -2.0176  -1.9784  -1.6667  -1.5921  -1.4425
    -1.3242  -1.2857  -1.2407  -1.1917  -1.1653  -1.0442  -0.9983  -0.9856
    -0.9023  -0.8660  -0.8543  -0.8190  -0.7629  -0.6939  -0.6636  -0.6373
    -0.5421  -0.4932  -0.4457  -0.4125  -0.3913  -0.3630  -0.3132  -0.2886
    -0.2496  -0.1577  -0.0871  -0.0231   0.0397   0.2066   0.2328   0.3040
     0.3276   0.4042   0.4109   0.5474   0.5799   0.6091   0.8026   0.9010
     0.9476   1.0073   1.0859   1.2102   1.2301   1.3602   1.3897   1.4404
     1.4604   1.5037   1.5214   1.5652   1.5900   1.6572   1.6983   1.7452
     1.7554   2.0517   2.0629   2.0768   2.0940   2.2166   2.2208   2.2301
     2.2429   2.2714   2.2864   2.3192   2.3522   2.3710   2.4386   2.4430
     2.4996   2.5118   2.5788   2.6702   2.7864   2.8630   2.8772   2.9593
     2.9900   3.0088   3.0557   3.0721   3.0834   3.0924   3.1025   3.1288
     3.1962   3.2443   3.2859   3.3178   3.3602   3.3665   3.3674   3.3799
     3.3922   3.4054   3.4209   3.4226   3.4447   3.4495   3.4730   3.4926
     3.4975   3.6254   3.6298   4.4030   4.4748   4.5489   4.6465   4.9661
     5.1453   5.2532   5.3583   5.5157   5.6191   5.8920   5.9246   6.0076
     6.2000   6.3883   6.3995   6.4353   6.9573   7.1123   7.1921   7.4486
     7.5561   7.6625   7.7299   8.0017   8.0929   8.0946   8.1961   8.2501
     8.4973   8.6055   8.6753   8.7153   8.7574   8.8642   8.9732

     occupation numbers 
     1.0000   1.0000   1.0000   1.0000   1.0000   1.0000   1.0000   1.0000
     1.0000   1.0000   1.0000   1.0000   1.0000   1.0000   1.0000   1.0000
     1.0000   1.0000   1.0000   1.0000   1.0000   1.0000   1.0000   1.0000
     1.0000   1.0000   1.0000   1.0000   1.0000   1.0000   1.0000   1.0000
     1.0000   1.0000   1.0000   1.0000   1.0000   1.0000   1.0000   1.0000
     1.0000   1.0000   1.0000   1.0000   1.0000   1.0000   1.0000   1.0000
     1.0000   1.0000   1.0000   1.0000   1.0000   1.0000   1.0000   1.0000
     1.0000   1.0000   1.0000   1.0000   1.0000   1.0000   1.0000   1.0000
     1.0000   1.0000   1.0000   1.0000   1.0000   1.0000   1.0000   1.0000
     1.0000   1.0000   1.0000   1.0000   1.0000   1.0000   1.0000   1.0000
     1.0000   1.0000   1.0000   1.0000   1.0000   1.0000   1.0000   1.0000
     1.0000   1.0000   1.0000   1.0000   1.0000   1.0000   1.0000   1.0000
     1.0000   1.0000   1.0000   1.0000   1.0000   1.0000   1.0000   1.0000
     1.0000   1.0000   1.0000   1.0000   1.0000   1.0000   1.0000   1.0000
     1.0000   1.0000   1.0000   1.0000   1.0000   1.0000   1.0000   1.0000
     1.0000   1.0000   1.0000   1.0000   1.0000   1.0000   1.0000   1.0000
     1.0000   1.0000   1.0000   1.0000   1.0000   1.0000   1.0000   1.0000
     1.0000   1.0000   1.0000   1.0000   1.0000   1.0000   1.0000   1.0000
     1.0000   1.0000   1.0000   1.0000   1.0000   1.0000   1.0000   1.0000
     1.0000   1.0000   1.0000   1.0000   1.0000   1.0000   1.0000   1.0000
     1.0000   1.0000   0.9999   0.9999   0.9999   0.9997   0.9997   0.9996
     0.9995   0.9994   0.9994   0.9992   0.9991   0.9987   0.9985   0.9981
     0.9980   0.9925   0.9922   0.9917   0.9911   0.9857   0.9855   0.9850
     0.9842   0.9825   0.9815   0.9792   0.9766   0.9750   0.9685   0.9681
     0.9616   0.9600   0.9507   0.9352   0.9104   0.8906   0.8865   0.8613
     0.8510   0.8444   0.8272   0.8209   0.8165   0.8130   0.8089   0.7981
     0.7687   0.7464   0.7262   0.7103   0.6883   0.6850   0.6846   0.6779
     0.6713   0.6643   0.6558   0.6549   0.6427   0.6401   0.6269   0.6158
     0.6131   0.5388   0.5362   0.1452   0.1222   0.1013   0.0780   0.0291
     0.0154   0.0102   0.0066   0.0034   0.0021   0.0005   0.0005   0.0003
     0.0001   0.0000   0.0000   0.0000   0.0000   0.0000   0.0000   0.0000
     0.0000   0.0000   0.0000   0.0000   0.0000   0.0000   0.0000   0.0000
     0.0000   0.0000   0.0000   0.0000   0.0000   0.0000   0.0000

          k =-0.2500 0.2500 0.0000 ( 65198 PWs)   bands (ev):

   -92.3354 -92.2801 -92.1892 -92.1401 -92.0839 -92.0421 -92.0242 -91.8988
   -55.6885 -55.6665 -55.5471 -55.5365 -55.5282 -55.5232 -55.4846 -55.4588
   -55.4422 -55.4413 -55.4320 -55.3914 -55.3715 -55.3351 -55.3150 -55.2838
   -55.2756 -55.2305 -55.2277 -55.2271 -55.2192 -55.1727 -55.1551 -55.0660
   -30.9201 -30.9047 -30.7619 -30.7134 -30.6899 -30.6760 -30.5877 -30.5013
   -29.4852 -29.4440 -29.4179 -29.3103 -22.2512 -14.6570 -14.6226 -14.5444
   -14.4264 -14.3220 -14.1952 -14.1034 -13.9025 -13.7692 -13.7576 -13.7278
   -13.7173 -13.6697 -13.6440 -13.6297 -13.6202 -13.5697 -13.4794 -13.4676
   -13.3157 -13.2883 -13.2617 -13.2406 -13.2085 -13.1380 -13.0852 -13.0791
   -12.9872 -12.9550 -12.8690 -12.7915 -12.7486 -12.6885 -12.6838 -12.6567
   -12.6346 -12.6074 -12.5853 -12.5773 -12.5674 -12.5127 -12.4903 -12.4577
   -12.4251 -12.4145 -12.3995 -12.3366 -12.2031 -12.1127 -12.0869 -11.9287
   -11.8208 -11.7624 -11.4377 -11.4159 -11.3889 -11.3765 -11.3359 -11.3009
   -11.2780 -11.2564 -11.2339 -11.1500 -11.1039 -11.0943  -5.8326  -3.1581
    -3.1552  -2.3060  -2.0965  -1.9755  -1.8892  -1.7685  -1.7018  -1.5016
    -1.3535  -1.3341  -1.3077  -1.2138  -1.1798  -1.0871  -1.0541  -1.0276
    -0.8835  -0.8285  -0.7619  -0.7328  -0.6728  -0.6494  -0.6093  -0.5801
    -0.5403  -0.4783  -0.4312  -0.3705  -0.3011  -0.2762  -0.2235  -0.1961
    -0.1508  -0.0940  -0.0533  -0.0083   0.0887   0.1234   0.1329   0.1811
     0.2458   0.3272   0.3561   0.3836   0.4562   0.4795   0.7467   0.9144
     0.9614   0.9988   1.0522   1.0846   1.1479   1.2224   1.2486   1.5318
     1.6490   1.6882   1.7192   1.7265   1.7689   1.7876   1.8314   1.8633
     1.8787   1.9052   1.9453   1.9577   2.0003   2.0178   2.0620   2.1506
     2.1593   2.1823   2.2123   2.2494   2.2841   2.3237   2.4460   2.5626
     2.5921   2.6319   2.6549   2.7190   2.7656   2.7946   2.8180   2.8370
     2.9362   2.9737   3.0589   3.0634   3.0675   3.2455   3.2547   3.2678
     3.2780   3.2879   3.3022   3.3087   3.3255   3.3324   3.3499   3.3591
     3.3722   3.3810   3.3864   3.4188   3.4312   3.4409   3.4741   3.7672
     3.8476   3.9054   3.9645   4.0032   4.1914   4.3244   4.6443   4.8075
     4.9708   5.1439   5.3494   5.5827   5.9506   5.9594   6.0018   6.1262
     6.1999   6.2514   6.3604   6.3969   6.9518   7.0223   7.0823   7.2103
     7.7277   7.8179   7.8436   7.8941   7.9840   8.1624   8.2528   8.2869
     8.3624   8.4584   8.5894   8.6712   8.7251   8.7572   8.8514

     occupation numbers 
     1.0000   1.0000   1.0000   1.0000   1.0000   1.0000   1.0000   1.0000
     1.0000   1.0000   1.0000   1.0000   1.0000   1.0000   1.0000   1.0000
     1.0000   1.0000   1.0000   1.0000   1.0000   1.0000   1.0000   1.0000
     1.0000   1.0000   1.0000   1.0000   1.0000   1.0000   1.0000   1.0000
     1.0000   1.0000   1.0000   1.0000   1.0000   1.0000   1.0000   1.0000
     1.0000   1.0000   1.0000   1.0000   1.0000   1.0000   1.0000   1.0000
     1.0000   1.0000   1.0000   1.0000   1.0000   1.0000   1.0000   1.0000
     1.0000   1.0000   1.0000   1.0000   1.0000   1.0000   1.0000   1.0000
     1.0000   1.0000   1.0000   1.0000   1.0000   1.0000   1.0000   1.0000
     1.0000   1.0000   1.0000   1.0000   1.0000   1.0000   1.0000   1.0000
     1.0000   1.0000   1.0000   1.0000   1.0000   1.0000   1.0000   1.0000
     1.0000   1.0000   1.0000   1.0000   1.0000   1.0000   1.0000   1.0000
     1.0000   1.0000   1.0000   1.0000   1.0000   1.0000   1.0000   1.0000
     1.0000   1.0000   1.0000   1.0000   1.0000   1.0000   1.0000   1.0000
     1.0000   1.0000   1.0000   1.0000   1.0000   1.0000   1.0000   1.0000
     1.0000   1.0000   1.0000   1.0000   1.0000   1.0000   1.0000   1.0000
     1.0000   1.0000   1.0000   1.0000   1.0000   1.0000   1.0000   1.0000
     1.0000   1.0000   1.0000   1.0000   1.0000   1.0000   1.0000   1.0000
     1.0000   1.0000   1.0000   1.0000   1.0000   1.0000   1.0000   1.0000
     1.0000   1.0000   1.0000   1.0000   1.0000   1.0000   1.0000   1.0000
     1.0000   1.0000   1.0000   0.9999   0.9999   0.9999   0.9999   0.9993
     0.9988   0.9985   0.9983   0.9982   0.9978   0.9976   0.9971   0.9967
     0.9964   0.9960   0.9952   0.9950   0.9940   0.9935   0.9922   0.9889
     0.9885   0.9875   0.9859   0.9838   0.9817   0.9788   0.9677   0.9531
     0.9486   0.9421   0.9380   0.9255   0.9153   0.9084   0.9026   0.8976
     0.8688   0.8566   0.8260   0.8243   0.8227   0.7459   0.7415   0.7351
     0.7301   0.7253   0.7181   0.7149   0.7063   0.7028   0.6938   0.6889
     0.6820   0.6774   0.6744   0.6570   0.6501   0.6448   0.6263   0.4549
     0.4081   0.3751   0.3423   0.3215   0.2287   0.1734   0.0784   0.0487
     0.0287   0.0155   0.0069   0.0025   0.0004   0.0004   0.0003   0.0001
     0.0001   0.0001   0.0000   0.0000   0.0000   0.0000   0.0000   0.0000
     0.0000   0.0000   0.0000   0.0000   0.0000   0.0000   0.0000   0.0000
     0.0000   0.0000   0.0000   0.0000   0.0000   0.0000   0.0000

          k =-0.5000 0.2500 0.0000 ( 65138 PWs)   bands (ev):

   -92.3354 -92.2801 -92.1892 -92.1401 -92.0839 -92.0421 -92.0242 -91.8988
   -55.6885 -55.6665 -55.5471 -55.5365 -55.5282 -55.5232 -55.4846 -55.4588
   -55.4422 -55.4413 -55.4320 -55.3914 -55.3715 -55.3351 -55.3150 -55.2838
   -55.2756 -55.2305 -55.2277 -55.2271 -55.2192 -55.1727 -55.1551 -55.0660
   -30.9178 -30.9069 -30.7615 -30.7132 -30.6897 -30.6764 -30.5880 -30.5015
   -29.4842 -29.4451 -29.4175 -29.3107 -22.2512 -14.6232 -14.5810 -14.5018
   -14.4036 -14.3596 -14.2332 -14.1511 -14.0209 -13.7690 -13.7081 -13.6782
   -13.6660 -13.6225 -13.6038 -13.5752 -13.5437 -13.5351 -13.5122 -13.4709
   -13.4595 -13.3668 -13.2796 -13.2400 -13.2287 -13.2186 -13.1212 -13.1124
   -13.0407 -12.9865 -12.8457 -12.8086 -12.7132 -12.6777 -12.6702 -12.6603
   -12.6378 -12.6160 -12.6017 -12.5857 -12.5692 -12.4961 -12.4891 -12.4682
   -12.4189 -12.4027 -12.2670 -12.2595 -12.1842 -12.1258 -11.9701 -11.9679
   -11.8736 -11.8480 -11.4100 -11.3975 -11.3833 -11.3715 -11.3503 -11.3199
   -11.2392 -11.2307 -11.2072 -11.1721 -11.1436 -11.1346  -5.8326  -3.1583
    -3.1551  -2.0788  -2.0367  -1.8875  -1.8454  -1.6860  -1.6109  -1.4667
    -1.3306  -1.2747  -1.2472  -1.2079  -1.1679  -1.0883  -0.9734  -0.9170
    -0.8934  -0.8686  -0.7946  -0.7624  -0.7260  -0.7064  -0.6463  -0.6187
    -0.5781  -0.5430  -0.5145  -0.4573  -0.4306  -0.3886  -0.3549  -0.2517
    -0.2236  -0.1411  -0.0788  -0.0469   0.0093   0.0962   0.1300   0.2316
     0.2710   0.3214   0.3749   0.3963   0.4802   0.4973   0.5299   0.5918
     0.6310   0.9306   1.0134   1.0409   1.0564   1.3705   1.4204   1.5008
     1.5234   1.7046   1.7420   1.7795   1.7944   1.8126   1.8304   1.8993
     1.9409   1.9810   2.0058   2.1306   2.1677   2.1927   2.2046   2.2372
     2.2700   2.2846   2.2947   2.3184   2.3435   2.3829   2.4106   2.4391
     2.4614   2.4892   2.5538   2.6684   2.7781   2.8093   2.8775   2.9164
     2.9748   3.0079   3.0204   3.0531   3.0573   3.0697   3.0951   3.1140
     3.1956   3.2409   3.2533   3.2596   3.2807   3.3030   3.3159   3.3313
     3.3449   3.3629   3.3751   3.3874   3.3946   3.4042   3.4160   3.9360
     3.9847   4.1348   4.1580   4.4148   4.5028   4.5510   4.7434   5.0327
     5.1489   5.2743   5.3608   5.5130   5.6925   5.7871   5.7949   5.9131
     6.0983   6.1210   6.3145   6.4927   6.6095   6.6294   7.1796   7.2673
     7.4839   7.6497   7.9732   8.0730   8.1917   8.2248   8.3358   8.4858
     8.5068   8.5650   8.6785   8.8072   8.8521   8.8739   8.9348

     occupation numbers 
     1.0000   1.0000   1.0000   1.0000   1.0000   1.0000   1.0000   1.0000
     1.0000   1.0000   1.0000   1.0000   1.0000   1.0000   1.0000   1.0000
     1.0000   1.0000   1.0000   1.0000   1.0000   1.0000   1.0000   1.0000
     1.0000   1.0000   1.0000   1.0000   1.0000   1.0000   1.0000   1.0000
     1.0000   1.0000   1.0000   1.0000   1.0000   1.0000   1.0000   1.0000
     1.0000   1.0000   1.0000   1.0000   1.0000   1.0000   1.0000   1.0000
     1.0000   1.0000   1.0000   1.0000   1.0000   1.0000   1.0000   1.0000
     1.0000   1.0000   1.0000   1.0000   1.0000   1.0000   1.0000   1.0000
     1.0000   1.0000   1.0000   1.0000   1.0000   1.0000   1.0000   1.0000
     1.0000   1.0000   1.0000   1.0000   1.0000   1.0000   1.0000   1.0000
     1.0000   1.0000   1.0000   1.0000   1.0000   1.0000   1.0000   1.0000
     1.0000   1.0000   1.0000   1.0000   1.0000   1.0000   1.0000   1.0000
     1.0000   1.0000   1.0000   1.0000   1.0000   1.0000   1.0000   1.0000
     1.0000   1.0000   1.0000   1.0000   1.0000   1.0000   1.0000   1.0000
     1.0000   1.0000   1.0000   1.0000   1.0000   1.0000   1.0000   1.0000
     1.0000   1.0000   1.0000   1.0000   1.0000   1.0000   1.0000   1.0000
     1.0000   1.0000   1.0000   1.0000   1.0000   1.0000   1.0000   1.0000
     1.0000   1.0000   1.0000   1.0000   1.0000   1.0000   1.0000   1.0000
     1.0000   1.0000   1.0000   1.0000   1.0000   1.0000   1.0000   1.0000
     1.0000   1.0000   1.0000   1.0000   1.0000   1.0000   1.0000   1.0000
     1.0000   1.0000   1.0000   1.0000   1.0000   0.9997   0.9996   0.9994
     0.9994   0.9984   0.9981   0.9977   0.9976   0.9974   0.9971   0.9961
     0.9953   0.9944   0.9938   0.9897   0.9881   0.9870   0.9863   0.9846
     0.9826   0.9816   0.9809   0.9792   0.9773   0.9739   0.9714   0.9685
     0.9661   0.9628   0.9543   0.9355   0.9124   0.9048   0.8865   0.8749
     0.8562   0.8448   0.8403   0.8282   0.8266   0.8219   0.8119   0.8042
     0.7690   0.7480   0.7421   0.7391   0.7288   0.7177   0.7112   0.7034
     0.6963   0.6869   0.6805   0.6739   0.6700   0.6649   0.6585   0.3580
     0.3314   0.2549   0.2440   0.1412   0.1140   0.1008   0.0591   0.0232
     0.0152   0.0094   0.0066   0.0034   0.0015   0.0009   0.0009   0.0005
     0.0002   0.0002   0.0000   0.0000   0.0000   0.0000   0.0000   0.0000
     0.0000   0.0000   0.0000   0.0000   0.0000   0.0000   0.0000   0.0000
     0.0000   0.0000   0.0000   0.0000   0.0000   0.0000   0.0000

     the Fermi energy is     3.6910 ev

!    total energy              =   -4482.97190038 Ry
     estimated scf accuracy    <          9.1E-09 Ry
     smearing contrib. (-TS)   =      -1.17233962 Ry
     internal energy E=F+TS    =   -4481.79956077 Ry

     The total energy is F=E-TS. E is the sum of the following terms:
     one-electron contribution =  -20253.22855559 Ry
     hartree contribution      =   10266.32575913 Ry
     xc contribution           =    -701.58082364 Ry
     ewald contribution        =    6492.34151421 Ry
     one-center paw contrib.   =    -285.65745487 Ry
      -> PAW hartree energy AE =      25.13426642 Ry
      -> PAW hartree energy PS =     -25.01853319 Ry
      -> PAW xc energy AE      =     -16.51335820 Ry
      -> PAW xc energy PS      =       6.87263851 Ry
      -> total E_H with PAW    =   10266.44149236 Ry
      -> total E_XC with PAW   =    -711.22154333 Ry

     convergence has been achieved in  50 iterations

     Writing all to output data dir /bsuhome/zayahcortright/scratch/pwscf.save/
 
     init_run     :      8.36s CPU      8.87s WALL (       1 calls)
     electrons    :    769.26s CPU    781.99s WALL (       1 calls)

     Called by init_run:
     wfcinit      :      6.75s CPU      6.88s WALL (       1 calls)
     wfcinit:atom :      0.06s CPU      0.07s WALL (       5 calls)
     wfcinit:wfcr :      6.40s CPU      6.48s WALL (       5 calls)
     potinit      :      0.17s CPU      0.19s WALL (       1 calls)
     hinit0       :      0.51s CPU      0.82s WALL (       1 calls)

     Called by electrons:
     c_bands      :    608.15s CPU    613.50s WALL (      50 calls)
     sum_band     :    119.15s CPU    123.40s WALL (      50 calls)
     v_of_rho     :      5.53s CPU      5.83s WALL (      51 calls)
     v_h          :      0.50s CPU      0.50s WALL (      51 calls)
     v_xc         :      5.04s CPU      5.33s WALL (      51 calls)
     newd         :     21.72s CPU     24.17s WALL (      51 calls)
     PAW_pot      :      1.70s CPU      1.72s WALL (      51 calls)
     mix_rho      :     12.57s CPU     12.82s WALL (      50 calls)

     Called by c_bands:
     init_us_2    :      7.38s CPU      7.43s WALL (     505 calls)
     init_us_2:cp :      7.37s CPU      7.43s WALL (     505 calls)
     cegterg      :    571.74s CPU    576.90s WALL (     250 calls)

     Called by sum_band:
     sum_band:wei :      0.35s CPU      0.35s WALL (      50 calls)
     sum_band:loo :     96.40s CPU     97.11s WALL (      50 calls)
     sum_band:buf :      1.65s CPU      1.67s WALL (     250 calls)
     sum_band:ini :      3.51s CPU      3.52s WALL (     250 calls)
     sum_band:cal :     20.93s CPU     20.98s WALL (     250 calls)
     sum_band:bec :      0.58s CPU      0.59s WALL (     250 calls)
     addusdens    :     18.33s CPU     21.82s WALL (      50 calls)
                                        0.00s GPU  (      50 calls)
     addusd:skk   :      0.38s CPU      0.74s WALL (     200 calls)
                                        0.00s GPU  (     200 calls)

     Called by *egterg:
     cdiaghg      :     59.66s CPU     59.89s WALL (    1416 calls)
     cegterg:over :     42.10s CPU     42.43s WALL (    1166 calls)
     cegterg:upda :     31.85s CPU     32.20s WALL (    1166 calls)
     cegterg:last :     64.48s CPU     64.65s WALL (     464 calls)
     cdiaghg:chol :      3.60s CPU      3.63s WALL (    1416 calls)
     cdiaghg:inve :      3.68s CPU      3.71s WALL (    1416 calls)
     cdiaghg:para :      7.61s CPU      7.64s WALL (    2832 calls)
     h_psi        :    313.30s CPU    316.21s WALL (    1421 calls)
     s_psi        :     42.85s CPU     43.03s WALL (    1421 calls)
     g_psi        :      1.13s CPU      1.14s WALL (    1166 calls)

     Called by h_psi:
     h_psi:calbec :     47.96s CPU     48.12s WALL (    1421 calls)
     vloc_psi     :    219.10s CPU    221.27s WALL (    1421 calls)
     add_vuspsi   :     42.83s CPU     43.00s WALL (    1421 calls)

     General routines
     calbec       :     68.88s CPU     69.10s WALL (    1671 calls)
     fft          :      6.57s CPU      6.62s WALL (     661 calls)
     ffts         :      4.57s CPU      4.61s WALL (    5196 calls)
     fftw         :    185.45s CPU    186.94s WALL (  343592 calls)
     interpolate  :      0.41s CPU      0.42s WALL (      51 calls)
 
     Parallel routines

     PAW routines
     PAW_pot      :      1.70s CPU      1.72s WALL (      51 calls)
 
     PWSCF        :  12m59.87s CPU  13m15.95s WALL

 
   This run was terminated on:  14:48: 4  20Jun2024            

=------------------------------------------------------------------------------=
   JOB DONE.
=------------------------------------------------------------------------------=
