
     Program PWSCF v.7.2 starts on 21Jun2024 at 20:25: 3 

     This program is part of the open-source Quantum ESPRESSO suite
     for quantum simulation of materials; please cite
         "P. Giannozzi et al., J. Phys.:Condens. Matter 21 395502 (2009);
         "P. Giannozzi et al., J. Phys.:Condens. Matter 29 465901 (2017);
         "P. Giannozzi et al., J. Chem. Phys. 152 154105 (2020);
          URL http://www.quantum-espresso.org", 
     in publications or presentations arising from this work. More details at
     http://www.quantum-espresso.org/quote

     Parallel version (MPI & OpenMP), running on      48 processor cores
     Number of MPI processes:                48
     Threads/MPI process:                     1

     MPI processes distributed on     1 nodes
     60572 MiB available memory on the printing compute node when the environment starts
 
     Reading input from espresso.pwi
Warning: card &CELL ignored
Warning: card / ignored
Warning: card &FCP ignored
Warning: card / ignored
Warning: card &RISM ignored
Warning: card / ignored

     Current dimensions of program PWSCF are:
     Max number of different atomic species (ntypx) = 10
     Max number of k-points (npk) =  40000
     Max angular momentum in pseudopotentials (lmaxx) =  4
     file O.pbe-n-kjpaw_psl.0.1.UPF: wavefunction(s)  2P renormalized
     signal trapping enabled: kill the code with -SIGUSR1 to stop cleanly the simulation 
 
     K-points division:     npool     =       2
     R & G space division:  proc/nbgrp/npool/nimage =      24
     Subspace diagonalization in iterative solution of the eigenvalue problem:
     one sub-group per band group will be used
     scalapack distributed-memory algorithm (size of sub-group:  3*  3 procs)

 
     Parallelization info
     --------------------
     sticks:   dense  smooth     PW     G-vecs:    dense   smooth      PW
     Min         350     175     47                61430    21716    3036
     Max         351     177     48                61449    21727    3041
     Sum        8421    4205   1137              1474595   521381   72913
 
     Using Slab Decomposition
 


     bravais-lattice index     =            0
     lattice parameter (alat)  =      14.8599  a.u.
     unit-cell volume          =    8305.1283 (a.u.)^3
     number of atoms/cell      =           49
     number of atomic types    =            3
     number of electrons       =       430.00
     number of Kohn-Sham states=          258
     kinetic-energy cutoff     =      60.0000  Ry
     charge density cutoff     =     480.0000  Ry
     scf convergence threshold =      1.0E-08
     mixing beta               =       0.1500
     number of iterations used =            8  local-TF  mixing
     Exchange-correlation= SLA  PW   PBE  PBE
                           (   1   4   3   4   0   0   0)

     celldm(1)=  14.859904  celldm(2)=   0.000000  celldm(3)=   0.000000
     celldm(4)=   0.000000  celldm(5)=   0.000000  celldm(6)=   0.000000

     crystal axes: (cart. coord. in units of alat)
               a(1) = (   1.000000   0.000000   0.000000 )  
               a(2) = (   0.000000   1.000000   0.000000 )  
               a(3) = (   0.000000   0.000000   2.531036 )  

     reciprocal axes: (cart. coord. in units 2 pi/alat)
               b(1) = (  1.000000  0.000000  0.000000 )  
               b(2) = (  0.000000  1.000000  0.000000 )  
               b(3) = (  0.000000  0.000000  0.395095 )  


     PseudoPot. # 1 for Sr read from file:
     /bsuhome/zayahcortright/q-e/pseudo/Sr_pbe_v1.uspp.F.UPF
     MD5 check sum: 6b418c05fbe9db5448babca5e47b7a5b
     Pseudo is Ultrasoft + core correction, Zval = 10.0
     Generated by new atomic code, or converted to UPF format
     Using radial grid of  883 points,  6 beta functions with: 
                l(1) =   0
                l(2) =   0
                l(3) =   1
                l(4) =   1
                l(5) =   2
                l(6) =   2
     Q(r) pseudized with  6 coefficients,  rinner =    1.400   1.400   1.400
                                                       1.400   1.400

     PseudoPot. # 2 for O  read from file:
     /bsuhome/zayahcortright/q-e/pseudo/O.pbe-n-kjpaw_psl.0.1.UPF
     MD5 check sum: 0234752ac141de4415c5fc33072bef88
     Pseudo is Projector augmented-wave + core cor, Zval =  6.0
     Generated using "atomic" code by A. Dal Corso  v.5.0.99 svn rev. 10869
     Shape of augmentation charge: BESSEL
     Using radial grid of 1095 points,  4 beta functions with: 
                l(1) =   0
                l(2) =   0
                l(3) =   1
                l(4) =   1
     Q(r) pseudized with 0 coefficients 


     PseudoPot. # 3 for Co read from file:
     /bsuhome/zayahcortright/q-e/pseudo/Co_pbe_v1.2.uspp.F.UPF
     MD5 check sum: 5f91765df6ddd3222702df6e7b74a16d
     Pseudo is Ultrasoft + core correction, Zval = 17.0
     Generated by new atomic code, or converted to UPF format
     Using radial grid of  863 points,  6 beta functions with: 
                l(1) =   0
                l(2) =   0
                l(3) =   1
                l(4) =   1
                l(5) =   2
                l(6) =   2
     Q(r) pseudized with  8 coefficients,  rinner =    1.200   1.200   1.200
                                                       1.200   1.200

     atomic species   valence    mass     pseudopotential
        Sr            10.00    87.62000     Sr( 1.00)
        O              6.00    15.99900     O ( 1.00)
        Co            17.00    58.93319     Co( 1.00)

     No symmetry found


                                    s                        frac. trans.

      isym =  1     identity                                     

 cryst.   s( 1) = (     1          0          0      )
                  (     0          1          0      )
                  (     0          0          1      )

 cart.    s( 1) = (  1.0000000  0.0000000  0.0000000 )
                  (  0.0000000  1.0000000  0.0000000 )
                  (  0.0000000  0.0000000  1.0000000 )


   Cartesian axes

     site n.     atom                  positions (alat units)
         1           Sr  tau(   1) = (   0.2508693   0.7491307   1.7574407  )
         2           O   tau(   2) = (   0.4985141   0.5014859   1.7715967  )
         3           Sr  tau(   3) = (   0.7482398   0.7454518   1.7648669  )
         4           Sr  tau(   4) = (   0.7441748   0.2558252   1.7667843  )
         5           Sr  tau(   5) = (   0.2508693   0.7491307   1.2696799  )
         6           Sr  tau(   6) = (   0.2508693   0.7491307   0.7632319  )
         7           Co  tau(   7) = (   0.4998914   0.5001086   1.0164559  )
         8           Co  tau(   8) = (   0.4936915   0.5063085   1.5135603  )
         9           O   tau(   9) = (   0.4988895   0.7610401   1.0164559  )
        10           O   tau(  10) = (   0.2389599   0.5011105   1.0164559  )
        11           O   tau(  11) = (   0.0070918   0.7374880   1.0164559  )
        12           O   tau(  12) = (   0.0088340   0.7405089   1.5135603  )
        13           O   tau(  13) = (   0.5066944   0.7415376   1.5135603  )
        14           O   tau(  14) = (   0.2584624   0.4933056   1.5135603  )
        15           O   tau(  15) = (   0.4985141   0.5014859   0.7773880  )
        16           O   tau(  16) = (   0.4985141   0.5014859   1.2555238  )
        17           Sr  tau(  17) = (   0.7482398   0.7454518   0.7706582  )
        18           Sr  tau(  18) = (   0.7482398   0.7454518   1.2622536  )
        19           Sr  tau(  19) = (   0.7441748   0.2558252   0.7725755  )
        20           Sr  tau(  20) = (   0.7441748   0.2558252   1.2603363  )
        21           O   tau(  21) = (   0.7322655   0.0078049   1.5135603  )
        22           O   tau(  22) = (   0.7558175   0.4996027   1.5135603  )
        23           O   tau(  23) = (   0.5003973   0.2441825   1.5135603  )
        24           O   tau(  24) = (   0.7527966   0.4978604   1.0164559  )
        25           O   tau(  25) = (   0.5021396   0.2472034   1.0164559  )
        26           O   tau(  26) = (   0.7517679   0.0000000   1.0164559  )
        27           O   tau(  27) = (   0.0114961   0.4948124   1.7455321  )
        28           O   tau(  28) = (   0.0048226   0.0077944   1.7715967  )
        29           Sr  tau(  29) = (   0.2545482   0.2517602   1.7648669  )
        30           O   tau(  30) = (   0.5048017   0.0015068   1.7786929  )
        31           Co  tau(  31) = (   0.0056869   0.5006215   1.0164559  )
        32           Co  tau(  32) = (   0.0065315   0.4997770   1.5135603  )
        33           Co  tau(  33) = (   0.0061999   0.0064171   1.0164559  )
        34           Co  tau(  34) = (   0.0000000   0.0126169   1.5135603  )
        35           O   tau(  35) = (   0.0114961   0.4948124   1.2815885  )
        36           O   tau(  36) = (   0.0114961   0.4948124   0.7513233  )
        37           O   tau(  37) = (   0.0051979   0.2673486   1.0164559  )
        38           O   tau(  38) = (   0.0130029   0.2478461   1.5135603  )
        39           O   tau(  39) = (   0.0048226   0.0077944   0.7773880  )
        40           O   tau(  40) = (   0.0048226   0.0077944   1.2555238  )
        41           Sr  tau(  41) = (   0.2545482   0.2517602   0.7706582  )
        42           Sr  tau(  42) = (   0.2545482   0.2517602   1.2622536  )
        43           Co  tau(  43) = (   0.4989925   0.0073160   1.5135603  )
        44           Co  tau(  44) = (   0.4998370   0.0064714   1.0164559  )
        45           O   tau(  45) = (   0.5048017   0.0015068   0.7844841  )
        46           O   tau(  46) = (   0.5048017   0.0015068   1.2484277  )
        47           O   tau(  47) = (   0.2621260   0.0059111   1.5135603  )
        48           O   tau(  48) = (   0.2591051   0.0041689   1.0164559  )
        49           O   tau(  49) = (   0.4264937   0.7108228   2.1602013  )

   Crystallographic axes

     site n.     atom                  positions (cryst. coord.)
         1           Sr  tau(   1) = (  0.2508693  0.7491307  0.6943562  )
         2           O   tau(   2) = (  0.4985141  0.5014859  0.6999492  )
         3           Sr  tau(   3) = (  0.7482398  0.7454518  0.6972903  )
         4           Sr  tau(   4) = (  0.7441748  0.2558252  0.6980478  )
         5           Sr  tau(   5) = (  0.2508693  0.7491307  0.5016443  )
         6           Sr  tau(   6) = (  0.2508693  0.7491307  0.3015492  )
         7           Co  tau(   7) = (  0.4998914  0.5001086  0.4015968  )
         8           Co  tau(   8) = (  0.4936915  0.5063085  0.5980003  )
         9           O   tau(   9) = (  0.4988895  0.7610401  0.4015968  )
        10           O   tau(  10) = (  0.2389599  0.5011105  0.4015968  )
        11           O   tau(  11) = (  0.0070918  0.7374880  0.4015968  )
        12           O   tau(  12) = (  0.0088340  0.7405089  0.5980003  )
        13           O   tau(  13) = (  0.5066944  0.7415376  0.5980003  )
        14           O   tau(  14) = (  0.2584624  0.4933056  0.5980003  )
        15           O   tau(  15) = (  0.4985141  0.5014859  0.3071422  )
        16           O   tau(  16) = (  0.4985141  0.5014859  0.4960513  )
        17           Sr  tau(  17) = (  0.7482398  0.7454518  0.3044833  )
        18           Sr  tau(  18) = (  0.7482398  0.7454518  0.4987103  )
        19           Sr  tau(  19) = (  0.7441748  0.2558252  0.3052408  )
        20           Sr  tau(  20) = (  0.7441748  0.2558252  0.4979527  )
        21           O   tau(  21) = (  0.7322655  0.0078049  0.5980003  )
        22           O   tau(  22) = (  0.7558175  0.4996027  0.5980003  )
        23           O   tau(  23) = (  0.5003973  0.2441825  0.5980003  )
        24           O   tau(  24) = (  0.7527966  0.4978604  0.4015968  )
        25           O   tau(  25) = (  0.5021396  0.2472034  0.4015968  )
        26           O   tau(  26) = (  0.7517679  0.0000000  0.4015968  )
        27           O   tau(  27) = (  0.0114961  0.4948124  0.6896512  )
        28           O   tau(  28) = (  0.0048226  0.0077944  0.6999492  )
        29           Sr  tau(  29) = (  0.2545482  0.2517602  0.6972903  )
        30           O   tau(  30) = (  0.5048017  0.0015068  0.7027529  )
        31           Co  tau(  31) = (  0.0056869  0.5006215  0.4015968  )
        32           Co  tau(  32) = (  0.0065315  0.4997770  0.5980003  )
        33           Co  tau(  33) = (  0.0061999  0.0064171  0.4015968  )
        34           Co  tau(  34) = (  0.0000000  0.0126169  0.5980003  )
        35           O   tau(  35) = (  0.0114961  0.4948124  0.5063494  )
        36           O   tau(  36) = (  0.0114961  0.4948124  0.2968442  )
        37           O   tau(  37) = (  0.0051979  0.2673486  0.4015968  )
        38           O   tau(  38) = (  0.0130029  0.2478461  0.5980003  )
        39           O   tau(  39) = (  0.0048226  0.0077944  0.3071422  )
        40           O   tau(  40) = (  0.0048226  0.0077944  0.4960513  )
        41           Sr  tau(  41) = (  0.2545482  0.2517602  0.3044833  )
        42           Sr  tau(  42) = (  0.2545482  0.2517602  0.4987103  )
        43           Co  tau(  43) = (  0.4989925  0.0073160  0.5980003  )
        44           Co  tau(  44) = (  0.4998370  0.0064714  0.4015968  )
        45           O   tau(  45) = (  0.5048017  0.0015068  0.3099459  )
        46           O   tau(  46) = (  0.5048017  0.0015068  0.4932477  )
        47           O   tau(  47) = (  0.2621260  0.0059111  0.5980003  )
        48           O   tau(  48) = (  0.2591051  0.0041689  0.4015968  )
        49           O   tau(  49) = (  0.4264937  0.7108228  0.8534850  )

     number of k points=    10  Gaussian smearing, width (Ry)=  0.0700
                       cart. coord. in units 2pi/alat
        k(    1) = (   0.0000000   0.0000000   0.0000000), wk =   0.1250000
        k(    2) = (   0.0000000   0.2500000   0.0000000), wk =   0.2500000
        k(    3) = (   0.0000000  -0.5000000   0.0000000), wk =   0.1250000
        k(    4) = (   0.2500000   0.2500000   0.0000000), wk =   0.2500000
        k(    5) = (   0.2500000  -0.5000000   0.0000000), wk =   0.2500000
        k(    6) = (  -0.5000000  -0.5000000   0.0000000), wk =   0.1250000
        k(    7) = (   0.2500000   0.0000000   0.0000000), wk =   0.2500000
        k(    8) = (  -0.5000000   0.0000000   0.0000000), wk =   0.1250000
        k(    9) = (  -0.2500000   0.2500000   0.0000000), wk =   0.2500000
        k(   10) = (  -0.5000000   0.2500000   0.0000000), wk =   0.2500000

                       cryst. coord.
        k(    1) = (   0.0000000   0.0000000   0.0000000), wk =   0.1250000
        k(    2) = (   0.0000000   0.2500000   0.0000000), wk =   0.2500000
        k(    3) = (   0.0000000  -0.5000000   0.0000000), wk =   0.1250000
        k(    4) = (   0.2500000   0.2500000   0.0000000), wk =   0.2500000
        k(    5) = (   0.2500000  -0.5000000   0.0000000), wk =   0.2500000
        k(    6) = (  -0.5000000  -0.5000000   0.0000000), wk =   0.1250000
        k(    7) = (   0.2500000   0.0000000   0.0000000), wk =   0.2500000
        k(    8) = (  -0.5000000   0.0000000   0.0000000), wk =   0.1250000
        k(    9) = (  -0.2500000   0.2500000   0.0000000), wk =   0.2500000
        k(   10) = (  -0.5000000   0.2500000   0.0000000), wk =   0.2500000

     Dense  grid:  1474595 G-vectors     FFT dimensions: ( 108, 108, 270)

     Smooth grid:   521381 G-vectors     FFT dimensions: (  75,  75, 192)

     Dynamical RAM for                 wfc:      10.69 MB

     Dynamical RAM for     wfc (w. buffer):      64.13 MB

     Dynamical RAM for           str. fact:       2.81 MB

     Dynamical RAM for           local pot:       0.00 MB

     Dynamical RAM for          nlocal pot:      24.53 MB

     Dynamical RAM for                qrad:       5.27 MB

     Dynamical RAM for          rho,v,vnew:       6.02 MB

     Dynamical RAM for               rhoin:       2.01 MB

     Dynamical RAM for            rho*nmix:      15.00 MB

     Dynamical RAM for           G-vectors:       3.68 MB

     Dynamical RAM for          h,s,v(r/c):       1.35 MB

     Dynamical RAM for          <psi|beta>:       2.33 MB

     Dynamical RAM for                 psi:      21.38 MB

     Dynamical RAM for                hpsi:      21.38 MB

     Dynamical RAM for                spsi:      21.38 MB

     Dynamical RAM for      wfcinit/wfcrot:      34.39 MB

     Dynamical RAM for           addusdens:     101.26 MB

     Estimated static dynamical RAM per process >     117.53 MB

     Estimated max dynamical RAM per process >     233.79 MB

     Estimated total dynamical RAM >      10.61 GB

     Check: negative core charge=   -0.000004

     Initial potential from superposition of free atoms

     starting charge     421.5961, renormalised to     430.0000

     negative rho (up, down):  7.826E-01 0.000E+00
     Starting wfcs are  376 randomized atomic wfcs
     Checking if some PAW data can be deallocated... 
       PAW data deallocated on   19 nodes for type:  2

     total cpu time spent up to now is        8.9 secs

     Self-consistent Calculation

     iteration #  1     ecut=    60.00 Ry     beta= 0.15
     Davidson diagonalization with overlap

---- Real-time Memory Report at c_bands before calling an iterative solver
             0 MiB given to the printing process from OS
             0 MiB allocation reported by mallinfo(arena+hblkhd)
         51479 MiB available memory on the node where the printing process lives
------------------
     ethr =  1.00E-02,  avg # of iterations =  2.0

     negative rho (up, down):  7.716E-01 0.000E+00

     total cpu time spent up to now is       24.1 secs

     total energy              =   -4445.19846447 Ry
     estimated scf accuracy    <      53.94208369 Ry

     iteration #  2     ecut=    60.00 Ry     beta= 0.15
     Davidson diagonalization with overlap

---- Real-time Memory Report at c_bands before calling an iterative solver
             0 MiB given to the printing process from OS
             0 MiB allocation reported by mallinfo(arena+hblkhd)
         51852 MiB available memory on the node where the printing process lives
------------------
     ethr =  1.00E-02,  avg # of iterations =  1.0

     negative rho (up, down):  7.592E-01 0.000E+00

     total cpu time spent up to now is       36.8 secs

     total energy              =   -4441.97422212 Ry
     estimated scf accuracy    <      28.16396538 Ry

     iteration #  3     ecut=    60.00 Ry     beta= 0.15
     Davidson diagonalization with overlap

---- Real-time Memory Report at c_bands before calling an iterative solver
             0 MiB given to the printing process from OS
             0 MiB allocation reported by mallinfo(arena+hblkhd)
         51061 MiB available memory on the node where the printing process lives
------------------
     ethr =  6.55E-03,  avg # of iterations =  1.0

     negative rho (up, down):  7.530E-01 0.000E+00

     total cpu time spent up to now is       49.4 secs

     total energy              =   -4442.58596122 Ry
     estimated scf accuracy    <      29.72461671 Ry

     iteration #  4     ecut=    60.00 Ry     beta= 0.15
     Davidson diagonalization with overlap

---- Real-time Memory Report at c_bands before calling an iterative solver
             0 MiB given to the printing process from OS
             0 MiB allocation reported by mallinfo(arena+hblkhd)
         51050 MiB available memory on the node where the printing process lives
------------------
     ethr =  6.55E-03,  avg # of iterations =  1.0

     negative rho (up, down):  7.534E-01 0.000E+00

     total cpu time spent up to now is       62.3 secs

     total energy              =   -4442.70746201 Ry
     estimated scf accuracy    <      27.84717391 Ry

     iteration #  5     ecut=    60.00 Ry     beta= 0.15
     Davidson diagonalization with overlap

---- Real-time Memory Report at c_bands before calling an iterative solver
             0 MiB given to the printing process from OS
             0 MiB allocation reported by mallinfo(arena+hblkhd)
         51016 MiB available memory on the node where the printing process lives
------------------
     ethr =  6.48E-03,  avg # of iterations =  1.0

     negative rho (up, down):  7.399E-01 0.000E+00

     total cpu time spent up to now is       74.7 secs

     total energy              =   -4442.09252684 Ry
     estimated scf accuracy    <      23.59169542 Ry

     iteration #  6     ecut=    60.00 Ry     beta= 0.15
     Davidson diagonalization with overlap

---- Real-time Memory Report at c_bands before calling an iterative solver
             0 MiB given to the printing process from OS
             0 MiB allocation reported by mallinfo(arena+hblkhd)
         51004 MiB available memory on the node where the printing process lives
------------------
     ethr =  5.49E-03,  avg # of iterations =  1.0

     negative rho (up, down):  7.462E-01 0.000E+00

     total cpu time spent up to now is       87.5 secs

     total energy              =   -4442.22647487 Ry
     estimated scf accuracy    <      51.61852898 Ry

     iteration #  7     ecut=    60.00 Ry     beta= 0.15
     Davidson diagonalization with overlap

---- Real-time Memory Report at c_bands before calling an iterative solver
             0 MiB given to the printing process from OS
             0 MiB allocation reported by mallinfo(arena+hblkhd)
         50986 MiB available memory on the node where the printing process lives
------------------
     ethr =  5.49E-03,  avg # of iterations =  1.0

     negative rho (up, down):  7.493E-01 0.000E+00

     total cpu time spent up to now is      100.3 secs

     total energy              =   -4440.27284139 Ry
     estimated scf accuracy    <      30.97002487 Ry

     iteration #  8     ecut=    60.00 Ry     beta= 0.15
     Davidson diagonalization with overlap

---- Real-time Memory Report at c_bands before calling an iterative solver
             0 MiB given to the printing process from OS
             0 MiB allocation reported by mallinfo(arena+hblkhd)
         50977 MiB available memory on the node where the printing process lives
------------------
     ethr =  5.49E-03,  avg # of iterations =  1.0

     negative rho (up, down):  7.457E-01 0.000E+00

     total cpu time spent up to now is      113.3 secs

     total energy              =   -4440.84125170 Ry
     estimated scf accuracy    <       6.41814812 Ry

     iteration #  9     ecut=    60.00 Ry     beta= 0.15
     Davidson diagonalization with overlap

---- Real-time Memory Report at c_bands before calling an iterative solver
             0 MiB given to the printing process from OS
             0 MiB allocation reported by mallinfo(arena+hblkhd)
         50958 MiB available memory on the node where the printing process lives
------------------
     ethr =  1.49E-03,  avg # of iterations =  1.6

     negative rho (up, down):  7.583E-01 0.000E+00

     total cpu time spent up to now is      127.2 secs

     total energy              =   -4441.22811128 Ry
     estimated scf accuracy    <      11.35148005 Ry

     iteration # 10     ecut=    60.00 Ry     beta= 0.15
     Davidson diagonalization with overlap

---- Real-time Memory Report at c_bands before calling an iterative solver
             0 MiB given to the printing process from OS
             0 MiB allocation reported by mallinfo(arena+hblkhd)
         50921 MiB available memory on the node where the printing process lives
------------------
     ethr =  1.49E-03,  avg # of iterations =  2.0

     negative rho (up, down):  7.687E-01 0.000E+00

     total cpu time spent up to now is      141.7 secs

     total energy              =   -4439.48734213 Ry
     estimated scf accuracy    <      45.99880442 Ry

     iteration # 11     ecut=    60.00 Ry     beta= 0.15
     Davidson diagonalization with overlap

---- Real-time Memory Report at c_bands before calling an iterative solver
             0 MiB given to the printing process from OS
             0 MiB allocation reported by mallinfo(arena+hblkhd)
         50915 MiB available memory on the node where the printing process lives
------------------
     ethr =  1.49E-03,  avg # of iterations =  6.9

     negative rho (up, down):  7.775E-01 0.000E+00

     total cpu time spent up to now is      158.5 secs

     total energy              =   -4440.47811422 Ry
     estimated scf accuracy    <       1.55450337 Ry

     iteration # 12     ecut=    60.00 Ry     beta= 0.15
     Davidson diagonalization with overlap

---- Real-time Memory Report at c_bands before calling an iterative solver
             0 MiB given to the printing process from OS
             0 MiB allocation reported by mallinfo(arena+hblkhd)
         50746 MiB available memory on the node where the printing process lives
------------------
     c_bands:  1 eigenvalues not converged
     ethr =  3.62E-04,  avg # of iterations = 13.1

     negative rho (up, down):  7.823E-01 0.000E+00

     total cpu time spent up to now is      179.2 secs

     total energy              =   -4440.51067895 Ry
     estimated scf accuracy    <       0.89823760 Ry

     iteration # 13     ecut=    60.00 Ry     beta= 0.15
     Davidson diagonalization with overlap

---- Real-time Memory Report at c_bands before calling an iterative solver
             0 MiB given to the printing process from OS
             0 MiB allocation reported by mallinfo(arena+hblkhd)
         50400 MiB available memory on the node where the printing process lives
------------------
     ethr =  2.09E-04,  avg # of iterations =  1.8

     negative rho (up, down):  7.983E-01 0.000E+00

     total cpu time spent up to now is      193.3 secs

     total energy              =   -4440.47123781 Ry
     estimated scf accuracy    <       1.26435903 Ry

     iteration # 14     ecut=    60.00 Ry     beta= 0.15
     Davidson diagonalization with overlap

---- Real-time Memory Report at c_bands before calling an iterative solver
             0 MiB given to the printing process from OS
             0 MiB allocation reported by mallinfo(arena+hblkhd)
         50425 MiB available memory on the node where the printing process lives
------------------
     ethr =  2.09E-04,  avg # of iterations =  1.0

     negative rho (up, down):  8.110E-01 0.000E+00

     total cpu time spent up to now is      206.3 secs

     total energy              =   -4440.39513696 Ry
     estimated scf accuracy    <       1.66970543 Ry

     iteration # 15     ecut=    60.00 Ry     beta= 0.15
     Davidson diagonalization with overlap

---- Real-time Memory Report at c_bands before calling an iterative solver
             0 MiB given to the printing process from OS
             0 MiB allocation reported by mallinfo(arena+hblkhd)
         50441 MiB available memory on the node where the printing process lives
------------------
     ethr =  2.09E-04,  avg # of iterations =  7.5

     negative rho (up, down):  8.223E-01 0.000E+00

     total cpu time spent up to now is      222.7 secs

     total energy              =   -4440.39717900 Ry
     estimated scf accuracy    <       0.46701209 Ry

     iteration # 16     ecut=    60.00 Ry     beta= 0.15
     Davidson diagonalization with overlap

---- Real-time Memory Report at c_bands before calling an iterative solver
             0 MiB given to the printing process from OS
             0 MiB allocation reported by mallinfo(arena+hblkhd)
         50449 MiB available memory on the node where the printing process lives
------------------
     c_bands:  2 eigenvalues not converged
     c_bands:  1 eigenvalues not converged
     ethr =  1.09E-04,  avg # of iterations = 10.6

     negative rho (up, down):  8.194E-01 0.000E+00

     total cpu time spent up to now is      240.4 secs

     total energy              =   -4440.37600379 Ry
     estimated scf accuracy    <       0.30932630 Ry

     iteration # 17     ecut=    60.00 Ry     beta= 0.15
     Davidson diagonalization with overlap

---- Real-time Memory Report at c_bands before calling an iterative solver
             0 MiB given to the printing process from OS
             0 MiB allocation reported by mallinfo(arena+hblkhd)
         50422 MiB available memory on the node where the printing process lives
------------------
     ethr =  7.19E-05,  avg # of iterations =  4.8

     negative rho (up, down):  8.173E-01 0.000E+00

     total cpu time spent up to now is      255.8 secs

     total energy              =   -4440.35857355 Ry
     estimated scf accuracy    <       0.19776578 Ry

     iteration # 18     ecut=    60.00 Ry     beta= 0.15
     Davidson diagonalization with overlap

---- Real-time Memory Report at c_bands before calling an iterative solver
             0 MiB given to the printing process from OS
             0 MiB allocation reported by mallinfo(arena+hblkhd)
         50545 MiB available memory on the node where the printing process lives
------------------
     ethr =  4.60E-05,  avg # of iterations = 11.9

     negative rho (up, down):  8.142E-01 0.000E+00

     total cpu time spent up to now is      273.9 secs

     total energy              =   -4440.34593491 Ry
     estimated scf accuracy    <       0.19011032 Ry

     iteration # 19     ecut=    60.00 Ry     beta= 0.15
     Davidson diagonalization with overlap

---- Real-time Memory Report at c_bands before calling an iterative solver
             0 MiB given to the printing process from OS
             0 MiB allocation reported by mallinfo(arena+hblkhd)
         50516 MiB available memory on the node where the printing process lives
------------------
     ethr =  4.42E-05,  avg # of iterations =  5.7

     negative rho (up, down):  8.091E-01 0.000E+00

     total cpu time spent up to now is      289.8 secs

     total energy              =   -4440.32669697 Ry
     estimated scf accuracy    <       0.16040767 Ry

     iteration # 20     ecut=    60.00 Ry     beta= 0.15
     Davidson diagonalization with overlap

---- Real-time Memory Report at c_bands before calling an iterative solver
             0 MiB given to the printing process from OS
             0 MiB allocation reported by mallinfo(arena+hblkhd)
         50552 MiB available memory on the node where the printing process lives
------------------
     ethr =  3.73E-05,  avg # of iterations =  6.5

     negative rho (up, down):  8.098E-01 0.000E+00

     total cpu time spent up to now is      306.6 secs

     total energy              =   -4440.31749439 Ry
     estimated scf accuracy    <       0.08921128 Ry

     iteration # 21     ecut=    60.00 Ry     beta= 0.15
     Davidson diagonalization with overlap

---- Real-time Memory Report at c_bands before calling an iterative solver
             0 MiB given to the printing process from OS
             0 MiB allocation reported by mallinfo(arena+hblkhd)
         50497 MiB available memory on the node where the printing process lives
------------------
     ethr =  2.07E-05,  avg # of iterations = 10.4

     negative rho (up, down):  8.316E-01 0.000E+00

     total cpu time spent up to now is      325.0 secs

     total energy              =   -4440.30721715 Ry
     estimated scf accuracy    <       0.06117387 Ry

     iteration # 22     ecut=    60.00 Ry     beta= 0.15
     Davidson diagonalization with overlap

---- Real-time Memory Report at c_bands before calling an iterative solver
             0 MiB given to the printing process from OS
             0 MiB allocation reported by mallinfo(arena+hblkhd)
         50402 MiB available memory on the node where the printing process lives
------------------
     c_bands:  1 eigenvalues not converged
     ethr =  1.42E-05,  avg # of iterations =  9.5

     negative rho (up, down):  8.151E-01 0.000E+00

     total cpu time spent up to now is      342.7 secs

     total energy              =   -4440.30689108 Ry
     estimated scf accuracy    <       0.02926004 Ry

     iteration # 23     ecut=    60.00 Ry     beta= 0.15
     Davidson diagonalization with overlap

---- Real-time Memory Report at c_bands before calling an iterative solver
             0 MiB given to the printing process from OS
             0 MiB allocation reported by mallinfo(arena+hblkhd)
         50397 MiB available memory on the node where the printing process lives
------------------
     ethr =  6.80E-06,  avg # of iterations =  2.0

     negative rho (up, down):  8.230E-01 0.000E+00

     total cpu time spent up to now is      356.8 secs

     total energy              =   -4440.30415073 Ry
     estimated scf accuracy    <       0.02107256 Ry

     iteration # 24     ecut=    60.00 Ry     beta= 0.15
     Davidson diagonalization with overlap

---- Real-time Memory Report at c_bands before calling an iterative solver
             0 MiB given to the printing process from OS
             0 MiB allocation reported by mallinfo(arena+hblkhd)
         50399 MiB available memory on the node where the printing process lives
------------------
     c_bands:  1 eigenvalues not converged
     ethr =  4.90E-06,  avg # of iterations = 11.3

     negative rho (up, down):  8.204E-01 0.000E+00

     total cpu time spent up to now is      375.5 secs

     total energy              =   -4440.30352533 Ry
     estimated scf accuracy    <       0.01529883 Ry

     iteration # 25     ecut=    60.00 Ry     beta= 0.15
     Davidson diagonalization with overlap

---- Real-time Memory Report at c_bands before calling an iterative solver
             0 MiB given to the printing process from OS
             0 MiB allocation reported by mallinfo(arena+hblkhd)
         50357 MiB available memory on the node where the printing process lives
------------------
     ethr =  3.56E-06,  avg # of iterations =  2.0

     negative rho (up, down):  8.005E-01 0.000E+00

     total cpu time spent up to now is      389.4 secs

     total energy              =   -4440.30189428 Ry
     estimated scf accuracy    <       0.01082410 Ry

     iteration # 26     ecut=    60.00 Ry     beta= 0.15
     Davidson diagonalization with overlap

---- Real-time Memory Report at c_bands before calling an iterative solver
             0 MiB given to the printing process from OS
             0 MiB allocation reported by mallinfo(arena+hblkhd)
         50357 MiB available memory on the node where the printing process lives
------------------
     c_bands:  1 eigenvalues not converged
     ethr =  2.52E-06,  avg # of iterations =  7.1

     negative rho (up, down):  8.062E-01 0.000E+00

     total cpu time spent up to now is      405.9 secs

     total energy              =   -4440.30179641 Ry
     estimated scf accuracy    <       0.00607999 Ry

     iteration # 27     ecut=    60.00 Ry     beta= 0.15
     Davidson diagonalization with overlap

---- Real-time Memory Report at c_bands before calling an iterative solver
             0 MiB given to the printing process from OS
             0 MiB allocation reported by mallinfo(arena+hblkhd)
         50341 MiB available memory on the node where the printing process lives
------------------
     c_bands:  1 eigenvalues not converged
     c_bands:  1 eigenvalues not converged
     ethr =  1.41E-06,  avg # of iterations = 14.5

     negative rho (up, down):  7.979E-01 0.000E+00

     total cpu time spent up to now is      426.2 secs

     total energy              =   -4440.30116349 Ry
     estimated scf accuracy    <       0.00277878 Ry

     iteration # 28     ecut=    60.00 Ry     beta= 0.15
     Davidson diagonalization with overlap

---- Real-time Memory Report at c_bands before calling an iterative solver
             0 MiB given to the printing process from OS
             0 MiB allocation reported by mallinfo(arena+hblkhd)
         50289 MiB available memory on the node where the printing process lives
------------------
     c_bands:  1 eigenvalues not converged
     c_bands:  1 eigenvalues not converged
     c_bands:  1 eigenvalues not converged
     c_bands:  1 eigenvalues not converged
     ethr =  6.46E-07,  avg # of iterations = 15.3

     negative rho (up, down):  7.999E-01 0.000E+00

     total cpu time spent up to now is      447.7 secs

     total energy              =   -4440.30135967 Ry
     estimated scf accuracy    <       0.00113668 Ry

     iteration # 29     ecut=    60.00 Ry     beta= 0.15
     Davidson diagonalization with overlap

---- Real-time Memory Report at c_bands before calling an iterative solver
             0 MiB given to the printing process from OS
             0 MiB allocation reported by mallinfo(arena+hblkhd)
         50189 MiB available memory on the node where the printing process lives
------------------
     c_bands:  1 eigenvalues not converged
     c_bands:  1 eigenvalues not converged
     ethr =  2.64E-07,  avg # of iterations = 10.0

     negative rho (up, down):  7.972E-01 0.000E+00

     total cpu time spent up to now is      464.7 secs

     total energy              =   -4440.30127855 Ry
     estimated scf accuracy    <       0.00065871 Ry

     iteration # 30     ecut=    60.00 Ry     beta= 0.15
     Davidson diagonalization with overlap

---- Real-time Memory Report at c_bands before calling an iterative solver
             0 MiB given to the printing process from OS
             0 MiB allocation reported by mallinfo(arena+hblkhd)
         50258 MiB available memory on the node where the printing process lives
------------------
     c_bands:  1 eigenvalues not converged
     ethr =  1.53E-07,  avg # of iterations =  6.8

     negative rho (up, down):  7.946E-01 0.000E+00

     total cpu time spent up to now is      480.6 secs

     total energy              =   -4440.30117762 Ry
     estimated scf accuracy    <       0.00044591 Ry

     iteration # 31     ecut=    60.00 Ry     beta= 0.15
     Davidson diagonalization with overlap

---- Real-time Memory Report at c_bands before calling an iterative solver
             0 MiB given to the printing process from OS
             0 MiB allocation reported by mallinfo(arena+hblkhd)
         50316 MiB available memory on the node where the printing process lives
------------------
     c_bands:  1 eigenvalues not converged
     ethr =  1.04E-07,  avg # of iterations =  9.2

     negative rho (up, down):  7.952E-01 0.000E+00

     total cpu time spent up to now is      497.1 secs

     total energy              =   -4440.30120076 Ry
     estimated scf accuracy    <       0.00015640 Ry

     iteration # 32     ecut=    60.00 Ry     beta= 0.15
     Davidson diagonalization with overlap

---- Real-time Memory Report at c_bands before calling an iterative solver
             0 MiB given to the printing process from OS
             0 MiB allocation reported by mallinfo(arena+hblkhd)
         50340 MiB available memory on the node where the printing process lives
------------------
     ethr =  3.64E-08,  avg # of iterations =  3.1

     negative rho (up, down):  7.952E-01 0.000E+00

     total cpu time spent up to now is      511.5 secs

     total energy              =   -4440.30121723 Ry
     estimated scf accuracy    <       0.00008304 Ry

     iteration # 33     ecut=    60.00 Ry     beta= 0.15
     Davidson diagonalization with overlap

---- Real-time Memory Report at c_bands before calling an iterative solver
             0 MiB given to the printing process from OS
             0 MiB allocation reported by mallinfo(arena+hblkhd)
         50372 MiB available memory on the node where the printing process lives
------------------
     ethr =  1.93E-08,  avg # of iterations =  2.0

     negative rho (up, down):  7.940E-01 0.000E+00

     total cpu time spent up to now is      525.6 secs

     total energy              =   -4440.30120198 Ry
     estimated scf accuracy    <       0.00003151 Ry

     iteration # 34     ecut=    60.00 Ry     beta= 0.15
     Davidson diagonalization with overlap

---- Real-time Memory Report at c_bands before calling an iterative solver
             0 MiB given to the printing process from OS
             0 MiB allocation reported by mallinfo(arena+hblkhd)
         50383 MiB available memory on the node where the printing process lives
------------------
     ethr =  7.33E-09,  avg # of iterations =  2.0

     negative rho (up, down):  7.926E-01 0.000E+00

     total cpu time spent up to now is      540.0 secs

     total energy              =   -4440.30118741 Ry
     estimated scf accuracy    <       0.00001874 Ry

     iteration # 35     ecut=    60.00 Ry     beta= 0.15
     Davidson diagonalization with overlap

---- Real-time Memory Report at c_bands before calling an iterative solver
             0 MiB given to the printing process from OS
             0 MiB allocation reported by mallinfo(arena+hblkhd)
         50378 MiB available memory on the node where the printing process lives
------------------
     ethr =  4.36E-09,  avg # of iterations =  3.1

     negative rho (up, down):  7.925E-01 0.000E+00

     total cpu time spent up to now is      555.3 secs

     total energy              =   -4440.30118719 Ry
     estimated scf accuracy    <       0.00000765 Ry

     iteration # 36     ecut=    60.00 Ry     beta= 0.15
     Davidson diagonalization with overlap

---- Real-time Memory Report at c_bands before calling an iterative solver
             0 MiB given to the printing process from OS
             0 MiB allocation reported by mallinfo(arena+hblkhd)
         50382 MiB available memory on the node where the printing process lives
------------------
     ethr =  1.78E-09,  avg # of iterations =  2.0

     negative rho (up, down):  7.925E-01 0.000E+00

     total cpu time spent up to now is      569.5 secs

     total energy              =   -4440.30118872 Ry
     estimated scf accuracy    <       0.00000507 Ry

     iteration # 37     ecut=    60.00 Ry     beta= 0.15
     Davidson diagonalization with overlap

---- Real-time Memory Report at c_bands before calling an iterative solver
             0 MiB given to the printing process from OS
             0 MiB allocation reported by mallinfo(arena+hblkhd)
         50381 MiB available memory on the node where the printing process lives
------------------
     ethr =  1.18E-09,  avg # of iterations =  2.0

     negative rho (up, down):  7.925E-01 0.000E+00

     total cpu time spent up to now is      583.4 secs

     total energy              =   -4440.30119034 Ry
     estimated scf accuracy    <       0.00000364 Ry

     iteration # 38     ecut=    60.00 Ry     beta= 0.15
     Davidson diagonalization with overlap

---- Real-time Memory Report at c_bands before calling an iterative solver
             0 MiB given to the printing process from OS
             0 MiB allocation reported by mallinfo(arena+hblkhd)
         50385 MiB available memory on the node where the printing process lives
------------------
     ethr =  8.45E-10,  avg # of iterations =  2.0

     negative rho (up, down):  7.925E-01 0.000E+00

     total cpu time spent up to now is      597.6 secs

     total energy              =   -4440.30119144 Ry
     estimated scf accuracy    <       0.00000283 Ry

     iteration # 39     ecut=    60.00 Ry     beta= 0.15
     Davidson diagonalization with overlap

---- Real-time Memory Report at c_bands before calling an iterative solver
             0 MiB given to the printing process from OS
             0 MiB allocation reported by mallinfo(arena+hblkhd)
         50386 MiB available memory on the node where the printing process lives
------------------
     ethr =  6.59E-10,  avg # of iterations =  2.7

     negative rho (up, down):  7.925E-01 0.000E+00

     total cpu time spent up to now is      611.8 secs

     total energy              =   -4440.30119167 Ry
     estimated scf accuracy    <       0.00000208 Ry

     iteration # 40     ecut=    60.00 Ry     beta= 0.15
     Davidson diagonalization with overlap

---- Real-time Memory Report at c_bands before calling an iterative solver
             0 MiB given to the printing process from OS
             0 MiB allocation reported by mallinfo(arena+hblkhd)
         50389 MiB available memory on the node where the printing process lives
------------------
     ethr =  4.84E-10,  avg # of iterations =  2.0

     negative rho (up, down):  7.926E-01 0.000E+00

     total cpu time spent up to now is      625.9 secs

     total energy              =   -4440.30119162 Ry
     estimated scf accuracy    <       0.00000175 Ry

     iteration # 41     ecut=    60.00 Ry     beta= 0.15
     Davidson diagonalization with overlap

---- Real-time Memory Report at c_bands before calling an iterative solver
             0 MiB given to the printing process from OS
             0 MiB allocation reported by mallinfo(arena+hblkhd)
         50393 MiB available memory on the node where the printing process lives
------------------
     ethr =  4.08E-10,  avg # of iterations =  2.0

     negative rho (up, down):  7.927E-01 0.000E+00

     total cpu time spent up to now is      640.0 secs

     total energy              =   -4440.30119144 Ry
     estimated scf accuracy    <       0.00000118 Ry

     iteration # 42     ecut=    60.00 Ry     beta= 0.15
     Davidson diagonalization with overlap

---- Real-time Memory Report at c_bands before calling an iterative solver
             0 MiB given to the printing process from OS
             0 MiB allocation reported by mallinfo(arena+hblkhd)
         50395 MiB available memory on the node where the printing process lives
------------------
     ethr =  2.75E-10,  avg # of iterations =  2.0

     negative rho (up, down):  7.927E-01 0.000E+00

     total cpu time spent up to now is      654.0 secs

     total energy              =   -4440.30119133 Ry
     estimated scf accuracy    <       0.00000060 Ry

     iteration # 43     ecut=    60.00 Ry     beta= 0.15
     Davidson diagonalization with overlap

---- Real-time Memory Report at c_bands before calling an iterative solver
             0 MiB given to the printing process from OS
             0 MiB allocation reported by mallinfo(arena+hblkhd)
         50403 MiB available memory on the node where the printing process lives
------------------
     ethr =  1.40E-10,  avg # of iterations =  2.0

     negative rho (up, down):  7.927E-01 0.000E+00

     total cpu time spent up to now is      668.7 secs

     total energy              =   -4440.30119137 Ry
     estimated scf accuracy    <       0.00000039 Ry

     iteration # 44     ecut=    60.00 Ry     beta= 0.15
     Davidson diagonalization with overlap

---- Real-time Memory Report at c_bands before calling an iterative solver
             0 MiB given to the printing process from OS
             0 MiB allocation reported by mallinfo(arena+hblkhd)
         50402 MiB available memory on the node where the printing process lives
------------------
     ethr =  9.11E-11,  avg # of iterations =  2.0

     negative rho (up, down):  7.926E-01 0.000E+00

     total cpu time spent up to now is      683.2 secs

     total energy              =   -4440.30119142 Ry
     estimated scf accuracy    <       0.00000011 Ry

     iteration # 45     ecut=    60.00 Ry     beta= 0.15
     Davidson diagonalization with overlap

---- Real-time Memory Report at c_bands before calling an iterative solver
             0 MiB given to the printing process from OS
             0 MiB allocation reported by mallinfo(arena+hblkhd)
         50405 MiB available memory on the node where the printing process lives
------------------
     ethr =  2.64E-11,  avg # of iterations =  2.4

     negative rho (up, down):  7.926E-01 0.000E+00

     total cpu time spent up to now is      698.0 secs

     total energy              =   -4440.30119145 Ry
     estimated scf accuracy    <       0.00000005 Ry

     iteration # 46     ecut=    60.00 Ry     beta= 0.15
     Davidson diagonalization with overlap

---- Real-time Memory Report at c_bands before calling an iterative solver
             0 MiB given to the printing process from OS
             0 MiB allocation reported by mallinfo(arena+hblkhd)
         50405 MiB available memory on the node where the printing process lives
------------------
     ethr =  1.13E-11,  avg # of iterations =  2.2

     negative rho (up, down):  7.926E-01 0.000E+00

     total cpu time spent up to now is      713.1 secs

     total energy              =   -4440.30119147 Ry
     estimated scf accuracy    <       0.00000003 Ry

     iteration # 47     ecut=    60.00 Ry     beta= 0.15
     Davidson diagonalization with overlap

---- Real-time Memory Report at c_bands before calling an iterative solver
             0 MiB given to the printing process from OS
             0 MiB allocation reported by mallinfo(arena+hblkhd)
         50403 MiB available memory on the node where the printing process lives
------------------
     ethr =  7.79E-12,  avg # of iterations =  1.9

     negative rho (up, down):  7.926E-01 0.000E+00

     total cpu time spent up to now is      727.0 secs

     total energy              =   -4440.30119147 Ry
     estimated scf accuracy    <       0.00000001 Ry

     iteration # 48     ecut=    60.00 Ry     beta= 0.15
     Davidson diagonalization with overlap

---- Real-time Memory Report at c_bands before calling an iterative solver
             0 MiB given to the printing process from OS
             0 MiB allocation reported by mallinfo(arena+hblkhd)
         50403 MiB available memory on the node where the printing process lives
------------------
     ethr =  2.71E-12,  avg # of iterations =  2.5

     negative rho (up, down):  7.926E-01 0.000E+00

     total cpu time spent up to now is      741.6 secs

     End of self-consistent calculation

          k = 0.0000 0.0000 0.0000 ( 65197 PWs)   bands (ev):

   -92.8717 -92.8199 -92.7253 -92.6786 -92.6220 -92.5785 -92.5603 -92.4383
   -56.2253 -56.2067 -56.0823 -56.0720 -56.0645 -56.0588 -56.0234 -55.9943
   -55.9792 -55.9785 -55.9705 -55.9286 -55.9099 -55.8733 -55.8520 -55.8209
   -55.8138 -55.7657 -55.7641 -55.7631 -55.7547 -55.7132 -55.6905 -55.6045
   -31.4350 -31.4148 -31.2749 -31.1943 -31.1875 -31.1542 -30.9399 -30.7821
   -30.0157 -29.9720 -29.9483 -29.8389 -15.2478 -15.2006 -15.1227 -14.9922
   -14.7955 -14.6702 -14.3834 -14.3629 -14.3332 -14.2886 -14.2421 -14.2322
   -14.2187 -14.2003 -14.1682 -14.1429 -14.0955 -13.9436 -13.7642 -13.7303
   -13.7017 -13.6702 -13.6527 -13.5918 -13.5592 -13.4777 -13.4104 -13.2792
   -13.2667 -13.2562 -13.2328 -13.2155 -13.2021 -13.1604 -13.1581 -13.1393
   -13.1132 -13.0810 -13.0591 -13.0385 -13.0140 -13.0090 -12.9186 -12.8998
   -12.8874 -12.7507 -12.7127 -12.6667 -12.5017 -12.3560 -12.1551 -12.0818
   -12.0289 -11.9746 -11.9547 -11.9444 -11.9206 -11.9034 -11.8399 -11.8231
   -11.7871 -11.7590 -11.6474 -11.5679 -11.5642  -3.1090  -2.8773  -2.6475
    -2.5004  -2.4379  -2.2963  -1.9885  -1.9743  -1.9556  -1.8704  -1.8497
    -1.7814  -1.7650  -1.7238  -1.6820  -1.4985  -1.2744  -1.2432  -1.0987
    -1.0841  -1.0353  -1.0190  -0.9715  -0.9539  -0.9016  -0.8747  -0.7967
    -0.7875  -0.7147  -0.5790  -0.5653  -0.5396  -0.4587  -0.4299  -0.4269
    -0.3639  -0.2940  -0.2288  -0.1961  -0.1627  -0.0899  -0.0332   0.0143
     0.0349   0.0533   0.3093   0.3250   0.4981   0.5611   0.6317   0.6804
     0.7608   0.7750   0.7876   0.8591   0.8846   0.9193   0.9764   1.1056
     1.1698   1.1882   1.2088   1.2253   1.2867   1.3524   1.4677   1.4772
     1.5491   1.5554   1.6010   1.6119   1.6242   1.6821   1.7401   1.7572
     1.7952   1.8324   1.8622   1.9945   2.0889   2.1230   2.1365   2.2942
     2.3073   2.3431   2.3456   2.4563   2.4897   2.5149   2.5350   2.5496
     2.5877   2.6263   2.6433   2.6728   2.7430   2.7716   2.7838   2.7899
     2.8574   2.8631   2.8848   2.8921   2.9017   2.9167   2.9212   2.9361
     2.9421   2.9528   2.9613   2.9728   2.9887   3.0094   3.0145   3.0268
     3.0636   3.1684   3.2592   3.9501   4.2728   4.6213   4.8348   4.8857
     5.7546   5.8185   5.8385   5.8530   6.1457   6.1924   6.4405   6.4503
     6.9462   6.9835   7.0847   7.1706   7.3928   7.5108   7.5546   7.5723
     7.6390   7.8341   7.8881   7.9385   8.0389   8.1390   8.3610   8.5990
     8.7606   8.9395

     occupation numbers 
     1.0000   1.0000   1.0000   1.0000   1.0000   1.0000   1.0000   1.0000
     1.0000   1.0000   1.0000   1.0000   1.0000   1.0000   1.0000   1.0000
     1.0000   1.0000   1.0000   1.0000   1.0000   1.0000   1.0000   1.0000
     1.0000   1.0000   1.0000   1.0000   1.0000   1.0000   1.0000   1.0000
     1.0000   1.0000   1.0000   1.0000   1.0000   1.0000   1.0000   1.0000
     1.0000   1.0000   1.0000   1.0000   1.0000   1.0000   1.0000   1.0000
     1.0000   1.0000   1.0000   1.0000   1.0000   1.0000   1.0000   1.0000
     1.0000   1.0000   1.0000   1.0000   1.0000   1.0000   1.0000   1.0000
     1.0000   1.0000   1.0000   1.0000   1.0000   1.0000   1.0000   1.0000
     1.0000   1.0000   1.0000   1.0000   1.0000   1.0000   1.0000   1.0000
     1.0000   1.0000   1.0000   1.0000   1.0000   1.0000   1.0000   1.0000
     1.0000   1.0000   1.0000   1.0000   1.0000   1.0000   1.0000   1.0000
     1.0000   1.0000   1.0000   1.0000   1.0000   1.0000   1.0000   1.0000
     1.0000   1.0000   1.0000   1.0000   1.0000   1.0000   1.0000   1.0000
     1.0000   1.0000   1.0000   1.0000   1.0000   1.0000   1.0000   1.0000
     1.0000   1.0000   1.0000   1.0000   1.0000   1.0000   1.0000   1.0000
     1.0000   1.0000   1.0000   1.0000   1.0000   1.0000   1.0000   1.0000
     1.0000   1.0000   1.0000   1.0000   1.0000   1.0000   1.0000   1.0000
     1.0000   1.0000   1.0000   1.0000   1.0000   1.0000   1.0000   1.0000
     1.0000   1.0000   1.0000   1.0000   1.0000   0.9999   0.9999   0.9999
     0.9998   0.9998   0.9998   0.9997   0.9996   0.9996   0.9994   0.9988
     0.9984   0.9983   0.9981   0.9979   0.9973   0.9963   0.9939   0.9937
     0.9915   0.9913   0.9896   0.9891   0.9886   0.9858   0.9823   0.9812
     0.9784   0.9754   0.9728   0.9579   0.9437   0.9377   0.9352   0.9000
     0.8965   0.8867   0.8859   0.8510   0.8392   0.8299   0.8222   0.8165
     0.8012   0.7847   0.7773   0.7641   0.7308   0.7165   0.7104   0.7073
     0.6719   0.6689   0.6571   0.6531   0.6478   0.6395   0.6370   0.6287
     0.6253   0.6193   0.6145   0.6079   0.5988   0.5869   0.5839   0.5768
     0.5553   0.4934   0.4399   0.1195   0.0488   0.0149   0.0064   0.0051
     0.0001   0.0000   0.0000   0.0000   0.0000   0.0000   0.0000   0.0000
     0.0000   0.0000   0.0000   0.0000   0.0000   0.0000   0.0000   0.0000
     0.0000   0.0000   0.0000   0.0000   0.0000   0.0000   0.0000   0.0000
     0.0000   0.0000

          k = 0.0000 0.2500 0.0000 ( 65257 PWs)   bands (ev):

   -92.8717 -92.8199 -92.7253 -92.6786 -92.6220 -92.5785 -92.5603 -92.4383
   -56.2253 -56.2067 -56.0823 -56.0720 -56.0645 -56.0588 -56.0234 -55.9943
   -55.9792 -55.9785 -55.9705 -55.9286 -55.9099 -55.8733 -55.8520 -55.8209
   -55.8138 -55.7657 -55.7641 -55.7631 -55.7547 -55.7132 -55.6905 -55.6045
   -31.4349 -31.4147 -31.2751 -31.1935 -31.1877 -31.1550 -30.9397 -30.7823
   -30.0150 -29.9717 -29.9490 -29.8393 -15.2114 -15.1747 -15.0975 -14.9628
   -14.8366 -14.6618 -14.5301 -14.3501 -14.3107 -14.2914 -14.2648 -14.2043
   -14.1980 -14.1840 -14.1593 -14.1083 -14.0145 -13.9723 -13.8108 -13.7866
   -13.7414 -13.7069 -13.6614 -13.6145 -13.5615 -13.5034 -13.4637 -13.3860
   -13.3219 -13.3048 -13.2660 -13.2473 -13.1871 -13.1475 -13.1213 -13.0946
   -13.0714 -13.0572 -13.0254 -12.9615 -12.9551 -12.9426 -12.9151 -12.8741
   -12.8595 -12.7203 -12.6282 -12.5825 -12.5630 -12.4072 -12.2114 -12.1491
   -11.9944 -11.9745 -11.9515 -11.9237 -11.8962 -11.8796 -11.8315 -11.8206
   -11.7980 -11.7623 -11.6620 -11.6095 -11.5989  -2.9736  -2.7530  -2.6148
    -2.4331  -2.3895  -2.2265  -2.0058  -1.9230  -1.9099  -1.8517  -1.7476
    -1.7317  -1.7000  -1.6712  -1.6272  -1.4299  -1.3004  -1.2890  -1.2131
    -1.2023  -1.0985  -1.0693  -1.0110  -0.9846  -0.9459  -0.8807  -0.8523
    -0.8218  -0.7866  -0.7712  -0.7378  -0.6635  -0.6153  -0.5478  -0.4294
    -0.4127  -0.3693  -0.2519  -0.2027  -0.1523  -0.1053  -0.0476  -0.0317
    -0.0038   0.0621   0.3577   0.4437   0.4805   0.5680   0.6124   0.6366
     0.7438   0.7620   0.8614   0.8878   0.9101   1.0231   1.1223   1.1439
     1.1678   1.1847   1.2089   1.2686   1.2962   1.3250   1.3711   1.4106
     1.4410   1.5311   1.5632   1.6014   1.6469   1.7100   1.7611   1.7776
     1.7985   1.8172   1.9143   2.0351   2.1079   2.1208   2.1933   2.2431
     2.2857   2.2954   2.3494   2.3866   2.4718   2.5108   2.5275   2.5852
     2.6320   2.6635   2.7004   2.7236   2.7556   2.7758   2.7907   2.7986
     2.8078   2.8160   2.8452   2.8475   2.8662   2.8714   2.8792   2.8993
     2.9127   2.9188   2.9388   2.9517   2.9558   2.9907   3.0072   3.0679
     3.4510   3.4844   3.7114   4.1410   4.2720   4.5598   4.9006   4.9971
     5.5257   5.6393   5.8152   5.9216   5.9596   6.0015   6.0741   6.5551
     7.0158   7.0404   7.2049   7.2503   7.3556   7.4131   7.5512   7.5928
     7.7439   7.8905   8.0790   8.1290   8.2840   8.3041   8.3651   8.4099
     8.6372   8.8246

     occupation numbers 
     1.0000   1.0000   1.0000   1.0000   1.0000   1.0000   1.0000   1.0000
     1.0000   1.0000   1.0000   1.0000   1.0000   1.0000   1.0000   1.0000
     1.0000   1.0000   1.0000   1.0000   1.0000   1.0000   1.0000   1.0000
     1.0000   1.0000   1.0000   1.0000   1.0000   1.0000   1.0000   1.0000
     1.0000   1.0000   1.0000   1.0000   1.0000   1.0000   1.0000   1.0000
     1.0000   1.0000   1.0000   1.0000   1.0000   1.0000   1.0000   1.0000
     1.0000   1.0000   1.0000   1.0000   1.0000   1.0000   1.0000   1.0000
     1.0000   1.0000   1.0000   1.0000   1.0000   1.0000   1.0000   1.0000
     1.0000   1.0000   1.0000   1.0000   1.0000   1.0000   1.0000   1.0000
     1.0000   1.0000   1.0000   1.0000   1.0000   1.0000   1.0000   1.0000
     1.0000   1.0000   1.0000   1.0000   1.0000   1.0000   1.0000   1.0000
     1.0000   1.0000   1.0000   1.0000   1.0000   1.0000   1.0000   1.0000
     1.0000   1.0000   1.0000   1.0000   1.0000   1.0000   1.0000   1.0000
     1.0000   1.0000   1.0000   1.0000   1.0000   1.0000   1.0000   1.0000
     1.0000   1.0000   1.0000   1.0000   1.0000   1.0000   1.0000   1.0000
     1.0000   1.0000   1.0000   1.0000   1.0000   1.0000   1.0000   1.0000
     1.0000   1.0000   1.0000   1.0000   1.0000   1.0000   1.0000   1.0000
     1.0000   1.0000   1.0000   1.0000   1.0000   1.0000   1.0000   1.0000
     1.0000   1.0000   1.0000   1.0000   1.0000   1.0000   1.0000   1.0000
     1.0000   1.0000   1.0000   1.0000   1.0000   0.9999   0.9999   0.9999
     0.9998   0.9998   0.9997   0.9996   0.9996   0.9992   0.9987   0.9986
     0.9984   0.9983   0.9981   0.9975   0.9971   0.9967   0.9960   0.9953
     0.9946   0.9921   0.9910   0.9896   0.9875   0.9842   0.9809   0.9797
     0.9782   0.9767   0.9675   0.9522   0.9404   0.9381   0.9238   0.9127
     0.9022   0.8997   0.8848   0.8738   0.8456   0.8315   0.8251   0.8022
     0.7823   0.7683   0.7512   0.7402   0.7246   0.7145   0.7069   0.7028
     0.6981   0.6938   0.6784   0.6772   0.6672   0.6644   0.6601   0.6492
     0.6418   0.6384   0.6271   0.6199   0.6176   0.5976   0.5881   0.5528
     0.3314   0.3135   0.2053   0.0720   0.0489   0.0186   0.0048   0.0031
     0.0002   0.0001   0.0000   0.0000   0.0000   0.0000   0.0000   0.0000
     0.0000   0.0000   0.0000   0.0000   0.0000   0.0000   0.0000   0.0000
     0.0000   0.0000   0.0000   0.0000   0.0000   0.0000   0.0000   0.0000
     0.0000   0.0000

          k = 0.0000-0.5000 0.0000 ( 65180 PWs)   bands (ev):

   -92.8717 -92.8199 -92.7253 -92.6786 -92.6220 -92.5785 -92.5603 -92.4383
   -56.2253 -56.2067 -56.0823 -56.0720 -56.0645 -56.0588 -56.0234 -55.9943
   -55.9792 -55.9785 -55.9705 -55.9286 -55.9099 -55.8733 -55.8520 -55.8209
   -55.8138 -55.7657 -55.7641 -55.7631 -55.7547 -55.7132 -55.6905 -55.6045
   -31.4347 -31.4145 -31.2753 -31.1927 -31.1878 -31.1558 -30.9395 -30.7825
   -30.0144 -29.9714 -29.9496 -29.8396 -15.1753 -15.1262 -15.0742 -14.9391
   -14.8629 -14.7209 -14.5722 -14.4357 -14.3230 -14.2490 -14.2063 -14.1996
   -14.1473 -14.1339 -14.0891 -14.0638 -14.0405 -14.0010 -13.9462 -13.9214
   -13.7488 -13.6903 -13.6672 -13.6215 -13.5483 -13.5218 -13.4682 -13.4393
   -13.4072 -13.3746 -13.2667 -13.2481 -13.1696 -13.1281 -13.1219 -13.1075
   -13.0871 -13.0413 -12.9521 -12.9310 -12.9152 -12.8654 -12.8551 -12.8398
   -12.8110 -12.7079 -12.6738 -12.5070 -12.4822 -12.3804 -12.3101 -12.2960
   -11.9747 -11.9484 -11.9458 -11.9187 -11.8830 -11.8479 -11.8368 -11.7928
   -11.7888 -11.7428 -11.6845 -11.6705 -11.6562  -2.7589  -2.6998  -2.5498
    -2.4780  -2.1952  -2.1116  -1.9858  -1.8483  -1.8111  -1.7908  -1.7138
    -1.6791  -1.6004  -1.5634  -1.4851  -1.4463  -1.4080  -1.3802  -1.3223
    -1.2857  -1.2349  -1.2013  -1.1704  -1.1332  -1.0264  -0.9814  -0.9448
    -0.9436  -0.8563  -0.8252  -0.8011  -0.7534  -0.6687  -0.5899  -0.5039
    -0.4780  -0.3571  -0.3290  -0.1968  -0.1538  -0.1242  -0.0754   0.0589
     0.1216   0.2246   0.2961   0.3034   0.4312   0.4967   0.5855   0.7152
     0.8161   0.8494   0.8897   0.8993   0.9331   0.9488   0.9851   1.0043
     1.0157   1.1274   1.1852   1.2114   1.2364   1.5070   1.5367   1.5666
     1.6563   1.6765   1.7130   1.7326   1.7485   1.7817   1.7850   1.8094
     1.8393   1.8671   1.8985   1.9013   1.9343   1.9899   2.0776   2.1190
     2.2838   2.4336   2.4412   2.4633   2.4982   2.5057   2.5153   2.5631
     2.5724   2.5896   2.6257   2.6323   2.6512   2.6724   2.7423   2.7475
     2.8147   2.8192   2.8410   2.8479   2.8620   2.8673   2.8705   2.8761
     2.8805   2.8961   2.9093   2.9127   2.9750   2.9810   2.9969   3.0538
     3.9614   3.9981   4.0485   4.1021   4.5695   4.7525   4.9176   5.0098
     5.2971   5.3727   5.4990   5.5873   5.8650   5.8871   6.2701   6.6100
     6.8004   6.8987   7.1531   7.3085   7.5872   7.6415   7.6680   7.7306
     7.7841   7.9055   8.0551   8.1700   8.2665   8.3620   8.5270   8.6293
     8.6984   8.7489

     occupation numbers 
     1.0000   1.0000   1.0000   1.0000   1.0000   1.0000   1.0000   1.0000
     1.0000   1.0000   1.0000   1.0000   1.0000   1.0000   1.0000   1.0000
     1.0000   1.0000   1.0000   1.0000   1.0000   1.0000   1.0000   1.0000
     1.0000   1.0000   1.0000   1.0000   1.0000   1.0000   1.0000   1.0000
     1.0000   1.0000   1.0000   1.0000   1.0000   1.0000   1.0000   1.0000
     1.0000   1.0000   1.0000   1.0000   1.0000   1.0000   1.0000   1.0000
     1.0000   1.0000   1.0000   1.0000   1.0000   1.0000   1.0000   1.0000
     1.0000   1.0000   1.0000   1.0000   1.0000   1.0000   1.0000   1.0000
     1.0000   1.0000   1.0000   1.0000   1.0000   1.0000   1.0000   1.0000
     1.0000   1.0000   1.0000   1.0000   1.0000   1.0000   1.0000   1.0000
     1.0000   1.0000   1.0000   1.0000   1.0000   1.0000   1.0000   1.0000
     1.0000   1.0000   1.0000   1.0000   1.0000   1.0000   1.0000   1.0000
     1.0000   1.0000   1.0000   1.0000   1.0000   1.0000   1.0000   1.0000
     1.0000   1.0000   1.0000   1.0000   1.0000   1.0000   1.0000   1.0000
     1.0000   1.0000   1.0000   1.0000   1.0000   1.0000   1.0000   1.0000
     1.0000   1.0000   1.0000   1.0000   1.0000   1.0000   1.0000   1.0000
     1.0000   1.0000   1.0000   1.0000   1.0000   1.0000   1.0000   1.0000
     1.0000   1.0000   1.0000   1.0000   1.0000   1.0000   1.0000   1.0000
     1.0000   1.0000   1.0000   1.0000   1.0000   1.0000   1.0000   1.0000
     1.0000   1.0000   1.0000   1.0000   1.0000   1.0000   0.9999   0.9999
     0.9997   0.9997   0.9996   0.9996   0.9995   0.9995   0.9994   0.9993
     0.9993   0.9987   0.9983   0.9981   0.9978   0.9929   0.9919   0.9909
     0.9871   0.9861   0.9840   0.9828   0.9818   0.9795   0.9792   0.9773
     0.9748   0.9723   0.9692   0.9689   0.9653   0.9585   0.9456   0.9384
     0.9027   0.8587   0.8562   0.8486   0.8361   0.8333   0.8298   0.8112
     0.8074   0.8003   0.7850   0.7821   0.7738   0.7642   0.7311   0.7285
     0.6945   0.6921   0.6807   0.6770   0.6694   0.6666   0.6649   0.6618
     0.6594   0.6509   0.6436   0.6417   0.6066   0.6032   0.5941   0.5610
     0.1162   0.1059   0.0929   0.0803   0.0180   0.0089   0.0045   0.0030
     0.0007   0.0005   0.0003   0.0002   0.0000   0.0000   0.0000   0.0000
     0.0000   0.0000   0.0000   0.0000   0.0000   0.0000   0.0000   0.0000
     0.0000   0.0000   0.0000   0.0000   0.0000   0.0000   0.0000   0.0000
     0.0000   0.0000

          k = 0.2500 0.2500 0.0000 ( 65198 PWs)   bands (ev):

   -92.8717 -92.8199 -92.7253 -92.6786 -92.6220 -92.5785 -92.5603 -92.4383
   -56.2253 -56.2067 -56.0823 -56.0720 -56.0645 -56.0588 -56.0234 -55.9943
   -55.9792 -55.9785 -55.9705 -55.9286 -55.9099 -55.8733 -55.8520 -55.8209
   -55.8138 -55.7657 -55.7641 -55.7631 -55.7547 -55.7132 -55.6905 -55.6045
   -31.4332 -31.4163 -31.2747 -31.1934 -31.1880 -31.1549 -30.9399 -30.7824
   -30.0141 -29.9727 -29.9486 -29.8397 -15.1824 -15.1398 -15.0696 -14.9521
   -14.8302 -14.7030 -14.6359 -14.4243 -14.2732 -14.2578 -14.2219 -14.1921
   -14.1695 -14.1429 -14.1042 -14.0737 -14.0058 -13.9860 -13.8265 -13.8112
   -13.7842 -13.7625 -13.7074 -13.6738 -13.5877 -13.5795 -13.4391 -13.4125
   -13.3859 -13.2990 -13.2594 -13.2080 -13.1770 -13.1623 -13.1362 -13.1049
   -13.0809 -13.0630 -12.9979 -12.9557 -12.9099 -12.9004 -12.8729 -12.8586
   -12.7888 -12.7047 -12.6114 -12.5770 -12.5356 -12.4362 -12.2473 -12.1847
   -11.9753 -11.9662 -11.9349 -11.9240 -11.9173 -11.8541 -11.8207 -11.8134
   -11.7772 -11.7703 -11.6786 -11.6378 -11.6203  -2.8352  -2.6272  -2.5086
    -2.4145  -2.2942  -2.2296  -2.0305  -1.8874  -1.8687  -1.8384  -1.7425
    -1.7105  -1.6145  -1.5869  -1.5363  -1.4059  -1.3573  -1.2843  -1.2392
    -1.1954  -1.1722  -1.1484  -1.1053  -1.0901  -0.9990  -0.9484  -0.8811
    -0.8324  -0.8005  -0.7553  -0.7373  -0.6751  -0.6265  -0.5679  -0.5352
    -0.4469  -0.3924  -0.3652  -0.3288  -0.2731  -0.1768  -0.1582  -0.1349
    -0.0485  -0.0221   0.2450   0.3956   0.4276   0.4935   0.5378   0.5901
     0.6448   0.7107   0.7403   1.0118   1.0757   1.1487   1.1736   1.2253
     1.2536   1.2901   1.3274   1.3437   1.3712   1.4196   1.4259   1.4412
     1.4848   1.5240   1.5624   1.6388   1.6719   1.6789   1.7210   1.7478
     1.8034   1.8302   1.9532   2.0165   2.0503   2.0672   2.1365   2.2067
     2.2304   2.2647   2.2931   2.3062   2.4139   2.4519   2.5400   2.5832
     2.6323   2.6682   2.7111   2.7258   2.7329   2.7500   2.7645   2.7758
     2.7913   2.7957   2.8065   2.8201   2.8323   2.8493   2.8552   2.8678
     2.8908   2.9012   2.9108   2.9428   3.2420   3.3365   3.3821   3.4580
     3.4953   3.6921   3.7863   4.1508   4.3601   4.5636   4.8243   5.1370
     5.5134   5.5696   5.6037   5.6706   5.7333   6.0936   6.1153   6.1710
     6.8413   7.0528   7.1982   7.3660   7.4630   7.4919   7.6028   7.7665
     7.8214   8.0733   8.2110   8.2279   8.3317   8.3423   8.4307   8.4607
     8.5428   8.7565

     occupation numbers 
     1.0000   1.0000   1.0000   1.0000   1.0000   1.0000   1.0000   1.0000
     1.0000   1.0000   1.0000   1.0000   1.0000   1.0000   1.0000   1.0000
     1.0000   1.0000   1.0000   1.0000   1.0000   1.0000   1.0000   1.0000
     1.0000   1.0000   1.0000   1.0000   1.0000   1.0000   1.0000   1.0000
     1.0000   1.0000   1.0000   1.0000   1.0000   1.0000   1.0000   1.0000
     1.0000   1.0000   1.0000   1.0000   1.0000   1.0000   1.0000   1.0000
     1.0000   1.0000   1.0000   1.0000   1.0000   1.0000   1.0000   1.0000
     1.0000   1.0000   1.0000   1.0000   1.0000   1.0000   1.0000   1.0000
     1.0000   1.0000   1.0000   1.0000   1.0000   1.0000   1.0000   1.0000
     1.0000   1.0000   1.0000   1.0000   1.0000   1.0000   1.0000   1.0000
     1.0000   1.0000   1.0000   1.0000   1.0000   1.0000   1.0000   1.0000
     1.0000   1.0000   1.0000   1.0000   1.0000   1.0000   1.0000   1.0000
     1.0000   1.0000   1.0000   1.0000   1.0000   1.0000   1.0000   1.0000
     1.0000   1.0000   1.0000   1.0000   1.0000   1.0000   1.0000   1.0000
     1.0000   1.0000   1.0000   1.0000   1.0000   1.0000   1.0000   1.0000
     1.0000   1.0000   1.0000   1.0000   1.0000   1.0000   1.0000   1.0000
     1.0000   1.0000   1.0000   1.0000   1.0000   1.0000   1.0000   1.0000
     1.0000   1.0000   1.0000   1.0000   1.0000   1.0000   1.0000   1.0000
     1.0000   1.0000   1.0000   1.0000   1.0000   1.0000   1.0000   1.0000
     1.0000   1.0000   1.0000   1.0000   1.0000   1.0000   0.9999   0.9999
     0.9999   0.9999   0.9998   0.9993   0.9990   0.9986   0.9984   0.9979
     0.9976   0.9972   0.9967   0.9965   0.9960   0.9951   0.9949   0.9946
     0.9935   0.9923   0.9911   0.9879   0.9863   0.9859   0.9835   0.9818
     0.9778   0.9756   0.9631   0.9549   0.9499   0.9472   0.9352   0.9210
     0.9156   0.9075   0.9003   0.8968   0.8652   0.8525   0.8203   0.8030
     0.7821   0.7661   0.7462   0.7391   0.7357   0.7273   0.7201   0.7144
     0.7066   0.7043   0.6987   0.6917   0.6853   0.6763   0.6731   0.6663
     0.6538   0.6481   0.6428   0.6249   0.4499   0.3951   0.3692   0.3276
     0.3078   0.2136   0.1751   0.0701   0.0370   0.0184   0.0067   0.0016
     0.0002   0.0002   0.0001   0.0001   0.0001   0.0000   0.0000   0.0000
     0.0000   0.0000   0.0000   0.0000   0.0000   0.0000   0.0000   0.0000
     0.0000   0.0000   0.0000   0.0000   0.0000   0.0000   0.0000   0.0000
     0.0000   0.0000

          k = 0.2500-0.5000 0.0000 ( 65138 PWs)   bands (ev):

   -92.8717 -92.8199 -92.7253 -92.6786 -92.6220 -92.5785 -92.5603 -92.4383
   -56.2253 -56.2067 -56.0823 -56.0720 -56.0645 -56.0588 -56.0234 -55.9943
   -55.9792 -55.9785 -55.9705 -55.9286 -55.9099 -55.8733 -55.8520 -55.8209
   -55.8138 -55.7657 -55.7641 -55.7631 -55.7547 -55.7132 -55.6905 -55.6045
   -31.4331 -31.4161 -31.2749 -31.1926 -31.1882 -31.1557 -30.9397 -30.7826
   -30.0134 -29.9723 -29.9493 -29.8400 -15.1447 -15.0992 -15.0309 -14.9098
   -14.8846 -14.7630 -14.6740 -14.5362 -14.2384 -14.1825 -14.1571 -14.1333
   -14.1179 -14.1073 -14.0730 -14.0530 -14.0168 -13.9815 -13.9489 -13.9041
   -13.8301 -13.7801 -13.7241 -13.7023 -13.6293 -13.5887 -13.4993 -13.4659
   -13.3644 -13.3001 -13.2767 -13.1921 -13.1599 -13.1423 -13.1222 -13.1025
   -13.0924 -13.0705 -12.9547 -12.9321 -12.9065 -12.8641 -12.8576 -12.8147
   -12.7832 -12.7097 -12.6795 -12.4943 -12.4793 -12.3681 -12.3000 -12.2876
   -11.9749 -11.9421 -11.9301 -11.9196 -11.8929 -11.8603 -11.8334 -11.7901
   -11.7642 -11.7406 -11.6972 -11.6717 -11.6600  -2.6166  -2.5515  -2.4234
    -2.3466  -2.2153  -2.1317  -2.0100  -1.8596  -1.8061  -1.7828  -1.7200
    -1.7075  -1.6114  -1.5420  -1.4580  -1.4073  -1.3974  -1.3365  -1.2927
    -1.2585  -1.2110  -1.1728  -1.1379  -1.0993  -1.0882  -1.0415  -1.0114
    -0.9695  -0.9382  -0.8718  -0.7701  -0.7296  -0.6505  -0.5831  -0.5329
    -0.4935  -0.4726  -0.4103  -0.2522  -0.2407  -0.1423  -0.1075  -0.1016
    -0.0592  -0.0161   0.0195   0.0489   0.1103   0.3966   0.5056   0.5510
     0.6121   0.8794   0.8996   0.9873   1.0094   1.1726   1.2081   1.2484
     1.2717   1.2845   1.3061   1.3687   1.4176   1.4526   1.5289   1.6418
     1.6718   1.6875   1.6942   1.7368   1.7449   1.7646   1.8034   1.8091
     1.8373   1.8570   1.8786   1.8936   1.9309   1.9896   2.0314   2.1139
     2.2467   2.3868   2.4044   2.4227   2.4499   2.4712   2.5011   2.5215
     2.5347   2.5582   2.5875   2.6277   2.6571   2.6740   2.7205   2.7273
     2.7347   2.7460   2.7658   2.7786   2.7985   2.8084   2.8412   2.8498
     2.8649   2.8739   2.8811   2.8926   3.4164   3.4382   3.5744   3.6321
     3.9749   4.0317   4.0456   4.1585   4.5892   4.7722   4.9367   4.9760
     5.1465   5.3128   5.5185   5.5280   5.6420   5.6755   6.3518   6.3641
     6.4500   6.7105   7.2491   7.5971   7.6674   7.7164   7.7494   7.8050
     7.9263   7.9366   8.1906   8.3431   8.3786   8.4206   8.5578   8.5973
     8.6464   8.7315

     occupation numbers 
     1.0000   1.0000   1.0000   1.0000   1.0000   1.0000   1.0000   1.0000
     1.0000   1.0000   1.0000   1.0000   1.0000   1.0000   1.0000   1.0000
     1.0000   1.0000   1.0000   1.0000   1.0000   1.0000   1.0000   1.0000
     1.0000   1.0000   1.0000   1.0000   1.0000   1.0000   1.0000   1.0000
     1.0000   1.0000   1.0000   1.0000   1.0000   1.0000   1.0000   1.0000
     1.0000   1.0000   1.0000   1.0000   1.0000   1.0000   1.0000   1.0000
     1.0000   1.0000   1.0000   1.0000   1.0000   1.0000   1.0000   1.0000
     1.0000   1.0000   1.0000   1.0000   1.0000   1.0000   1.0000   1.0000
     1.0000   1.0000   1.0000   1.0000   1.0000   1.0000   1.0000   1.0000
     1.0000   1.0000   1.0000   1.0000   1.0000   1.0000   1.0000   1.0000
     1.0000   1.0000   1.0000   1.0000   1.0000   1.0000   1.0000   1.0000
     1.0000   1.0000   1.0000   1.0000   1.0000   1.0000   1.0000   1.0000
     1.0000   1.0000   1.0000   1.0000   1.0000   1.0000   1.0000   1.0000
     1.0000   1.0000   1.0000   1.0000   1.0000   1.0000   1.0000   1.0000
     1.0000   1.0000   1.0000   1.0000   1.0000   1.0000   1.0000   1.0000
     1.0000   1.0000   1.0000   1.0000   1.0000   1.0000   1.0000   1.0000
     1.0000   1.0000   1.0000   1.0000   1.0000   1.0000   1.0000   1.0000
     1.0000   1.0000   1.0000   1.0000   1.0000   1.0000   1.0000   1.0000
     1.0000   1.0000   1.0000   1.0000   1.0000   1.0000   1.0000   1.0000
     1.0000   1.0000   1.0000   1.0000   1.0000   1.0000   1.0000   0.9999
     0.9999   0.9996   0.9996   0.9994   0.9993   0.9984   0.9981   0.9977
     0.9974   0.9973   0.9970   0.9960   0.9951   0.9943   0.9922   0.9878
     0.9863   0.9855   0.9851   0.9825   0.9820   0.9807   0.9778   0.9773
     0.9750   0.9732   0.9712   0.9697   0.9657   0.9585   0.9527   0.9393
     0.9118   0.8737   0.8682   0.8623   0.8532   0.8458   0.8350   0.8274
     0.8224   0.8131   0.8012   0.7841   0.7711   0.7635   0.7417   0.7384
     0.7348   0.7293   0.7195   0.7130   0.7029   0.6977   0.6806   0.6760
     0.6679   0.6630   0.6591   0.6528   0.3502   0.3382   0.2678   0.2404
     0.1123   0.0971   0.0936   0.0685   0.0167   0.0082   0.0041   0.0035
     0.0016   0.0007   0.0002   0.0002   0.0001   0.0001   0.0000   0.0000
     0.0000   0.0000   0.0000   0.0000   0.0000   0.0000   0.0000   0.0000
     0.0000   0.0000   0.0000   0.0000   0.0000   0.0000   0.0000   0.0000
     0.0000   0.0000

          k =-0.5000-0.5000 0.0000 ( 65132 PWs)   bands (ev):

   -92.8717 -92.8199 -92.7253 -92.6786 -92.6220 -92.5785 -92.5603 -92.4383
   -56.2253 -56.2067 -56.0823 -56.0720 -56.0645 -56.0588 -56.0234 -55.9943
   -55.9792 -55.9785 -55.9705 -55.9286 -55.9099 -55.8733 -55.8520 -55.8209
   -55.8138 -55.7657 -55.7641 -55.7631 -55.7547 -55.7132 -55.6905 -55.6045
   -31.4311 -31.4182 -31.2746 -31.1925 -31.1886 -31.1556 -30.9398 -30.7827
   -30.0124 -29.9734 -29.9489 -29.8404 -15.0977 -15.0726 -14.9533 -14.9425
   -14.8477 -14.8110 -14.7728 -14.6381 -14.1486 -14.1327 -14.1021 -14.0839
   -14.0668 -14.0529 -14.0234 -14.0134 -14.0010 -13.9845 -13.9708 -13.8977
   -13.8870 -13.8544 -13.8224 -13.8070 -13.7166 -13.6372 -13.5259 -13.5222
   -13.3137 -13.2752 -13.2098 -13.1843 -13.1554 -13.1430 -13.1336 -13.1218
   -13.1100 -13.0730 -12.9454 -12.9366 -12.9091 -12.8794 -12.8566 -12.7650
   -12.7569 -12.7182 -12.6941 -12.4833 -12.4741 -12.3552 -12.2896 -12.2792
   -11.9750 -11.9391 -11.9265 -11.9085 -11.8922 -11.8562 -11.8376 -11.8061
   -11.7449 -11.7243 -11.7191 -11.6691 -11.6655  -2.3920  -2.3159  -2.3062
    -2.2365  -2.1972  -2.1186  -2.0508  -1.9252  -1.8105  -1.7793  -1.7402
    -1.6832  -1.6110  -1.5973  -1.5251  -1.4838  -1.3657  -1.3354  -1.2872
    -1.2609  -1.1964  -1.1483  -1.1294  -1.1161  -1.0636  -1.0210  -1.0028
    -0.8907  -0.8318  -0.7878  -0.7360  -0.7091  -0.6973  -0.6623  -0.6172
    -0.5817  -0.5738  -0.4877  -0.4154  -0.3778  -0.3450  -0.2759  -0.2104
    -0.1951  -0.1391  -0.1162  -0.1090  -0.0992   0.3652   0.4404   0.4970
     0.5334   0.9095   0.9236   0.9519   0.9883   1.2588   1.2791   1.2839
     1.3225   1.4505   1.5467   1.5740   1.6111   1.6448   1.6576   1.6671
     1.6985   1.7166   1.7357   1.7451   1.7796   1.7867   1.8134   1.8485
     1.8580   1.8702   1.9111   1.9296   1.9435   1.9748   2.0049   2.0667
     2.1345   2.3963   2.4305   2.4504   2.4684   2.4763   2.5097   2.5124
     2.5320   2.5418   2.5584   2.5769   2.5846   2.5972   2.6309   2.6594
     2.6612   2.6749   2.6833   2.7028   2.7186   2.7303   2.7366   2.7549
     2.8462   2.8549   2.8804   2.8886   3.8349   3.8785   3.9233   3.9557
     4.1495   4.2244   4.2492   4.4902   4.6124   4.6948   4.8283   4.9308
     4.9507   5.0386   5.1814   5.2521   5.8246   5.8543   5.8985   6.0061
     6.5457   6.8573   6.9010   7.5790   7.8491   7.8623   7.9415   8.0715
     8.1450   8.1602   8.2284   8.2572   8.3584   8.4693   8.5062   8.5369
     8.5575   8.6159

     occupation numbers 
     1.0000   1.0000   1.0000   1.0000   1.0000   1.0000   1.0000   1.0000
     1.0000   1.0000   1.0000   1.0000   1.0000   1.0000   1.0000   1.0000
     1.0000   1.0000   1.0000   1.0000   1.0000   1.0000   1.0000   1.0000
     1.0000   1.0000   1.0000   1.0000   1.0000   1.0000   1.0000   1.0000
     1.0000   1.0000   1.0000   1.0000   1.0000   1.0000   1.0000   1.0000
     1.0000   1.0000   1.0000   1.0000   1.0000   1.0000   1.0000   1.0000
     1.0000   1.0000   1.0000   1.0000   1.0000   1.0000   1.0000   1.0000
     1.0000   1.0000   1.0000   1.0000   1.0000   1.0000   1.0000   1.0000
     1.0000   1.0000   1.0000   1.0000   1.0000   1.0000   1.0000   1.0000
     1.0000   1.0000   1.0000   1.0000   1.0000   1.0000   1.0000   1.0000
     1.0000   1.0000   1.0000   1.0000   1.0000   1.0000   1.0000   1.0000
     1.0000   1.0000   1.0000   1.0000   1.0000   1.0000   1.0000   1.0000
     1.0000   1.0000   1.0000   1.0000   1.0000   1.0000   1.0000   1.0000
     1.0000   1.0000   1.0000   1.0000   1.0000   1.0000   1.0000   1.0000
     1.0000   1.0000   1.0000   1.0000   1.0000   1.0000   1.0000   1.0000
     1.0000   1.0000   1.0000   1.0000   1.0000   1.0000   1.0000   1.0000
     1.0000   1.0000   1.0000   1.0000   1.0000   1.0000   1.0000   1.0000
     1.0000   1.0000   1.0000   1.0000   1.0000   1.0000   1.0000   1.0000
     1.0000   1.0000   1.0000   1.0000   1.0000   1.0000   1.0000   1.0000
     1.0000   1.0000   1.0000   1.0000   1.0000   1.0000   1.0000   1.0000
     1.0000   0.9996   0.9995   0.9995   0.9994   0.9976   0.9974   0.9973
     0.9968   0.9944   0.9916   0.9906   0.9892   0.9876   0.9870   0.9865
     0.9848   0.9838   0.9826   0.9820   0.9796   0.9791   0.9770   0.9740
     0.9732   0.9720   0.9679   0.9658   0.9642   0.9604   0.9565   0.9473
     0.9356   0.8707   0.8597   0.8531   0.8468   0.8440   0.8319   0.8309
     0.8234   0.8196   0.8130   0.8056   0.8024   0.7972   0.7828   0.7701
     0.7693   0.7631   0.7592   0.7501   0.7426   0.7369   0.7339   0.7249
     0.6779   0.6733   0.6595   0.6550   0.1571   0.1421   0.1277   0.1179
     0.0703   0.0565   0.0525   0.0239   0.0154   0.0112   0.0065   0.0042
     0.0039   0.0026   0.0013   0.0009   0.0000   0.0000   0.0000   0.0000
     0.0000   0.0000   0.0000   0.0000   0.0000   0.0000   0.0000   0.0000
     0.0000   0.0000   0.0000   0.0000   0.0000   0.0000   0.0000   0.0000
     0.0000   0.0000

          k = 0.2500 0.0000 0.0000 ( 65257 PWs)   bands (ev):

   -92.8717 -92.8199 -92.7253 -92.6786 -92.6220 -92.5785 -92.5603 -92.4383
   -56.2253 -56.2067 -56.0823 -56.0720 -56.0645 -56.0588 -56.0234 -55.9943
   -55.9792 -55.9785 -55.9705 -55.9286 -55.9099 -55.8733 -55.8520 -55.8209
   -55.8138 -55.7657 -55.7641 -55.7631 -55.7547 -55.7132 -55.6905 -55.6045
   -31.4334 -31.4164 -31.2745 -31.1941 -31.1879 -31.1541 -30.9401 -30.7822
   -30.0147 -29.9730 -29.9480 -29.8394 -15.2150 -15.1695 -15.1032 -14.9556
   -14.8469 -14.6485 -14.5216 -14.3390 -14.3227 -14.2931 -14.2601 -14.2361
   -14.2006 -14.1851 -14.1566 -14.1112 -14.0073 -13.9744 -13.8233 -13.7553
[...]
     0.6330   0.6211   0.6184   0.6141   0.6105   0.6047   0.5987   0.5210
     0.3504   0.3194   0.2026   0.0753   0.0437   0.0208   0.0048   0.0031
     0.0002   0.0001   0.0000   0.0000   0.0000   0.0000   0.0000   0.0000
     0.0000   0.0000   0.0000   0.0000   0.0000   0.0000   0.0000   0.0000
     0.0000   0.0000   0.0000   0.0000   0.0000   0.0000   0.0000   0.0000
     0.0000   0.0000

          k =-0.5000 0.0000 0.0000 ( 65180 PWs)   bands (ev):

   -92.8717 -92.8199 -92.7253 -92.6786 -92.6220 -92.5785 -92.5603 -92.4383
   -56.2253 -56.2067 -56.0823 -56.0720 -56.0645 -56.0588 -56.0234 -55.9943
   -55.9792 -55.9785 -55.9705 -55.9286 -55.9099 -55.8733 -55.8520 -55.8209
   -55.8138 -55.7657 -55.7641 -55.7631 -55.7547 -55.7132 -55.6905 -55.6045
   -31.4314 -31.4184 -31.2742 -31.1940 -31.1883 -31.1541 -30.9402 -30.7822
   -30.0137 -29.9740 -29.9476 -29.8398 -15.1807 -15.1273 -15.0650 -14.9569
   -14.8531 -14.7110 -14.5571 -14.4201 -14.2974 -14.2830 -14.2741 -14.1983
   -14.1526 -14.1213 -14.0710 -14.0649 -14.0493 -14.0013 -13.9803 -13.8678
   -13.7200 -13.6888 -13.6588 -13.6528 -13.5538 -13.5271 -13.4546 -13.4245
   -13.4005 -13.3873 -13.2126 -13.2031 -13.1937 -13.1714 -13.1657 -13.1051
   -13.0855 -13.0814 -13.0267 -13.0083 -12.8946 -12.8002 -12.7911 -12.7630
   -12.7287 -12.6998 -12.6795 -12.5956 -12.4863 -12.4792 -12.2948 -12.2432
   -11.9753 -11.9458 -11.9241 -11.9172 -11.9028 -11.8845 -11.8423 -11.7818
   -11.7644 -11.7314 -11.6855 -11.6764 -11.6613  -2.7487  -2.7107  -2.5476
    -2.5084  -2.1934  -2.1192  -1.9708  -1.8541  -1.8146  -1.7699  -1.7210
    -1.6971  -1.5726  -1.5289  -1.5123  -1.4310  -1.3958  -1.3785  -1.3488
    -1.2884  -1.2209  -1.1932  -1.1627  -1.0651  -1.0209  -0.9708  -0.9380
    -0.9174  -0.8874  -0.8393  -0.8144  -0.7707  -0.6755  -0.6038  -0.5350
    -0.4755  -0.2931  -0.2745  -0.2218  -0.1836  -0.1132  -0.0978   0.0394
     0.0652   0.1028   0.2743   0.3738   0.4232   0.5048   0.5997   0.6927
     0.7145   0.8484   0.8681   0.9202   0.9467   0.9875   1.0012   1.0439
     1.0682   1.1414   1.1840   1.2309   1.2376   1.5483   1.5565   1.5722
     1.6051   1.7023   1.7095   1.7294   1.7369   1.7608   1.7743   1.8164
     1.8310   1.8633   1.9105   1.9318   1.9767   2.0048   2.0562   2.1618
     2.2801   2.3315   2.3514   2.4308   2.4576   2.4862   2.5536   2.5610
     2.5690   2.5882   2.6016   2.6385   2.6673   2.6760   2.7210   2.7613
     2.7938   2.8322   2.8367   2.8377   2.8507   2.8638   2.8761   2.8908
     2.8951   2.9176   2.9183   2.9434   2.9603   2.9663   3.0965   3.1071
     3.8962   3.9739   4.0431   4.1811   4.6309   4.7178   4.8904   4.9372
     5.3800   5.4188   5.4991   5.5200   5.8719   5.8770   6.2526   6.6557
     6.7452   6.9488   7.2100   7.2636   7.6005   7.6384   7.6733   7.7008
     7.7728   7.8349   8.0227   8.2916   8.3512   8.3778   8.4820   8.5075
     8.6452   8.7842

     occupation numbers 
     1.0000   1.0000   1.0000   1.0000   1.0000   1.0000   1.0000   1.0000
     1.0000   1.0000   1.0000   1.0000   1.0000   1.0000   1.0000   1.0000
     1.0000   1.0000   1.0000   1.0000   1.0000   1.0000   1.0000   1.0000
     1.0000   1.0000   1.0000   1.0000   1.0000   1.0000   1.0000   1.0000
     1.0000   1.0000   1.0000   1.0000   1.0000   1.0000   1.0000   1.0000
     1.0000   1.0000   1.0000   1.0000   1.0000   1.0000   1.0000   1.0000
     1.0000   1.0000   1.0000   1.0000   1.0000   1.0000   1.0000   1.0000
     1.0000   1.0000   1.0000   1.0000   1.0000   1.0000   1.0000   1.0000
     1.0000   1.0000   1.0000   1.0000   1.0000   1.0000   1.0000   1.0000
     1.0000   1.0000   1.0000   1.0000   1.0000   1.0000   1.0000   1.0000
     1.0000   1.0000   1.0000   1.0000   1.0000   1.0000   1.0000   1.0000
     1.0000   1.0000   1.0000   1.0000   1.0000   1.0000   1.0000   1.0000
     1.0000   1.0000   1.0000   1.0000   1.0000   1.0000   1.0000   1.0000
     1.0000   1.0000   1.0000   1.0000   1.0000   1.0000   1.0000   1.0000
     1.0000   1.0000   1.0000   1.0000   1.0000   1.0000   1.0000   1.0000
     1.0000   1.0000   1.0000   1.0000   1.0000   1.0000   1.0000   1.0000
     1.0000   1.0000   1.0000   1.0000   1.0000   1.0000   1.0000   1.0000
     1.0000   1.0000   1.0000   1.0000   1.0000   1.0000   1.0000   1.0000
     1.0000   1.0000   1.0000   1.0000   1.0000   1.0000   1.0000   1.0000
     1.0000   1.0000   1.0000   1.0000   1.0000   1.0000   0.9999   0.9999
     0.9999   0.9997   0.9997   0.9996   0.9995   0.9994   0.9993   0.9991
     0.9990   0.9986   0.9983   0.9979   0.9978   0.9916   0.9913   0.9907
     0.9894   0.9846   0.9842   0.9830   0.9825   0.9809   0.9800   0.9768
     0.9755   0.9727   0.9679   0.9656   0.9602   0.9565   0.9490   0.9303
     0.9036   0.8899   0.8843   0.8596   0.8506   0.8405   0.8150   0.8120
     0.8088   0.8009   0.7953   0.7795   0.7665   0.7626   0.7414   0.7217
     0.7053   0.6853   0.6829   0.6824   0.6755   0.6685   0.6618   0.6538
     0.6515   0.6390   0.6386   0.6246   0.6150   0.6116   0.5359   0.5297
     0.1363   0.1126   0.0942   0.0642   0.0143   0.0102   0.0050   0.0041
     0.0005   0.0004   0.0003   0.0002   0.0000   0.0000   0.0000   0.0000
     0.0000   0.0000   0.0000   0.0000   0.0000   0.0000   0.0000   0.0000
     0.0000   0.0000   0.0000   0.0000   0.0000   0.0000   0.0000   0.0000
     0.0000   0.0000

          k =-0.2500 0.2500 0.0000 ( 65198 PWs)   bands (ev):

   -92.8717 -92.8199 -92.7253 -92.6786 -92.6220 -92.5785 -92.5603 -92.4383
   -56.2253 -56.2067 -56.0823 -56.0720 -56.0645 -56.0588 -56.0234 -55.9943
   -55.9792 -55.9785 -55.9705 -55.9286 -55.9099 -55.8733 -55.8520 -55.8209
   -55.8138 -55.7657 -55.7641 -55.7631 -55.7547 -55.7132 -55.6905 -55.6045
   -31.4332 -31.4163 -31.2747 -31.1934 -31.1880 -31.1549 -30.9399 -30.7824
   -30.0141 -29.9727 -29.9486 -29.8397 -15.1837 -15.1388 -15.0679 -14.9509
   -14.8362 -14.7071 -14.6282 -14.4154 -14.2793 -14.2491 -14.2358 -14.1871
   -14.1652 -14.1448 -14.1187 -14.0725 -14.0022 -13.9870 -13.8339 -13.8095
   -13.7790 -13.7596 -13.7114 -13.6611 -13.5956 -13.5753 -13.4450 -13.4094
   -13.3806 -13.3032 -13.2607 -13.1976 -13.1712 -13.1610 -13.1416 -13.1077
   -13.0862 -13.0615 -12.9884 -12.9630 -12.9304 -12.9045 -12.8525 -12.8506
   -12.8023 -12.7117 -12.6087 -12.6008 -12.4958 -12.4420 -12.2363 -12.1988
   -11.9754 -11.9650 -11.9443 -11.9176 -11.9054 -11.8636 -11.8304 -11.8058
   -11.7856 -11.7622 -11.6783 -11.6333 -11.6234  -2.8336  -2.6261  -2.5044
    -2.4161  -2.2984  -2.2324  -2.0282  -1.8843  -1.8664  -1.8365  -1.7430
    -1.7094  -1.6142  -1.5800  -1.5539  -1.4117  -1.3552  -1.2877  -1.2593
    -1.1980  -1.1778  -1.1381  -1.1092  -1.0689  -1.0050  -0.9568  -0.8933
    -0.8239  -0.7961  -0.7478  -0.7190  -0.6727  -0.6167  -0.5706  -0.5298
    -0.4273  -0.3967  -0.3817  -0.3420  -0.2744  -0.1843  -0.1527  -0.1249
    -0.0444  -0.0255   0.2256   0.3974   0.4368   0.4805   0.5455   0.5930
     0.6468   0.7142   0.7406   1.0199   1.1255   1.1662   1.1993   1.2042
     1.2481   1.2636   1.3084   1.3405   1.3532   1.3784   1.4284   1.4438
     1.4821   1.5010   1.5464   1.6559   1.6619   1.6778   1.7213   1.7472
     1.7818   1.8411   1.9437   2.0475   2.0683   2.1154   2.1347   2.2044
     2.2423   2.2675   2.2975   2.3129   2.4145   2.4501   2.5401   2.5834
     2.6320   2.6674   2.7171   2.7263   2.7376   2.7479   2.7584   2.7731
     2.7836   2.7980   2.8052   2.8197   2.8295   2.8421   2.8509   2.8575
     2.8920   2.9020   2.9102   2.9440   3.2352   3.3173   3.3858   3.4632
     3.5024   3.6765   3.7953   4.1501   4.3582   4.5652   4.8334   5.1372
     5.5148   5.5662   5.6073   5.6677   5.7343   6.0997   6.1252   6.1535
     6.8424   7.0735   7.1685   7.3608   7.4732   7.4971   7.5776   7.7767
     7.8547   8.0448   8.2068   8.2152   8.3365   8.3739   8.4416   8.4826
     8.5323   8.7073

     occupation numbers 
     1.0000   1.0000   1.0000   1.0000   1.0000   1.0000   1.0000   1.0000
     1.0000   1.0000   1.0000   1.0000   1.0000   1.0000   1.0000   1.0000
     1.0000   1.0000   1.0000   1.0000   1.0000   1.0000   1.0000   1.0000
     1.0000   1.0000   1.0000   1.0000   1.0000   1.0000   1.0000   1.0000
     1.0000   1.0000   1.0000   1.0000   1.0000   1.0000   1.0000   1.0000
     1.0000   1.0000   1.0000   1.0000   1.0000   1.0000   1.0000   1.0000
     1.0000   1.0000   1.0000   1.0000   1.0000   1.0000   1.0000   1.0000
     1.0000   1.0000   1.0000   1.0000   1.0000   1.0000   1.0000   1.0000
     1.0000   1.0000   1.0000   1.0000   1.0000   1.0000   1.0000   1.0000
     1.0000   1.0000   1.0000   1.0000   1.0000   1.0000   1.0000   1.0000
     1.0000   1.0000   1.0000   1.0000   1.0000   1.0000   1.0000   1.0000
     1.0000   1.0000   1.0000   1.0000   1.0000   1.0000   1.0000   1.0000
     1.0000   1.0000   1.0000   1.0000   1.0000   1.0000   1.0000   1.0000
     1.0000   1.0000   1.0000   1.0000   1.0000   1.0000   1.0000   1.0000
     1.0000   1.0000   1.0000   1.0000   1.0000   1.0000   1.0000   1.0000
     1.0000   1.0000   1.0000   1.0000   1.0000   1.0000   1.0000   1.0000
     1.0000   1.0000   1.0000   1.0000   1.0000   1.0000   1.0000   1.0000
     1.0000   1.0000   1.0000   1.0000   1.0000   1.0000   1.0000   1.0000
     1.0000   1.0000   1.0000   1.0000   1.0000   1.0000   1.0000   1.0000
     1.0000   1.0000   1.0000   1.0000   1.0000   1.0000   0.9999   0.9999
     0.9999   0.9999   0.9998   0.9992   0.9987   0.9984   0.9982   0.9981
     0.9977   0.9975   0.9970   0.9965   0.9963   0.9959   0.9949   0.9945
     0.9936   0.9930   0.9916   0.9871   0.9868   0.9860   0.9835   0.9819
     0.9794   0.9747   0.9642   0.9503   0.9471   0.9391   0.9355   0.9215
     0.9129   0.9068   0.8991   0.8950   0.8650   0.8531   0.8203   0.8029
     0.7823   0.7665   0.7433   0.7389   0.7334   0.7283   0.7232   0.7158
     0.7105   0.7031   0.6994   0.6919   0.6867   0.6801   0.6754   0.6719
     0.6532   0.6477   0.6431   0.6242   0.4539   0.4061   0.3672   0.3248
     0.3042   0.2203   0.1717   0.0702   0.0373   0.0183   0.0064   0.0016
     0.0002   0.0002   0.0001   0.0001   0.0001   0.0000   0.0000   0.0000
     0.0000   0.0000   0.0000   0.0000   0.0000   0.0000   0.0000   0.0000
     0.0000   0.0000   0.0000   0.0000   0.0000   0.0000   0.0000   0.0000
     0.0000   0.0000

          k =-0.5000 0.2500 0.0000 ( 65138 PWs)   bands (ev):

   -92.8717 -92.8199 -92.7253 -92.6786 -92.6220 -92.5785 -92.5603 -92.4383
   -56.2253 -56.2067 -56.0823 -56.0720 -56.0645 -56.0588 -56.0234 -55.9943
   -55.9792 -55.9785 -55.9705 -55.9286 -55.9099 -55.8733 -55.8520 -55.8209
   -55.8138 -55.7657 -55.7641 -55.7631 -55.7547 -55.7132 -55.6905 -55.6045
   -31.4312 -31.4183 -31.2744 -31.1933 -31.1884 -31.1548 -30.9400 -30.7825
   -30.0130 -29.9737 -29.9482 -29.8401 -15.1476 -15.1015 -15.0221 -14.9227
   -14.8830 -14.7574 -14.6620 -14.5355 -14.2308 -14.1982 -14.1857 -14.1385
   -14.1164 -14.0956 -14.0580 -14.0495 -14.0288 -13.9889 -13.9770 -13.8637
   -13.8009 -13.7528 -13.7475 -13.7299 -13.6301 -13.5948 -13.4916 -13.4569
   -13.3569 -13.3228 -13.2258 -13.1848 -13.1744 -13.1588 -13.1414 -13.1116
   -13.0981 -13.0623 -13.0189 -12.9635 -12.9023 -12.8159 -12.7955 -12.7813
   -12.7744 -12.7049 -12.6950 -12.5289 -12.4813 -12.4155 -12.2920 -12.2562
   -11.9751 -11.9386 -11.9260 -11.9116 -11.8997 -11.8778 -11.8473 -11.7685
   -11.7603 -11.7368 -11.7001 -11.6721 -11.6639  -2.6060  -2.5646  -2.4172
    -2.3748  -2.2126  -2.1376  -1.9951  -1.8604  -1.8034  -1.7770  -1.7372
    -1.6994  -1.6182  -1.5027  -1.4452  -1.4226  -1.3967  -1.3182  -1.2917
    -1.2505  -1.2353  -1.1741  -1.1447  -1.1058  -1.0708  -1.0419  -0.9838
    -0.9558  -0.9142  -0.8795  -0.7755  -0.7447  -0.6576  -0.5975  -0.5650
    -0.5091  -0.4245  -0.3866  -0.2905  -0.2357  -0.1913  -0.1316  -0.1094
    -0.0399  -0.0183   0.0137   0.0647   0.1067   0.4223   0.5105   0.5469
     0.5770   0.8623   0.9116   0.9868   1.0120   1.1851   1.2226   1.2596
     1.2699   1.2887   1.3065   1.3776   1.4196   1.4680   1.4908   1.6344
     1.6645   1.6822   1.6931   1.7432   1.7627   1.7751   1.7892   1.8081
     1.8333   1.8770   1.8875   1.9233   1.9450   1.9825   2.0326   2.1550
     2.2591   2.2811   2.3509   2.3844   2.4475   2.4840   2.4892   2.5296
     2.5536   2.5808   2.5916   2.6348   2.6675   2.6728   2.7156   2.7264
     2.7329   2.7510   2.7738   2.7857   2.8045   2.8157   2.8359   2.8473
     2.8588   2.8653   2.8769   2.8868   3.4161   3.4809   3.6055   3.6308
     3.9044   3.9984   4.0447   4.2551   4.6234   4.7297   4.8856   4.9510
     5.2455   5.2781   5.5064   5.5714   5.6266   5.6486   6.3409   6.3523
     6.4590   6.7554   7.2175   7.6123   7.6808   7.7282   7.7469   7.7861
     7.8990   7.9316   8.1929   8.3430   8.4214   8.4385   8.5143   8.5738
     8.6743   8.7073

     occupation numbers 
     1.0000   1.0000   1.0000   1.0000   1.0000   1.0000   1.0000   1.0000
     1.0000   1.0000   1.0000   1.0000   1.0000   1.0000   1.0000   1.0000
     1.0000   1.0000   1.0000   1.0000   1.0000   1.0000   1.0000   1.0000
     1.0000   1.0000   1.0000   1.0000   1.0000   1.0000   1.0000   1.0000
     1.0000   1.0000   1.0000   1.0000   1.0000   1.0000   1.0000   1.0000
     1.0000   1.0000   1.0000   1.0000   1.0000   1.0000   1.0000   1.0000
     1.0000   1.0000   1.0000   1.0000   1.0000   1.0000   1.0000   1.0000
     1.0000   1.0000   1.0000   1.0000   1.0000   1.0000   1.0000   1.0000
     1.0000   1.0000   1.0000   1.0000   1.0000   1.0000   1.0000   1.0000
     1.0000   1.0000   1.0000   1.0000   1.0000   1.0000   1.0000   1.0000
     1.0000   1.0000   1.0000   1.0000   1.0000   1.0000   1.0000   1.0000
     1.0000   1.0000   1.0000   1.0000   1.0000   1.0000   1.0000   1.0000
     1.0000   1.0000   1.0000   1.0000   1.0000   1.0000   1.0000   1.0000
     1.0000   1.0000   1.0000   1.0000   1.0000   1.0000   1.0000   1.0000
     1.0000   1.0000   1.0000   1.0000   1.0000   1.0000   1.0000   1.0000
     1.0000   1.0000   1.0000   1.0000   1.0000   1.0000   1.0000   1.0000
     1.0000   1.0000   1.0000   1.0000   1.0000   1.0000   1.0000   1.0000
     1.0000   1.0000   1.0000   1.0000   1.0000   1.0000   1.0000   1.0000
     1.0000   1.0000   1.0000   1.0000   1.0000   1.0000   1.0000   1.0000
     1.0000   1.0000   1.0000   1.0000   1.0000   1.0000   1.0000   0.9999
     0.9999   0.9997   0.9996   0.9994   0.9993   0.9983   0.9980   0.9976
     0.9975   0.9972   0.9970   0.9959   0.9951   0.9939   0.9933   0.9881
     0.9867   0.9857   0.9852   0.9821   0.9808   0.9799   0.9789   0.9774
     0.9753   0.9714   0.9703   0.9665   0.9641   0.9595   0.9525   0.9317
     0.9088   0.9034   0.8844   0.8744   0.8540   0.8413   0.8394   0.8243
     0.8150   0.8040   0.7995   0.7811   0.7665   0.7640   0.7440   0.7388
     0.7357   0.7268   0.7155   0.7094   0.6998   0.6940   0.6834   0.6773
     0.6712   0.6677   0.6614   0.6560   0.3503   0.3154   0.2528   0.2410
     0.1336   0.1058   0.0938   0.0515   0.0147   0.0098   0.0051   0.0039
     0.0010   0.0008   0.0002   0.0002   0.0001   0.0001   0.0000   0.0000
     0.0000   0.0000   0.0000   0.0000   0.0000   0.0000   0.0000   0.0000
     0.0000   0.0000   0.0000   0.0000   0.0000   0.0000   0.0000   0.0000
     0.0000   0.0000

     the Fermi energy is     3.1572 ev

!    total energy              =   -4440.30119149 Ry
     estimated scf accuracy    <          5.7E-09 Ry
     smearing contrib. (-TS)   =      -1.20769250 Ry
     internal energy E=F+TS    =   -4439.09349899 Ry

     The total energy is F=E-TS. E is the sum of the following terms:
     one-electron contribution =  -20890.29014625 Ry
     hartree contribution      =   10574.32459034 Ry
     xc contribution           =    -693.24765557 Ry
     ewald contribution        =    6846.31099859 Ry
     one-center paw contrib.   =    -276.19128610 Ry
      -> PAW hartree energy AE =      25.07996945 Ry
      -> PAW hartree energy PS =     -24.96479965 Ry
      -> PAW xc energy AE      =     -16.50556621 Ry
      -> PAW xc energy PS      =       6.86450252 Ry
      -> total E_H with PAW    =   10574.43976014 Ry
      -> total E_XC with PAW   =    -702.88871926 Ry

     convergence has been achieved in  48 iterations

     Writing all to output data dir /bsuhome/zayahcortright/scratch/pwscf.save/
 
     init_run     :      7.54s CPU      8.41s WALL (       1 calls)
     electrons    :    699.96s CPU    733.06s WALL (       1 calls)

     Called by init_run:
     wfcinit      :      6.13s CPU      6.35s WALL (       1 calls)
     wfcinit:atom :      0.05s CPU      0.07s WALL (       5 calls)
     wfcinit:wfcr :      5.80s CPU      5.93s WALL (       5 calls)
     potinit      :      0.17s CPU      0.20s WALL (       1 calls)
     hinit0       :      0.36s CPU      0.70s WALL (       1 calls)

     Called by electrons:
     c_bands      :    557.57s CPU    564.64s WALL (      48 calls)
     sum_band     :    106.97s CPU    121.32s WALL (      48 calls)
     v_of_rho     :      5.24s CPU      5.63s WALL (      49 calls)
     v_h          :      0.46s CPU      0.46s WALL (      49 calls)
     v_xc         :      4.79s CPU      5.17s WALL (      49 calls)
     newd         :     16.04s CPU     27.02s WALL (      49 calls)
     PAW_pot      :      1.57s CPU      1.61s WALL (      49 calls)
     mix_rho      :     12.02s CPU     12.39s WALL (      48 calls)

     Called by c_bands:
     init_us_2    :      6.83s CPU      6.95s WALL (     485 calls)
     init_us_2:cp :      6.83s CPU      6.95s WALL (     485 calls)
     cegterg      :    524.63s CPU    531.34s WALL (     240 calls)

     Called by sum_band:
     sum_band:wei :      0.34s CPU      0.34s WALL (      48 calls)
     sum_band:loo :     89.41s CPU     90.15s WALL (      48 calls)
     sum_band:buf :      1.38s CPU      1.44s WALL (     240 calls)
     sum_band:ini :      3.19s CPU      3.21s WALL (     240 calls)
     sum_band:cal :     19.17s CPU     19.23s WALL (     240 calls)
     sum_band:bec :      0.53s CPU      0.54s WALL (     240 calls)
     addusdens    :     15.37s CPU     28.88s WALL (      48 calls)
                                        0.00s GPU  (      48 calls)
     addusd:skk   :      0.29s CPU      0.94s WALL (     144 calls)
                                        0.00s GPU  (     144 calls)

     Called by *egterg:
     cdiaghg      :     58.30s CPU     58.55s WALL (    1380 calls)
     cegterg:over :     38.47s CPU     38.65s WALL (    1140 calls)
     cegterg:upda :     27.74s CPU     28.31s WALL (    1140 calls)
     cegterg:last :     57.47s CPU     57.71s WALL (     435 calls)
     cdiaghg:chol :      3.28s CPU      3.31s WALL (    1380 calls)
     cdiaghg:inve :      2.98s CPU      3.00s WALL (    1380 calls)
     cdiaghg:para :      7.42s CPU      7.48s WALL (    2760 calls)
     h_psi        :    288.04s CPU    291.24s WALL (    1385 calls)
     s_psi        :     39.46s CPU     39.62s WALL (    1385 calls)
     g_psi        :      1.03s CPU      1.03s WALL (    1140 calls)

     Called by h_psi:
     h_psi:calbec :     44.25s CPU     44.47s WALL (    1385 calls)
     vloc_psi     :    201.68s CPU    203.70s WALL (    1385 calls)
     add_vuspsi   :     39.21s CPU     39.49s WALL (    1385 calls)

     General routines
     calbec       :     63.41s CPU     63.70s WALL (    1625 calls)
     fft          :      3.96s CPU      4.01s WALL (     635 calls)
     ffts         :      4.51s CPU      4.56s WALL (    5092 calls)
     fftw         :    171.24s CPU    172.73s WALL (  324110 calls)
     interpolate  :      0.41s CPU      0.42s WALL (      49 calls)
 
     Parallel routines

     PAW routines
     PAW_pot      :      1.57s CPU      1.61s WALL (      49 calls)
 
     PWSCF        :  11m49.13s CPU  12m26.32s WALL

 
   This run was terminated on:  20:37:29  21Jun2024            

=------------------------------------------------------------------------------=
   JOB DONE.
=------------------------------------------------------------------------------=
