
     Program PWSCF v.7.2 starts on 21Jun2024 at 14:16: 7 

     This program is part of the open-source Quantum ESPRESSO suite
     for quantum simulation of materials; please cite
         "P. Giannozzi et al., J. Phys.:Condens. Matter 21 395502 (2009);
         "P. Giannozzi et al., J. Phys.:Condens. Matter 29 465901 (2017);
         "P. Giannozzi et al., J. Chem. Phys. 152 154105 (2020);
          URL http://www.quantum-espresso.org", 
     in publications or presentations arising from this work. More details at
     http://www.quantum-espresso.org/quote

     Parallel version (MPI & OpenMP), running on      48 processor cores
     Number of MPI processes:                48
     Threads/MPI process:                     1

     MPI processes distributed on     1 nodes
     63139 MiB available memory on the printing compute node when the environment starts
 
     Reading input from espresso.pwi
Warning: card &CELL ignored
Warning: card / ignored
Warning: card &FCP ignored
Warning: card / ignored
Warning: card &RISM ignored
Warning: card / ignored

     Current dimensions of program PWSCF are:
     Max number of different atomic species (ntypx) = 10
     Max number of k-points (npk) =  40000
     Max angular momentum in pseudopotentials (lmaxx) =  4
     file O.pbe-n-kjpaw_psl.0.1.UPF: wavefunction(s)  2P renormalized
     signal trapping enabled: kill the code with -SIGUSR1 to stop cleanly the simulation 
 
     K-points division:     npool     =       2
     R & G space division:  proc/nbgrp/npool/nimage =      24
     Subspace diagonalization in iterative solution of the eigenvalue problem:
     one sub-group per band group will be used
     scalapack distributed-memory algorithm (size of sub-group:  3*  3 procs)

 
     Parallelization info
     --------------------
     sticks:   dense  smooth     PW     G-vecs:    dense   smooth      PW
     Min         350     175     47                61430    21716    3036
     Max         351     177     48                61449    21727    3041
     Sum        8421    4205   1137              1474595   521381   72913
 
     Using Slab Decomposition
 


     bravais-lattice index     =            0
     lattice parameter (alat)  =      14.8599  a.u.
     unit-cell volume          =    8305.1283 (a.u.)^3
     number of atoms/cell      =           49
     number of atomic types    =            3
     number of electrons       =       430.00
     number of Kohn-Sham states=          258
     kinetic-energy cutoff     =      60.0000  Ry
     charge density cutoff     =     480.0000  Ry
     scf convergence threshold =      1.0E-08
     mixing beta               =       0.1500
     number of iterations used =            8  local-TF  mixing
     Exchange-correlation= SLA  PW   PBE  PBE
                           (   1   4   3   4   0   0   0)

     celldm(1)=  14.859904  celldm(2)=   0.000000  celldm(3)=   0.000000
     celldm(4)=   0.000000  celldm(5)=   0.000000  celldm(6)=   0.000000

     crystal axes: (cart. coord. in units of alat)
               a(1) = (   1.000000   0.000000   0.000000 )  
               a(2) = (   0.000000   1.000000   0.000000 )  
               a(3) = (   0.000000   0.000000   2.531036 )  

     reciprocal axes: (cart. coord. in units 2 pi/alat)
               b(1) = (  1.000000  0.000000  0.000000 )  
               b(2) = (  0.000000  1.000000  0.000000 )  
               b(3) = (  0.000000  0.000000  0.395095 )  


     PseudoPot. # 1 for Sr read from file:
     /bsuhome/zayahcortright/q-e/pseudo/Sr_pbe_v1.uspp.F.UPF
     MD5 check sum: 6b418c05fbe9db5448babca5e47b7a5b
     Pseudo is Ultrasoft + core correction, Zval = 10.0
     Generated by new atomic code, or converted to UPF format
     Using radial grid of  883 points,  6 beta functions with: 
                l(1) =   0
                l(2) =   0
                l(3) =   1
                l(4) =   1
                l(5) =   2
                l(6) =   2
     Q(r) pseudized with  6 coefficients,  rinner =    1.400   1.400   1.400
                                                       1.400   1.400

     PseudoPot. # 2 for O  read from file:
     /bsuhome/zayahcortright/q-e/pseudo/O.pbe-n-kjpaw_psl.0.1.UPF
     MD5 check sum: 0234752ac141de4415c5fc33072bef88
     Pseudo is Projector augmented-wave + core cor, Zval =  6.0
     Generated using "atomic" code by A. Dal Corso  v.5.0.99 svn rev. 10869
     Shape of augmentation charge: BESSEL
     Using radial grid of 1095 points,  4 beta functions with: 
                l(1) =   0
                l(2) =   0
                l(3) =   1
                l(4) =   1
     Q(r) pseudized with 0 coefficients 


     PseudoPot. # 3 for Co read from file:
     /bsuhome/zayahcortright/q-e/pseudo/Co_pbe_v1.2.uspp.F.UPF
     MD5 check sum: 5f91765df6ddd3222702df6e7b74a16d
     Pseudo is Ultrasoft + core correction, Zval = 17.0
     Generated by new atomic code, or converted to UPF format
     Using radial grid of  863 points,  6 beta functions with: 
                l(1) =   0
                l(2) =   0
                l(3) =   1
                l(4) =   1
                l(5) =   2
                l(6) =   2
     Q(r) pseudized with  8 coefficients,  rinner =    1.200   1.200   1.200
                                                       1.200   1.200

     atomic species   valence    mass     pseudopotential
        Sr            10.00    87.62000     Sr( 1.00)
        O              6.00    15.99900     O ( 1.00)
        Co            17.00    58.93319     Co( 1.00)

     No symmetry found


                                    s                        frac. trans.

      isym =  1     identity                                     

 cryst.   s( 1) = (     1          0          0      )
                  (     0          1          0      )
                  (     0          0          1      )

 cart.    s( 1) = (  1.0000000  0.0000000  0.0000000 )
                  (  0.0000000  1.0000000  0.0000000 )
                  (  0.0000000  0.0000000  1.0000000 )


   Cartesian axes

     site n.     atom                  positions (alat units)
         1           Sr  tau(   1) = (   0.2508693   0.7491307   1.7574407  )
         2           O   tau(   2) = (   0.4985141   0.5014859   1.7715967  )
         3           Sr  tau(   3) = (   0.7482398   0.7454518   1.7648669  )
         4           Sr  tau(   4) = (   0.7441748   0.2558252   1.7667843  )
         5           Sr  tau(   5) = (   0.2508693   0.7491307   1.2696799  )
         6           Sr  tau(   6) = (   0.2508693   0.7491307   0.7632319  )
         7           Co  tau(   7) = (   0.4998914   0.5001086   1.0164559  )
         8           Co  tau(   8) = (   0.4936915   0.5063085   1.5135603  )
         9           O   tau(   9) = (   0.4988895   0.7610401   1.0164559  )
        10           O   tau(  10) = (   0.2389599   0.5011105   1.0164559  )
        11           O   tau(  11) = (   0.0070918   0.7374880   1.0164559  )
        12           O   tau(  12) = (   0.0088340   0.7405089   1.5135603  )
        13           O   tau(  13) = (   0.5066944   0.7415376   1.5135603  )
        14           O   tau(  14) = (   0.2584624   0.4933056   1.5135603  )
        15           O   tau(  15) = (   0.4985141   0.5014859   0.7773880  )
        16           O   tau(  16) = (   0.4985141   0.5014859   1.2555238  )
        17           Sr  tau(  17) = (   0.7482398   0.7454518   0.7706582  )
        18           Sr  tau(  18) = (   0.7482398   0.7454518   1.2622536  )
        19           Sr  tau(  19) = (   0.7441748   0.2558252   0.7725755  )
        20           Sr  tau(  20) = (   0.7441748   0.2558252   1.2603363  )
        21           O   tau(  21) = (   0.7322655   0.0078049   1.5135603  )
        22           O   tau(  22) = (   0.7558175   0.4996027   1.5135603  )
        23           O   tau(  23) = (   0.5003973   0.2441825   1.5135603  )
        24           O   tau(  24) = (   0.7527966   0.4978604   1.0164559  )
        25           O   tau(  25) = (   0.5021396   0.2472034   1.0164559  )
        26           O   tau(  26) = (   0.7517679   0.0000000   1.0164559  )
        27           O   tau(  27) = (   0.0114961   0.4948124   1.7455321  )
        28           O   tau(  28) = (   0.0048226   0.0077944   1.7715967  )
        29           Sr  tau(  29) = (   0.2545482   0.2517602   1.7648669  )
        30           O   tau(  30) = (   0.5048017   0.0015068   1.7786929  )
        31           Co  tau(  31) = (   0.0056869   0.5006215   1.0164559  )
        32           Co  tau(  32) = (   0.0065315   0.4997770   1.5135603  )
        33           Co  tau(  33) = (   0.0061999   0.0064171   1.0164559  )
        34           Co  tau(  34) = (   0.0000000   0.0126169   1.5135603  )
        35           O   tau(  35) = (   0.0114961   0.4948124   1.2815885  )
        36           O   tau(  36) = (   0.0114961   0.4948124   0.7513233  )
        37           O   tau(  37) = (   0.0051979   0.2673486   1.0164559  )
        38           O   tau(  38) = (   0.0130029   0.2478461   1.5135603  )
        39           O   tau(  39) = (   0.0048226   0.0077944   0.7773880  )
        40           O   tau(  40) = (   0.0048226   0.0077944   1.2555238  )
        41           Sr  tau(  41) = (   0.2545482   0.2517602   0.7706582  )
        42           Sr  tau(  42) = (   0.2545482   0.2517602   1.2622536  )
        43           Co  tau(  43) = (   0.4989925   0.0073160   1.5135603  )
        44           Co  tau(  44) = (   0.4998370   0.0064714   1.0164559  )
        45           O   tau(  45) = (   0.5048017   0.0015068   0.7844841  )
        46           O   tau(  46) = (   0.5048017   0.0015068   1.2484277  )
        47           O   tau(  47) = (   0.2621260   0.0059111   1.5135603  )
        48           O   tau(  48) = (   0.2591051   0.0041689   1.0164559  )
        49           O   tau(  49) = (   0.0000000   0.0000000   2.1602013  )

   Crystallographic axes

     site n.     atom                  positions (cryst. coord.)
         1           Sr  tau(   1) = (  0.2508693  0.7491307  0.6943562  )
         2           O   tau(   2) = (  0.4985141  0.5014859  0.6999492  )
         3           Sr  tau(   3) = (  0.7482398  0.7454518  0.6972903  )
         4           Sr  tau(   4) = (  0.7441748  0.2558252  0.6980478  )
         5           Sr  tau(   5) = (  0.2508693  0.7491307  0.5016443  )
         6           Sr  tau(   6) = (  0.2508693  0.7491307  0.3015492  )
         7           Co  tau(   7) = (  0.4998914  0.5001086  0.4015968  )
         8           Co  tau(   8) = (  0.4936915  0.5063085  0.5980003  )
         9           O   tau(   9) = (  0.4988895  0.7610401  0.4015968  )
        10           O   tau(  10) = (  0.2389599  0.5011105  0.4015968  )
        11           O   tau(  11) = (  0.0070918  0.7374880  0.4015968  )
        12           O   tau(  12) = (  0.0088340  0.7405089  0.5980003  )
        13           O   tau(  13) = (  0.5066944  0.7415376  0.5980003  )
        14           O   tau(  14) = (  0.2584624  0.4933056  0.5980003  )
        15           O   tau(  15) = (  0.4985141  0.5014859  0.3071422  )
        16           O   tau(  16) = (  0.4985141  0.5014859  0.4960513  )
        17           Sr  tau(  17) = (  0.7482398  0.7454518  0.3044833  )
        18           Sr  tau(  18) = (  0.7482398  0.7454518  0.4987103  )
        19           Sr  tau(  19) = (  0.7441748  0.2558252  0.3052408  )
        20           Sr  tau(  20) = (  0.7441748  0.2558252  0.4979527  )
        21           O   tau(  21) = (  0.7322655  0.0078049  0.5980003  )
        22           O   tau(  22) = (  0.7558175  0.4996027  0.5980003  )
        23           O   tau(  23) = (  0.5003973  0.2441825  0.5980003  )
        24           O   tau(  24) = (  0.7527966  0.4978604  0.4015968  )
        25           O   tau(  25) = (  0.5021396  0.2472034  0.4015968  )
        26           O   tau(  26) = (  0.7517679  0.0000000  0.4015968  )
        27           O   tau(  27) = (  0.0114961  0.4948124  0.6896512  )
        28           O   tau(  28) = (  0.0048226  0.0077944  0.6999492  )
        29           Sr  tau(  29) = (  0.2545482  0.2517602  0.6972903  )
        30           O   tau(  30) = (  0.5048017  0.0015068  0.7027529  )
        31           Co  tau(  31) = (  0.0056869  0.5006215  0.4015968  )
        32           Co  tau(  32) = (  0.0065315  0.4997770  0.5980003  )
        33           Co  tau(  33) = (  0.0061999  0.0064171  0.4015968  )
        34           Co  tau(  34) = (  0.0000000  0.0126169  0.5980003  )
        35           O   tau(  35) = (  0.0114961  0.4948124  0.5063494  )
        36           O   tau(  36) = (  0.0114961  0.4948124  0.2968442  )
        37           O   tau(  37) = (  0.0051979  0.2673486  0.4015968  )
        38           O   tau(  38) = (  0.0130029  0.2478461  0.5980003  )
        39           O   tau(  39) = (  0.0048226  0.0077944  0.3071422  )
        40           O   tau(  40) = (  0.0048226  0.0077944  0.4960513  )
        41           Sr  tau(  41) = (  0.2545482  0.2517602  0.3044833  )
        42           Sr  tau(  42) = (  0.2545482  0.2517602  0.4987103  )
        43           Co  tau(  43) = (  0.4989925  0.0073160  0.5980003  )
        44           Co  tau(  44) = (  0.4998370  0.0064714  0.4015968  )
        45           O   tau(  45) = (  0.5048017  0.0015068  0.3099459  )
        46           O   tau(  46) = (  0.5048017  0.0015068  0.4932477  )
        47           O   tau(  47) = (  0.2621260  0.0059111  0.5980003  )
        48           O   tau(  48) = (  0.2591051  0.0041689  0.4015968  )
        49           O   tau(  49) = (  0.0000000  0.0000000  0.8534850  )

     number of k points=    10  Gaussian smearing, width (Ry)=  0.0700
                       cart. coord. in units 2pi/alat
        k(    1) = (   0.0000000   0.0000000   0.0000000), wk =   0.1250000
        k(    2) = (   0.0000000   0.2500000   0.0000000), wk =   0.2500000
        k(    3) = (   0.0000000  -0.5000000   0.0000000), wk =   0.1250000
        k(    4) = (   0.2500000   0.2500000   0.0000000), wk =   0.2500000
        k(    5) = (   0.2500000  -0.5000000   0.0000000), wk =   0.2500000
        k(    6) = (  -0.5000000  -0.5000000   0.0000000), wk =   0.1250000
        k(    7) = (   0.2500000   0.0000000   0.0000000), wk =   0.2500000
        k(    8) = (  -0.5000000   0.0000000   0.0000000), wk =   0.1250000
        k(    9) = (  -0.2500000   0.2500000   0.0000000), wk =   0.2500000
        k(   10) = (  -0.5000000   0.2500000   0.0000000), wk =   0.2500000

                       cryst. coord.
        k(    1) = (   0.0000000   0.0000000   0.0000000), wk =   0.1250000
        k(    2) = (   0.0000000   0.2500000   0.0000000), wk =   0.2500000
        k(    3) = (   0.0000000  -0.5000000   0.0000000), wk =   0.1250000
        k(    4) = (   0.2500000   0.2500000   0.0000000), wk =   0.2500000
        k(    5) = (   0.2500000  -0.5000000   0.0000000), wk =   0.2500000
        k(    6) = (  -0.5000000  -0.5000000   0.0000000), wk =   0.1250000
        k(    7) = (   0.2500000   0.0000000   0.0000000), wk =   0.2500000
        k(    8) = (  -0.5000000   0.0000000   0.0000000), wk =   0.1250000
        k(    9) = (  -0.2500000   0.2500000   0.0000000), wk =   0.2500000
        k(   10) = (  -0.5000000   0.2500000   0.0000000), wk =   0.2500000

     Dense  grid:  1474595 G-vectors     FFT dimensions: ( 108, 108, 270)

     Smooth grid:   521381 G-vectors     FFT dimensions: (  75,  75, 192)

     Dynamical RAM for                 wfc:      10.69 MB

     Dynamical RAM for     wfc (w. buffer):      64.13 MB

     Dynamical RAM for           str. fact:       2.81 MB

     Dynamical RAM for           local pot:       0.00 MB

     Dynamical RAM for          nlocal pot:      24.53 MB

     Dynamical RAM for                qrad:       5.27 MB

     Dynamical RAM for          rho,v,vnew:       6.02 MB

     Dynamical RAM for               rhoin:       2.01 MB

     Dynamical RAM for            rho*nmix:      15.00 MB

     Dynamical RAM for           G-vectors:       3.68 MB

     Dynamical RAM for          h,s,v(r/c):       1.35 MB

     Dynamical RAM for          <psi|beta>:       2.33 MB

     Dynamical RAM for                 psi:      21.38 MB

     Dynamical RAM for                hpsi:      21.38 MB

     Dynamical RAM for                spsi:      21.38 MB

     Dynamical RAM for      wfcinit/wfcrot:      34.39 MB

     Dynamical RAM for           addusdens:     101.26 MB

     Estimated static dynamical RAM per process >     117.53 MB

     Estimated max dynamical RAM per process >     233.79 MB

     Estimated total dynamical RAM >      10.61 GB

     Check: negative core charge=   -0.000004

     Initial potential from superposition of free atoms

     starting charge     421.5961, renormalised to     430.0000

     negative rho (up, down):  7.826E-01 0.000E+00
     Starting wfcs are  376 randomized atomic wfcs
     Checking if some PAW data can be deallocated... 
       PAW data deallocated on   19 nodes for type:  2

     total cpu time spent up to now is        9.3 secs

     Self-consistent Calculation

     iteration #  1     ecut=    60.00 Ry     beta= 0.15
     Davidson diagonalization with overlap

---- Real-time Memory Report at c_bands before calling an iterative solver
             0 MiB given to the printing process from OS
             0 MiB allocation reported by mallinfo(arena+hblkhd)
         54096 MiB available memory on the node where the printing process lives
------------------
     ethr =  1.00E-02,  avg # of iterations =  2.0

     negative rho (up, down):  7.715E-01 0.000E+00

     total cpu time spent up to now is       24.5 secs

     total energy              =   -4445.21121785 Ry
     estimated scf accuracy    <      53.98248551 Ry

     iteration #  2     ecut=    60.00 Ry     beta= 0.15
     Davidson diagonalization with overlap

---- Real-time Memory Report at c_bands before calling an iterative solver
             0 MiB given to the printing process from OS
             0 MiB allocation reported by mallinfo(arena+hblkhd)
         54446 MiB available memory on the node where the printing process lives
------------------
     ethr =  1.00E-02,  avg # of iterations =  1.0

     negative rho (up, down):  7.586E-01 0.000E+00

     total cpu time spent up to now is       37.2 secs

     total energy              =   -4441.81136207 Ry
     estimated scf accuracy    <      28.44258412 Ry

     iteration #  3     ecut=    60.00 Ry     beta= 0.15
     Davidson diagonalization with overlap

---- Real-time Memory Report at c_bands before calling an iterative solver
             0 MiB given to the printing process from OS
             0 MiB allocation reported by mallinfo(arena+hblkhd)
         53663 MiB available memory on the node where the printing process lives
------------------
     ethr =  6.61E-03,  avg # of iterations =  1.0

     negative rho (up, down):  7.532E-01 0.000E+00

     total cpu time spent up to now is       49.8 secs

     total energy              =   -4442.64728760 Ry
     estimated scf accuracy    <      28.90012939 Ry

     iteration #  4     ecut=    60.00 Ry     beta= 0.15
     Davidson diagonalization with overlap

---- Real-time Memory Report at c_bands before calling an iterative solver
             0 MiB given to the printing process from OS
             0 MiB allocation reported by mallinfo(arena+hblkhd)
         53645 MiB available memory on the node where the printing process lives
------------------
     ethr =  6.61E-03,  avg # of iterations =  1.0

     negative rho (up, down):  7.539E-01 0.000E+00

     total cpu time spent up to now is       62.5 secs

     total energy              =   -4442.40502892 Ry
     estimated scf accuracy    <      26.29972071 Ry

     iteration #  5     ecut=    60.00 Ry     beta= 0.15
     Davidson diagonalization with overlap

---- Real-time Memory Report at c_bands before calling an iterative solver
             0 MiB given to the printing process from OS
             0 MiB allocation reported by mallinfo(arena+hblkhd)
         53632 MiB available memory on the node where the printing process lives
------------------
     ethr =  6.12E-03,  avg # of iterations =  1.0

     negative rho (up, down):  7.362E-01 0.000E+00

     total cpu time spent up to now is       75.1 secs

     total energy              =   -4440.99435283 Ry
     estimated scf accuracy    <      18.51491691 Ry

     iteration #  6     ecut=    60.00 Ry     beta= 0.15
     Davidson diagonalization with overlap

---- Real-time Memory Report at c_bands before calling an iterative solver
             0 MiB given to the printing process from OS
             0 MiB allocation reported by mallinfo(arena+hblkhd)
         53610 MiB available memory on the node where the printing process lives
------------------
     ethr =  4.31E-03,  avg # of iterations =  2.0

     negative rho (up, down):  7.400E-01 0.000E+00

     total cpu time spent up to now is       89.2 secs

     total energy              =   -4443.84552350 Ry
     estimated scf accuracy    <      64.97346747 Ry

     iteration #  7     ecut=    60.00 Ry     beta= 0.15
     Davidson diagonalization with overlap

---- Real-time Memory Report at c_bands before calling an iterative solver
             0 MiB given to the printing process from OS
             0 MiB allocation reported by mallinfo(arena+hblkhd)
         53593 MiB available memory on the node where the printing process lives
------------------
     ethr =  4.31E-03,  avg # of iterations =  1.0

     negative rho (up, down):  7.429E-01 0.000E+00

     total cpu time spent up to now is      101.6 secs

     total energy              =   -4442.23828119 Ry
     estimated scf accuracy    <      60.01266446 Ry

     iteration #  8     ecut=    60.00 Ry     beta= 0.15
     Davidson diagonalization with overlap

---- Real-time Memory Report at c_bands before calling an iterative solver
             0 MiB given to the printing process from OS
             0 MiB allocation reported by mallinfo(arena+hblkhd)
         53578 MiB available memory on the node where the printing process lives
------------------
     ethr =  4.31E-03,  avg # of iterations =  1.0

     negative rho (up, down):  7.497E-01 0.000E+00

     total cpu time spent up to now is      114.3 secs

     total energy              =   -4440.94975743 Ry
     estimated scf accuracy    <      24.58860718 Ry

     iteration #  9     ecut=    60.00 Ry     beta= 0.15
     Davidson diagonalization with overlap

---- Real-time Memory Report at c_bands before calling an iterative solver
             0 MiB given to the printing process from OS
             0 MiB allocation reported by mallinfo(arena+hblkhd)
         53547 MiB available memory on the node where the printing process lives
------------------
     ethr =  4.31E-03,  avg # of iterations =  1.0

     negative rho (up, down):  7.509E-01 0.000E+00

     total cpu time spent up to now is      126.7 secs

     total energy              =   -4440.84945784 Ry
     estimated scf accuracy    <       5.34811250 Ry

     iteration # 10     ecut=    60.00 Ry     beta= 0.15
     Davidson diagonalization with overlap

---- Real-time Memory Report at c_bands before calling an iterative solver
             0 MiB given to the printing process from OS
             0 MiB allocation reported by mallinfo(arena+hblkhd)
         53533 MiB available memory on the node where the printing process lives
------------------
     ethr =  1.24E-03,  avg # of iterations =  4.5

     negative rho (up, down):  7.642E-01 0.000E+00

     total cpu time spent up to now is      141.7 secs

     total energy              =   -4440.26507480 Ry
     estimated scf accuracy    <       6.79235030 Ry

     iteration # 11     ecut=    60.00 Ry     beta= 0.15
     Davidson diagonalization with overlap

---- Real-time Memory Report at c_bands before calling an iterative solver
             0 MiB given to the printing process from OS
             0 MiB allocation reported by mallinfo(arena+hblkhd)
         53484 MiB available memory on the node where the printing process lives
------------------
     ethr =  1.24E-03,  avg # of iterations =  2.5

     negative rho (up, down):  7.805E-01 0.000E+00

     total cpu time spent up to now is      155.8 secs

     total energy              =   -4440.27959482 Ry
     estimated scf accuracy    <      25.01785990 Ry

     iteration # 12     ecut=    60.00 Ry     beta= 0.15
     Davidson diagonalization with overlap

---- Real-time Memory Report at c_bands before calling an iterative solver
             0 MiB given to the printing process from OS
             0 MiB allocation reported by mallinfo(arena+hblkhd)
         53478 MiB available memory on the node where the printing process lives
------------------
     ethr =  1.24E-03,  avg # of iterations =  7.1

     negative rho (up, down):  7.827E-01 0.000E+00

     total cpu time spent up to now is      171.7 secs

     total energy              =   -4440.34130988 Ry
     estimated scf accuracy    <       6.59774033 Ry

     iteration # 13     ecut=    60.00 Ry     beta= 0.15
     Davidson diagonalization with overlap

---- Real-time Memory Report at c_bands before calling an iterative solver
             0 MiB given to the printing process from OS
             0 MiB allocation reported by mallinfo(arena+hblkhd)
         53362 MiB available memory on the node where the printing process lives
------------------
     ethr =  1.24E-03,  avg # of iterations =  2.0

     negative rho (up, down):  7.861E-01 0.000E+00

     total cpu time spent up to now is      185.7 secs

     total energy              =   -4440.49913931 Ry
     estimated scf accuracy    <       2.14473994 Ry

     iteration # 14     ecut=    60.00 Ry     beta= 0.15
     Davidson diagonalization with overlap

---- Real-time Memory Report at c_bands before calling an iterative solver
             0 MiB given to the printing process from OS
             0 MiB allocation reported by mallinfo(arena+hblkhd)
         53368 MiB available memory on the node where the printing process lives
------------------
     ethr =  4.99E-04,  avg # of iterations = 10.9

     negative rho (up, down):  7.996E-01 0.000E+00

     total cpu time spent up to now is      203.8 secs

     total energy              =   -4440.37324001 Ry
     estimated scf accuracy    <       0.75252439 Ry

     iteration # 15     ecut=    60.00 Ry     beta= 0.15
     Davidson diagonalization with overlap

---- Real-time Memory Report at c_bands before calling an iterative solver
             0 MiB given to the printing process from OS
             0 MiB allocation reported by mallinfo(arena+hblkhd)
         53201 MiB available memory on the node where the printing process lives
------------------
     ethr =  1.75E-04,  avg # of iterations =  7.9

     negative rho (up, down):  8.180E-01 0.000E+00

     total cpu time spent up to now is      220.6 secs

     total energy              =   -4440.27715841 Ry
     estimated scf accuracy    <       9.18603389 Ry

     iteration # 16     ecut=    60.00 Ry     beta= 0.15
     Davidson diagonalization with overlap

---- Real-time Memory Report at c_bands before calling an iterative solver
             0 MiB given to the printing process from OS
             0 MiB allocation reported by mallinfo(arena+hblkhd)
         53114 MiB available memory on the node where the printing process lives
------------------
     ethr =  1.75E-04,  avg # of iterations =  8.6

     negative rho (up, down):  8.197E-01 0.000E+00

     total cpu time spent up to now is      238.1 secs

     total energy              =   -4440.37061169 Ry
     estimated scf accuracy    <       0.40820967 Ry

     iteration # 17     ecut=    60.00 Ry     beta= 0.15
     Davidson diagonalization with overlap

---- Real-time Memory Report at c_bands before calling an iterative solver
             0 MiB given to the printing process from OS
             0 MiB allocation reported by mallinfo(arena+hblkhd)
         53111 MiB available memory on the node where the printing process lives
------------------
     ethr =  9.49E-05,  avg # of iterations =  4.7

     negative rho (up, down):  8.236E-01 0.000E+00

     total cpu time spent up to now is      253.4 secs

     total energy              =   -4440.37413132 Ry
     estimated scf accuracy    <       2.78749778 Ry

     iteration # 18     ecut=    60.00 Ry     beta= 0.15
     Davidson diagonalization with overlap

---- Real-time Memory Report at c_bands before calling an iterative solver
             0 MiB given to the printing process from OS
             0 MiB allocation reported by mallinfo(arena+hblkhd)
         53136 MiB available memory on the node where the printing process lives
------------------
     ethr =  9.49E-05,  avg # of iterations =  4.1

     negative rho (up, down):  8.224E-01 0.000E+00

     total cpu time spent up to now is      268.3 secs

     total energy              =   -4440.33645645 Ry
     estimated scf accuracy    <       1.52107866 Ry

     iteration # 19     ecut=    60.00 Ry     beta= 0.15
     Davidson diagonalization with overlap

---- Real-time Memory Report at c_bands before calling an iterative solver
             0 MiB given to the printing process from OS
             0 MiB allocation reported by mallinfo(arena+hblkhd)
         53180 MiB available memory on the node where the printing process lives
------------------
     ethr =  9.49E-05,  avg # of iterations =  4.9

     negative rho (up, down):  8.174E-01 0.000E+00

     total cpu time spent up to now is      283.8 secs

     total energy              =   -4440.33773119 Ry
     estimated scf accuracy    <       0.29371643 Ry

     iteration # 20     ecut=    60.00 Ry     beta= 0.15
     Davidson diagonalization with overlap

---- Real-time Memory Report at c_bands before calling an iterative solver
             0 MiB given to the printing process from OS
             0 MiB allocation reported by mallinfo(arena+hblkhd)
         53160 MiB available memory on the node where the printing process lives
------------------
     ethr =  6.83E-05,  avg # of iterations =  8.3

     negative rho (up, down):  7.986E-01 0.000E+00

     total cpu time spent up to now is      300.6 secs

     total energy              =   -4440.30378138 Ry
     estimated scf accuracy    <       0.17309594 Ry

     iteration # 21     ecut=    60.00 Ry     beta= 0.15
     Davidson diagonalization with overlap

---- Real-time Memory Report at c_bands before calling an iterative solver
             0 MiB given to the printing process from OS
             0 MiB allocation reported by mallinfo(arena+hblkhd)
         53188 MiB available memory on the node where the printing process lives
------------------
     ethr =  4.03E-05,  avg # of iterations = 10.4

     negative rho (up, down):  8.305E-01 0.000E+00

     total cpu time spent up to now is      319.4 secs

     total energy              =   -4440.29744350 Ry
     estimated scf accuracy    <       0.11826155 Ry

     iteration # 22     ecut=    60.00 Ry     beta= 0.15
     Davidson diagonalization with overlap

---- Real-time Memory Report at c_bands before calling an iterative solver
             0 MiB given to the printing process from OS
             0 MiB allocation reported by mallinfo(arena+hblkhd)
         53091 MiB available memory on the node where the printing process lives
------------------
     ethr =  2.75E-05,  avg # of iterations =  8.1

     negative rho (up, down):  8.307E-01 0.000E+00

     total cpu time spent up to now is      336.3 secs

     total energy              =   -4440.29681092 Ry
     estimated scf accuracy    <       0.07726082 Ry

     iteration # 23     ecut=    60.00 Ry     beta= 0.15
     Davidson diagonalization with overlap

---- Real-time Memory Report at c_bands before calling an iterative solver
             0 MiB given to the printing process from OS
             0 MiB allocation reported by mallinfo(arena+hblkhd)
         53039 MiB available memory on the node where the printing process lives
------------------
     ethr =  1.80E-05,  avg # of iterations =  1.8

     negative rho (up, down):  8.360E-01 0.000E+00

     total cpu time spent up to now is      350.0 secs

     total energy              =   -4440.29454309 Ry
     estimated scf accuracy    <       0.02326531 Ry

     iteration # 24     ecut=    60.00 Ry     beta= 0.15
     Davidson diagonalization with overlap

---- Real-time Memory Report at c_bands before calling an iterative solver
             0 MiB given to the printing process from OS
             0 MiB allocation reported by mallinfo(arena+hblkhd)
         53057 MiB available memory on the node where the printing process lives
------------------
     ethr =  5.41E-06,  avg # of iterations = 11.0

     negative rho (up, down):  8.000E-01 0.000E+00

     total cpu time spent up to now is      368.5 secs

     total energy              =   -4440.29066209 Ry
     estimated scf accuracy    <       0.01866147 Ry

     iteration # 25     ecut=    60.00 Ry     beta= 0.15
     Davidson diagonalization with overlap

---- Real-time Memory Report at c_bands before calling an iterative solver
             0 MiB given to the printing process from OS
             0 MiB allocation reported by mallinfo(arena+hblkhd)
         53027 MiB available memory on the node where the printing process lives
------------------
     ethr =  4.34E-06,  avg # of iterations =  3.6

     negative rho (up, down):  7.954E-01 0.000E+00

     total cpu time spent up to now is      383.5 secs

     total energy              =   -4440.28984555 Ry
     estimated scf accuracy    <       0.01370261 Ry

     iteration # 26     ecut=    60.00 Ry     beta= 0.15
     Davidson diagonalization with overlap

---- Real-time Memory Report at c_bands before calling an iterative solver
             0 MiB given to the printing process from OS
             0 MiB allocation reported by mallinfo(arena+hblkhd)
         53019 MiB available memory on the node where the printing process lives
------------------
     ethr =  3.19E-06,  avg # of iterations =  4.9

     negative rho (up, down):  7.958E-01 0.000E+00

     total cpu time spent up to now is      399.0 secs

     total energy              =   -4440.28979770 Ry
     estimated scf accuracy    <       0.00543630 Ry

     iteration # 27     ecut=    60.00 Ry     beta= 0.15
     Davidson diagonalization with overlap

---- Real-time Memory Report at c_bands before calling an iterative solver
             0 MiB given to the printing process from OS
             0 MiB allocation reported by mallinfo(arena+hblkhd)
         53018 MiB available memory on the node where the printing process lives
------------------
     c_bands:  1 eigenvalues not converged
     ethr =  1.26E-06,  avg # of iterations =  6.9

     negative rho (up, down):  7.957E-01 0.000E+00

     total cpu time spent up to now is      415.8 secs

     total energy              =   -4440.28962259 Ry
     estimated scf accuracy    <       0.00350129 Ry

     iteration # 28     ecut=    60.00 Ry     beta= 0.15
     Davidson diagonalization with overlap

---- Real-time Memory Report at c_bands before calling an iterative solver
             0 MiB given to the printing process from OS
             0 MiB allocation reported by mallinfo(arena+hblkhd)
         53008 MiB available memory on the node where the printing process lives
------------------
     ethr =  8.14E-07,  avg # of iterations =  4.9

     negative rho (up, down):  7.962E-01 0.000E+00

     total cpu time spent up to now is      431.3 secs

     total energy              =   -4440.28949533 Ry
     estimated scf accuracy    <       0.00266021 Ry

     iteration # 29     ecut=    60.00 Ry     beta= 0.15
     Davidson diagonalization with overlap

---- Real-time Memory Report at c_bands before calling an iterative solver
             0 MiB given to the printing process from OS
             0 MiB allocation reported by mallinfo(arena+hblkhd)
         53002 MiB available memory on the node where the printing process lives
------------------
     ethr =  6.19E-07,  avg # of iterations =  7.7

     negative rho (up, down):  7.974E-01 0.000E+00

     total cpu time spent up to now is      448.0 secs

     total energy              =   -4440.28950922 Ry
     estimated scf accuracy    <       0.00135931 Ry

     iteration # 30     ecut=    60.00 Ry     beta= 0.15
     Davidson diagonalization with overlap

---- Real-time Memory Report at c_bands before calling an iterative solver
             0 MiB given to the printing process from OS
             0 MiB allocation reported by mallinfo(arena+hblkhd)
         53000 MiB available memory on the node where the printing process lives
------------------
     ethr =  3.16E-07,  avg # of iterations =  8.5

     negative rho (up, down):  7.974E-01 0.000E+00

     total cpu time spent up to now is      465.2 secs

     total energy              =   -4440.28962231 Ry
     estimated scf accuracy    <       0.00038995 Ry

     iteration # 31     ecut=    60.00 Ry     beta= 0.15
     Davidson diagonalization with overlap

---- Real-time Memory Report at c_bands before calling an iterative solver
             0 MiB given to the printing process from OS
             0 MiB allocation reported by mallinfo(arena+hblkhd)
         52992 MiB available memory on the node where the printing process lives
------------------
     ethr =  9.07E-08,  avg # of iterations =  2.1

     negative rho (up, down):  7.972E-01 0.000E+00

     total cpu time spent up to now is      479.6 secs

     total energy              =   -4440.28964722 Ry
     estimated scf accuracy    <       0.00014316 Ry

     iteration # 32     ecut=    60.00 Ry     beta= 0.15
     Davidson diagonalization with overlap

---- Real-time Memory Report at c_bands before calling an iterative solver
             0 MiB given to the printing process from OS
             0 MiB allocation reported by mallinfo(arena+hblkhd)
         53009 MiB available memory on the node where the printing process lives
------------------
     ethr =  3.33E-08,  avg # of iterations =  2.0

     negative rho (up, down):  7.958E-01 0.000E+00

     total cpu time spent up to now is      493.7 secs

     total energy              =   -4440.28962464 Ry
     estimated scf accuracy    <       0.00006935 Ry

     iteration # 33     ecut=    60.00 Ry     beta= 0.15
     Davidson diagonalization with overlap

---- Real-time Memory Report at c_bands before calling an iterative solver
             0 MiB given to the printing process from OS
             0 MiB allocation reported by mallinfo(arena+hblkhd)
         53014 MiB available memory on the node where the printing process lives
------------------
     ethr =  1.61E-08,  avg # of iterations =  1.8

     negative rho (up, down):  7.947E-01 0.000E+00

     total cpu time spent up to now is      507.8 secs

     total energy              =   -4440.28960274 Ry
     estimated scf accuracy    <       0.00004786 Ry

     iteration # 34     ecut=    60.00 Ry     beta= 0.15
     Davidson diagonalization with overlap

---- Real-time Memory Report at c_bands before calling an iterative solver
             0 MiB given to the printing process from OS
             0 MiB allocation reported by mallinfo(arena+hblkhd)
         53008 MiB available memory on the node where the printing process lives
------------------
     ethr =  1.11E-08,  avg # of iterations =  3.4

     negative rho (up, down):  7.937E-01 0.000E+00

     total cpu time spent up to now is      522.5 secs

     total energy              =   -4440.28959051 Ry
     estimated scf accuracy    <       0.00003190 Ry

     iteration # 35     ecut=    60.00 Ry     beta= 0.15
     Davidson diagonalization with overlap

---- Real-time Memory Report at c_bands before calling an iterative solver
             0 MiB given to the printing process from OS
             0 MiB allocation reported by mallinfo(arena+hblkhd)
         53037 MiB available memory on the node where the printing process lives
------------------
     ethr =  7.42E-09,  avg # of iterations =  4.1

     negative rho (up, down):  7.931E-01 0.000E+00

     total cpu time spent up to now is      538.4 secs

     total energy              =   -4440.28959258 Ry
     estimated scf accuracy    <       0.00001507 Ry

     iteration # 36     ecut=    60.00 Ry     beta= 0.15
     Davidson diagonalization with overlap

---- Real-time Memory Report at c_bands before calling an iterative solver
             0 MiB given to the printing process from OS
             0 MiB allocation reported by mallinfo(arena+hblkhd)
         53040 MiB available memory on the node where the printing process lives
------------------
     ethr =  3.50E-09,  avg # of iterations =  2.0

     negative rho (up, down):  7.928E-01 0.000E+00

     total cpu time spent up to now is      552.3 secs

     total energy              =   -4440.28959280 Ry
     estimated scf accuracy    <       0.00001012 Ry

     iteration # 37     ecut=    60.00 Ry     beta= 0.15
     Davidson diagonalization with overlap

---- Real-time Memory Report at c_bands before calling an iterative solver
             0 MiB given to the printing process from OS
             0 MiB allocation reported by mallinfo(arena+hblkhd)
         53077 MiB available memory on the node where the printing process lives
------------------
     ethr =  2.35E-09,  avg # of iterations =  2.6

     negative rho (up, down):  7.925E-01 0.000E+00

     total cpu time spent up to now is      566.6 secs

     total energy              =   -4440.28959390 Ry
     estimated scf accuracy    <       0.00000668 Ry

     iteration # 38     ecut=    60.00 Ry     beta= 0.15
     Davidson diagonalization with overlap

---- Real-time Memory Report at c_bands before calling an iterative solver
             0 MiB given to the printing process from OS
             0 MiB allocation reported by mallinfo(arena+hblkhd)
         53112 MiB available memory on the node where the printing process lives
------------------
     ethr =  1.55E-09,  avg # of iterations =  2.3

     negative rho (up, down):  7.924E-01 0.000E+00

     total cpu time spent up to now is      580.7 secs

     total energy              =   -4440.28959363 Ry
     estimated scf accuracy    <       0.00000452 Ry

     iteration # 39     ecut=    60.00 Ry     beta= 0.15
     Davidson diagonalization with overlap

---- Real-time Memory Report at c_bands before calling an iterative solver
             0 MiB given to the printing process from OS
             0 MiB allocation reported by mallinfo(arena+hblkhd)
         53107 MiB available memory on the node where the printing process lives
------------------
     ethr =  1.05E-09,  avg # of iterations =  2.3

     negative rho (up, down):  7.923E-01 0.000E+00

     total cpu time spent up to now is      595.0 secs

     total energy              =   -4440.28959320 Ry
     estimated scf accuracy    <       0.00000300 Ry

     iteration # 40     ecut=    60.00 Ry     beta= 0.15
     Davidson diagonalization with overlap

---- Real-time Memory Report at c_bands before calling an iterative solver
             0 MiB given to the printing process from OS
             0 MiB allocation reported by mallinfo(arena+hblkhd)
         53100 MiB available memory on the node where the printing process lives
------------------
     ethr =  6.97E-10,  avg # of iterations =  2.0

     negative rho (up, down):  7.923E-01 0.000E+00

     total cpu time spent up to now is      609.0 secs

     total energy              =   -4440.28959301 Ry
     estimated scf accuracy    <       0.00000212 Ry

     iteration # 41     ecut=    60.00 Ry     beta= 0.15
     Davidson diagonalization with overlap

---- Real-time Memory Report at c_bands before calling an iterative solver
             0 MiB given to the printing process from OS
             0 MiB allocation reported by mallinfo(arena+hblkhd)
         53108 MiB available memory on the node where the printing process lives
------------------
     ethr =  4.93E-10,  avg # of iterations =  1.9

     negative rho (up, down):  7.923E-01 0.000E+00

     total cpu time spent up to now is      623.0 secs

     total energy              =   -4440.28959295 Ry
     estimated scf accuracy    <       0.00000155 Ry

     iteration # 42     ecut=    60.00 Ry     beta= 0.15
     Davidson diagonalization with overlap

---- Real-time Memory Report at c_bands before calling an iterative solver
             0 MiB given to the printing process from OS
             0 MiB allocation reported by mallinfo(arena+hblkhd)
         53112 MiB available memory on the node where the printing process lives
------------------
     ethr =  3.60E-10,  avg # of iterations =  2.0

     negative rho (up, down):  7.924E-01 0.000E+00

     total cpu time spent up to now is      637.1 secs

     total energy              =   -4440.28959351 Ry
     estimated scf accuracy    <       0.00000086 Ry

     iteration # 43     ecut=    60.00 Ry     beta= 0.15
     Davidson diagonalization with overlap

---- Real-time Memory Report at c_bands before calling an iterative solver
             0 MiB given to the printing process from OS
             0 MiB allocation reported by mallinfo(arena+hblkhd)
         53111 MiB available memory on the node where the printing process lives
------------------
     ethr =  2.00E-10,  avg # of iterations =  2.0

     negative rho (up, down):  7.925E-01 0.000E+00

     total cpu time spent up to now is      651.1 secs

     total energy              =   -4440.28959390 Ry
     estimated scf accuracy    <       0.00000076 Ry

     iteration # 44     ecut=    60.00 Ry     beta= 0.15
     Davidson diagonalization with overlap

---- Real-time Memory Report at c_bands before calling an iterative solver
             0 MiB given to the printing process from OS
             0 MiB allocation reported by mallinfo(arena+hblkhd)
         53109 MiB available memory on the node where the printing process lives
------------------
     ethr =  1.77E-10,  avg # of iterations =  2.7

     negative rho (up, down):  7.925E-01 0.000E+00

     total cpu time spent up to now is      665.2 secs

     total energy              =   -4440.28959400 Ry
     estimated scf accuracy    <       0.00000041 Ry

     iteration # 45     ecut=    60.00 Ry     beta= 0.15
     Davidson diagonalization with overlap

---- Real-time Memory Report at c_bands before calling an iterative solver
             0 MiB given to the printing process from OS
             0 MiB allocation reported by mallinfo(arena+hblkhd)
         53109 MiB available memory on the node where the printing process lives
------------------
     ethr =  9.64E-11,  avg # of iterations =  3.5

     negative rho (up, down):  7.926E-01 0.000E+00

     total cpu time spent up to now is      680.0 secs

     total energy              =   -4440.28959396 Ry
     estimated scf accuracy    <       0.00000037 Ry

     iteration # 46     ecut=    60.00 Ry     beta= 0.15
     Davidson diagonalization with overlap

---- Real-time Memory Report at c_bands before calling an iterative solver
             0 MiB given to the printing process from OS
             0 MiB allocation reported by mallinfo(arena+hblkhd)
         53108 MiB available memory on the node where the printing process lives
------------------
     ethr =  8.53E-11,  avg # of iterations =  2.5

     negative rho (up, down):  7.926E-01 0.000E+00

     total cpu time spent up to now is      694.2 secs

     total energy              =   -4440.28959392 Ry
     estimated scf accuracy    <       0.00000028 Ry

     iteration # 47     ecut=    60.00 Ry     beta= 0.15
     Davidson diagonalization with overlap

---- Real-time Memory Report at c_bands before calling an iterative solver
             0 MiB given to the printing process from OS
             0 MiB allocation reported by mallinfo(arena+hblkhd)
         53107 MiB available memory on the node where the printing process lives
------------------
     ethr =  6.44E-11,  avg # of iterations =  2.0

     negative rho (up, down):  7.926E-01 0.000E+00

     total cpu time spent up to now is      708.1 secs

     total energy              =   -4440.28959386 Ry
     estimated scf accuracy    <       0.00000022 Ry

     iteration # 48     ecut=    60.00 Ry     beta= 0.15
     Davidson diagonalization with overlap

---- Real-time Memory Report at c_bands before calling an iterative solver
             0 MiB given to the printing process from OS
             0 MiB allocation reported by mallinfo(arena+hblkhd)
         53108 MiB available memory on the node where the printing process lives
------------------
     ethr =  5.15E-11,  avg # of iterations =  1.9

     negative rho (up, down):  7.926E-01 0.000E+00

     total cpu time spent up to now is      722.3 secs

     total energy              =   -4440.28959388 Ry
     estimated scf accuracy    <       0.00000017 Ry

     iteration # 49     ecut=    60.00 Ry     beta= 0.15
     Davidson diagonalization with overlap

---- Real-time Memory Report at c_bands before calling an iterative solver
             0 MiB given to the printing process from OS
             0 MiB allocation reported by mallinfo(arena+hblkhd)
         53107 MiB available memory on the node where the printing process lives
------------------
     ethr =  3.91E-11,  avg # of iterations =  2.0

     negative rho (up, down):  7.926E-01 0.000E+00

     total cpu time spent up to now is      736.3 secs

     total energy              =   -4440.28959392 Ry
     estimated scf accuracy    <       0.00000009 Ry

     iteration # 50     ecut=    60.00 Ry     beta= 0.15
     Davidson diagonalization with overlap

---- Real-time Memory Report at c_bands before calling an iterative solver
             0 MiB given to the printing process from OS
             0 MiB allocation reported by mallinfo(arena+hblkhd)
         53124 MiB available memory on the node where the printing process lives
------------------
     ethr =  2.03E-11,  avg # of iterations =  2.3

     negative rho (up, down):  7.926E-01 0.000E+00

     total cpu time spent up to now is      750.4 secs

     total energy              =   -4440.28959396 Ry
     estimated scf accuracy    <       0.00000005 Ry

     iteration # 51     ecut=    60.00 Ry     beta= 0.15
     Davidson diagonalization with overlap

---- Real-time Memory Report at c_bands before calling an iterative solver
             0 MiB given to the printing process from OS
             0 MiB allocation reported by mallinfo(arena+hblkhd)
         53127 MiB available memory on the node where the printing process lives
------------------
     ethr =  1.06E-11,  avg # of iterations =  3.4

     negative rho (up, down):  7.926E-01 0.000E+00

     total cpu time spent up to now is      765.3 secs

     total energy              =   -4440.28959399 Ry
     estimated scf accuracy    <       0.00000002 Ry

     iteration # 52     ecut=    60.00 Ry     beta= 0.15
     Davidson diagonalization with overlap

---- Real-time Memory Report at c_bands before calling an iterative solver
             0 MiB given to the printing process from OS
             0 MiB allocation reported by mallinfo(arena+hblkhd)
         53099 MiB available memory on the node where the printing process lives
------------------
     ethr =  5.11E-12,  avg # of iterations =  3.9

     negative rho (up, down):  7.926E-01 0.000E+00

     total cpu time spent up to now is      780.5 secs

     End of self-consistent calculation

          k = 0.0000 0.0000 0.0000 ( 65197 PWs)   bands (ev):

   -92.8502 -92.7982 -92.7042 -92.6571 -92.5978 -92.5566 -92.5398 -92.4133
   -56.2038 -56.1850 -56.0612 -56.0507 -56.0445 -56.0376 -56.0030 -55.9732
   -55.9588 -55.9563 -55.9477 -55.9054 -55.8873 -55.8490 -55.8309 -55.7978
   -55.7929 -55.7448 -55.7416 -55.7398 -55.7332 -55.6842 -55.6698 -55.5830
   -31.4153 -31.3954 -31.2540 -31.1844 -31.1670 -31.1013 -30.9934 -30.8771
   -29.9960 -29.9527 -29.9269 -29.8187 -15.2274 -15.1845 -15.1032 -14.9726
   -14.7789 -14.6554 -14.3645 -14.3435 -14.3157 -14.2691 -14.2227 -14.2125
   -14.2022 -14.1853 -14.1644 -14.1247 -14.0767 -13.9250 -13.7455 -13.7129
   -13.6829 -13.6504 -13.6341 -13.5764 -13.5450 -13.4580 -13.3903 -13.2700
   -13.2480 -13.2379 -13.2134 -13.1958 -13.1899 -13.1408 -13.1384 -13.1194
   -13.0922 -13.0609 -13.0416 -13.0214 -12.9939 -12.9809 -12.9211 -12.9087
   -12.8916 -12.8189 -12.7869 -12.7725 -12.4812 -12.3356 -12.1701 -12.0977
   -12.0093 -11.9704 -11.9353 -11.9241 -11.9014 -11.8837 -11.8202 -11.8029
   -11.7682 -11.7390 -11.6274 -11.5477 -11.5440  -3.0890  -2.8571  -2.6270
    -2.4807  -2.4177  -2.2756  -1.9683  -1.9541  -1.9346  -1.8499  -1.8304
    -1.7618  -1.7454  -1.7048  -1.6574  -1.4792  -1.2536  -1.2248  -1.0781
    -1.0637  -1.0179  -0.9993  -0.9527  -0.9360  -0.8814  -0.8547  -0.7821
    -0.7685  -0.6946  -0.5605  -0.5464  -0.5200  -0.4398  -0.4171  -0.4072
    -0.3402  -0.2755  -0.2323  -0.1760  -0.1512  -0.0847  -0.0037   0.0331
     0.0600   0.0749   0.3267   0.3415   0.5150   0.5781   0.6433   0.6986
     0.7815   0.7941   0.8139   0.8764   0.9031   0.9372   0.9947   1.1257
     1.1849   1.2069   1.2320   1.2408   1.3034   1.3730   1.4812   1.4960
     1.5572   1.5686   1.6136   1.6336   1.6399   1.6934   1.7538   1.7669
     1.8026   1.8425   1.8805   2.0128   2.0953   2.1376   2.1662   2.3070
     2.3247   2.3633   2.3651   2.4738   2.5095   2.5354   2.5546   2.5686
     2.6356   2.6463   2.6618   2.6841   2.7607   2.7922   2.8041   2.8108
     2.8772   2.8816   2.9064   2.9134   2.9235   2.9416   2.9427   2.9585
     2.9624   2.9783   2.9845   2.9999   3.0092   3.0296   3.0361   3.0473
     3.0729   3.1881   3.3059   3.9788   4.2846   4.6375   4.8451   4.9084
     5.7719   5.7916   5.8486   5.9081   6.1670   6.2137   6.4526   6.4633
     6.9644   6.9840   7.0888   7.1884   7.3920   7.5100   7.5410   7.5714
     7.5911   7.7967   7.8944   8.0539   8.1252   8.1772   8.2938   8.3889
     8.7353   8.8416

     occupation numbers 
     1.0000   1.0000   1.0000   1.0000   1.0000   1.0000   1.0000   1.0000
     1.0000   1.0000   1.0000   1.0000   1.0000   1.0000   1.0000   1.0000
     1.0000   1.0000   1.0000   1.0000   1.0000   1.0000   1.0000   1.0000
     1.0000   1.0000   1.0000   1.0000   1.0000   1.0000   1.0000   1.0000
     1.0000   1.0000   1.0000   1.0000   1.0000   1.0000   1.0000   1.0000
     1.0000   1.0000   1.0000   1.0000   1.0000   1.0000   1.0000   1.0000
     1.0000   1.0000   1.0000   1.0000   1.0000   1.0000   1.0000   1.0000
     1.0000   1.0000   1.0000   1.0000   1.0000   1.0000   1.0000   1.0000
     1.0000   1.0000   1.0000   1.0000   1.0000   1.0000   1.0000   1.0000
     1.0000   1.0000   1.0000   1.0000   1.0000   1.0000   1.0000   1.0000
     1.0000   1.0000   1.0000   1.0000   1.0000   1.0000   1.0000   1.0000
     1.0000   1.0000   1.0000   1.0000   1.0000   1.0000   1.0000   1.0000
     1.0000   1.0000   1.0000   1.0000   1.0000   1.0000   1.0000   1.0000
     1.0000   1.0000   1.0000   1.0000   1.0000   1.0000   1.0000   1.0000
     1.0000   1.0000   1.0000   1.0000   1.0000   1.0000   1.0000   1.0000
     1.0000   1.0000   1.0000   1.0000   1.0000   1.0000   1.0000   1.0000
     1.0000   1.0000   1.0000   1.0000   1.0000   1.0000   1.0000   1.0000
     1.0000   1.0000   1.0000   1.0000   1.0000   1.0000   1.0000   1.0000
     1.0000   1.0000   1.0000   1.0000   1.0000   1.0000   1.0000   1.0000
     1.0000   1.0000   1.0000   1.0000   1.0000   0.9999   0.9999   0.9999
     0.9998   0.9998   0.9998   0.9997   0.9996   0.9996   0.9994   0.9988
     0.9985   0.9983   0.9981   0.9980   0.9973   0.9963   0.9941   0.9938
     0.9920   0.9916   0.9899   0.9891   0.9888   0.9863   0.9828   0.9819
     0.9795   0.9763   0.9730   0.9582   0.9461   0.9389   0.9336   0.9021
     0.8975   0.8869   0.8864   0.8522   0.8397   0.8301   0.8228   0.8174
     0.7898   0.7852   0.7785   0.7685   0.7324   0.7168   0.7108   0.7074
     0.6726   0.6702   0.6568   0.6530   0.6474   0.6374   0.6368   0.6280
     0.6258   0.6168   0.6132   0.6045   0.5991   0.5874   0.5836   0.5771
     0.5622   0.4942   0.4249   0.1173   0.0502   0.0151   0.0067   0.0051
     0.0001   0.0001   0.0000   0.0000   0.0000   0.0000   0.0000   0.0000
     0.0000   0.0000   0.0000   0.0000   0.0000   0.0000   0.0000   0.0000
     0.0000   0.0000   0.0000   0.0000   0.0000   0.0000   0.0000   0.0000
     0.0000   0.0000

          k = 0.0000 0.2500 0.0000 ( 65257 PWs)   bands (ev):

   -92.8502 -92.7982 -92.7042 -92.6571 -92.5978 -92.5566 -92.5398 -92.4133
   -56.2038 -56.1850 -56.0612 -56.0507 -56.0445 -56.0376 -56.0030 -55.9732
   -55.9588 -55.9563 -55.9477 -55.9054 -55.8873 -55.8490 -55.8309 -55.7978
   -55.7929 -55.7448 -55.7416 -55.7398 -55.7332 -55.6842 -55.6698 -55.5830
   -31.4151 -31.3953 -31.2542 -31.1841 -31.1672 -31.1017 -30.9931 -30.8774
   -29.9953 -29.9524 -29.9276 -29.8190 -15.1908 -15.1582 -15.0782 -14.9433
   -14.8207 -14.6460 -14.5104 -14.3302 -14.2944 -14.2731 -14.2449 -14.1877
   -14.1812 -14.1665 -14.1470 -14.0968 -13.9953 -13.9558 -13.7903 -13.7719
   -13.7231 -13.6868 -13.6412 -13.5969 -13.5545 -13.4838 -13.4442 -13.3780
   -13.3074 -13.2849 -13.2465 -13.2301 -13.1718 -13.1267 -13.1012 -13.0734
   -13.0498 -13.0384 -13.0054 -12.9614 -12.9450 -12.9384 -12.9156 -12.8752
   -12.8520 -12.8127 -12.7040 -12.6309 -12.5426 -12.3868 -12.2268 -12.1634
   -11.9748 -11.9711 -11.9321 -11.9040 -11.8759 -11.8594 -11.8120 -11.8007
   -11.7780 -11.7439 -11.6417 -11.5893 -11.5787  -2.9537  -2.7327  -2.5946
    -2.4131  -2.3695  -2.2060  -1.9857  -1.9025  -1.8895  -1.8309  -1.7286
    -1.7124  -1.6763  -1.6512  -1.6071  -1.4103  -1.2815  -1.2700  -1.1923
    -1.1833  -1.0791  -1.0489  -0.9910  -0.9654  -0.9255  -0.8606  -0.8336
    -0.8026  -0.7702  -0.7533  -0.7213  -0.6458  -0.5961  -0.5256  -0.4154
    -0.3939  -0.3529  -0.2387  -0.2038  -0.1334  -0.0915  -0.0206  -0.0008
     0.0162   0.0724   0.3744   0.4615   0.4908   0.5834   0.6303   0.6564
     0.7659   0.7850   0.8793   0.9048   0.9289   1.0449   1.1400   1.1603
     1.1837   1.2065   1.2290   1.2875   1.3160   1.3424   1.3904   1.4280
     1.4573   1.5404   1.5745   1.6127   1.6654   1.7164   1.7618   1.7917
     1.8191   1.8314   1.9253   2.0452   2.1202   2.1477   2.2124   2.2603
     2.2995   2.3114   2.3701   2.4071   2.4897   2.5301   2.5474   2.6350
     2.6570   2.6629   2.7209   2.7458   2.7728   2.7962   2.8135   2.8218
     2.8270   2.8395   2.8662   2.8718   2.8884   2.8942   2.9034   2.9217
     2.9365   2.9426   2.9609   2.9716   2.9772   3.0104   3.0276   3.0930
     3.4556   3.5173   3.7429   4.1744   4.2805   4.5722   4.9270   5.0094
     5.5374   5.6653   5.8406   5.9244   5.9739   6.0186   6.0898   6.5682
     7.0430   7.0544   7.2119   7.2650   7.3736   7.4295   7.4664   7.5707
     7.7106   7.9163   8.0930   8.2426   8.2738   8.3020   8.3243   8.3628
     8.4440   8.8325

     occupation numbers 
     1.0000   1.0000   1.0000   1.0000   1.0000   1.0000   1.0000   1.0000
     1.0000   1.0000   1.0000   1.0000   1.0000   1.0000   1.0000   1.0000
     1.0000   1.0000   1.0000   1.0000   1.0000   1.0000   1.0000   1.0000
     1.0000   1.0000   1.0000   1.0000   1.0000   1.0000   1.0000   1.0000
     1.0000   1.0000   1.0000   1.0000   1.0000   1.0000   1.0000   1.0000
     1.0000   1.0000   1.0000   1.0000   1.0000   1.0000   1.0000   1.0000
     1.0000   1.0000   1.0000   1.0000   1.0000   1.0000   1.0000   1.0000
     1.0000   1.0000   1.0000   1.0000   1.0000   1.0000   1.0000   1.0000
     1.0000   1.0000   1.0000   1.0000   1.0000   1.0000   1.0000   1.0000
     1.0000   1.0000   1.0000   1.0000   1.0000   1.0000   1.0000   1.0000
     1.0000   1.0000   1.0000   1.0000   1.0000   1.0000   1.0000   1.0000
     1.0000   1.0000   1.0000   1.0000   1.0000   1.0000   1.0000   1.0000
     1.0000   1.0000   1.0000   1.0000   1.0000   1.0000   1.0000   1.0000
     1.0000   1.0000   1.0000   1.0000   1.0000   1.0000   1.0000   1.0000
     1.0000   1.0000   1.0000   1.0000   1.0000   1.0000   1.0000   1.0000
     1.0000   1.0000   1.0000   1.0000   1.0000   1.0000   1.0000   1.0000
     1.0000   1.0000   1.0000   1.0000   1.0000   1.0000   1.0000   1.0000
     1.0000   1.0000   1.0000   1.0000   1.0000   1.0000   1.0000   1.0000
     1.0000   1.0000   1.0000   1.0000   1.0000   1.0000   1.0000   1.0000
     1.0000   1.0000   1.0000   1.0000   1.0000   0.9999   0.9999   0.9999
     0.9998   0.9998   0.9997   0.9996   0.9996   0.9992   0.9988   0.9986
     0.9985   0.9983   0.9981   0.9975   0.9972   0.9968   0.9960   0.9953
     0.9947   0.9925   0.9914   0.9900   0.9877   0.9850   0.9823   0.9803
     0.9782   0.9773   0.9686   0.9538   0.9419   0.9370   0.9243   0.9136
     0.9041   0.9010   0.8850   0.8739   0.8468   0.8321   0.8256   0.7901
     0.7806   0.7780   0.7515   0.7396   0.7265   0.7148   0.7060   0.7018
     0.6991   0.6926   0.6785   0.6755   0.6666   0.6635   0.6584   0.6484
     0.6403   0.6368   0.6266   0.6206   0.6174   0.5984   0.5886   0.5504
     0.3403   0.3074   0.2009   0.0696   0.0509   0.0192   0.0047   0.0033
     0.0002   0.0001   0.0000   0.0000   0.0000   0.0000   0.0000   0.0000
     0.0000   0.0000   0.0000   0.0000   0.0000   0.0000   0.0000   0.0000
     0.0000   0.0000   0.0000   0.0000   0.0000   0.0000   0.0000   0.0000
     0.0000   0.0000

          k = 0.0000-0.5000 0.0000 ( 65180 PWs)   bands (ev):

   -92.8502 -92.7982 -92.7042 -92.6571 -92.5978 -92.5566 -92.5398 -92.4133
   -56.2038 -56.1850 -56.0612 -56.0507 -56.0445 -56.0376 -56.0030 -55.9732
   -55.9588 -55.9563 -55.9477 -55.9054 -55.8873 -55.8490 -55.8309 -55.7978
   -55.7929 -55.7448 -55.7416 -55.7398 -55.7332 -55.6842 -55.6698 -55.5830
   -31.4149 -31.3952 -31.2544 -31.1837 -31.1673 -31.1020 -30.9929 -30.8777
   -29.9947 -29.9521 -29.9282 -29.8193 -15.1560 -15.1074 -15.0540 -14.9259
   -14.8419 -14.7040 -14.5498 -14.4257 -14.3024 -14.2294 -14.1885 -14.1828
   -14.1305 -14.1151 -14.0671 -14.0446 -14.0211 -13.9844 -13.9468 -13.9086
   -13.7285 -13.6698 -13.6469 -13.6002 -13.5526 -13.5013 -13.4479 -13.4197
   -13.3965 -13.3545 -13.2473 -13.2313 -13.1559 -13.1136 -13.1034 -13.0824
   -13.0663 -13.0209 -12.9580 -12.9391 -12.9157 -12.8606 -12.8445 -12.8346
   -12.8180 -12.7907 -12.6535 -12.5655 -12.4618 -12.4201 -12.3335 -12.2897
   -11.9716 -11.9290 -11.9265 -11.8989 -11.8619 -11.8274 -11.8162 -11.7737
   -11.7698 -11.7255 -11.6635 -11.6500 -11.6359  -2.7394  -2.6793  -2.5297
    -2.4577  -2.1755  -2.0910  -1.9654  -1.8280  -1.7900  -1.7711  -1.6905
    -1.6607  -1.5792  -1.5436  -1.4661  -1.4260  -1.3881  -1.3607  -1.3013
    -1.2652  -1.2183  -1.1823  -1.1496  -1.1154  -1.0058  -0.9610  -0.9250
    -0.9239  -0.8380  -0.8042  -0.7840  -0.7326  -0.6470  -0.5759  -0.4902
    -0.4626  -0.3573  -0.3117  -0.1755  -0.1299  -0.1125  -0.0399   0.0791
     0.1182   0.2451   0.3144   0.3209   0.4486   0.5009   0.6242   0.7271
     0.8383   0.8682   0.9071   0.9130   0.9588   0.9681   1.0026   1.0209
     1.0295   1.1401   1.2028   1.2352   1.2601   1.5211   1.5508   1.5713
     1.6736   1.7012   1.7226   1.7370   1.7648   1.7782   1.7982   1.8234
     1.8565   1.8890   1.9218   1.9232   1.9531   2.0068   2.0898   2.1196
     2.3069   2.4552   2.4654   2.4821   2.5206   2.5259   2.5335   2.5822
     2.5959   2.6249   2.6356   2.6540   2.6606   2.6979   2.7591   2.7684
     2.8318   2.8498   2.8618   2.8663   2.8830   2.8943   2.8961   2.9005
     2.9036   2.9243   2.9325   2.9412   2.9955   3.0048   3.0171   3.0705
     3.9949   4.0305   4.0327   4.1220   4.6194   4.7599   4.9372   5.0288
     5.3173   5.3826   5.5187   5.6081   5.8856   5.9102   6.2640   6.6352
     6.8158   6.9102   7.1663   7.3297   7.5190   7.5870   7.6840   7.6996
     7.8035   7.9315   8.1100   8.1821   8.2364   8.3064   8.3753   8.5489
     8.7158   8.7769

     occupation numbers 
     1.0000   1.0000   1.0000   1.0000   1.0000   1.0000   1.0000   1.0000
     1.0000   1.0000   1.0000   1.0000   1.0000   1.0000   1.0000   1.0000
     1.0000   1.0000   1.0000   1.0000   1.0000   1.0000   1.0000   1.0000
     1.0000   1.0000   1.0000   1.0000   1.0000   1.0000   1.0000   1.0000
     1.0000   1.0000   1.0000   1.0000   1.0000   1.0000   1.0000   1.0000
     1.0000   1.0000   1.0000   1.0000   1.0000   1.0000   1.0000   1.0000
     1.0000   1.0000   1.0000   1.0000   1.0000   1.0000   1.0000   1.0000
     1.0000   1.0000   1.0000   1.0000   1.0000   1.0000   1.0000   1.0000
     1.0000   1.0000   1.0000   1.0000   1.0000   1.0000   1.0000   1.0000
     1.0000   1.0000   1.0000   1.0000   1.0000   1.0000   1.0000   1.0000
     1.0000   1.0000   1.0000   1.0000   1.0000   1.0000   1.0000   1.0000
     1.0000   1.0000   1.0000   1.0000   1.0000   1.0000   1.0000   1.0000
     1.0000   1.0000   1.0000   1.0000   1.0000   1.0000   1.0000   1.0000
     1.0000   1.0000   1.0000   1.0000   1.0000   1.0000   1.0000   1.0000
     1.0000   1.0000   1.0000   1.0000   1.0000   1.0000   1.0000   1.0000
     1.0000   1.0000   1.0000   1.0000   1.0000   1.0000   1.0000   1.0000
     1.0000   1.0000   1.0000   1.0000   1.0000   1.0000   1.0000   1.0000
     1.0000   1.0000   1.0000   1.0000   1.0000   1.0000   1.0000   1.0000
     1.0000   1.0000   1.0000   1.0000   1.0000   1.0000   1.0000   1.0000
     1.0000   1.0000   1.0000   1.0000   1.0000   1.0000   0.9999   0.9999
     0.9997   0.9997   0.9996   0.9996   0.9995   0.9995   0.9994   0.9993
     0.9993   0.9988   0.9983   0.9980   0.9978   0.9931   0.9922   0.9915
     0.9873   0.9859   0.9847   0.9838   0.9821   0.9812   0.9798   0.9779
     0.9752   0.9722   0.9690   0.9688   0.9656   0.9590   0.9470   0.9420
     0.9022   0.8586   0.8551   0.8494   0.8356   0.8337   0.8308   0.8120
     0.8064   0.7944   0.7899   0.7819   0.7790   0.7622   0.7332   0.7287
     0.6966   0.6872   0.6808   0.6784   0.6695   0.6634   0.6624   0.6600
     0.6584   0.6470   0.6424   0.6376   0.6070   0.6017   0.5946   0.5636
     0.1127   0.1029   0.1023   0.0806   0.0162   0.0094   0.0045   0.0030
     0.0007   0.0005   0.0003   0.0002   0.0000   0.0000   0.0000   0.0000
     0.0000   0.0000   0.0000   0.0000   0.0000   0.0000   0.0000   0.0000
     0.0000   0.0000   0.0000   0.0000   0.0000   0.0000   0.0000   0.0000
     0.0000   0.0000

          k = 0.2500 0.2500 0.0000 ( 65198 PWs)   bands (ev):

   -92.8502 -92.7982 -92.7042 -92.6571 -92.5978 -92.5566 -92.5398 -92.4133
   -56.2038 -56.1850 -56.0612 -56.0507 -56.0445 -56.0376 -56.0030 -55.9732
   -55.9588 -55.9563 -55.9477 -55.9054 -55.8873 -55.8490 -55.8309 -55.7978
   -55.7929 -55.7448 -55.7416 -55.7398 -55.7332 -55.6842 -55.6698 -55.5830
   -31.4134 -31.3969 -31.2538 -31.1839 -31.1675 -31.1015 -30.9933 -30.8776
   -29.9944 -29.9534 -29.9272 -29.8194 -15.1622 -15.1232 -15.0502 -14.9330
   -14.8130 -14.6874 -14.6161 -14.4084 -14.2533 -14.2389 -14.2036 -14.1747
   -14.1532 -14.1249 -14.0928 -14.0596 -13.9859 -13.9692 -13.8068 -13.7930
   -13.7650 -13.7433 -13.6900 -13.6538 -13.5898 -13.5670 -13.4336 -13.3899
   -13.3660 -13.2799 -13.2395 -13.1890 -13.1572 -13.1385 -13.1161 -13.0847
   -13.0599 -13.0467 -12.9848 -12.9354 -12.9151 -12.8833 -12.8806 -12.8526
   -12.8282 -12.8124 -12.6489 -12.5910 -12.5284 -12.4158 -12.2571 -12.2119
   -11.9714 -11.9471 -11.9156 -11.9045 -11.8974 -11.8350 -11.8001 -11.7936
   -11.7582 -11.7501 -11.6584 -11.6175 -11.6002  -2.8154  -2.6069  -2.4884
    -2.3947  -2.2741  -2.2093  -2.0103  -1.8674  -1.8478  -1.8178  -1.7236
    -1.6866  -1.5947  -1.5671  -1.5167  -1.3860  -1.3379  -1.2644  -1.2203
    -1.1755  -1.1522  -1.1281  -1.0854  -1.0705  -0.9793  -0.9294  -0.8631
    -0.8136  -0.7841  -0.7351  -0.7199  -0.6569  -0.6081  -0.5487  -0.5150
    -0.4283  -0.3777  -0.3477  -0.3102  -0.2537  -0.1812  -0.1431  -0.1125
    -0.0364   0.0106   0.2630   0.4107   0.4454   0.5049   0.5458   0.6213
     0.6679   0.7233   0.7583   1.0305   1.0941   1.1679   1.1921   1.2440
     1.2731   1.3079   1.3446   1.3625   1.3894   1.4349   1.4438   1.4580
     1.5057   1.5479   1.5825   1.6380   1.6824   1.6871   1.7276   1.7574
     1.8179   1.8461   1.9659   2.0291   2.0628   2.0880   2.1608   2.2246
     2.2494   2.2847   2.3101   2.3230   2.4347   2.4714   2.5592   2.6361
     2.6489   2.6851   2.7308   2.7470   2.7519   2.7681   2.7828   2.7966
     2.8083   2.8154   2.8275   2.8405   2.8537   2.8725   2.8803   2.8916
     2.9121   2.9238   2.9309   2.9651   3.2637   3.3584   3.4026   3.4755
     3.5186   3.7273   3.8086   4.1712   4.3762   4.5848   4.8449   5.1478
     5.5288   5.5870   5.6306   5.6910   5.7538   6.0962   6.1356   6.1795
     6.8566   7.0384   7.1713   7.3544   7.4787   7.5084   7.6180   7.7850
     7.8303   7.9410   8.1793   8.2297   8.3506   8.4045   8.4471   8.4899
     8.5250   8.5641

     occupation numbers 
     1.0000   1.0000   1.0000   1.0000   1.0000   1.0000   1.0000   1.0000
     1.0000   1.0000   1.0000   1.0000   1.0000   1.0000   1.0000   1.0000
     1.0000   1.0000   1.0000   1.0000   1.0000   1.0000   1.0000   1.0000
     1.0000   1.0000   1.0000   1.0000   1.0000   1.0000   1.0000   1.0000
     1.0000   1.0000   1.0000   1.0000   1.0000   1.0000   1.0000   1.0000
     1.0000   1.0000   1.0000   1.0000   1.0000   1.0000   1.0000   1.0000
     1.0000   1.0000   1.0000   1.0000   1.0000   1.0000   1.0000   1.0000
     1.0000   1.0000   1.0000   1.0000   1.0000   1.0000   1.0000   1.0000
     1.0000   1.0000   1.0000   1.0000   1.0000   1.0000   1.0000   1.0000
     1.0000   1.0000   1.0000   1.0000   1.0000   1.0000   1.0000   1.0000
     1.0000   1.0000   1.0000   1.0000   1.0000   1.0000   1.0000   1.0000
     1.0000   1.0000   1.0000   1.0000   1.0000   1.0000   1.0000   1.0000
     1.0000   1.0000   1.0000   1.0000   1.0000   1.0000   1.0000   1.0000
     1.0000   1.0000   1.0000   1.0000   1.0000   1.0000   1.0000   1.0000
     1.0000   1.0000   1.0000   1.0000   1.0000   1.0000   1.0000   1.0000
     1.0000   1.0000   1.0000   1.0000   1.0000   1.0000   1.0000   1.0000
     1.0000   1.0000   1.0000   1.0000   1.0000   1.0000   1.0000   1.0000
     1.0000   1.0000   1.0000   1.0000   1.0000   1.0000   1.0000   1.0000
     1.0000   1.0000   1.0000   1.0000   1.0000   1.0000   1.0000   1.0000
     1.0000   1.0000   1.0000   1.0000   1.0000   1.0000   1.0000   0.9999
     0.9999   0.9999   0.9998   0.9993   0.9990   0.9986   0.9984   0.9980
     0.9977   0.9973   0.9968   0.9965   0.9961   0.9952   0.9950   0.9947
     0.9935   0.9923   0.9911   0.9889   0.9868   0.9866   0.9844   0.9826
     0.9783   0.9761   0.9641   0.9560   0.9512   0.9473   0.9346   0.9217
     0.9161   0.9077   0.9013   0.8980   0.8652   0.8531   0.8210   0.7896
     0.7841   0.7680   0.7468   0.7391   0.7367   0.7288   0.7215   0.7146
     0.7087   0.7050   0.6988   0.6921   0.6851   0.6751   0.6710   0.6649
     0.6537   0.6473   0.6433   0.6242   0.4496   0.3946   0.3696   0.3295
     0.3067   0.2075   0.1747   0.0702   0.0376   0.0184   0.0067   0.0017
     0.0002   0.0002   0.0001   0.0001   0.0001   0.0000   0.0000   0.0000
     0.0000   0.0000   0.0000   0.0000   0.0000   0.0000   0.0000   0.0000
     0.0000   0.0000   0.0000   0.0000   0.0000   0.0000   0.0000   0.0000
     0.0000   0.0000

          k = 0.2500-0.5000 0.0000 ( 65138 PWs)   bands (ev):

   -92.8502 -92.7982 -92.7042 -92.6571 -92.5978 -92.5566 -92.5398 -92.4133
   -56.2038 -56.1850 -56.0612 -56.0507 -56.0445 -56.0376 -56.0030 -55.9732
   -55.9588 -55.9563 -55.9477 -55.9054 -55.8873 -55.8490 -55.8309 -55.7978
   -55.7929 -55.7448 -55.7416 -55.7398 -55.7332 -55.6842 -55.6698 -55.5830
   -31.4132 -31.3968 -31.2540 -31.1835 -31.1677 -31.1019 -30.9930 -30.8779
   -29.9937 -29.9530 -29.9278 -29.8198 -15.1255 -15.0805 -15.0109 -14.8960
   -14.8644 -14.7447 -14.6531 -14.5241 -14.2180 -14.1642 -14.1390 -14.1160
   -14.1005 -14.0875 -14.0517 -14.0331 -14.0009 -13.9616 -13.9369 -13.8994
   -13.8101 -13.7605 -13.7066 -13.6809 -13.6124 -13.6000 -13.4865 -13.4443
   -13.3449 -13.2799 -13.2586 -13.1735 -13.1291 -13.1195 -13.1137 -13.0837
   -13.0661 -13.0500 -12.9635 -12.9346 -12.9178 -12.8806 -12.8517 -12.8244
   -12.7937 -12.7625 -12.6600 -12.5420 -12.4592 -12.3923 -12.3238 -12.2938
   -11.9716 -11.9227 -11.9107 -11.8998 -11.8726 -11.8411 -11.8127 -11.7713
   -11.7440 -11.7218 -11.6766 -11.6511 -11.6400  -2.5974  -2.5308  -2.4035
    -2.3263  -2.1959  -2.1107  -1.9897  -1.8391  -1.7852  -1.7632  -1.6995
    -1.6865  -1.5899  -1.5229  -1.4382  -1.3877  -1.3784  -1.3155  -1.2720
    -1.2383  -1.1909  -1.1536  -1.1192  -1.0794  -1.0676  -1.0223  -0.9928
    -0.9508  -0.9199  -0.8524  -0.7500  -0.7089  -0.6317  -0.5667  -0.5174
    -0.4752  -0.4546  -0.4020  -0.2398  -0.2292  -0.1187  -0.0885  -0.0760
    -0.0303  -0.0046   0.0382   0.0601   0.1282   0.4037   0.4977   0.5893
     0.6406   0.8898   0.9171   1.0027   1.0281   1.1913   1.2273   1.2682
     1.2886   1.3042   1.3250   1.3883   1.4367   1.4705   1.5566   1.6405
     1.6813   1.7036   1.7139   1.7478   1.7627   1.7650   1.8130   1.8239
     1.8413   1.8874   1.8952   1.9135   1.9504   2.0068   2.0430   2.1251
     2.2661   2.4075   2.4249   2.4433   2.4720   2.4949   2.5220   2.5429
     2.5536   2.5775   2.6359   2.6418   2.6534   2.7112   2.7333   2.7480
     2.7621   2.7708   2.7858   2.8007   2.8189   2.8265   2.8590   2.8717
     2.8846   2.8963   2.9081   2.9167   3.4472   3.4644   3.5952   3.6452
     4.0049   4.0384   4.0661   4.1753   4.6357   4.7814   4.9583   4.9936
     5.1667   5.3300   5.5339   5.5506   5.6582   5.6933   6.3611   6.3663
     6.4639   6.7583   7.1642   7.6113   7.6766   7.6975   7.7389   7.8098
     7.8395   7.9509   8.1185   8.3456   8.4252   8.4512   8.5722   8.5841
     8.6164   8.6613

     occupation numbers 
     1.0000   1.0000   1.0000   1.0000   1.0000   1.0000   1.0000   1.0000
     1.0000   1.0000   1.0000   1.0000   1.0000   1.0000   1.0000   1.0000
     1.0000   1.0000   1.0000   1.0000   1.0000   1.0000   1.0000   1.0000
     1.0000   1.0000   1.0000   1.0000   1.0000   1.0000   1.0000   1.0000
     1.0000   1.0000   1.0000   1.0000   1.0000   1.0000   1.0000   1.0000
     1.0000   1.0000   1.0000   1.0000   1.0000   1.0000   1.0000   1.0000
     1.0000   1.0000   1.0000   1.0000   1.0000   1.0000   1.0000   1.0000
     1.0000   1.0000   1.0000   1.0000   1.0000   1.0000   1.0000   1.0000
     1.0000   1.0000   1.0000   1.0000   1.0000   1.0000   1.0000   1.0000
     1.0000   1.0000   1.0000   1.0000   1.0000   1.0000   1.0000   1.0000
     1.0000   1.0000   1.0000   1.0000   1.0000   1.0000   1.0000   1.0000
     1.0000   1.0000   1.0000   1.0000   1.0000   1.0000   1.0000   1.0000
     1.0000   1.0000   1.0000   1.0000   1.0000   1.0000   1.0000   1.0000
     1.0000   1.0000   1.0000   1.0000   1.0000   1.0000   1.0000   1.0000
     1.0000   1.0000   1.0000   1.0000   1.0000   1.0000   1.0000   1.0000
     1.0000   1.0000   1.0000   1.0000   1.0000   1.0000   1.0000   1.0000
     1.0000   1.0000   1.0000   1.0000   1.0000   1.0000   1.0000   1.0000
     1.0000   1.0000   1.0000   1.0000   1.0000   1.0000   1.0000   1.0000
     1.0000   1.0000   1.0000   1.0000   1.0000   1.0000   1.0000   1.0000
     1.0000   1.0000   1.0000   1.0000   1.0000   1.0000   1.0000   0.9999
     0.9999   0.9997   0.9996   0.9994   0.9993   0.9984   0.9981   0.9977
     0.9975   0.9973   0.9970   0.9961   0.9951   0.9944   0.9920   0.9888
     0.9869   0.9857   0.9852   0.9832   0.9822   0.9821   0.9787   0.9778
     0.9765   0.9724   0.9716   0.9698   0.9659   0.9590   0.9541   0.9411
     0.9122   0.8738   0.8684   0.8624   0.8529   0.8449   0.8351   0.8273
     0.8232   0.8139   0.7897   0.7872   0.7821   0.7561   0.7457   0.7386
     0.7317   0.7275   0.7200   0.7125   0.7033   0.6993   0.6823   0.6756
     0.6686   0.6623   0.6559   0.6512   0.3448   0.3355   0.2679   0.2441
     0.1098   0.1008   0.0937   0.0694   0.0152   0.0086   0.0041   0.0035
     0.0016   0.0007   0.0002   0.0002   0.0001   0.0001   0.0000   0.0000
     0.0000   0.0000   0.0000   0.0000   0.0000   0.0000   0.0000   0.0000
     0.0000   0.0000   0.0000   0.0000   0.0000   0.0000   0.0000   0.0000
     0.0000   0.0000

          k =-0.5000-0.5000 0.0000 ( 65132 PWs)   bands (ev):

   -92.8502 -92.7982 -92.7042 -92.6571 -92.5978 -92.5566 -92.5398 -92.4133
   -56.2038 -56.1850 -56.0612 -56.0507 -56.0445 -56.0376 -56.0030 -55.9732
   -55.9588 -55.9563 -55.9477 -55.9054 -55.8873 -55.8490 -55.8309 -55.7978
   -55.7929 -55.7448 -55.7416 -55.7398 -55.7332 -55.6842 -55.6698 -55.5830
   -31.4111 -31.3989 -31.2537 -31.1834 -31.1681 -31.1018 -30.9932 -30.8780
   -29.9927 -29.9541 -29.9274 -29.8202 -15.0790 -15.0535 -14.9357 -14.9231
   -14.8273 -14.7921 -14.7566 -14.6246 -14.1300 -14.1166 -14.0837 -14.0644
   -14.0470 -14.0316 -14.0058 -13.9928 -13.9784 -13.9699 -13.9541 -13.8771
   -13.8684 -13.8378 -13.8035 -13.7953 -13.6974 -13.6677 -13.5265 -13.4830
   -13.2954 -13.2565 -13.1882 -13.1641 -13.1297 -13.1229 -13.1135 -13.0976
   -13.0923 -13.0407 -12.9525 -12.9314 -12.9238 -12.9012 -12.8672 -12.8375
   -12.7438 -12.7356 -12.6764 -12.5207 -12.4555 -12.3612 -12.3157 -12.3003
   -11.9715 -11.9193 -11.9069 -11.8890 -11.8723 -11.8372 -11.8197 -11.7848
   -11.7243 -11.7042 -11.6990 -11.6488 -11.6458  -2.3729  -2.2978  -2.2876
    -2.2126  -2.1767  -2.0988  -2.0310  -1.9044  -1.7897  -1.7598  -1.7197
    -1.6628  -1.5909  -1.5764  -1.5059  -1.4620  -1.3453  -1.3158  -1.2676
    -1.2401  -1.1759  -1.1288  -1.1106  -1.0978  -1.0439  -1.0002  -0.9838
    -0.8718  -0.8142  -0.7680  -0.7176  -0.6880  -0.6769  -0.6429  -0.5992
    -0.5643  -0.5553  -0.4688  -0.4037  -0.3573  -0.3318  -0.2577  -0.2006
    -0.1832  -0.1287  -0.0957  -0.0903  -0.0624   0.3776   0.4150   0.5334
     0.5661   0.9230   0.9362   0.9673   1.0071   1.2785   1.2985   1.3052
     1.3441   1.4698   1.5650   1.5923   1.6279   1.6495   1.6771   1.6831
     1.7136   1.7244   1.7403   1.7527   1.8032   1.8048   1.8351   1.8549
     1.8713   1.8865   1.9230   1.9473   1.9652   1.9935   2.0271   2.0854
     2.1511   2.4199   2.4513   2.4707   2.4894   2.4998   2.5277   2.5338
     2.5538   2.5628   2.5790   2.5961   2.6117   2.6364   2.6404   2.6463
     2.6824   2.6898   2.7098   2.7272   2.7430   2.7568   2.7607   2.7869
     2.8682   2.8724   2.9049   2.9148   3.8890   3.9205   3.9240   3.9339
     4.1750   4.2568   4.2703   4.5111   4.6333   4.7161   4.8486   4.9485
     4.9768   5.0597   5.1955   5.2776   5.8211   5.8726   5.9143   6.0279
     6.5802   6.7924   6.9994   7.3208   7.8671   7.8772   7.9559   8.0913
     8.1283   8.1581   8.1932   8.2714   8.3085   8.4845   8.5244   8.5523
     8.5649   8.6822

     occupation numbers 
     1.0000   1.0000   1.0000   1.0000   1.0000   1.0000   1.0000   1.0000
     1.0000   1.0000   1.0000   1.0000   1.0000   1.0000   1.0000   1.0000
     1.0000   1.0000   1.0000   1.0000   1.0000   1.0000   1.0000   1.0000
     1.0000   1.0000   1.0000   1.0000   1.0000   1.0000   1.0000   1.0000
     1.0000   1.0000   1.0000   1.0000   1.0000   1.0000   1.0000   1.0000
     1.0000   1.0000   1.0000   1.0000   1.0000   1.0000   1.0000   1.0000
     1.0000   1.0000   1.0000   1.0000   1.0000   1.0000   1.0000   1.0000
     1.0000   1.0000   1.0000   1.0000   1.0000   1.0000   1.0000   1.0000
     1.0000   1.0000   1.0000   1.0000   1.0000   1.0000   1.0000   1.0000
     1.0000   1.0000   1.0000   1.0000   1.0000   1.0000   1.0000   1.0000
     1.0000   1.0000   1.0000   1.0000   1.0000   1.0000   1.0000   1.0000
     1.0000   1.0000   1.0000   1.0000   1.0000   1.0000   1.0000   1.0000
     1.0000   1.0000   1.0000   1.0000   1.0000   1.0000   1.0000   1.0000
     1.0000   1.0000   1.0000   1.0000   1.0000   1.0000   1.0000   1.0000
[...]
     0.6338   0.6199   0.6185   0.6146   0.6095   0.6050   0.5987   0.5257
     0.3446   0.3084   0.2043   0.0750   0.0450   0.0206   0.0049   0.0032
     0.0002   0.0001   0.0000   0.0000   0.0000   0.0000   0.0000   0.0000
     0.0000   0.0000   0.0000   0.0000   0.0000   0.0000   0.0000   0.0000
     0.0000   0.0000   0.0000   0.0000   0.0000   0.0000   0.0000   0.0000
     0.0000   0.0000

          k =-0.5000 0.0000 0.0000 ( 65180 PWs)   bands (ev):

   -92.8502 -92.7982 -92.7042 -92.6571 -92.5978 -92.5566 -92.5398 -92.4133
   -56.2038 -56.1850 -56.0612 -56.0507 -56.0445 -56.0376 -56.0030 -55.9732
   -55.9588 -55.9563 -55.9477 -55.9054 -55.8873 -55.8490 -55.8309 -55.7978
   -55.7929 -55.7448 -55.7416 -55.7398 -55.7332 -55.6842 -55.6698 -55.5830
   -31.4115 -31.3992 -31.2533 -31.1841 -31.1678 -31.1010 -30.9937 -30.8774
   -29.9939 -29.9547 -29.9262 -29.8195 -15.1611 -15.1096 -15.0473 -14.9378
   -14.8350 -14.6901 -14.5447 -14.3996 -14.2773 -14.2646 -14.2535 -14.1935
   -14.1348 -14.1041 -14.0546 -14.0476 -14.0303 -13.9807 -13.9612 -13.8562
   -13.6995 -13.6720 -13.6389 -13.6319 -13.5701 -13.5073 -13.4417 -13.4045
   -13.3807 -13.3630 -13.1923 -13.1805 -13.1726 -13.1548 -13.1454 -13.0918
   -13.0795 -13.0630 -12.9946 -12.9792 -12.9010 -12.8250 -12.8021 -12.7897
   -12.7794 -12.7697 -12.6797 -12.5951 -12.4658 -12.4541 -12.3191 -12.2807
   -11.9716 -11.9262 -11.9045 -11.8979 -11.8834 -11.8653 -11.8240 -11.7611
   -11.7434 -11.7105 -11.6660 -11.6568 -11.6413  -2.7290  -2.6904  -2.5272
    -2.4881  -2.1741  -2.0986  -1.9513  -1.8340  -1.7946  -1.7469  -1.7006
    -1.6762  -1.5526  -1.5085  -1.4924  -1.4102  -1.3749  -1.3590  -1.3282
    -1.2697  -1.2018  -1.1726  -1.1430  -1.0486  -1.0016  -0.9526  -0.9193
    -0.8984  -0.8673  -0.8196  -0.7950  -0.7570  -0.6569  -0.5831  -0.5168
    -0.4553  -0.2940  -0.2447  -0.2026  -0.1656  -0.1075  -0.0896   0.0516
     0.0817   0.1384   0.2931   0.3927   0.4393   0.5391   0.5974   0.7176
     0.7308   0.8599   0.8850   0.9395   0.9726   1.0094   1.0159   1.0631
     1.0862   1.1531   1.2046   1.2515   1.2593   1.5593   1.5653   1.5844
     1.6031   1.7090   1.7264   1.7394   1.7486   1.7792   1.7923   1.8300
     1.8538   1.8769   1.9307   1.9483   1.9974   2.0242   2.0750   2.1949
     2.2838   2.3553   2.3689   2.4508   2.4785   2.5070   2.5650   2.5813
     2.5909   2.6211   2.6417   2.6469   2.6551   2.7188   2.7449   2.7848
     2.8080   2.8542   2.8571   2.8654   2.8730   2.8885   2.8972   2.9101
     2.9178   2.9366   2.9457   2.9616   2.9816   2.9860   3.1155   3.1309
     3.9745   3.9921   4.0425   4.1851   4.6493   4.7266   4.9216   4.9499
     5.4027   5.4317   5.5113   5.5396   5.8910   5.8957   6.3348   6.5032
     6.7517   6.9712   7.2214   7.2799   7.5946   7.6491   7.6845   7.6915
     7.7983   7.9146   8.0316   8.2433   8.2668   8.3166   8.3989   8.5138
     8.6633   8.7627

     occupation numbers 
     1.0000   1.0000   1.0000   1.0000   1.0000   1.0000   1.0000   1.0000
     1.0000   1.0000   1.0000   1.0000   1.0000   1.0000   1.0000   1.0000
     1.0000   1.0000   1.0000   1.0000   1.0000   1.0000   1.0000   1.0000
     1.0000   1.0000   1.0000   1.0000   1.0000   1.0000   1.0000   1.0000
     1.0000   1.0000   1.0000   1.0000   1.0000   1.0000   1.0000   1.0000
     1.0000   1.0000   1.0000   1.0000   1.0000   1.0000   1.0000   1.0000
     1.0000   1.0000   1.0000   1.0000   1.0000   1.0000   1.0000   1.0000
     1.0000   1.0000   1.0000   1.0000   1.0000   1.0000   1.0000   1.0000
     1.0000   1.0000   1.0000   1.0000   1.0000   1.0000   1.0000   1.0000
     1.0000   1.0000   1.0000   1.0000   1.0000   1.0000   1.0000   1.0000
     1.0000   1.0000   1.0000   1.0000   1.0000   1.0000   1.0000   1.0000
     1.0000   1.0000   1.0000   1.0000   1.0000   1.0000   1.0000   1.0000
     1.0000   1.0000   1.0000   1.0000   1.0000   1.0000   1.0000   1.0000
     1.0000   1.0000   1.0000   1.0000   1.0000   1.0000   1.0000   1.0000
     1.0000   1.0000   1.0000   1.0000   1.0000   1.0000   1.0000   1.0000
     1.0000   1.0000   1.0000   1.0000   1.0000   1.0000   1.0000   1.0000
     1.0000   1.0000   1.0000   1.0000   1.0000   1.0000   1.0000   1.0000
     1.0000   1.0000   1.0000   1.0000   1.0000   1.0000   1.0000   1.0000
     1.0000   1.0000   1.0000   1.0000   1.0000   1.0000   1.0000   1.0000
     1.0000   1.0000   1.0000   1.0000   1.0000   1.0000   0.9999   0.9999
     0.9999   0.9997   0.9997   0.9996   0.9995   0.9994   0.9993   0.9992
     0.9991   0.9987   0.9983   0.9979   0.9978   0.9919   0.9917   0.9910
     0.9903   0.9854   0.9845   0.9837   0.9831   0.9811   0.9802   0.9774
     0.9754   0.9734   0.9680   0.9661   0.9602   0.9567   0.9493   0.9279
     0.9080   0.8892   0.8853   0.8600   0.8506   0.8406   0.8188   0.8123
     0.8085   0.7960   0.7872   0.7850   0.7814   0.7525   0.7401   0.7205
     0.7088   0.6848   0.6833   0.6789   0.6749   0.6665   0.6618   0.6548
     0.6506   0.6402   0.6351   0.6262   0.6149   0.6124   0.5372   0.5281
     0.1186   0.1134   0.0997   0.0675   0.0145   0.0108   0.0048   0.0043
     0.0005   0.0004   0.0003   0.0002   0.0000   0.0000   0.0000   0.0000
     0.0000   0.0000   0.0000   0.0000   0.0000   0.0000   0.0000   0.0000
     0.0000   0.0000   0.0000   0.0000   0.0000   0.0000   0.0000   0.0000
     0.0000   0.0000

          k =-0.2500 0.2500 0.0000 ( 65198 PWs)   bands (ev):

   -92.8502 -92.7982 -92.7042 -92.6571 -92.5978 -92.5566 -92.5398 -92.4133
   -56.2038 -56.1850 -56.0612 -56.0507 -56.0445 -56.0376 -56.0030 -55.9732
   -55.9588 -55.9563 -55.9477 -55.9054 -55.8873 -55.8490 -55.8309 -55.7978
   -55.7929 -55.7448 -55.7416 -55.7398 -55.7332 -55.6842 -55.6698 -55.5830
   -31.4134 -31.3969 -31.2538 -31.1839 -31.1675 -31.1015 -30.9933 -30.8776
   -29.9944 -29.9534 -29.9272 -29.8194 -15.1636 -15.1221 -15.0488 -14.9313
   -14.8190 -14.6924 -14.6079 -14.3995 -14.2599 -14.2302 -14.2158 -14.1704
   -14.1462 -14.1257 -14.1084 -14.0627 -13.9811 -13.9698 -13.8145 -13.7903
   -13.7621 -13.7398 -13.6935 -13.6411 -13.5830 -13.5749 -13.4405 -13.3888
   -13.3604 -13.2840 -13.2411 -13.1782 -13.1500 -13.1334 -13.1238 -13.0873
   -13.0650 -13.0347 -13.0031 -12.9436 -12.9264 -12.9088 -12.8763 -12.8334
   -12.8213 -12.8035 -12.6282 -12.5808 -12.5493 -12.4215 -12.2604 -12.2072
   -11.9714 -11.9463 -11.9248 -11.8977 -11.8855 -11.8445 -11.8098 -11.7868
   -11.7652 -11.7427 -11.6582 -11.6130 -11.6033  -2.8137  -2.6059  -2.4842
    -2.3964  -2.2783  -2.2120  -2.0079  -1.8642  -1.8455  -1.8158  -1.7242
    -1.6854  -1.5947  -1.5602  -1.5342  -1.3918  -1.3360  -1.2673  -1.2395
    -1.1789  -1.1580  -1.1179  -1.0892  -1.0492  -0.9856  -0.9381  -0.8741
    -0.8053  -0.7800  -0.7293  -0.7000  -0.6546  -0.5975  -0.5521  -0.5099
    -0.4098  -0.3782  -0.3657  -0.3228  -0.2562  -0.1855  -0.1393  -0.1053
    -0.0336   0.0093   0.2440   0.4142   0.4531   0.4932   0.5526   0.6211
     0.6716   0.7293   0.7567   1.0385   1.1442   1.1845   1.2175   1.2249
     1.2660   1.2824   1.3271   1.3577   1.3721   1.3976   1.4433   1.4591
     1.5032   1.5228   1.5679   1.6502   1.6733   1.6875   1.7335   1.7541
     1.7966   1.8557   1.9552   2.0574   2.0867   2.1362   2.1570   2.2227
     2.2617   2.2866   2.3103   2.3338   2.4354   2.4699   2.5593   2.6359
     2.6486   2.6854   2.7361   2.7457   2.7581   2.7675   2.7782   2.7923
     2.7987   2.8174   2.8282   2.8398   2.8510   2.8623   2.8736   2.8853
     2.9135   2.9237   2.9311   2.9667   3.2572   3.3400   3.4047   3.4865
     3.5183   3.7143   3.8175   4.1707   4.3734   4.5862   4.8546   5.1480
     5.5302   5.5833   5.6340   5.6876   5.7549   6.1040   6.1423   6.1640
     6.8576   7.0545   7.1517   7.3541   7.4878   7.5149   7.5916   7.7949
     7.8541   7.9095   8.2111   8.2292   8.3515   8.3987   8.4370   8.4759
     8.5424   8.5649

     occupation numbers 
     1.0000   1.0000   1.0000   1.0000   1.0000   1.0000   1.0000   1.0000
     1.0000   1.0000   1.0000   1.0000   1.0000   1.0000   1.0000   1.0000
     1.0000   1.0000   1.0000   1.0000   1.0000   1.0000   1.0000   1.0000
     1.0000   1.0000   1.0000   1.0000   1.0000   1.0000   1.0000   1.0000
     1.0000   1.0000   1.0000   1.0000   1.0000   1.0000   1.0000   1.0000
     1.0000   1.0000   1.0000   1.0000   1.0000   1.0000   1.0000   1.0000
     1.0000   1.0000   1.0000   1.0000   1.0000   1.0000   1.0000   1.0000
     1.0000   1.0000   1.0000   1.0000   1.0000   1.0000   1.0000   1.0000
     1.0000   1.0000   1.0000   1.0000   1.0000   1.0000   1.0000   1.0000
     1.0000   1.0000   1.0000   1.0000   1.0000   1.0000   1.0000   1.0000
     1.0000   1.0000   1.0000   1.0000   1.0000   1.0000   1.0000   1.0000
     1.0000   1.0000   1.0000   1.0000   1.0000   1.0000   1.0000   1.0000
     1.0000   1.0000   1.0000   1.0000   1.0000   1.0000   1.0000   1.0000
     1.0000   1.0000   1.0000   1.0000   1.0000   1.0000   1.0000   1.0000
     1.0000   1.0000   1.0000   1.0000   1.0000   1.0000   1.0000   1.0000
     1.0000   1.0000   1.0000   1.0000   1.0000   1.0000   1.0000   1.0000
     1.0000   1.0000   1.0000   1.0000   1.0000   1.0000   1.0000   1.0000
     1.0000   1.0000   1.0000   1.0000   1.0000   1.0000   1.0000   1.0000
     1.0000   1.0000   1.0000   1.0000   1.0000   1.0000   1.0000   1.0000
     1.0000   1.0000   1.0000   1.0000   1.0000   1.0000   1.0000   0.9999
     0.9999   0.9999   0.9998   0.9993   0.9987   0.9985   0.9982   0.9981
     0.9977   0.9976   0.9970   0.9966   0.9963   0.9959   0.9950   0.9947
     0.9936   0.9930   0.9916   0.9884   0.9873   0.9866   0.9840   0.9828
     0.9799   0.9752   0.9653   0.9520   0.9475   0.9391   0.9353   0.9221
     0.9133   0.9073   0.9013   0.8951   0.8650   0.8536   0.8210   0.7897
     0.7842   0.7679   0.7443   0.7397   0.7337   0.7291   0.7238   0.7168
     0.7135   0.7040   0.6984   0.6924   0.6865   0.6806   0.6745   0.6682
     0.6529   0.6473   0.6432   0.6233   0.4534   0.4052   0.3684   0.3236
     0.3069   0.2130   0.1713   0.0703   0.0380   0.0183   0.0064   0.0017
     0.0002   0.0002   0.0001   0.0001   0.0001   0.0000   0.0000   0.0000
     0.0000   0.0000   0.0000   0.0000   0.0000   0.0000   0.0000   0.0000
     0.0000   0.0000   0.0000   0.0000   0.0000   0.0000   0.0000   0.0000
     0.0000   0.0000

          k =-0.5000 0.2500 0.0000 ( 65138 PWs)   bands (ev):

   -92.8502 -92.7982 -92.7042 -92.6571 -92.5978 -92.5566 -92.5398 -92.4133
   -56.2038 -56.1850 -56.0612 -56.0507 -56.0445 -56.0376 -56.0030 -55.9732
   -55.9588 -55.9563 -55.9477 -55.9054 -55.8873 -55.8490 -55.8309 -55.7978
   -55.7929 -55.7448 -55.7416 -55.7398 -55.7332 -55.6842 -55.6698 -55.5830
   -31.4113 -31.3990 -31.2535 -31.1837 -31.1679 -31.1014 -30.9935 -30.8777
   -29.9933 -29.9544 -29.9268 -29.8198 -15.1283 -15.0833 -15.0043 -14.9043
   -14.8633 -14.7371 -14.6486 -14.5180 -14.2109 -14.1799 -14.1681 -14.1231
   -14.1014 -14.0766 -14.0409 -14.0330 -14.0091 -13.9689 -13.9587 -13.8494
   -13.7807 -13.7323 -13.7287 -13.7142 -13.6206 -13.6089 -13.4808 -13.4284
   -13.3378 -13.3027 -13.2053 -13.1653 -13.1541 -13.1339 -13.1203 -13.0906
   -13.0777 -13.0436 -13.0149 -12.9386 -12.9137 -12.8588 -12.8342 -12.8142
   -12.7610 -12.7528 -12.6778 -12.5542 -12.4609 -12.4106 -12.3136 -12.2894
   -11.9715 -11.9190 -11.9063 -11.8921 -11.8801 -11.8589 -11.8288 -11.7480
   -11.7396 -11.7162 -11.6804 -11.6525 -11.6437  -2.5866  -2.5445  -2.3968
    -2.3546  -2.1933  -2.1169  -1.9755  -1.8399  -1.7830  -1.7550  -1.7171
    -1.6785  -1.5979  -1.4824  -1.4250  -1.4019  -1.3762  -1.2987  -1.2713
    -1.2324  -1.2154  -1.1548  -1.1252  -1.0867  -1.0513  -1.0226  -0.9641
    -0.9372  -0.8958  -0.8602  -0.7556  -0.7298  -0.6392  -0.5770  -0.5462
    -0.4894  -0.4040  -0.3717  -0.2715  -0.2335  -0.1705  -0.1233  -0.0977
    -0.0265   0.0073   0.0449   0.0861   0.1234   0.4434   0.4931   0.5784
     0.6046   0.8708   0.9339   1.0036   1.0299   1.2059   1.2416   1.2790
     1.2900   1.3083   1.3261   1.3952   1.4396   1.4808   1.5104   1.6286
     1.6662   1.7008   1.7168   1.7505   1.7721   1.7888   1.8066   1.8230
     1.8450   1.8924   1.9060   1.9435   1.9661   1.9993   2.0557   2.1797
     2.2741   2.3011   2.3675   2.4052   2.4670   2.5047   2.5101   2.5477
     2.5812   2.6015   2.6381   2.6424   2.6484   2.7197   2.7438   2.7470
     2.7554   2.7714   2.7952   2.8069   2.8218   2.8339   2.8558   2.8696
     2.8786   2.8878   2.9009   2.9148   3.4511   3.4785   3.6318   3.6481
     3.9742   4.0101   4.0566   4.2655   4.6421   4.7395   4.9184   4.9667
     5.2668   5.2965   5.5132   5.5963   5.6371   5.6731   6.3491   6.4250
     6.4757   6.6142   7.3157   7.6130   7.6278   7.6995   7.7323   7.7846
     7.8468   7.9514   8.1024   8.3837   8.4495   8.4875   8.5309   8.5621
     8.5883   8.7232

     occupation numbers 
     1.0000   1.0000   1.0000   1.0000   1.0000   1.0000   1.0000   1.0000
     1.0000   1.0000   1.0000   1.0000   1.0000   1.0000   1.0000   1.0000
     1.0000   1.0000   1.0000   1.0000   1.0000   1.0000   1.0000   1.0000
     1.0000   1.0000   1.0000   1.0000   1.0000   1.0000   1.0000   1.0000
     1.0000   1.0000   1.0000   1.0000   1.0000   1.0000   1.0000   1.0000
     1.0000   1.0000   1.0000   1.0000   1.0000   1.0000   1.0000   1.0000
     1.0000   1.0000   1.0000   1.0000   1.0000   1.0000   1.0000   1.0000
     1.0000   1.0000   1.0000   1.0000   1.0000   1.0000   1.0000   1.0000
     1.0000   1.0000   1.0000   1.0000   1.0000   1.0000   1.0000   1.0000
     1.0000   1.0000   1.0000   1.0000   1.0000   1.0000   1.0000   1.0000
     1.0000   1.0000   1.0000   1.0000   1.0000   1.0000   1.0000   1.0000
     1.0000   1.0000   1.0000   1.0000   1.0000   1.0000   1.0000   1.0000
     1.0000   1.0000   1.0000   1.0000   1.0000   1.0000   1.0000   1.0000
     1.0000   1.0000   1.0000   1.0000   1.0000   1.0000   1.0000   1.0000
     1.0000   1.0000   1.0000   1.0000   1.0000   1.0000   1.0000   1.0000
     1.0000   1.0000   1.0000   1.0000   1.0000   1.0000   1.0000   1.0000
     1.0000   1.0000   1.0000   1.0000   1.0000   1.0000   1.0000   1.0000
     1.0000   1.0000   1.0000   1.0000   1.0000   1.0000   1.0000   1.0000
     1.0000   1.0000   1.0000   1.0000   1.0000   1.0000   1.0000   1.0000
     1.0000   1.0000   1.0000   1.0000   1.0000   1.0000   1.0000   0.9999
     0.9999   0.9997   0.9996   0.9994   0.9993   0.9983   0.9980   0.9976
     0.9975   0.9973   0.9970   0.9959   0.9951   0.9941   0.9934   0.9893
     0.9876   0.9859   0.9850   0.9830   0.9816   0.9805   0.9792   0.9779
     0.9761   0.9719   0.9706   0.9666   0.9641   0.9600   0.9522   0.9309
     0.9103   0.9036   0.8857   0.8745   0.8546   0.8414   0.8395   0.8255
     0.8124   0.8041   0.7888   0.7869   0.7843   0.7521   0.7406   0.7391
     0.7350   0.7272   0.7153   0.7094   0.7018   0.6955   0.6840   0.6767
     0.6719   0.6669   0.6598   0.6522   0.3427   0.3279   0.2504   0.2427
     0.1186   0.1084   0.0961   0.0532   0.0149   0.0102   0.0049   0.0040
     0.0010   0.0008   0.0003   0.0002   0.0001   0.0001   0.0000   0.0000
     0.0000   0.0000   0.0000   0.0000   0.0000   0.0000   0.0000   0.0000
     0.0000   0.0000   0.0000   0.0000   0.0000   0.0000   0.0000   0.0000
     0.0000   0.0000

     the Fermi energy is     3.1783 ev

!    total energy              =   -4440.28959399 Ry
     estimated scf accuracy    <          6.9E-09 Ry
     smearing contrib. (-TS)   =      -1.20571296 Ry
     internal energy E=F+TS    =   -4439.08388103 Ry

     The total energy is F=E-TS. E is the sum of the following terms:
     one-electron contribution =  -20890.09349582 Ry
     hartree contribution      =   10574.47652576 Ry
     xc contribution           =    -693.24311899 Ry
     ewald contribution        =    6845.96852251 Ry
     one-center paw contrib.   =    -276.19231450 Ry
      -> PAW hartree energy AE =      25.17477571 Ry
      -> PAW hartree energy PS =     -25.05854959 Ry
      -> PAW xc energy AE      =     -16.51918421 Ry
      -> PAW xc energy PS      =       6.87872729 Ry
      -> total E_H with PAW    =   10574.59275188 Ry
      -> total E_XC with PAW   =    -702.88357591 Ry

     convergence has been achieved in  52 iterations

     Writing all to output data dir /bsuhome/zayahcortright/scratch/pwscf.save/
 
     init_run     :      7.98s CPU      8.75s WALL (       1 calls)
     electrons    :    735.45s CPU    771.36s WALL (       1 calls)

     Called by init_run:
     wfcinit      :      6.32s CPU      6.62s WALL (       1 calls)
     wfcinit:atom :      0.05s CPU      0.07s WALL (       5 calls)
     wfcinit:wfcr :      6.00s CPU      6.22s WALL (       5 calls)
     potinit      :      0.16s CPU      0.25s WALL (       1 calls)
     hinit0       :      0.60s CPU      0.72s WALL (       1 calls)

     Called by electrons:
     c_bands      :    583.76s CPU    591.11s WALL (      52 calls)
     sum_band     :    113.53s CPU    129.26s WALL (      52 calls)
     v_of_rho     :      5.63s CPU      6.03s WALL (      53 calls)
     v_h          :      0.48s CPU      0.49s WALL (      53 calls)
     v_xc         :      5.14s CPU      5.54s WALL (      53 calls)
     newd         :     17.17s CPU     29.23s WALL (      53 calls)
     PAW_pot      :      1.69s CPU      1.72s WALL (      53 calls)
     mix_rho      :     13.34s CPU     13.73s WALL (      52 calls)

     Called by c_bands:
     init_us_2    :      7.49s CPU      7.56s WALL (     525 calls)
     init_us_2:cp :      7.49s CPU      7.56s WALL (     525 calls)
     cegterg      :    549.37s CPU    556.39s WALL (     260 calls)

     Called by sum_band:
     sum_band:wei :      0.38s CPU      0.38s WALL (      52 calls)
     sum_band:loo :     94.79s CPU     95.56s WALL (      52 calls)
     sum_band:buf :      1.51s CPU      1.57s WALL (     260 calls)
     sum_band:ini :      3.54s CPU      3.55s WALL (     260 calls)
     sum_band:cal :     20.37s CPU     20.44s WALL (     260 calls)
     sum_band:bec :      0.56s CPU      0.57s WALL (     260 calls)
     addusdens    :     16.65s CPU     31.53s WALL (      52 calls)
                                        0.00s GPU  (      52 calls)
     addusd:skk   :      0.33s CPU      1.01s WALL (     156 calls)
                                        0.00s GPU  (     156 calls)

     Called by *egterg:
     cdiaghg      :     54.11s CPU     54.40s WALL (    1238 calls)
     cegterg:over :     39.23s CPU     39.39s WALL (     978 calls)
     cegterg:upda :     28.83s CPU     29.37s WALL (     978 calls)
     cegterg:last :     64.43s CPU     64.69s WALL (     482 calls)
     cdiaghg:chol :      3.14s CPU      3.19s WALL (    1238 calls)
     cdiaghg:inve :      3.05s CPU      3.07s WALL (    1238 calls)
     cdiaghg:para :      6.88s CPU      6.92s WALL (    2476 calls)
     h_psi        :    304.61s CPU    308.11s WALL (    1243 calls)
     s_psi        :     41.47s CPU     41.59s WALL (    1243 calls)
     g_psi        :      1.15s CPU      1.16s WALL (     978 calls)

     Called by h_psi:
     h_psi:calbec :     46.08s CPU     46.35s WALL (    1243 calls)
     vloc_psi     :    214.23s CPU    216.48s WALL (    1243 calls)
     add_vuspsi   :     41.28s CPU     41.50s WALL (    1243 calls)

     General routines
     calbec       :     66.44s CPU     66.78s WALL (    1503 calls)
     fft          :      4.00s CPU      4.06s WALL (     687 calls)
     ffts         :      4.86s CPU      4.97s WALL (    5606 calls)
     fftw         :    181.53s CPU    183.14s WALL (  348362 calls)
     interpolate  :      0.44s CPU      0.51s WALL (      53 calls)
 
     Parallel routines

     PAW routines
     PAW_pot      :      1.69s CPU      1.72s WALL (      53 calls)
 
     PWSCF        :  12m24.86s CPU  13m 4.70s WALL

 
   This run was terminated on:  14:29:12  21Jun2024            

=------------------------------------------------------------------------------=
   JOB DONE.
=------------------------------------------------------------------------------=
