
     Program PWSCF v.7.2 starts on 22Jun2024 at  0:29:29 

     This program is part of the open-source Quantum ESPRESSO suite
     for quantum simulation of materials; please cite
         "P. Giannozzi et al., J. Phys.:Condens. Matter 21 395502 (2009);
         "P. Giannozzi et al., J. Phys.:Condens. Matter 29 465901 (2017);
         "P. Giannozzi et al., J. Chem. Phys. 152 154105 (2020);
          URL http://www.quantum-espresso.org", 
     in publications or presentations arising from this work. More details at
     http://www.quantum-espresso.org/quote

     Parallel version (MPI & OpenMP), running on      48 processor cores
     Number of MPI processes:                48
     Threads/MPI process:                     1

     MPI processes distributed on     1 nodes
     180140 MiB available memory on the printing compute node when the environment starts
 
     Reading input from espresso.pwi
Warning: card &CELL ignored
Warning: card / ignored
Warning: card &FCP ignored
Warning: card / ignored
Warning: card &RISM ignored
Warning: card / ignored

     Current dimensions of program PWSCF are:
     Max number of different atomic species (ntypx) = 10
     Max number of k-points (npk) =  40000
     Max angular momentum in pseudopotentials (lmaxx) =  4
     file O.pbe-n-kjpaw_psl.0.1.UPF: wavefunction(s)  2P renormalized
     signal trapping enabled: kill the code with -SIGUSR1 to stop cleanly the simulation 
 
     K-points division:     npool     =       2
     R & G space division:  proc/nbgrp/npool/nimage =      24
     Subspace diagonalization in iterative solution of the eigenvalue problem:
     one sub-group per band group will be used
     scalapack distributed-memory algorithm (size of sub-group:  3*  3 procs)

 
     Parallelization info
     --------------------
     sticks:   dense  smooth     PW     G-vecs:    dense   smooth      PW
     Min         350     175     47                61430    21716    3036
     Max         351     177     48                61449    21727    3041
     Sum        8421    4205   1137              1474595   521381   72913
 
     Using Slab Decomposition
 


     bravais-lattice index     =            0
     lattice parameter (alat)  =      14.8599  a.u.
     unit-cell volume          =    8305.1283 (a.u.)^3
     number of atoms/cell      =           49
     number of atomic types    =            4
     number of electrons       =       425.00
     number of Kohn-Sham states=          256
     kinetic-energy cutoff     =      60.0000  Ry
     charge density cutoff     =     480.0000  Ry
     scf convergence threshold =      1.0E-08
     mixing beta               =       0.1500
     number of iterations used =            8  local-TF  mixing
     Exchange-correlation= PBE
                           (   1   4   3   4   0   0   0)

     celldm(1)=  14.859904  celldm(2)=   0.000000  celldm(3)=   0.000000
     celldm(4)=   0.000000  celldm(5)=   0.000000  celldm(6)=   0.000000

     crystal axes: (cart. coord. in units of alat)
               a(1) = (   1.000000   0.000000   0.000000 )  
               a(2) = (   0.000000   1.000000   0.000000 )  
               a(3) = (   0.000000   0.000000   2.531036 )  

     reciprocal axes: (cart. coord. in units 2 pi/alat)
               b(1) = (  1.000000  0.000000  0.000000 )  
               b(2) = (  0.000000  1.000000  0.000000 )  
               b(3) = (  0.000000  0.000000  0.395095 )  


     PseudoPot. # 1 for Sr read from file:
     /bsuhome/zayahcortright/q-e/pseudo/Sr_pbe_v1.uspp.F.UPF
     MD5 check sum: 6b418c05fbe9db5448babca5e47b7a5b
     Pseudo is Ultrasoft + core correction, Zval = 10.0
     Generated by new atomic code, or converted to UPF format
     Using radial grid of  883 points,  6 beta functions with: 
                l(1) =   0
                l(2) =   0
                l(3) =   1
                l(4) =   1
                l(5) =   2
                l(6) =   2
     Q(r) pseudized with  6 coefficients,  rinner =    1.400   1.400   1.400
                                                       1.400   1.400

     PseudoPot. # 2 for O  read from file:
     /bsuhome/zayahcortright/q-e/pseudo/O.pbe-n-kjpaw_psl.0.1.UPF
     MD5 check sum: 0234752ac141de4415c5fc33072bef88
     Pseudo is Projector augmented-wave + core cor, Zval =  6.0
     Generated using "atomic" code by A. Dal Corso  v.5.0.99 svn rev. 10869
     Shape of augmentation charge: BESSEL
     Using radial grid of 1095 points,  4 beta functions with: 
                l(1) =   0
                l(2) =   0
                l(3) =   1
                l(4) =   1
     Q(r) pseudized with 0 coefficients 


     PseudoPot. # 3 for Co read from file:
     /bsuhome/zayahcortright/q-e/pseudo/Co_pbe_v1.2.uspp.F.UPF
     MD5 check sum: 5f91765df6ddd3222702df6e7b74a16d
     Pseudo is Ultrasoft + core correction, Zval = 17.0
     Generated by new atomic code, or converted to UPF format
     Using radial grid of  863 points,  6 beta functions with: 
                l(1) =   0
                l(2) =   0
                l(3) =   1
                l(4) =   1
                l(5) =   2
                l(6) =   2
     Q(r) pseudized with  8 coefficients,  rinner =    1.200   1.200   1.200
                                                       1.200   1.200

     PseudoPot. # 4 for H  read from file:
     /bsuhome/zayahcortright/q-e/pseudo/H.pbe-rrkjus_psl.1.0.0.UPF
     MD5 check sum: f52b6d4d1c606e5624b1dc7b2218f220
     Pseudo is Ultrasoft, Zval =  1.0
     Generated using "atomic" code by A. Dal Corso  v.5.1
     Using radial grid of  929 points,  2 beta functions with: 
                l(1) =   0
                l(2) =   0
     Q(r) pseudized with 0 coefficients 


     atomic species   valence    mass     pseudopotential
        Sr            10.00    87.62000     Sr( 1.00)
        O              6.00    15.99900     O ( 1.00)
        Co            17.00    58.93319     Co( 1.00)
        H              1.00     1.00800     H ( 1.00)

     No symmetry found


                                    s                        frac. trans.

      isym =  1     identity                                     

 cryst.   s( 1) = (     1          0          0      )
                  (     0          1          0      )
                  (     0          0          1      )

 cart.    s( 1) = (  1.0000000  0.0000000  0.0000000 )
                  (  0.0000000  1.0000000  0.0000000 )
                  (  0.0000000  0.0000000  1.0000000 )


   Cartesian axes

     site n.     atom                  positions (alat units)
         1           Sr  tau(   1) = (   0.2508693   0.7491307   1.7574407  )
         2           O   tau(   2) = (   0.4985141   0.5014859   1.7715967  )
         3           Sr  tau(   3) = (   0.7482398   0.7454518   1.7648669  )
         4           Sr  tau(   4) = (   0.7441748   0.2558252   1.7667843  )
         5           Sr  tau(   5) = (   0.2508693   0.7491307   1.2696799  )
         6           Sr  tau(   6) = (   0.2508693   0.7491307   0.7632319  )
         7           Co  tau(   7) = (   0.4998914   0.5001086   1.0164559  )
         8           Co  tau(   8) = (   0.4936915   0.5063085   1.5135603  )
         9           O   tau(   9) = (   0.4988895   0.7610401   1.0164559  )
        10           O   tau(  10) = (   0.2389599   0.5011105   1.0164559  )
        11           O   tau(  11) = (   0.0070918   0.7374880   1.0164559  )
        12           O   tau(  12) = (   0.0088340   0.7405089   1.5135603  )
        13           O   tau(  13) = (   0.5066944   0.7415376   1.5135603  )
        14           O   tau(  14) = (   0.2584624   0.4933056   1.5135603  )
        15           O   tau(  15) = (   0.4985141   0.5014859   0.7773880  )
        16           O   tau(  16) = (   0.4985141   0.5014859   1.2555238  )
        17           Sr  tau(  17) = (   0.7482398   0.7454518   0.7706582  )
        18           Sr  tau(  18) = (   0.7482398   0.7454518   1.2622536  )
        19           Sr  tau(  19) = (   0.7441748   0.2558252   0.7725755  )
        20           Sr  tau(  20) = (   0.7441748   0.2558252   1.2603363  )
        21           O   tau(  21) = (   0.7322655   0.0078049   1.5135603  )
        22           O   tau(  22) = (   0.7558175   0.4996027   1.5135603  )
        23           O   tau(  23) = (   0.5003973   0.2441825   1.5135603  )
        24           O   tau(  24) = (   0.7527966   0.4978604   1.0164559  )
        25           O   tau(  25) = (   0.5021396   0.2472034   1.0164559  )
        26           O   tau(  26) = (   0.7517679   0.0000000   1.0164559  )
        27           O   tau(  27) = (   0.0114961   0.4948124   1.7455321  )
        28           O   tau(  28) = (   0.0048226   0.0077944   1.7715967  )
        29           Sr  tau(  29) = (   0.2545482   0.2517602   1.7648669  )
        30           O   tau(  30) = (   0.5048017   0.0015068   1.7786929  )
        31           Co  tau(  31) = (   0.0056869   0.5006215   1.0164559  )
        32           Co  tau(  32) = (   0.0065315   0.4997770   1.5135603  )
        33           Co  tau(  33) = (   0.0061999   0.0064171   1.0164559  )
        34           Co  tau(  34) = (   0.0000000   0.0126169   1.5135603  )
        35           O   tau(  35) = (   0.0114961   0.4948124   1.2815885  )
        36           O   tau(  36) = (   0.0114961   0.4948124   0.7513233  )
        37           O   tau(  37) = (   0.0051979   0.2673486   1.0164559  )
        38           O   tau(  38) = (   0.0130029   0.2478461   1.5135603  )
        39           O   tau(  39) = (   0.0048226   0.0077944   0.7773880  )
        40           O   tau(  40) = (   0.0048226   0.0077944   1.2555238  )
        41           Sr  tau(  41) = (   0.2545482   0.2517602   0.7706582  )
        42           Sr  tau(  42) = (   0.2545482   0.2517602   1.2622536  )
        43           Co  tau(  43) = (   0.4989925   0.0073160   1.5135603  )
        44           Co  tau(  44) = (   0.4998370   0.0064714   1.0164559  )
        45           O   tau(  45) = (   0.5048017   0.0015068   0.7844841  )
        46           O   tau(  46) = (   0.5048017   0.0015068   1.2484277  )
        47           O   tau(  47) = (   0.2621260   0.0059111   1.5135603  )
        48           O   tau(  48) = (   0.2591051   0.0041689   1.0164559  )
        49           H   tau(  49) = (   0.9951520   0.8529874   2.1602013  )

   Crystallographic axes

     site n.     atom                  positions (cryst. coord.)
         1           Sr  tau(   1) = (  0.2508693  0.7491307  0.6943562  )
         2           O   tau(   2) = (  0.4985141  0.5014859  0.6999492  )
         3           Sr  tau(   3) = (  0.7482398  0.7454518  0.6972903  )
         4           Sr  tau(   4) = (  0.7441748  0.2558252  0.6980478  )
         5           Sr  tau(   5) = (  0.2508693  0.7491307  0.5016443  )
         6           Sr  tau(   6) = (  0.2508693  0.7491307  0.3015492  )
         7           Co  tau(   7) = (  0.4998914  0.5001086  0.4015968  )
         8           Co  tau(   8) = (  0.4936915  0.5063085  0.5980003  )
         9           O   tau(   9) = (  0.4988895  0.7610401  0.4015968  )
        10           O   tau(  10) = (  0.2389599  0.5011105  0.4015968  )
        11           O   tau(  11) = (  0.0070918  0.7374880  0.4015968  )
        12           O   tau(  12) = (  0.0088340  0.7405089  0.5980003  )
        13           O   tau(  13) = (  0.5066944  0.7415376  0.5980003  )
        14           O   tau(  14) = (  0.2584624  0.4933056  0.5980003  )
        15           O   tau(  15) = (  0.4985141  0.5014859  0.3071422  )
        16           O   tau(  16) = (  0.4985141  0.5014859  0.4960513  )
        17           Sr  tau(  17) = (  0.7482398  0.7454518  0.3044833  )
        18           Sr  tau(  18) = (  0.7482398  0.7454518  0.4987103  )
        19           Sr  tau(  19) = (  0.7441748  0.2558252  0.3052408  )
        20           Sr  tau(  20) = (  0.7441748  0.2558252  0.4979527  )
        21           O   tau(  21) = (  0.7322655  0.0078049  0.5980003  )
        22           O   tau(  22) = (  0.7558175  0.4996027  0.5980003  )
        23           O   tau(  23) = (  0.5003973  0.2441825  0.5980003  )
        24           O   tau(  24) = (  0.7527966  0.4978604  0.4015968  )
        25           O   tau(  25) = (  0.5021396  0.2472034  0.4015968  )
        26           O   tau(  26) = (  0.7517679  0.0000000  0.4015968  )
        27           O   tau(  27) = (  0.0114961  0.4948124  0.6896512  )
        28           O   tau(  28) = (  0.0048226  0.0077944  0.6999492  )
        29           Sr  tau(  29) = (  0.2545482  0.2517602  0.6972903  )
        30           O   tau(  30) = (  0.5048017  0.0015068  0.7027529  )
        31           Co  tau(  31) = (  0.0056869  0.5006215  0.4015968  )
        32           Co  tau(  32) = (  0.0065315  0.4997770  0.5980003  )
        33           Co  tau(  33) = (  0.0061999  0.0064171  0.4015968  )
        34           Co  tau(  34) = (  0.0000000  0.0126169  0.5980003  )
        35           O   tau(  35) = (  0.0114961  0.4948124  0.5063494  )
        36           O   tau(  36) = (  0.0114961  0.4948124  0.2968442  )
        37           O   tau(  37) = (  0.0051979  0.2673486  0.4015968  )
        38           O   tau(  38) = (  0.0130029  0.2478461  0.5980003  )
        39           O   tau(  39) = (  0.0048226  0.0077944  0.3071422  )
        40           O   tau(  40) = (  0.0048226  0.0077944  0.4960513  )
        41           Sr  tau(  41) = (  0.2545482  0.2517602  0.3044833  )
        42           Sr  tau(  42) = (  0.2545482  0.2517602  0.4987103  )
        43           Co  tau(  43) = (  0.4989925  0.0073160  0.5980003  )
        44           Co  tau(  44) = (  0.4998370  0.0064714  0.4015968  )
        45           O   tau(  45) = (  0.5048017  0.0015068  0.3099459  )
        46           O   tau(  46) = (  0.5048017  0.0015068  0.4932477  )
        47           O   tau(  47) = (  0.2621260  0.0059111  0.5980003  )
        48           O   tau(  48) = (  0.2591051  0.0041689  0.4015968  )
        49           H   tau(  49) = (  0.9951520  0.8529874  0.8534850  )

     number of k points=    10  Gaussian smearing, width (Ry)=  0.0700
                       cart. coord. in units 2pi/alat
        k(    1) = (   0.0000000   0.0000000   0.0000000), wk =   0.1250000
        k(    2) = (   0.0000000   0.2500000   0.0000000), wk =   0.2500000
        k(    3) = (   0.0000000  -0.5000000   0.0000000), wk =   0.1250000
        k(    4) = (   0.2500000   0.2500000   0.0000000), wk =   0.2500000
        k(    5) = (   0.2500000  -0.5000000   0.0000000), wk =   0.2500000
        k(    6) = (  -0.5000000  -0.5000000   0.0000000), wk =   0.1250000
        k(    7) = (   0.2500000   0.0000000   0.0000000), wk =   0.2500000
        k(    8) = (  -0.5000000   0.0000000   0.0000000), wk =   0.1250000
        k(    9) = (  -0.2500000   0.2500000   0.0000000), wk =   0.2500000
        k(   10) = (  -0.5000000   0.2500000   0.0000000), wk =   0.2500000

                       cryst. coord.
        k(    1) = (   0.0000000   0.0000000   0.0000000), wk =   0.1250000
        k(    2) = (   0.0000000   0.2500000   0.0000000), wk =   0.2500000
        k(    3) = (   0.0000000  -0.5000000   0.0000000), wk =   0.1250000
        k(    4) = (   0.2500000   0.2500000   0.0000000), wk =   0.2500000
        k(    5) = (   0.2500000  -0.5000000   0.0000000), wk =   0.2500000
        k(    6) = (  -0.5000000  -0.5000000   0.0000000), wk =   0.1250000
        k(    7) = (   0.2500000   0.0000000   0.0000000), wk =   0.2500000
        k(    8) = (  -0.5000000   0.0000000   0.0000000), wk =   0.1250000
        k(    9) = (  -0.2500000   0.2500000   0.0000000), wk =   0.2500000
        k(   10) = (  -0.5000000   0.2500000   0.0000000), wk =   0.2500000

     Dense  grid:  1474595 G-vectors     FFT dimensions: ( 108, 108, 270)

     Smooth grid:   521381 G-vectors     FFT dimensions: (  75,  75, 192)

     Dynamical RAM for                 wfc:      10.61 MB

     Dynamical RAM for     wfc (w. buffer):      63.63 MB

     Dynamical RAM for           str. fact:       3.75 MB

     Dynamical RAM for           local pot:       0.00 MB

     Dynamical RAM for          nlocal pot:      24.28 MB

     Dynamical RAM for                qrad:       7.03 MB

     Dynamical RAM for          rho,v,vnew:       6.02 MB

     Dynamical RAM for               rhoin:       2.01 MB

     Dynamical RAM for            rho*nmix:      15.00 MB

     Dynamical RAM for           G-vectors:       3.68 MB

     Dynamical RAM for          h,s,v(r/c):       1.32 MB

     Dynamical RAM for          <psi|beta>:       2.29 MB

     Dynamical RAM for                 psi:      21.21 MB

     Dynamical RAM for                hpsi:      21.21 MB

     Dynamical RAM for                spsi:      21.21 MB

     Dynamical RAM for      wfcinit/wfcrot:      34.09 MB

     Dynamical RAM for           addusdens:     100.79 MB

     Estimated static dynamical RAM per process >     120.42 MB

     Estimated max dynamical RAM per process >     236.21 MB

     Estimated total dynamical RAM >      10.72 GB

     Check: negative core charge=   -0.000004

     Initial potential from superposition of free atoms

     starting charge     416.5961, renormalised to     425.0000

     negative rho (up, down):  7.826E-01 0.000E+00
     Starting wfcs are  373 randomized atomic wfcs
     Checking if some PAW data can be deallocated... 
       PAW data deallocated on   20 nodes for type:  2

     total cpu time spent up to now is        8.3 secs

     Self-consistent Calculation

     iteration #  1     ecut=    60.00 Ry     beta= 0.15
     Davidson diagonalization with overlap

---- Real-time Memory Report at c_bands before calling an iterative solver
             0 MiB given to the printing process from OS
             0 MiB allocation reported by mallinfo(arena+hblkhd)
        170469 MiB available memory on the node where the printing process lives
------------------
     ethr =  1.00E-02,  avg # of iterations =  2.0

     negative rho (up, down):  7.717E-01 0.000E+00

     total cpu time spent up to now is       23.1 secs

     total energy              =   -4404.74753568 Ry
     estimated scf accuracy    <      42.18413603 Ry

     iteration #  2     ecut=    60.00 Ry     beta= 0.15
     Davidson diagonalization with overlap

---- Real-time Memory Report at c_bands before calling an iterative solver
             0 MiB given to the printing process from OS
             0 MiB allocation reported by mallinfo(arena+hblkhd)
        170723 MiB available memory on the node where the printing process lives
------------------
     ethr =  9.93E-03,  avg # of iterations =  1.0

     negative rho (up, down):  7.531E-01 0.000E+00

     total cpu time spent up to now is       35.4 secs

     total energy              =   -4400.02856741 Ry
     estimated scf accuracy    <      26.59612532 Ry

     iteration #  3     ecut=    60.00 Ry     beta= 0.15
     Davidson diagonalization with overlap

---- Real-time Memory Report at c_bands before calling an iterative solver
             0 MiB given to the printing process from OS
             0 MiB allocation reported by mallinfo(arena+hblkhd)
        169968 MiB available memory on the node where the printing process lives
------------------
     ethr =  6.26E-03,  avg # of iterations =  2.0

     negative rho (up, down):  7.544E-01 0.000E+00

     total cpu time spent up to now is       49.0 secs

     total energy              =   -4402.39372914 Ry
     estimated scf accuracy    <      49.37590246 Ry

     iteration #  4     ecut=    60.00 Ry     beta= 0.15
     Davidson diagonalization with overlap

---- Real-time Memory Report at c_bands before calling an iterative solver
             0 MiB given to the printing process from OS
             0 MiB allocation reported by mallinfo(arena+hblkhd)
        169839 MiB available memory on the node where the printing process lives
------------------
     ethr =  6.26E-03,  avg # of iterations =  1.0

     negative rho (up, down):  7.410E-01 0.000E+00

     total cpu time spent up to now is       61.4 secs

     total energy              =   -4401.66205541 Ry
     estimated scf accuracy    <      29.57212081 Ry

     iteration #  5     ecut=    60.00 Ry     beta= 0.15
     Davidson diagonalization with overlap

---- Real-time Memory Report at c_bands before calling an iterative solver
             0 MiB given to the printing process from OS
             0 MiB allocation reported by mallinfo(arena+hblkhd)
        169821 MiB available memory on the node where the printing process lives
------------------
     ethr =  6.26E-03,  avg # of iterations =  1.0

     negative rho (up, down):  7.469E-01 0.000E+00

     total cpu time spent up to now is       73.9 secs

     total energy              =   -4399.89139509 Ry
     estimated scf accuracy    <      44.26247484 Ry

     iteration #  6     ecut=    60.00 Ry     beta= 0.15
     Davidson diagonalization with overlap

---- Real-time Memory Report at c_bands before calling an iterative solver
             0 MiB given to the printing process from OS
             0 MiB allocation reported by mallinfo(arena+hblkhd)
        169803 MiB available memory on the node where the printing process lives
------------------
     ethr =  6.26E-03,  avg # of iterations =  1.0

     negative rho (up, down):  7.422E-01 0.000E+00

     total cpu time spent up to now is       86.3 secs

     total energy              =   -4400.66741456 Ry
     estimated scf accuracy    <      11.69167907 Ry

     iteration #  7     ecut=    60.00 Ry     beta= 0.15
     Davidson diagonalization with overlap

---- Real-time Memory Report at c_bands before calling an iterative solver
             0 MiB given to the printing process from OS
             0 MiB allocation reported by mallinfo(arena+hblkhd)
        169782 MiB available memory on the node where the printing process lives
------------------
     ethr =  2.75E-03,  avg # of iterations =  1.1

     negative rho (up, down):  7.443E-01 0.000E+00

     total cpu time spent up to now is       98.5 secs

     total energy              =   -4400.80223099 Ry
     estimated scf accuracy    <       4.09287385 Ry

     iteration #  8     ecut=    60.00 Ry     beta= 0.15
     Davidson diagonalization with overlap

---- Real-time Memory Report at c_bands before calling an iterative solver
             0 MiB given to the printing process from OS
             0 MiB allocation reported by mallinfo(arena+hblkhd)
        169764 MiB available memory on the node where the printing process lives
------------------
     ethr =  9.63E-04,  avg # of iterations =  2.0

     negative rho (up, down):  7.535E-01 0.000E+00

     total cpu time spent up to now is      111.3 secs

     total energy              =   -4400.33525112 Ry
     estimated scf accuracy    <       3.59995686 Ry

     iteration #  9     ecut=    60.00 Ry     beta= 0.15
     Davidson diagonalization with overlap

---- Real-time Memory Report at c_bands before calling an iterative solver
             0 MiB given to the printing process from OS
             0 MiB allocation reported by mallinfo(arena+hblkhd)
        169736 MiB available memory on the node where the printing process lives
------------------
     ethr =  8.47E-04,  avg # of iterations =  3.2

     negative rho (up, down):  7.764E-01 0.000E+00

     total cpu time spent up to now is      125.7 secs

     total energy              =   -4399.78932116 Ry
     estimated scf accuracy    <      43.83306985 Ry

     iteration # 10     ecut=    60.00 Ry     beta= 0.15
     Davidson diagonalization with overlap

---- Real-time Memory Report at c_bands before calling an iterative solver
             0 MiB given to the printing process from OS
             0 MiB allocation reported by mallinfo(arena+hblkhd)
        169647 MiB available memory on the node where the printing process lives
------------------
     ethr =  8.47E-04,  avg # of iterations =  9.4

     negative rho (up, down):  7.786E-01 0.000E+00

     total cpu time spent up to now is      143.7 secs

     total energy              =   -4399.78859650 Ry
     estimated scf accuracy    <      11.34704842 Ry

     iteration # 11     ecut=    60.00 Ry     beta= 0.15
     Davidson diagonalization with overlap

---- Real-time Memory Report at c_bands before calling an iterative solver
             0 MiB given to the printing process from OS
             0 MiB allocation reported by mallinfo(arena+hblkhd)
        169271 MiB available memory on the node where the printing process lives
------------------
     ethr =  8.47E-04,  avg # of iterations =  1.1

     negative rho (up, down):  7.815E-01 0.000E+00

     total cpu time spent up to now is      155.9 secs

     total energy              =   -4400.12139412 Ry
     estimated scf accuracy    <       1.08064534 Ry

     iteration # 12     ecut=    60.00 Ry     beta= 0.15
     Davidson diagonalization with overlap

---- Real-time Memory Report at c_bands before calling an iterative solver
             0 MiB given to the printing process from OS
             0 MiB allocation reported by mallinfo(arena+hblkhd)
        169274 MiB available memory on the node where the printing process lives
------------------
     ethr =  2.54E-04,  avg # of iterations =  3.4

     negative rho (up, down):  7.896E-01 0.000E+00

     total cpu time spent up to now is      169.7 secs

     total energy              =   -4400.10046619 Ry
     estimated scf accuracy    <       0.97362967 Ry

     iteration # 13     ecut=    60.00 Ry     beta= 0.15
     Davidson diagonalization with overlap

---- Real-time Memory Report at c_bands before calling an iterative solver
             0 MiB given to the printing process from OS
             0 MiB allocation reported by mallinfo(arena+hblkhd)
        169282 MiB available memory on the node where the printing process lives
------------------
     ethr =  2.29E-04,  avg # of iterations =  1.2

     negative rho (up, down):  8.009E-01 0.000E+00

     total cpu time spent up to now is      182.1 secs

     total energy              =   -4400.09623206 Ry
     estimated scf accuracy    <       1.85799374 Ry

     iteration # 14     ecut=    60.00 Ry     beta= 0.15
     Davidson diagonalization with overlap

---- Real-time Memory Report at c_bands before calling an iterative solver
             0 MiB given to the printing process from OS
             0 MiB allocation reported by mallinfo(arena+hblkhd)
        169281 MiB available memory on the node where the printing process lives
------------------
     ethr =  2.29E-04,  avg # of iterations =  5.5

     negative rho (up, down):  8.028E-01 0.000E+00

     total cpu time spent up to now is      197.2 secs

     total energy              =   -4400.00471608 Ry
     estimated scf accuracy    <       2.11691090 Ry

     iteration # 15     ecut=    60.00 Ry     beta= 0.15
     Davidson diagonalization with overlap

---- Real-time Memory Report at c_bands before calling an iterative solver
             0 MiB given to the printing process from OS
             0 MiB allocation reported by mallinfo(arena+hblkhd)
        169264 MiB available memory on the node where the printing process lives
------------------
     ethr =  2.29E-04,  avg # of iterations =  5.4

     negative rho (up, down):  8.074E-01 0.000E+00

     total cpu time spent up to now is      211.6 secs

     total energy              =   -4400.04090762 Ry
     estimated scf accuracy    <       0.37055153 Ry

     iteration # 16     ecut=    60.00 Ry     beta= 0.15
     Davidson diagonalization with overlap

---- Real-time Memory Report at c_bands before calling an iterative solver
             0 MiB given to the printing process from OS
             0 MiB allocation reported by mallinfo(arena+hblkhd)
        169263 MiB available memory on the node where the printing process lives
------------------
     ethr =  8.72E-05,  avg # of iterations = 10.8

     negative rho (up, down):  8.128E-01 0.000E+00

     total cpu time spent up to now is      228.7 secs

     total energy              =   -4400.01292635 Ry
     estimated scf accuracy    <       0.30308595 Ry

     iteration # 17     ecut=    60.00 Ry     beta= 0.15
     Davidson diagonalization with overlap

---- Real-time Memory Report at c_bands before calling an iterative solver
             0 MiB given to the printing process from OS
             0 MiB allocation reported by mallinfo(arena+hblkhd)
        169246 MiB available memory on the node where the printing process lives
------------------
     c_bands:  1 eigenvalues not converged
     ethr =  7.13E-05,  avg # of iterations =  8.0

     negative rho (up, down):  8.176E-01 0.000E+00

     total cpu time spent up to now is      244.8 secs

     total energy              =   -4399.94701758 Ry
     estimated scf accuracy    <       0.27927767 Ry

     iteration # 18     ecut=    60.00 Ry     beta= 0.15
     Davidson diagonalization with overlap

---- Real-time Memory Report at c_bands before calling an iterative solver
             0 MiB given to the printing process from OS
             0 MiB allocation reported by mallinfo(arena+hblkhd)
        169307 MiB available memory on the node where the printing process lives
------------------
     c_bands:  2 eigenvalues not converged
     c_bands:  1 eigenvalues not converged
     ethr =  6.57E-05,  avg # of iterations = 12.8

     negative rho (up, down):  8.239E-01 0.000E+00

     total cpu time spent up to now is      263.9 secs

     total energy              =   -4399.94003656 Ry
     estimated scf accuracy    <       0.13422194 Ry

     iteration # 19     ecut=    60.00 Ry     beta= 0.15
     Davidson diagonalization with overlap

---- Real-time Memory Report at c_bands before calling an iterative solver
             0 MiB given to the printing process from OS
             0 MiB allocation reported by mallinfo(arena+hblkhd)
        169226 MiB available memory on the node where the printing process lives
------------------
     ethr =  3.16E-05,  avg # of iterations =  8.5

     negative rho (up, down):  8.242E-01 0.000E+00

     total cpu time spent up to now is      280.9 secs

     total energy              =   -4399.94021323 Ry
     estimated scf accuracy    <       0.10130922 Ry

     iteration # 20     ecut=    60.00 Ry     beta= 0.15
     Davidson diagonalization with overlap

---- Real-time Memory Report at c_bands before calling an iterative solver
             0 MiB given to the printing process from OS
             0 MiB allocation reported by mallinfo(arena+hblkhd)
        169227 MiB available memory on the node where the printing process lives
------------------
     ethr =  2.38E-05,  avg # of iterations =  2.5

     negative rho (up, down):  8.112E-01 0.000E+00

     total cpu time spent up to now is      294.8 secs

     total energy              =   -4399.92614532 Ry
     estimated scf accuracy    <       0.09362382 Ry

     iteration # 21     ecut=    60.00 Ry     beta= 0.15
     Davidson diagonalization with overlap

---- Real-time Memory Report at c_bands before calling an iterative solver
             0 MiB given to the printing process from OS
             0 MiB allocation reported by mallinfo(arena+hblkhd)
        169231 MiB available memory on the node where the printing process lives
------------------
     ethr =  2.20E-05,  avg # of iterations =  7.0

     negative rho (up, down):  8.105E-01 0.000E+00

     total cpu time spent up to now is      310.6 secs

     total energy              =   -4399.92239084 Ry
     estimated scf accuracy    <       0.05216278 Ry

     iteration # 22     ecut=    60.00 Ry     beta= 0.15
     Davidson diagonalization with overlap

---- Real-time Memory Report at c_bands before calling an iterative solver
             0 MiB given to the printing process from OS
             0 MiB allocation reported by mallinfo(arena+hblkhd)
        169231 MiB available memory on the node where the printing process lives
------------------
     ethr =  1.23E-05,  avg # of iterations = 11.6

     negative rho (up, down):  8.091E-01 0.000E+00

     total cpu time spent up to now is      328.9 secs

     total energy              =   -4399.92173720 Ry
     estimated scf accuracy    <       0.03465041 Ry

     iteration # 23     ecut=    60.00 Ry     beta= 0.15
     Davidson diagonalization with overlap

---- Real-time Memory Report at c_bands before calling an iterative solver
             0 MiB given to the printing process from OS
             0 MiB allocation reported by mallinfo(arena+hblkhd)
        169140 MiB available memory on the node where the printing process lives
------------------
     ethr =  8.15E-06,  avg # of iterations =  1.7

     negative rho (up, down):  7.930E-01 0.000E+00

     total cpu time spent up to now is      341.9 secs

     total energy              =   -4399.91534568 Ry
     estimated scf accuracy    <       0.02909509 Ry

     iteration # 24     ecut=    60.00 Ry     beta= 0.15
     Davidson diagonalization with overlap

---- Real-time Memory Report at c_bands before calling an iterative solver
             0 MiB given to the printing process from OS
             0 MiB allocation reported by mallinfo(arena+hblkhd)
        169167 MiB available memory on the node where the printing process lives
------------------
     ethr =  6.85E-06,  avg # of iterations =  9.9

     negative rho (up, down):  7.946E-01 0.000E+00

     total cpu time spent up to now is      359.6 secs

     total energy              =   -4399.91672376 Ry
     estimated scf accuracy    <       0.01097355 Ry

     iteration # 25     ecut=    60.00 Ry     beta= 0.15
     Davidson diagonalization with overlap

---- Real-time Memory Report at c_bands before calling an iterative solver
             0 MiB given to the printing process from OS
             0 MiB allocation reported by mallinfo(arena+hblkhd)
        169108 MiB available memory on the node where the printing process lives
------------------
     ethr =  2.58E-06,  avg # of iterations =  3.9

     negative rho (up, down):  7.927E-01 0.000E+00

     total cpu time spent up to now is      374.1 secs

     total energy              =   -4399.91668355 Ry
     estimated scf accuracy    <       0.00806773 Ry

     iteration # 26     ecut=    60.00 Ry     beta= 0.15
     Davidson diagonalization with overlap

---- Real-time Memory Report at c_bands before calling an iterative solver
             0 MiB given to the printing process from OS
             0 MiB allocation reported by mallinfo(arena+hblkhd)
        169136 MiB available memory on the node where the printing process lives
------------------
     ethr =  1.90E-06,  avg # of iterations =  3.5

     negative rho (up, down):  7.888E-01 0.000E+00

     total cpu time spent up to now is      388.3 secs

     total energy              =   -4399.91590378 Ry
     estimated scf accuracy    <       0.00649030 Ry

     iteration # 27     ecut=    60.00 Ry     beta= 0.15
     Davidson diagonalization with overlap

---- Real-time Memory Report at c_bands before calling an iterative solver
             0 MiB given to the printing process from OS
             0 MiB allocation reported by mallinfo(arena+hblkhd)
        169196 MiB available memory on the node where the printing process lives
------------------
     ethr =  1.53E-06,  avg # of iterations =  6.7

     negative rho (up, down):  7.923E-01 0.000E+00

     total cpu time spent up to now is      404.3 secs

     total energy              =   -4399.91565007 Ry
     estimated scf accuracy    <       0.00381699 Ry

     iteration # 28     ecut=    60.00 Ry     beta= 0.15
     Davidson diagonalization with overlap

---- Real-time Memory Report at c_bands before calling an iterative solver
             0 MiB given to the printing process from OS
             0 MiB allocation reported by mallinfo(arena+hblkhd)
        169198 MiB available memory on the node where the printing process lives
------------------
     ethr =  8.98E-07,  avg # of iterations =  9.8

     negative rho (up, down):  7.927E-01 0.000E+00

     total cpu time spent up to now is      421.6 secs

     total energy              =   -4399.91566211 Ry
     estimated scf accuracy    <       0.00180093 Ry

     iteration # 29     ecut=    60.00 Ry     beta= 0.15
     Davidson diagonalization with overlap

---- Real-time Memory Report at c_bands before calling an iterative solver
             0 MiB given to the printing process from OS
             0 MiB allocation reported by mallinfo(arena+hblkhd)
        169130 MiB available memory on the node where the printing process lives
------------------
     c_bands:  1 eigenvalues not converged
     c_bands:  1 eigenvalues not converged
     c_bands:  1 eigenvalues not converged
     ethr =  4.24E-07,  avg # of iterations = 12.7

     negative rho (up, down):  7.937E-01 0.000E+00

     total cpu time spent up to now is      440.1 secs

     total energy              =   -4399.91562000 Ry
     estimated scf accuracy    <       0.00076611 Ry

     iteration # 30     ecut=    60.00 Ry     beta= 0.15
     Davidson diagonalization with overlap

---- Real-time Memory Report at c_bands before calling an iterative solver
             0 MiB given to the printing process from OS
             0 MiB allocation reported by mallinfo(arena+hblkhd)
        169051 MiB available memory on the node where the printing process lives
------------------
     c_bands:  1 eigenvalues not converged
     ethr =  1.80E-07,  avg # of iterations =  9.7

     negative rho (up, down):  7.944E-01 0.000E+00

     total cpu time spent up to now is      457.6 secs

     total energy              =   -4399.91566851 Ry
     estimated scf accuracy    <       0.00022452 Ry

     iteration # 31     ecut=    60.00 Ry     beta= 0.15
     Davidson diagonalization with overlap

---- Real-time Memory Report at c_bands before calling an iterative solver
             0 MiB given to the printing process from OS
             0 MiB allocation reported by mallinfo(arena+hblkhd)
        169093 MiB available memory on the node where the printing process lives
------------------
     ethr =  5.28E-08,  avg # of iterations =  5.2

     negative rho (up, down):  7.943E-01 0.000E+00

     total cpu time spent up to now is      472.8 secs

     total energy              =   -4399.91567254 Ry
     estimated scf accuracy    <       0.00012890 Ry

     iteration # 32     ecut=    60.00 Ry     beta= 0.15
     Davidson diagonalization with overlap

---- Real-time Memory Report at c_bands before calling an iterative solver
             0 MiB given to the printing process from OS
             0 MiB allocation reported by mallinfo(arena+hblkhd)
        169101 MiB available memory on the node where the printing process lives
------------------
     ethr =  3.03E-08,  avg # of iterations =  1.3

     negative rho (up, down):  7.939E-01 0.000E+00

     total cpu time spent up to now is      485.4 secs

     total energy              =   -4399.91567442 Ry
     estimated scf accuracy    <       0.00007577 Ry

     iteration # 33     ecut=    60.00 Ry     beta= 0.15
     Davidson diagonalization with overlap

---- Real-time Memory Report at c_bands before calling an iterative solver
             0 MiB given to the printing process from OS
             0 MiB allocation reported by mallinfo(arena+hblkhd)
        169108 MiB available memory on the node where the printing process lives
------------------
     ethr =  1.78E-08,  avg # of iterations =  2.2

     negative rho (up, down):  7.928E-01 0.000E+00

     total cpu time spent up to now is      499.7 secs

     total energy              =   -4399.91568008 Ry
     estimated scf accuracy    <       0.00003023 Ry

     iteration # 34     ecut=    60.00 Ry     beta= 0.15
     Davidson diagonalization with overlap

---- Real-time Memory Report at c_bands before calling an iterative solver
             0 MiB given to the printing process from OS
             0 MiB allocation reported by mallinfo(arena+hblkhd)
        169111 MiB available memory on the node where the printing process lives
------------------
     ethr =  7.11E-09,  avg # of iterations =  3.4

     negative rho (up, down):  7.925E-01 0.000E+00

     total cpu time spent up to now is      514.1 secs

     total energy              =   -4399.91568591 Ry
     estimated scf accuracy    <       0.00001429 Ry

     iteration # 35     ecut=    60.00 Ry     beta= 0.15
     Davidson diagonalization with overlap

---- Real-time Memory Report at c_bands before calling an iterative solver
             0 MiB given to the printing process from OS
             0 MiB allocation reported by mallinfo(arena+hblkhd)
        169117 MiB available memory on the node where the printing process lives
------------------
     ethr =  3.36E-09,  avg # of iterations =  2.8

     negative rho (up, down):  7.924E-01 0.000E+00

     total cpu time spent up to now is      527.9 secs

     total energy              =   -4399.91568880 Ry
     estimated scf accuracy    <       0.00000994 Ry

     iteration # 36     ecut=    60.00 Ry     beta= 0.15
     Davidson diagonalization with overlap

---- Real-time Memory Report at c_bands before calling an iterative solver
             0 MiB given to the printing process from OS
             0 MiB allocation reported by mallinfo(arena+hblkhd)
        169142 MiB available memory on the node where the printing process lives
------------------
     ethr =  2.34E-09,  avg # of iterations =  3.0

     negative rho (up, down):  7.924E-01 0.000E+00

     total cpu time spent up to now is      541.6 secs

     total energy              =   -4399.91569049 Ry
     estimated scf accuracy    <       0.00000595 Ry

     iteration # 37     ecut=    60.00 Ry     beta= 0.15
     Davidson diagonalization with overlap

---- Real-time Memory Report at c_bands before calling an iterative solver
             0 MiB given to the printing process from OS
             0 MiB allocation reported by mallinfo(arena+hblkhd)
        169169 MiB available memory on the node where the printing process lives
------------------
     ethr =  1.40E-09,  avg # of iterations =  2.8

     negative rho (up, down):  7.923E-01 0.000E+00

     total cpu time spent up to now is      555.4 secs

     total energy              =   -4399.91569027 Ry
     estimated scf accuracy    <       0.00000440 Ry

     iteration # 38     ecut=    60.00 Ry     beta= 0.15
     Davidson diagonalization with overlap

---- Real-time Memory Report at c_bands before calling an iterative solver
             0 MiB given to the printing process from OS
             0 MiB allocation reported by mallinfo(arena+hblkhd)
        169169 MiB available memory on the node where the printing process lives
------------------
     ethr =  1.04E-09,  avg # of iterations =  2.8

     negative rho (up, down):  7.923E-01 0.000E+00

     total cpu time spent up to now is      569.1 secs

     total energy              =   -4399.91569047 Ry
     estimated scf accuracy    <       0.00000279 Ry

     iteration # 39     ecut=    60.00 Ry     beta= 0.15
     Davidson diagonalization with overlap

---- Real-time Memory Report at c_bands before calling an iterative solver
             0 MiB given to the printing process from OS
             0 MiB allocation reported by mallinfo(arena+hblkhd)
        169189 MiB available memory on the node where the printing process lives
------------------
     ethr =  6.56E-10,  avg # of iterations =  2.1

     negative rho (up, down):  7.923E-01 0.000E+00

     total cpu time spent up to now is      582.6 secs

     total energy              =   -4399.91569037 Ry
     estimated scf accuracy    <       0.00000190 Ry

     iteration # 40     ecut=    60.00 Ry     beta= 0.15
     Davidson diagonalization with overlap

---- Real-time Memory Report at c_bands before calling an iterative solver
             0 MiB given to the printing process from OS
             0 MiB allocation reported by mallinfo(arena+hblkhd)
        169194 MiB available memory on the node where the printing process lives
------------------
     ethr =  4.46E-10,  avg # of iterations =  1.8

     negative rho (up, down):  7.924E-01 0.000E+00

     total cpu time spent up to now is      595.9 secs

     total energy              =   -4399.91569079 Ry
     estimated scf accuracy    <       0.00000103 Ry

     iteration # 41     ecut=    60.00 Ry     beta= 0.15
     Davidson diagonalization with overlap

---- Real-time Memory Report at c_bands before calling an iterative solver
             0 MiB given to the printing process from OS
             0 MiB allocation reported by mallinfo(arena+hblkhd)
        169202 MiB available memory on the node where the printing process lives
------------------
     ethr =  2.43E-10,  avg # of iterations =  2.3

     negative rho (up, down):  7.924E-01 0.000E+00

     total cpu time spent up to now is      609.5 secs

     total energy              =   -4399.91569136 Ry
     estimated scf accuracy    <       0.00000051 Ry

     iteration # 42     ecut=    60.00 Ry     beta= 0.15
     Davidson diagonalization with overlap

---- Real-time Memory Report at c_bands before calling an iterative solver
             0 MiB given to the printing process from OS
             0 MiB allocation reported by mallinfo(arena+hblkhd)
        169207 MiB available memory on the node where the printing process lives
------------------
     ethr =  1.21E-10,  avg # of iterations =  3.3

     negative rho (up, down):  7.924E-01 0.000E+00

     total cpu time spent up to now is      623.4 secs

     total energy              =   -4399.91569159 Ry
     estimated scf accuracy    <       0.00000042 Ry

     iteration # 43     ecut=    60.00 Ry     beta= 0.15
     Davidson diagonalization with overlap

---- Real-time Memory Report at c_bands before calling an iterative solver
             0 MiB given to the printing process from OS
             0 MiB allocation reported by mallinfo(arena+hblkhd)
        169205 MiB available memory on the node where the printing process lives
------------------
     ethr =  9.89E-11,  avg # of iterations =  3.6

     negative rho (up, down):  7.924E-01 0.000E+00

     total cpu time spent up to now is      637.7 secs

     total energy              =   -4399.91569164 Ry
     estimated scf accuracy    <       0.00000017 Ry

     iteration # 44     ecut=    60.00 Ry     beta= 0.15
     Davidson diagonalization with overlap

---- Real-time Memory Report at c_bands before calling an iterative solver
             0 MiB given to the printing process from OS
             0 MiB allocation reported by mallinfo(arena+hblkhd)
        169210 MiB available memory on the node where the printing process lives
------------------
     ethr =  4.07E-11,  avg # of iterations =  2.8

     negative rho (up, down):  7.924E-01 0.000E+00

     total cpu time spent up to now is      651.8 secs

     total energy              =   -4399.91569165 Ry
     estimated scf accuracy    <       0.00000010 Ry

     iteration # 45     ecut=    60.00 Ry     beta= 0.15
     Davidson diagonalization with overlap

---- Real-time Memory Report at c_bands before calling an iterative solver
             0 MiB given to the printing process from OS
             0 MiB allocation reported by mallinfo(arena+hblkhd)
        169211 MiB available memory on the node where the printing process lives
------------------
     ethr =  2.28E-11,  avg # of iterations =  2.3

     negative rho (up, down):  7.924E-01 0.000E+00

     total cpu time spent up to now is      665.3 secs

     total energy              =   -4399.91569166 Ry
     estimated scf accuracy    <       0.00000007 Ry

     iteration # 46     ecut=    60.00 Ry     beta= 0.15
     Davidson diagonalization with overlap

---- Real-time Memory Report at c_bands before calling an iterative solver
             0 MiB given to the printing process from OS
             0 MiB allocation reported by mallinfo(arena+hblkhd)
        169212 MiB available memory on the node where the printing process lives
------------------
     ethr =  1.53E-11,  avg # of iterations =  2.3

     negative rho (up, down):  7.924E-01 0.000E+00

     total cpu time spent up to now is      678.8 secs

     total energy              =   -4399.91569164 Ry
     estimated scf accuracy    <       0.00000005 Ry

     iteration # 47     ecut=    60.00 Ry     beta= 0.15
     Davidson diagonalization with overlap

---- Real-time Memory Report at c_bands before calling an iterative solver
             0 MiB given to the printing process from OS
             0 MiB allocation reported by mallinfo(arena+hblkhd)
        169218 MiB available memory on the node where the printing process lives
------------------
     ethr =  1.07E-11,  avg # of iterations =  3.8

     negative rho (up, down):  7.924E-01 0.000E+00

     total cpu time spent up to now is      693.1 secs

     total energy              =   -4399.91569164 Ry
     estimated scf accuracy    <       0.00000002 Ry

     iteration # 48     ecut=    60.00 Ry     beta= 0.15
     Davidson diagonalization with overlap

---- Real-time Memory Report at c_bands before calling an iterative solver
             0 MiB given to the printing process from OS
             0 MiB allocation reported by mallinfo(arena+hblkhd)
        169209 MiB available memory on the node where the printing process lives
------------------
     ethr =  4.29E-12,  avg # of iterations =  3.1

     negative rho (up, down):  7.924E-01 0.000E+00

     total cpu time spent up to now is      707.4 secs

     total energy              =   -4399.91569165 Ry
     estimated scf accuracy    <       0.00000001 Ry

     iteration # 49     ecut=    60.00 Ry     beta= 0.15
     Davidson diagonalization with overlap

---- Real-time Memory Report at c_bands before calling an iterative solver
             0 MiB given to the printing process from OS
             0 MiB allocation reported by mallinfo(arena+hblkhd)
        169193 MiB available memory on the node where the printing process lives
------------------
     ethr =  2.44E-12,  avg # of iterations =  2.2

     negative rho (up, down):  7.924E-01 0.000E+00

     total cpu time spent up to now is      720.8 secs

     End of self-consistent calculation

          k = 0.0000 0.0000 0.0000 ( 65197 PWs)   bands (ev):

   -92.7202 -92.6679 -92.5743 -92.5258 -92.4675 -92.4265 -92.4097 -92.2843
   -56.0736 -56.0547 -55.9316 -55.9209 -55.9140 -55.9077 -55.8731 -55.8435
   -55.8284 -55.8259 -55.8174 -55.7756 -55.7559 -55.7190 -55.7007 -55.6672
   -55.6615 -55.6151 -55.6119 -55.6107 -55.6034 -55.5572 -55.5399 -55.4526
   -31.2962 -31.2767 -31.1357 -31.0749 -31.0488 -31.0173 -30.8553 -30.8381
   -29.8681 -29.8247 -29.7997 -29.6915 -15.1010 -15.0608 -14.9777 -14.8474
   -14.6575 -14.5349 -14.2391 -14.2183 -14.1896 -14.1451 -14.1034 -14.0942
   -14.0780 -14.0628 -14.0368 -14.0046 -13.9495 -13.8001 -13.6239 -13.5882
   -13.5576 -13.5265 -13.5101 -13.4594 -13.4239 -13.3406 -13.2694 -13.1625
   -13.1289 -13.1170 -13.0967 -13.0930 -13.0760 -13.0299 -13.0210 -13.0077
   -12.9757 -12.9424 -12.9232 -12.9035 -12.8966 -12.8846 -12.8237 -12.8043
   -12.7908 -12.7414 -12.7020 -12.6903 -12.3612 -12.2155 -12.0736 -11.9992
   -11.8819 -11.8074 -11.7965 -11.7739 -11.7564 -11.6926 -11.6756 -11.6404
   -11.6115 -11.5007 -11.4203 -11.4166  -2.9620  -2.7294  -2.4997  -2.3533
    -2.2900  -2.1474  -1.8406  -1.8265  -1.8061  -1.7223  -1.7034  -1.6353
    -1.6191  -1.5778  -1.5316  -1.3523  -1.1274  -1.0987  -0.9504  -0.9364
    -0.8909  -0.8732  -0.8277  -0.8112  -0.7536  -0.7273  -0.6570  -0.6444
    -0.5667  -0.4361  -0.4224  -0.3940  -0.3129  -0.2966  -0.2870  -0.2202
    -0.1484  -0.1162  -0.0513  -0.0299   0.0289   0.1144   0.1593   0.1833
     0.1914   0.4486   0.4636   0.6360   0.7015   0.7648   0.8113   0.9023
     0.9156   0.9340   1.0004   1.0279   1.0626   1.1205   1.2535   1.3093
     1.3316   1.3529   1.3625   1.4287   1.5017   1.6041   1.6178   1.6749
     1.6917   1.7341   1.7554   1.7624   1.8162   1.8700   1.8812   1.9113
     1.9497   2.0046   2.1355   2.2163   2.2628   2.2835   2.4277   2.4438
     2.4882   2.4933   2.6035   2.6368   2.6643   2.6819   2.6933   2.7556
     2.8053   2.8859   2.9199   2.9313   2.9393   3.0053   3.0092   3.0338
     3.0418   3.0515   3.0685   3.0688   3.0847   3.0886   3.1021   3.1102
     3.1173   3.1370   3.1580   3.1633   3.1751   3.1992   3.3160   3.4302
     4.0945   4.4032   4.7479   4.8614   5.0175   5.8610   5.9120   5.9648
     6.0158   6.2954   6.3420   6.4743   6.4840   6.7355   6.9990   7.0873
     7.1316   7.2965   7.3305   7.5712   7.6467   7.6529   7.6847   7.9202
     7.9927   8.0970   8.1050   8.1894   8.4882   8.6781   8.6805   8.8557

     occupation numbers 
     1.0000   1.0000   1.0000   1.0000   1.0000   1.0000   1.0000   1.0000
     1.0000   1.0000   1.0000   1.0000   1.0000   1.0000   1.0000   1.0000
     1.0000   1.0000   1.0000   1.0000   1.0000   1.0000   1.0000   1.0000
     1.0000   1.0000   1.0000   1.0000   1.0000   1.0000   1.0000   1.0000
     1.0000   1.0000   1.0000   1.0000   1.0000   1.0000   1.0000   1.0000
     1.0000   1.0000   1.0000   1.0000   1.0000   1.0000   1.0000   1.0000
     1.0000   1.0000   1.0000   1.0000   1.0000   1.0000   1.0000   1.0000
     1.0000   1.0000   1.0000   1.0000   1.0000   1.0000   1.0000   1.0000
     1.0000   1.0000   1.0000   1.0000   1.0000   1.0000   1.0000   1.0000
     1.0000   1.0000   1.0000   1.0000   1.0000   1.0000   1.0000   1.0000
     1.0000   1.0000   1.0000   1.0000   1.0000   1.0000   1.0000   1.0000
     1.0000   1.0000   1.0000   1.0000   1.0000   1.0000   1.0000   1.0000
     1.0000   1.0000   1.0000   1.0000   1.0000   1.0000   1.0000   1.0000
     1.0000   1.0000   1.0000   1.0000   1.0000   1.0000   1.0000   1.0000
     1.0000   1.0000   1.0000   1.0000   1.0000   1.0000   1.0000   1.0000
     1.0000   1.0000   1.0000   1.0000   1.0000   1.0000   1.0000   1.0000
     1.0000   1.0000   1.0000   1.0000   1.0000   1.0000   1.0000   1.0000
     1.0000   1.0000   1.0000   1.0000   1.0000   1.0000   1.0000   1.0000
     1.0000   1.0000   1.0000   1.0000   1.0000   1.0000   1.0000   1.0000
     1.0000   1.0000   1.0000   1.0000   0.9999   0.9999   0.9999   0.9998
     0.9998   0.9998   0.9997   0.9996   0.9996   0.9994   0.9989   0.9985
     0.9983   0.9981   0.9981   0.9974   0.9963   0.9943   0.9939   0.9923
     0.9918   0.9903   0.9894   0.9891   0.9866   0.9836   0.9829   0.9809
     0.9781   0.9735   0.9591   0.9474   0.9396   0.9358   0.9043   0.9001
     0.8881   0.8866   0.8520   0.8403   0.8302   0.8235   0.8191   0.7937
     0.7721   0.7343   0.7175   0.7117   0.7077   0.6731   0.6710   0.6577
     0.6533   0.6480   0.6386   0.6384   0.6296   0.6273   0.6198   0.6152
     0.6111   0.5999   0.5878   0.5847   0.5779   0.5638   0.4949   0.4277
     0.1212   0.0519   0.0162   0.0105   0.0056   0.0001   0.0001   0.0000
     0.0000   0.0000   0.0000   0.0000   0.0000   0.0000   0.0000   0.0000
     0.0000   0.0000   0.0000   0.0000   0.0000   0.0000   0.0000   0.0000
     0.0000   0.0000   0.0000   0.0000   0.0000   0.0000   0.0000   0.0000

          k = 0.0000 0.2500 0.0000 ( 65257 PWs)   bands (ev):

   -92.7202 -92.6679 -92.5743 -92.5258 -92.4675 -92.4265 -92.4097 -92.2843
   -56.0736 -56.0547 -55.9316 -55.9209 -55.9140 -55.9077 -55.8731 -55.8435
   -55.8284 -55.8259 -55.8174 -55.7756 -55.7559 -55.7190 -55.7007 -55.6672
   -55.6615 -55.6151 -55.6119 -55.6107 -55.6034 -55.5572 -55.5399 -55.4526
   -31.2960 -31.2766 -31.1359 -31.0744 -31.0490 -31.0178 -30.8531 -30.8402
   -29.8675 -29.8243 -29.8003 -29.6918 -15.0642 -15.0348 -14.9528 -14.8179
   -14.6979 -14.5248 -14.3851 -14.2051 -14.1704 -14.1489 -14.1217 -14.0635
   -14.0588 -14.0442 -14.0231 -13.9806 -13.8690 -13.8302 -13.6672 -13.6492
   -13.5981 -13.5634 -13.5177 -13.4764 -13.4393 -13.3620 -13.3265 -13.2734
   -13.2013 -13.1661 -13.1270 -13.1085 -13.0761 -13.0086 -12.9861 -12.9580
   -12.9457 -12.9194 -12.8856 -12.8492 -12.8363 -12.8208 -12.8150 -12.7868
   -12.7760 -12.7321 -12.6065 -12.5308 -12.4226 -12.2667 -12.1314 -12.0678
   -11.8474 -11.8041 -11.7766 -11.7485 -11.7319 -11.6844 -11.6732 -11.6506
   -11.6160 -11.5151 -11.4620 -11.4513  -2.8267  -2.6051  -2.4674  -2.2854
    -2.2420  -2.0782  -1.8590  -1.7741  -1.7611  -1.7032  -1.6012  -1.5853
    -1.5502  -1.5249  -1.4809  -1.2836  -1.1547  -1.1429  -1.0658  -1.0559
    -0.9514  -0.9213  -0.8653  -0.8395  -0.7981  -0.7339  -0.7078  -0.6757
    -0.6453  -0.6286  -0.5948  -0.5217  -0.4697  -0.4029  -0.2941  -0.2716
    -0.2317  -0.1160  -0.0821  -0.0153   0.0313   0.0972   0.1119   0.1387
     0.1947   0.4949   0.5838   0.6136   0.7035   0.7482   0.7664   0.8902
     0.9074   1.0012   1.0277   1.0551   1.1707   1.2618   1.2849   1.3089
     1.3286   1.3543   1.4136   1.4417   1.4679   1.5167   1.5502   1.5800
     1.6604   1.6943   1.7291   1.7856   1.8357   1.8733   1.9026   1.9348
     1.9512   2.0364   2.1700   2.2431   2.2671   2.3391   2.3841   2.4221
     2.4307   2.4955   2.5348   2.6207   2.6538   2.6721   2.7787   2.8499
     2.8759   2.9000   2.9225   2.9401   2.9483   2.9543   2.9646   2.9941
     2.9970   3.0150   3.0234   3.0298   3.0478   3.0609   3.0660   3.0880
     3.0990   3.1048   3.1386   3.1557   3.2179   3.5764   3.6366   3.8670
     4.2846   4.3999   4.6867   5.0093   5.0513   5.6221   5.7726   5.9319
     5.9623   6.0718   6.1105   6.1698   6.5913   6.8984   7.0165   7.1113
     7.2370   7.3196   7.4702   7.4844   7.6312   7.7446   7.8681   7.9455
     8.0143   8.0880   8.1794   8.2894   8.3950   8.5872   8.7660   8.8694

     occupation numbers 
     1.0000   1.0000   1.0000   1.0000   1.0000   1.0000   1.0000   1.0000
     1.0000   1.0000   1.0000   1.0000   1.0000   1.0000   1.0000   1.0000
     1.0000   1.0000   1.0000   1.0000   1.0000   1.0000   1.0000   1.0000
     1.0000   1.0000   1.0000   1.0000   1.0000   1.0000   1.0000   1.0000
     1.0000   1.0000   1.0000   1.0000   1.0000   1.0000   1.0000   1.0000
     1.0000   1.0000   1.0000   1.0000   1.0000   1.0000   1.0000   1.0000
     1.0000   1.0000   1.0000   1.0000   1.0000   1.0000   1.0000   1.0000
     1.0000   1.0000   1.0000   1.0000   1.0000   1.0000   1.0000   1.0000
     1.0000   1.0000   1.0000   1.0000   1.0000   1.0000   1.0000   1.0000
     1.0000   1.0000   1.0000   1.0000   1.0000   1.0000   1.0000   1.0000
     1.0000   1.0000   1.0000   1.0000   1.0000   1.0000   1.0000   1.0000
     1.0000   1.0000   1.0000   1.0000   1.0000   1.0000   1.0000   1.0000
     1.0000   1.0000   1.0000   1.0000   1.0000   1.0000   1.0000   1.0000
     1.0000   1.0000   1.0000   1.0000   1.0000   1.0000   1.0000   1.0000
     1.0000   1.0000   1.0000   1.0000   1.0000   1.0000   1.0000   1.0000
     1.0000   1.0000   1.0000   1.0000   1.0000   1.0000   1.0000   1.0000
     1.0000   1.0000   1.0000   1.0000   1.0000   1.0000   1.0000   1.0000
     1.0000   1.0000   1.0000   1.0000   1.0000   1.0000   1.0000   1.0000
     1.0000   1.0000   1.0000   1.0000   1.0000   1.0000   1.0000   1.0000
     1.0000   1.0000   1.0000   1.0000   0.9999   0.9999   0.9999   0.9998
     0.9998   0.9997   0.9996   0.9996   0.9992   0.9988   0.9987   0.9985
     0.9983   0.9981   0.9975   0.9972   0.9968   0.9961   0.9955   0.9948
     0.9928   0.9917   0.9905   0.9881   0.9856   0.9834   0.9815   0.9792
     0.9780   0.9704   0.9544   0.9430   0.9388   0.9248   0.9148   0.9057
     0.9035   0.8860   0.8744   0.8461   0.8341   0.8273   0.7838   0.7516
     0.7391   0.7274   0.7162   0.7073   0.7031   0.7000   0.6946   0.6791
     0.6776   0.6679   0.6634   0.6599   0.6500   0.6428   0.6400   0.6277
     0.6215   0.6182   0.5989   0.5891   0.5529   0.3448   0.3125   0.2030
     0.0734   0.0524   0.0203   0.0058   0.0048   0.0003   0.0001   0.0000
     0.0000   0.0000   0.0000   0.0000   0.0000   0.0000   0.0000   0.0000
     0.0000   0.0000   0.0000   0.0000   0.0000   0.0000   0.0000   0.0000
     0.0000   0.0000   0.0000   0.0000   0.0000   0.0000   0.0000   0.0000

          k = 0.0000-0.5000 0.0000 ( 65180 PWs)   bands (ev):

   -92.7202 -92.6679 -92.5743 -92.5258 -92.4675 -92.4265 -92.4097 -92.2843
   -56.0736 -56.0547 -55.9316 -55.9209 -55.9140 -55.9077 -55.8731 -55.8435
   -55.8284 -55.8259 -55.8174 -55.7756 -55.7559 -55.7190 -55.7007 -55.6672
   -55.6615 -55.6151 -55.6119 -55.6107 -55.6034 -55.5572 -55.5399 -55.4526
   -31.2958 -31.2764 -31.1361 -31.0738 -31.0491 -31.0184 -30.8498 -30.8436
   -29.8669 -29.8240 -29.8010 -29.6921 -15.0307 -14.9816 -14.9307 -14.8003
   -14.7177 -14.5768 -14.4323 -14.2994 -14.1767 -14.1085 -14.0640 -14.0572
   -14.0072 -13.9904 -13.9454 -13.9225 -13.8987 -13.8599 -13.8218 -13.7954
   -13.6030 -13.5449 -13.5250 -13.4756 -13.4444 -13.3774 -13.3442 -13.3014
   -13.2841 -13.2365 -13.1278 -13.1092 -13.0602 -13.0085 -12.9880 -12.9727
   -12.9478 -12.9008 -12.8519 -12.8262 -12.8146 -12.7799 -12.7536 -12.7417
   -12.7236 -12.6706 -12.5337 -12.4581 -12.3417 -12.2968 -12.2486 -12.2097
   -11.8010 -11.7989 -11.7717 -11.7346 -11.7001 -11.6890 -11.6457 -11.6418
   -11.5974 -11.5370 -11.5230 -11.5086  -2.6122  -2.5525  -2.4020  -2.3296
    -2.0483  -1.9649  -1.8382  -1.6998  -1.6628  -1.6437  -1.5639  -1.5322
    -1.4526  -1.4163  -1.3395  -1.2989  -1.2599  -1.2327  -1.1759  -1.1387
    -1.0908  -1.0546  -1.0230  -0.9877  -0.8787  -0.8334  -0.7995  -0.7978
    -0.7119  -0.6781  -0.6569  -0.6087  -0.5216  -0.4533  -0.3678  -0.3402
    -0.2371  -0.1940  -0.0490  -0.0093   0.0126   0.0716   0.1851   0.2360
     0.3723   0.4402   0.4467   0.5752   0.6214   0.7248   0.8527   0.9611
     0.9925   1.0302   1.0355   1.0777   1.0911   1.1277   1.1439   1.1541
     1.2640   1.3246   1.3568   1.3834   1.6430   1.6706   1.6896   1.7881
     1.8133   1.8435   1.8576   1.8898   1.8990   1.9102   1.9412   1.9832
     2.0110   2.0379   2.0473   2.0768   2.1314   2.2141   2.2412   2.4232
     2.5835   2.5916   2.6139   2.6461   2.6520   2.6624   2.7052   2.7237
     2.7649   2.7815   2.8098   2.8885   2.9015   2.9592   2.9716   2.9899
     2.9956   3.0114   3.0181   3.0207   3.0246   3.0311   3.0523   3.0586
     3.0619   3.1236   3.1303   3.1452   3.1991   4.1077   4.1315   4.1553
     4.2448   4.7323   4.8775   5.0133   5.1421   5.4063   5.4472   5.5748
     5.6956   5.9944   6.0238   6.0430   6.8474   6.8495   6.9426   7.2118
     7.3226   7.3311   7.4362   7.4829   7.6321   7.7368   7.8119   7.8926
     8.1198   8.2443   8.3507   8.4779   8.6486   8.7506   8.8012   8.8585

     occupation numbers 
     1.0000   1.0000   1.0000   1.0000   1.0000   1.0000   1.0000   1.0000
     1.0000   1.0000   1.0000   1.0000   1.0000   1.0000   1.0000   1.0000
     1.0000   1.0000   1.0000   1.0000   1.0000   1.0000   1.0000   1.0000
     1.0000   1.0000   1.0000   1.0000   1.0000   1.0000   1.0000   1.0000
     1.0000   1.0000   1.0000   1.0000   1.0000   1.0000   1.0000   1.0000
     1.0000   1.0000   1.0000   1.0000   1.0000   1.0000   1.0000   1.0000
     1.0000   1.0000   1.0000   1.0000   1.0000   1.0000   1.0000   1.0000
     1.0000   1.0000   1.0000   1.0000   1.0000   1.0000   1.0000   1.0000
     1.0000   1.0000   1.0000   1.0000   1.0000   1.0000   1.0000   1.0000
     1.0000   1.0000   1.0000   1.0000   1.0000   1.0000   1.0000   1.0000
     1.0000   1.0000   1.0000   1.0000   1.0000   1.0000   1.0000   1.0000
     1.0000   1.0000   1.0000   1.0000   1.0000   1.0000   1.0000   1.0000
     1.0000   1.0000   1.0000   1.0000   1.0000   1.0000   1.0000   1.0000
     1.0000   1.0000   1.0000   1.0000   1.0000   1.0000   1.0000   1.0000
     1.0000   1.0000   1.0000   1.0000   1.0000   1.0000   1.0000   1.0000
     1.0000   1.0000   1.0000   1.0000   1.0000   1.0000   1.0000   1.0000
     1.0000   1.0000   1.0000   1.0000   1.0000   1.0000   1.0000   1.0000
     1.0000   1.0000   1.0000   1.0000   1.0000   1.0000   1.0000   1.0000
     1.0000   1.0000   1.0000   1.0000   1.0000   1.0000   1.0000   1.0000
     1.0000   1.0000   1.0000   1.0000   1.0000   0.9999   0.9999   0.9998
     0.9997   0.9996   0.9996   0.9995   0.9995   0.9994   0.9993   0.9993
     0.9988   0.9984   0.9981   0.9979   0.9933   0.9925   0.9919   0.9880
     0.9867   0.9851   0.9843   0.9824   0.9817   0.9810   0.9788   0.9754
     0.9729   0.9703   0.9693   0.9662   0.9596   0.9478   0.9433   0.9054
     0.8588   0.8561   0.8484   0.8369   0.8348   0.8309   0.8144   0.8070
     0.7897   0.7826   0.7700   0.7330   0.7266   0.6974   0.6910   0.6814
     0.6783   0.6699   0.6662   0.6648   0.6627   0.6592   0.6476   0.6441
     0.6423   0.6075   0.6037   0.5952   0.5639   0.1174   0.1105   0.1040
     0.0820   0.0172   0.0099   0.0057   0.0032   0.0009   0.0007   0.0004
     0.0002   0.0000   0.0000   0.0000   0.0000   0.0000   0.0000   0.0000
     0.0000   0.0000   0.0000   0.0000   0.0000   0.0000   0.0000   0.0000
     0.0000   0.0000   0.0000   0.0000   0.0000   0.0000   0.0000   0.0000

          k = 0.2500 0.2500 0.0000 ( 65198 PWs)   bands (ev):

   -92.7202 -92.6679 -92.5743 -92.5258 -92.4675 -92.4265 -92.4097 -92.2843
   -56.0736 -56.0547 -55.9316 -55.9209 -55.9140 -55.9077 -55.8731 -55.8435
   -55.8284 -55.8259 -55.8174 -55.7756 -55.7559 -55.7190 -55.7007 -55.6672
   -55.6615 -55.6151 -55.6119 -55.6107 -55.6034 -55.5572 -55.5399 -55.4526
   -31.2943 -31.2783 -31.1355 -31.0742 -31.0493 -31.0176 -30.8533 -30.8404
   -29.8665 -29.8253 -29.7999 -29.6922 -15.0359 -14.9995 -14.9250 -14.8074
   -14.6900 -14.5655 -14.4904 -14.2847 -14.1281 -14.1147 -14.0802 -14.0494
   -14.0300 -14.0049 -13.9683 -13.9423 -13.8607 -13.8440 -13.6833 -13.6695
   -13.6408 -13.6195 -13.5681 -13.5308 -13.4790 -13.4453 -13.3316 -13.2870
   -13.2484 -13.1603 -13.1202 -13.0687 -13.0442 -13.0365 -12.9967 -12.9662
   -12.9458 -12.9323 -12.8875 -12.8419 -12.8211 -12.7847 -12.7622 -12.7371
   -12.7325 -12.7241 -12.5442 -12.4711 -12.4385 -12.2958 -12.1628 -12.1157
   -11.8195 -11.7878 -11.7771 -11.7699 -11.7073 -11.6727 -11.6661 -11.6307
   -11.6227 -11.5317 -11.4902 -11.4728  -2.6885  -2.4793  -2.3614  -2.2676
    -2.1465  -2.0814  -1.8838  -1.7392  -1.7193  -1.6901  -1.5959  -1.5604
    -1.4677  -1.4408  -1.3904  -1.2588  -1.2112  -1.1380  -1.0931  -1.0488
    -1.0248  -1.0003  -0.9585  -0.9427  -0.8521  -0.8025  -0.7375  -0.6881
    -0.6591  -0.6085  -0.5959  -0.5322  -0.4819  -0.4244  -0.3910  -0.3046
    -0.2538  -0.2242  -0.1851  -0.1295  -0.0633  -0.0204   0.0075   0.0774
     0.1212   0.3875   0.5342   0.5710   0.6263   0.6678   0.7273   0.7792
     0.8410   0.8787   1.1519   1.2195   1.2927   1.3176   1.3670   1.3982
     1.4340   1.4701   1.4880   1.5157   1.5571   1.5676   1.5831   1.6291
     1.6693   1.7060   1.7561   1.7961   1.8085   1.8388   1.8756   1.9312
     1.9580   2.0798   2.1512   2.1885   2.2151   2.2818   2.3447   2.3747
     2.4109   2.4342   2.4471   2.5634   2.5978   2.6824   2.7993   2.8565
     2.8773   2.8808   2.8953   2.9108   2.9249   2.9367   2.9431   2.9549
     2.9673   2.9821   2.9997   3.0053   3.0184   3.0380   3.0503   3.0591
     3.0911   3.3919   3.4849   3.5284   3.5935   3.6304   3.8491   3.9354
     4.2840   4.4916   4.6975   4.9596   5.1634   5.6269   5.6812   5.7373
     5.8147   5.8763   6.0352   6.1669   6.2035   6.7768   6.8909   7.0630
     7.1749   7.5405   7.5909   7.6950   7.7328   7.8548   7.9419   8.0920
     8.1683   8.2117   8.2869   8.3234   8.4205   8.4462   8.6475   8.8567

     occupation numbers 
     1.0000   1.0000   1.0000   1.0000   1.0000   1.0000   1.0000   1.0000
     1.0000   1.0000   1.0000   1.0000   1.0000   1.0000   1.0000   1.0000
     1.0000   1.0000   1.0000   1.0000   1.0000   1.0000   1.0000   1.0000
     1.0000   1.0000   1.0000   1.0000   1.0000   1.0000   1.0000   1.0000
     1.0000   1.0000   1.0000   1.0000   1.0000   1.0000   1.0000   1.0000
     1.0000   1.0000   1.0000   1.0000   1.0000   1.0000   1.0000   1.0000
     1.0000   1.0000   1.0000   1.0000   1.0000   1.0000   1.0000   1.0000
     1.0000   1.0000   1.0000   1.0000   1.0000   1.0000   1.0000   1.0000
     1.0000   1.0000   1.0000   1.0000   1.0000   1.0000   1.0000   1.0000
     1.0000   1.0000   1.0000   1.0000   1.0000   1.0000   1.0000   1.0000
     1.0000   1.0000   1.0000   1.0000   1.0000   1.0000   1.0000   1.0000
     1.0000   1.0000   1.0000   1.0000   1.0000   1.0000   1.0000   1.0000
     1.0000   1.0000   1.0000   1.0000   1.0000   1.0000   1.0000   1.0000
     1.0000   1.0000   1.0000   1.0000   1.0000   1.0000   1.0000   1.0000
     1.0000   1.0000   1.0000   1.0000   1.0000   1.0000   1.0000   1.0000
     1.0000   1.0000   1.0000   1.0000   1.0000   1.0000   1.0000   1.0000
     1.0000   1.0000   1.0000   1.0000   1.0000   1.0000   1.0000   1.0000
     1.0000   1.0000   1.0000   1.0000   1.0000   1.0000   1.0000   1.0000
     1.0000   1.0000   1.0000   1.0000   1.0000   1.0000   1.0000   1.0000
     1.0000   1.0000   1.0000   1.0000   1.0000   1.0000   0.9999   0.9999
     0.9999   0.9998   0.9993   0.9990   0.9986   0.9984   0.9980   0.9977
     0.9973   0.9968   0.9966   0.9961   0.9953   0.9951   0.9948   0.9937
     0.9925   0.9913   0.9894   0.9876   0.9870   0.9854   0.9833   0.9795
     0.9775   0.9658   0.9570   0.9517   0.9476   0.9361   0.9236   0.9170
     0.9084   0.9026   0.8993   0.8654   0.8540   0.8233   0.7747   0.7484
     0.7385   0.7368   0.7297   0.7221   0.7150   0.7090   0.7057   0.6997
     0.6932   0.6855   0.6761   0.6731   0.6661   0.6554   0.6487   0.6438
     0.6260   0.4501   0.3960   0.3714   0.3355   0.3158   0.2106   0.1755
     0.0735   0.0393   0.0195   0.0071   0.0029   0.0003   0.0002   0.0002
     0.0001   0.0001   0.0000   0.0000   0.0000   0.0000   0.0000   0.0000
     0.0000   0.0000   0.0000   0.0000   0.0000   0.0000   0.0000   0.0000
     0.0000   0.0000   0.0000   0.0000   0.0000   0.0000   0.0000   0.0000

          k = 0.2500-0.5000 0.0000 ( 65138 PWs)   bands (ev):

   -92.7202 -92.6679 -92.5743 -92.5258 -92.4675 -92.4265 -92.4097 -92.2843
   -56.0736 -56.0547 -55.9316 -55.9209 -55.9140 -55.9077 -55.8731 -55.8434
   -55.8284 -55.8259 -55.8174 -55.7756 -55.7559 -55.7190 -55.7007 -55.6672
   -55.6615 -55.6151 -55.6119 -55.6107 -55.6034 -55.5572 -55.5399 -55.4526
   -31.2941 -31.2781 -31.1357 -31.0737 -31.0495 -31.0182 -30.8499 -30.8438
   -29.8659 -29.8250 -29.8006 -29.6925 -15.0004 -14.9547 -14.8876 -14.7694
   -14.7408 -14.6181 -14.5330 -14.3987 -14.0927 -14.0416 -14.0132 -13.9936
   -13.9754 -13.9632 -13.9300 -13.9106 -13.8761 -13.8380 -13.8110 -13.7844
   -13.6857 -13.6364 -13.5861 -13.5574 -13.4987 -13.4837 -13.3843 -13.3436
   -13.2252 -13.1609 -13.1375 -13.0520 -13.0382 -13.0066 -12.9880 -12.9672
   -12.9589 -12.9308 -12.8478 -12.8366 -12.8190 -12.7934 -12.7674 -12.7385
   -12.6742 -12.6429 -12.5403 -12.4417 -12.3392 -12.2786 -12.2376 -12.2072
   -11.7950 -11.7831 -11.7723 -11.7453 -11.7133 -11.6855 -11.6433 -11.6166
   -11.5940 -11.5500 -11.5241 -11.5126  -2.4704  -2.4045  -2.2760  -2.1985
    -2.0688  -1.9848  -1.8626  -1.7111  -1.6579  -1.6355  -1.5719  -1.5590
    -1.4633  -1.3949  -1.3101  -1.2611  -1.2515  -1.1878  -1.1460  -1.1111
    -1.0636  -1.0261  -0.9919  -0.9519  -0.9414  -0.8949  -0.8660  -0.8238
    -0.7937  -0.7258  -0.6241  -0.5856  -0.5070  -0.4422  -0.3944  -0.3519
    -0.3301  -0.2790  -0.1175  -0.1086   0.0024   0.0349   0.0439   0.0896
     0.1167   0.1558   0.1826   0.2550   0.5240   0.6165   0.6903   0.7472
     1.0106   1.0355   1.1251   1.1485   1.3164   1.3513   1.3918   1.4142
     1.4303   1.4513   1.5132   1.5605   1.5960   1.6755   1.7597   1.7992
     1.8233   1.8315   1.8671   1.8831   1.8866   1.9308   1.9448   1.9616
     2.0009   2.0133   2.0388   2.0719   2.1300   2.1682   2.2467   2.3861
     2.5363   2.5543   2.5724   2.5985   2.6226   2.6486   2.6713   2.6852
     2.7034   2.7727   2.8189   2.8639   2.8750   2.8913   2.9017   2.9138
     2.9276   2.9456   2.9561   2.9863   2.9987   3.0128   3.0219   3.0312
     3.0423   3.5693   3.5787   3.7233   3.7729   4.1123   4.1604   4.1768
     4.2994   4.7505   4.9002   5.0485   5.1137   5.2857   5.4179   5.6017
     5.6131   5.7496   5.7693   6.1315   6.3915   6.4792   6.7169   6.9979
     7.4459   7.5354   7.6793   7.6971   7.7988   7.8637   8.0254   8.1554
     8.3419   8.3704   8.4199   8.5270   8.5379   8.5781   8.6992   8.7552

     occupation numbers 
     1.0000   1.0000   1.0000   1.0000   1.0000   1.0000   1.0000   1.0000
     1.0000   1.0000   1.0000   1.0000   1.0000   1.0000   1.0000   1.0000
     1.0000   1.0000   1.0000   1.0000   1.0000   1.0000   1.0000   1.0000
     1.0000   1.0000   1.0000   1.0000   1.0000   1.0000   1.0000   1.0000
     1.0000   1.0000   1.0000   1.0000   1.0000   1.0000   1.0000   1.0000
     1.0000   1.0000   1.0000   1.0000   1.0000   1.0000   1.0000   1.0000
     1.0000   1.0000   1.0000   1.0000   1.0000   1.0000   1.0000   1.0000
     1.0000   1.0000   1.0000   1.0000   1.0000   1.0000   1.0000   1.0000
     1.0000   1.0000   1.0000   1.0000   1.0000   1.0000   1.0000   1.0000
     1.0000   1.0000   1.0000   1.0000   1.0000   1.0000   1.0000   1.0000
     1.0000   1.0000   1.0000   1.0000   1.0000   1.0000   1.0000   1.0000
     1.0000   1.0000   1.0000   1.0000   1.0000   1.0000   1.0000   1.0000
     1.0000   1.0000   1.0000   1.0000   1.0000   1.0000   1.0000   1.0000
     1.0000   1.0000   1.0000   1.0000   1.0000   1.0000   1.0000   1.0000
     1.0000   1.0000   1.0000   1.0000   1.0000   1.0000   1.0000   1.0000
     1.0000   1.0000   1.0000   1.0000   1.0000   1.0000   1.0000   1.0000
     1.0000   1.0000   1.0000   1.0000   1.0000   1.0000   1.0000   1.0000
     1.0000   1.0000   1.0000   1.0000   1.0000   1.0000   1.0000   1.0000
     1.0000   1.0000   1.0000   1.0000   1.0000   1.0000   1.0000   1.0000
     1.0000   1.0000   1.0000   1.0000   1.0000   1.0000   0.9999   0.9999
     0.9997   0.9996   0.9994   0.9993   0.9984   0.9982   0.9978   0.9975
     0.9973   0.9971   0.9961   0.9953   0.9945   0.9923   0.9892   0.9874
     0.9862   0.9858   0.9838   0.9828   0.9826   0.9795   0.9785   0.9772
     0.9738   0.9727   0.9702   0.9667   0.9598   0.9546   0.9424   0.9144
     0.8739   0.8683   0.8624   0.8538   0.8454   0.8360   0.8275   0.8222
     0.8151   0.7864   0.7659   0.7449   0.7396   0.7317   0.7265   0.7206
     0.7136   0.7044   0.6990   0.6832   0.6766   0.6691   0.6642   0.6592
     0.6531   0.3487   0.3435   0.2684   0.2447   0.1160   0.1026   0.0984
     0.0704   0.0161   0.0090   0.0049   0.0037   0.0017   0.0009   0.0003
     0.0003   0.0001   0.0001   0.0000   0.0000   0.0000   0.0000   0.0000
     0.0000   0.0000   0.0000   0.0000   0.0000   0.0000   0.0000   0.0000
     0.0000   0.0000   0.0000   0.0000   0.0000   0.0000   0.0000   0.0000

          k =-0.5000-0.5000 0.0000 ( 65132 PWs)   bands (ev):

   -92.7202 -92.6679 -92.5743 -92.5258 -92.4675 -92.4265 -92.4097 -92.2843
   -56.0736 -56.0547 -55.9316 -55.9209 -55.9140 -55.9077 -55.8731 -55.8434
   -55.8284 -55.8259 -55.8174 -55.7756 -55.7559 -55.7190 -55.7007 -55.6672
   -55.6615 -55.6151 -55.6119 -55.6107 -55.6034 -55.5572 -55.5399 -55.4526
   -31.2919 -31.2803 -31.1353 -31.0736 -31.0499 -31.0180 -30.8501 -30.8439
   -29.8649 -29.8260 -29.8002 -29.6930 -14.9545 -14.9277 -14.8096 -14.7989
   -14.7052 -14.6664 -14.6327 -14.4999 -14.0045 -13.9922 -13.9573 -13.9394
   -13.9228 -13.9102 -13.8789 -13.8692 -13.8579 -13.8437 -13.8278 -13.7532
   -13.7458 -13.7164 -13.6812 -13.6791 -13.5783 -13.5581 -13.4287 -13.3902
   -13.1757 -13.1348 -13.0703 -13.0446 -13.0226 -13.0035 -12.9965 -12.9900
   -12.9726 -12.9340 -12.8493 -12.8225 -12.8202 -12.7917 -12.7886 -12.7598
   -12.6242 -12.6161 -12.5566 -12.4260 -12.3356 -12.2589 -12.2272 -12.2054
   -11.7918 -11.7793 -11.7613 -11.7448 -11.7095 -11.6916 -11.6579 -11.5973
   -11.5766 -11.5720 -11.5217 -11.5185  -2.2462  -2.1708  -2.1613  -2.0875
    -2.0497  -1.9716  -1.9039  -1.7776  -1.6616  -1.6318  -1.5918  -1.5351
    -1.4628  -1.4493  -1.3776  -1.3346  -1.2179  -1.1896  -1.1407  -1.1118
    -1.0476  -1.0024  -0.9833  -0.9713  -0.9179  -0.8722  -0.8572  -0.7444
    -0.6868  -0.6416  -0.5910  -0.5632  -0.5517  -0.5177  -0.4764  -0.4406
    -0.4298  -0.3437  -0.2777  -0.2301  -0.2071  -0.1312  -0.0777  -0.0650
    -0.0070   0.0239   0.0305   0.0493   0.4955   0.5321   0.6374   0.6594
     1.0431   1.0555   1.0877   1.1284   1.4011   1.4211   1.4274   1.4681
     1.5958   1.6924   1.7185   1.7541   1.7708   1.7975   1.8054   1.8376
     1.8454   1.8569   1.8720   1.9278   1.9292   1.9585   1.9681   1.9902
     2.0033   2.0407   2.0701   2.0827   2.1143   2.1440   2.2114   2.2770
     2.5503   2.5799   2.6000   2.6181   2.6293   2.6585   2.6607   2.6804
     2.6908   2.7088   2.7173   2.7405   2.7791   2.8105   2.8143   2.8349
     2.8481   2.8657   2.8815   2.8908   2.9119   2.9948   2.9996   3.0263
     3.0400   4.0005   4.0256   4.0316   4.0513   4.3013   4.3801   4.3991
     4.6394   4.7618   4.8447   4.9737   5.0584   5.0804   5.1870   5.2821
     5.3864   5.8442   5.8909   5.9439   6.0221   6.4149   6.5245   6.6158
     7.6829   7.8459   7.8941   7.9111   7.9252   7.9627   8.0060   8.0735
     8.2491   8.3359   8.5628   8.5812   8.6063   8.6227   8.6427   8.6638

     occupation numbers 
     1.0000   1.0000   1.0000   1.0000   1.0000   1.0000   1.0000   1.0000
     1.0000   1.0000   1.0000   1.0000   1.0000   1.0000   1.0000   1.0000
     1.0000   1.0000   1.0000   1.0000   1.0000   1.0000   1.0000   1.0000
     1.0000   1.0000   1.0000   1.0000   1.0000   1.0000   1.0000   1.0000
     1.0000   1.0000   1.0000   1.0000   1.0000   1.0000   1.0000   1.0000
     1.0000   1.0000   1.0000   1.0000   1.0000   1.0000   1.0000   1.0000
     1.0000   1.0000   1.0000   1.0000   1.0000   1.0000   1.0000   1.0000
     1.0000   1.0000   1.0000   1.0000   1.0000   1.0000   1.0000   1.0000
     1.0000   1.0000   1.0000   1.0000   1.0000   1.0000   1.0000   1.0000
     1.0000   1.0000   1.0000   1.0000   1.0000   1.0000   1.0000   1.0000
     1.0000   1.0000   1.0000   1.0000   1.0000   1.0000   1.0000   1.0000
     1.0000   1.0000   1.0000   1.0000   1.0000   1.0000   1.0000   1.0000
     1.0000   1.0000   1.0000   1.0000   1.0000   1.0000   1.0000   1.0000
     1.0000   1.0000   1.0000   1.0000   1.0000   1.0000   1.0000   1.0000
     1.0000   1.0000   1.0000   1.0000   1.0000   1.0000   1.0000   1.0000
     1.0000   1.0000   1.0000   1.0000   1.0000   1.0000   1.0000   1.0000
     1.0000   1.0000   1.0000   1.0000   1.0000   1.0000   1.0000   1.0000
     1.0000   1.0000   1.0000   1.0000   1.0000   1.0000   1.0000   1.0000
     1.0000   1.0000   1.0000   1.0000   1.0000   1.0000   1.0000   1.0000
     1.0000   1.0000   1.0000   1.0000   1.0000   1.0000   1.0000   1.0000
     0.9996   0.9996   0.9995   0.9994   0.9977   0.9975   0.9974   0.9968
     0.9945   0.9918   0.9908   0.9895   0.9887   0.9875   0.9871   0.9855
     0.9850   0.9844   0.9835   0.9797   0.9796   0.9774   0.9766   0.9748
     0.9736   0.9700   0.9669   0.9655   0.9618   0.9580   0.9482   0.9370
     0.8695   0.8600   0.8533   0.8470   0.8430   0.8324   0.8315   0.8241
     0.8200   0.8129   0.8096   0.8000   0.7836   0.7697   0.7680   0.7585
     0.7524   0.7441   0.7364   0.7319   0.7215   0.6788   0.6762   0.6618
     0.6543   0.1517   0.1431   0.1411   0.1347   0.0700   0.0556   0.0525
     0.0240   0.0154   0.0112   0.0067   0.0047   0.0042   0.0026   0.0017
     0.0010   0.0001   0.0001   0.0000   0.0000   0.0000   0.0000   0.0000
     0.0000   0.0000   0.0000   0.0000   0.0000   0.0000   0.0000   0.0000
     0.0000   0.0000   0.0000   0.0000   0.0000   0.0000   0.0000   0.0000

          k = 0.2500 0.0000 0.0000 ( 65257 PWs)   bands (ev):

   -92.7202 -92.6679 -92.5743 -92.5258 -92.4675 -92.4265 -92.4097 -92.2843
[...]
     0.7427   0.7302   0.7174   0.7148   0.7042   0.6988   0.6910   0.6800
     0.6778   0.6629   0.6581   0.6526   0.6470   0.6353   0.6217   0.6196
     0.6153   0.6097   0.6054   0.5997   0.5280   0.3515   0.3158   0.2048
     0.0785   0.0469   0.0220   0.0055   0.0050   0.0003   0.0001   0.0000
     0.0000   0.0000   0.0000   0.0000   0.0000   0.0000   0.0000   0.0000
     0.0000   0.0000   0.0000   0.0000   0.0000   0.0000   0.0000   0.0000
     0.0000   0.0000   0.0000   0.0000   0.0000   0.0000   0.0000   0.0000

          k =-0.5000 0.0000 0.0000 ( 65180 PWs)   bands (ev):

   -92.7202 -92.6679 -92.5743 -92.5258 -92.4675 -92.4265 -92.4097 -92.2843
   -56.0736 -56.0547 -55.9316 -55.9209 -55.9140 -55.9077 -55.8731 -55.8434
   -55.8284 -55.8259 -55.8174 -55.7756 -55.7559 -55.7190 -55.7007 -55.6672
   -55.6615 -55.6151 -55.6119 -55.6107 -55.6034 -55.5572 -55.5399 -55.4526
   -31.2923 -31.2806 -31.1349 -31.0746 -31.0496 -31.0170 -30.8556 -30.8384
   -29.8661 -29.8267 -29.7989 -29.6923 -15.0350 -14.9849 -14.9224 -14.8143
   -14.7096 -14.5650 -14.4227 -14.2787 -14.1514 -14.1412 -14.1274 -14.0674
   -14.0119 -13.9802 -13.9306 -13.9250 -13.9095 -13.8574 -13.8411 -13.7421
   -13.5743 -13.5482 -13.5139 -13.5064 -13.4550 -13.3835 -13.3399 -13.2866
   -13.2629 -13.2567 -13.0836 -13.0729 -13.0599 -13.0339 -13.0271 -12.9847
   -12.9659 -12.9448 -12.8979 -12.8743 -12.7983 -12.7533 -12.7024 -12.6895
   -12.6592 -12.6498 -12.5598 -12.5014 -12.3558 -12.3454 -12.2263 -12.1862
   -11.7985 -11.7771 -11.7703 -11.7557 -11.7375 -11.6961 -11.6337 -11.6162
   -11.5832 -11.5390 -11.5296 -11.5139  -2.6020  -2.5633  -2.3995  -2.3604
    -2.0476  -1.9719  -1.8239  -1.7061  -1.6671  -1.6202  -1.5731  -1.5480
    -1.4255  -1.3806  -1.3654  -1.2829  -1.2473  -1.2327  -1.2007  -1.1433
    -1.0747  -1.0451  -1.0172  -0.9222  -0.8743  -0.8251  -0.7930  -0.7717
    -0.7407  -0.6934  -0.6685  -0.6315  -0.5323  -0.4612  -0.3942  -0.3328
    -0.1779  -0.1293  -0.0765  -0.0446   0.0099   0.0357   0.1694   0.2055
     0.2500   0.4200   0.5192   0.5656   0.6530   0.7094   0.8380   0.8489
     0.9806   1.0096   1.0642   1.0931   1.1323   1.1407   1.1874   1.2117
     1.2768   1.3263   1.3738   1.3815   1.6779   1.6832   1.6992   1.7216
     1.8329   1.8462   1.8552   1.8680   1.9000   1.9129   1.9486   1.9767
     1.9950   2.0579   2.0678   2.1223   2.1417   2.1992   2.3128   2.4029
     2.4814   2.4951   2.5803   2.6071   2.6329   2.6847   2.7099   2.7190
     2.7488   2.7918   2.8339   2.8728   2.9077   2.9341   2.9824   2.9846
     2.9931   2.9995   3.0133   3.0271   3.0382   3.0449   3.0643   3.0681
     3.0903   3.1101   3.1145   3.2419   3.2568   4.0771   4.1067   4.1647
     4.2920   4.7718   4.8413   5.0287   5.0406   5.4816   5.4951   5.5849
     5.6270   6.0111   6.0136   6.0884   6.6053   6.7868   6.9997   7.2678
     7.3005   7.3441   7.4037   7.5665   7.6917   7.7599   7.8717   7.9224
     8.1393   8.2776   8.3563   8.4990   8.6179   8.7290   8.7484   8.8362

     occupation numbers 
     1.0000   1.0000   1.0000   1.0000   1.0000   1.0000   1.0000   1.0000
     1.0000   1.0000   1.0000   1.0000   1.0000   1.0000   1.0000   1.0000
     1.0000   1.0000   1.0000   1.0000   1.0000   1.0000   1.0000   1.0000
     1.0000   1.0000   1.0000   1.0000   1.0000   1.0000   1.0000   1.0000
     1.0000   1.0000   1.0000   1.0000   1.0000   1.0000   1.0000   1.0000
     1.0000   1.0000   1.0000   1.0000   1.0000   1.0000   1.0000   1.0000
     1.0000   1.0000   1.0000   1.0000   1.0000   1.0000   1.0000   1.0000
     1.0000   1.0000   1.0000   1.0000   1.0000   1.0000   1.0000   1.0000
     1.0000   1.0000   1.0000   1.0000   1.0000   1.0000   1.0000   1.0000
     1.0000   1.0000   1.0000   1.0000   1.0000   1.0000   1.0000   1.0000
     1.0000   1.0000   1.0000   1.0000   1.0000   1.0000   1.0000   1.0000
     1.0000   1.0000   1.0000   1.0000   1.0000   1.0000   1.0000   1.0000
     1.0000   1.0000   1.0000   1.0000   1.0000   1.0000   1.0000   1.0000
     1.0000   1.0000   1.0000   1.0000   1.0000   1.0000   1.0000   1.0000
     1.0000   1.0000   1.0000   1.0000   1.0000   1.0000   1.0000   1.0000
     1.0000   1.0000   1.0000   1.0000   1.0000   1.0000   1.0000   1.0000
     1.0000   1.0000   1.0000   1.0000   1.0000   1.0000   1.0000   1.0000
     1.0000   1.0000   1.0000   1.0000   1.0000   1.0000   1.0000   1.0000
     1.0000   1.0000   1.0000   1.0000   1.0000   1.0000   1.0000   1.0000
     1.0000   1.0000   1.0000   1.0000   1.0000   0.9999   0.9999   0.9999
     0.9997   0.9997   0.9996   0.9995   0.9994   0.9994   0.9992   0.9991
     0.9987   0.9984   0.9980   0.9979   0.9922   0.9921   0.9915   0.9907
     0.9857   0.9850   0.9845   0.9837   0.9817   0.9808   0.9782   0.9759
     0.9743   0.9682   0.9672   0.9608   0.9583   0.9501   0.9301   0.9104
     0.8900   0.8861   0.8599   0.8508   0.8417   0.8224   0.8125   0.8089
     0.7966   0.7780   0.7590   0.7406   0.7236   0.7103   0.6853   0.6842
     0.6797   0.6762   0.6688   0.6614   0.6553   0.6516   0.6409   0.6388
     0.6264   0.6152   0.6127   0.5387   0.5299   0.1265   0.1176   0.1015
     0.0719   0.0148   0.0114   0.0053   0.0050   0.0006   0.0006   0.0004
     0.0003   0.0000   0.0000   0.0000   0.0000   0.0000   0.0000   0.0000
     0.0000   0.0000   0.0000   0.0000   0.0000   0.0000   0.0000   0.0000
     0.0000   0.0000   0.0000   0.0000   0.0000   0.0000   0.0000   0.0000

          k =-0.2500 0.2500 0.0000 ( 65198 PWs)   bands (ev):

   -92.7202 -92.6679 -92.5743 -92.5258 -92.4675 -92.4265 -92.4097 -92.2843
   -56.0736 -56.0547 -55.9316 -55.9209 -55.9140 -55.9077 -55.8731 -55.8435
   -55.8284 -55.8259 -55.8174 -55.7756 -55.7559 -55.7190 -55.7007 -55.6672
   -55.6615 -55.6151 -55.6119 -55.6107 -55.6034 -55.5572 -55.5399 -55.4526
   -31.2943 -31.2783 -31.1355 -31.0742 -31.0493 -31.0176 -30.8533 -30.8404
   -29.8665 -29.8253 -29.7999 -29.6922 -15.0373 -14.9985 -14.9232 -14.8059
   -14.6961 -14.5699 -14.4825 -14.2759 -14.1350 -14.1053 -14.0923 -14.0462
   -14.0216 -14.0055 -13.9871 -13.9421 -13.8567 -13.8444 -13.6915 -13.6659
   -13.6377 -13.6167 -13.5735 -13.5170 -13.4699 -13.4540 -13.3366 -13.2904
   -13.2421 -13.1644 -13.1214 -13.0594 -13.0462 -13.0267 -13.0035 -12.9691
   -12.9482 -12.9333 -12.8881 -12.8470 -12.8187 -12.7890 -12.7776 -12.7421
   -12.7232 -12.7102 -12.5401 -12.4608 -12.4452 -12.3015 -12.1646 -12.1130
   -11.8188 -11.7971 -11.7702 -11.7579 -11.7168 -11.6825 -11.6591 -11.6379
   -11.6152 -11.5314 -11.4857 -11.4760  -2.6869  -2.4783  -2.3572  -2.2693
    -2.1507  -2.0840  -1.8814  -1.7361  -1.7170  -1.6880  -1.5965  -1.5592
    -1.4677  -1.4338  -1.4079  -1.2648  -1.2090  -1.1407  -1.1129  -1.0525
    -1.0305  -0.9904  -0.9615  -0.9216  -0.8584  -0.8116  -0.7477  -0.6801
    -0.6552  -0.6036  -0.5746  -0.5298  -0.4718  -0.4277  -0.3852  -0.2864
    -0.2533  -0.2436  -0.1977  -0.1323  -0.0653  -0.0186   0.0145   0.0807
     0.1195   0.3683   0.5378   0.5789   0.6165   0.6733   0.7270   0.7821
     0.8479   0.8763   1.1596   1.2703   1.3088   1.3426   1.3488   1.3910
     1.4076   1.4529   1.4833   1.4982   1.5245   1.5673   1.5811   1.6275
     1.6456   1.6900   1.7669   1.7881   1.8081   1.8446   1.8729   1.9113
     1.9646   2.0693   2.1810   2.2127   2.2594   2.2795   2.3433   2.3866
     2.4128   2.4347   2.4586   2.5641   2.5962   2.6825   2.7995   2.8635
     2.8741   2.8860   2.8967   2.9057   2.9194   2.9280   2.9443   2.9559
     2.9680   2.9797   2.9901   3.0016   3.0076   3.0393   3.0504   3.0582
     3.0932   3.3853   3.4670   3.5311   3.6045   3.6295   3.8363   3.9439
     4.2838   4.4891   4.6987   4.9684   5.1637   5.6276   5.6795   5.7409
     5.8129   5.8774   6.0402   6.1712   6.1962   6.7455   6.8900   7.0700
     7.2185   7.5540   7.5977   7.6577   7.7073   7.8703   7.9147   8.1068
     8.1773   8.1912   8.3032   8.3612   8.4253   8.4435   8.6425   8.8484

     occupation numbers 
     1.0000   1.0000   1.0000   1.0000   1.0000   1.0000   1.0000   1.0000
     1.0000   1.0000   1.0000   1.0000   1.0000   1.0000   1.0000   1.0000
     1.0000   1.0000   1.0000   1.0000   1.0000   1.0000   1.0000   1.0000
     1.0000   1.0000   1.0000   1.0000   1.0000   1.0000   1.0000   1.0000
     1.0000   1.0000   1.0000   1.0000   1.0000   1.0000   1.0000   1.0000
     1.0000   1.0000   1.0000   1.0000   1.0000   1.0000   1.0000   1.0000
     1.0000   1.0000   1.0000   1.0000   1.0000   1.0000   1.0000   1.0000
     1.0000   1.0000   1.0000   1.0000   1.0000   1.0000   1.0000   1.0000
     1.0000   1.0000   1.0000   1.0000   1.0000   1.0000   1.0000   1.0000
     1.0000   1.0000   1.0000   1.0000   1.0000   1.0000   1.0000   1.0000
     1.0000   1.0000   1.0000   1.0000   1.0000   1.0000   1.0000   1.0000
     1.0000   1.0000   1.0000   1.0000   1.0000   1.0000   1.0000   1.0000
     1.0000   1.0000   1.0000   1.0000   1.0000   1.0000   1.0000   1.0000
     1.0000   1.0000   1.0000   1.0000   1.0000   1.0000   1.0000   1.0000
     1.0000   1.0000   1.0000   1.0000   1.0000   1.0000   1.0000   1.0000
     1.0000   1.0000   1.0000   1.0000   1.0000   1.0000   1.0000   1.0000
     1.0000   1.0000   1.0000   1.0000   1.0000   1.0000   1.0000   1.0000
     1.0000   1.0000   1.0000   1.0000   1.0000   1.0000   1.0000   1.0000
     1.0000   1.0000   1.0000   1.0000   1.0000   1.0000   1.0000   1.0000
     1.0000   1.0000   1.0000   1.0000   1.0000   1.0000   0.9999   0.9999
     0.9999   0.9998   0.9993   0.9988   0.9985   0.9982   0.9982   0.9978
     0.9976   0.9971   0.9966   0.9964   0.9959   0.9951   0.9948   0.9937
     0.9932   0.9918   0.9889   0.9880   0.9870   0.9851   0.9834   0.9809
     0.9769   0.9670   0.9528   0.9480   0.9402   0.9365   0.9239   0.9142
     0.9080   0.9025   0.8962   0.8651   0.8545   0.8233   0.7746   0.7451
     0.7400   0.7343   0.7290   0.7246   0.7177   0.7134   0.7051   0.6991
     0.6929   0.6867   0.6812   0.6751   0.6719   0.6547   0.6486   0.6443
     0.6248   0.4540   0.4063   0.3699   0.3296   0.3162   0.2161   0.1723
     0.0735   0.0397   0.0194   0.0068   0.0029   0.0003   0.0002   0.0002
     0.0001   0.0001   0.0000   0.0000   0.0000   0.0000   0.0000   0.0000
     0.0000   0.0000   0.0000   0.0000   0.0000   0.0000   0.0000   0.0000
     0.0000   0.0000   0.0000   0.0000   0.0000   0.0000   0.0000   0.0000

          k =-0.5000 0.2500 0.0000 ( 65138 PWs)   bands (ev):

   -92.7202 -92.6679 -92.5743 -92.5258 -92.4675 -92.4265 -92.4097 -92.2843
   -56.0736 -56.0547 -55.9316 -55.9209 -55.9140 -55.9077 -55.8731 -55.8434
   -55.8284 -55.8259 -55.8174 -55.7756 -55.7559 -55.7190 -55.7007 -55.6672
   -55.6615 -55.6151 -55.6119 -55.6107 -55.6034 -55.5572 -55.5399 -55.4526
   -31.2921 -31.2804 -31.1351 -31.0741 -31.0497 -31.0175 -30.8535 -30.8405
   -29.8655 -29.8264 -29.7995 -29.6926 -15.0025 -14.9585 -14.8796 -14.7800
   -14.7390 -14.6116 -14.5255 -14.3950 -14.0856 -14.0545 -14.0430 -13.9992
   -13.9778 -13.9532 -13.9164 -13.9099 -13.8879 -13.8465 -13.8356 -13.7319
   -13.6570 -13.6087 -13.6055 -13.5915 -13.5083 -13.4876 -13.3806 -13.3293
   -13.2186 -13.1825 -13.0866 -13.0473 -13.0388 -13.0333 -13.0039 -12.9721
   -12.9583 -12.9378 -12.9114 -12.8373 -12.8135 -12.7710 -12.7369 -12.7252
   -12.6412 -12.6333 -12.5579 -12.4598 -12.3409 -12.3119 -12.2210 -12.1950
   -11.7914 -11.7787 -11.7644 -11.7526 -11.7312 -11.7009 -11.6207 -11.6124
   -11.5887 -11.5535 -11.5252 -11.5164  -2.4598  -2.4176  -2.2693  -2.2272
    -2.0669  -1.9904  -1.8481  -1.7122  -1.6554  -1.6279  -1.5894  -1.5506
    -1.4703  -1.3550  -1.2980  -1.2747  -1.2487  -1.1727  -1.1438  -1.1059
    -1.0880  -1.0273  -0.9989  -0.9590  -0.9238  -0.8951  -0.8372  -0.8108
    -0.7694  -0.7343  -0.6296  -0.6044  -0.5152  -0.4544  -0.4221  -0.3650
    -0.2804  -0.2494  -0.1463  -0.1141  -0.0500  -0.0061   0.0237   0.0974
     0.1285   0.1617   0.2120   0.2496   0.5636   0.6117   0.6854   0.7045
     0.9910   1.0528   1.1252   1.1516   1.3298   1.3654   1.4029   1.4160
     1.4336   1.4517   1.5206   1.5646   1.6030   1.6343   1.7448   1.7862
     1.8227   1.8336   1.8658   1.8934   1.9093   1.9232   1.9426   1.9667
     2.0100   2.0311   2.0648   2.0883   2.1168   2.1788   2.2999   2.3977
     2.4262   2.4941   2.5335   2.5973   2.6305   2.6390   2.6726   2.7092
     2.7322   2.7783   2.8332   2.8714   2.8751   2.8803   2.8991   2.9237
     2.9344   2.9502   2.9620   2.9832   2.9957   3.0061   3.0153   3.0243
     3.0385   3.5745   3.5980   3.7590   3.7755   4.0773   4.1235   4.1785
     4.3799   4.7665   4.8592   5.0292   5.0623   5.3865   5.4133   5.5708
     5.6240   5.7276   5.7692   6.1930   6.3820   6.4644   6.5623   7.0819
     7.4499   7.5330   7.7027   7.7284   7.7867   7.8755   8.0094   8.1546
     8.3694   8.4127   8.4402   8.5020   8.5529   8.5787   8.6650   8.7360

     occupation numbers 
     1.0000   1.0000   1.0000   1.0000   1.0000   1.0000   1.0000   1.0000
     1.0000   1.0000   1.0000   1.0000   1.0000   1.0000   1.0000   1.0000
     1.0000   1.0000   1.0000   1.0000   1.0000   1.0000   1.0000   1.0000
     1.0000   1.0000   1.0000   1.0000   1.0000   1.0000   1.0000   1.0000
     1.0000   1.0000   1.0000   1.0000   1.0000   1.0000   1.0000   1.0000
     1.0000   1.0000   1.0000   1.0000   1.0000   1.0000   1.0000   1.0000
     1.0000   1.0000   1.0000   1.0000   1.0000   1.0000   1.0000   1.0000
     1.0000   1.0000   1.0000   1.0000   1.0000   1.0000   1.0000   1.0000
     1.0000   1.0000   1.0000   1.0000   1.0000   1.0000   1.0000   1.0000
     1.0000   1.0000   1.0000   1.0000   1.0000   1.0000   1.0000   1.0000
     1.0000   1.0000   1.0000   1.0000   1.0000   1.0000   1.0000   1.0000
     1.0000   1.0000   1.0000   1.0000   1.0000   1.0000   1.0000   1.0000
     1.0000   1.0000   1.0000   1.0000   1.0000   1.0000   1.0000   1.0000
     1.0000   1.0000   1.0000   1.0000   1.0000   1.0000   1.0000   1.0000
     1.0000   1.0000   1.0000   1.0000   1.0000   1.0000   1.0000   1.0000
     1.0000   1.0000   1.0000   1.0000   1.0000   1.0000   1.0000   1.0000
     1.0000   1.0000   1.0000   1.0000   1.0000   1.0000   1.0000   1.0000
     1.0000   1.0000   1.0000   1.0000   1.0000   1.0000   1.0000   1.0000
     1.0000   1.0000   1.0000   1.0000   1.0000   1.0000   1.0000   1.0000
     1.0000   1.0000   1.0000   1.0000   1.0000   1.0000   1.0000   0.9999
     0.9997   0.9996   0.9994   0.9993   0.9983   0.9980   0.9977   0.9975
     0.9973   0.9971   0.9960   0.9952   0.9943   0.9935   0.9898   0.9881
     0.9863   0.9857   0.9839   0.9821   0.9811   0.9801   0.9787   0.9768
     0.9730   0.9710   0.9675   0.9649   0.9615   0.9531   0.9327   0.9116
     0.9047   0.8864   0.8748   0.8541   0.8426   0.8395   0.8271   0.8128
     0.8035   0.7840   0.7593   0.7413   0.7395   0.7370   0.7278   0.7156
     0.7102   0.7021   0.6960   0.6849   0.6782   0.6727   0.6677   0.6629
     0.6552   0.3458   0.3331   0.2512   0.2435   0.1265   0.1128   0.0979
     0.0556   0.0151   0.0106   0.0053   0.0046   0.0010   0.0009   0.0004
     0.0003   0.0002   0.0001   0.0000   0.0000   0.0000   0.0000   0.0000
     0.0000   0.0000   0.0000   0.0000   0.0000   0.0000   0.0000   0.0000
     0.0000   0.0000   0.0000   0.0000   0.0000   0.0000   0.0000   0.0000

     the Fermi energy is     3.3074 ev

!    total energy              =   -4399.91569167 Ry
     estimated scf accuracy    <          7.5E-09 Ry
     smearing contrib. (-TS)   =      -1.14598214 Ry
     internal energy E=F+TS    =   -4398.76970953 Ry

     The total energy is F=E-TS. E is the sum of the following terms:
     one-electron contribution =  -21252.60691987 Ry
     hartree contribution      =   10754.12089667 Ry
     xc contribution           =    -686.72705075 Ry
     ewald contribution        =    7053.08853686 Ry
     one-center paw contrib.   =    -266.64517244 Ry
      -> PAW hartree energy AE =      25.17969983 Ry
      -> PAW hartree energy PS =     -25.06343317 Ry
      -> PAW xc energy AE      =     -16.51985567 Ry
      -> PAW xc energy PS      =       6.87944174 Ry
      -> total E_H with PAW    =   10754.23716334 Ry
      -> total E_XC with PAW   =    -696.36746468 Ry

     convergence has been achieved in  49 iterations

     Writing all to output data dir /bsuhome/zayahcortright/scratch/pwscf.save/
 
     init_run     :      7.67s CPU      7.99s WALL (       1 calls)
     electrons    :    700.02s CPU    712.69s WALL (       1 calls)

     Called by init_run:
     wfcinit      :      5.90s CPU      6.01s WALL (       1 calls)
     wfcinit:atom :      0.05s CPU      0.06s WALL (       5 calls)
     wfcinit:wfcr :      5.59s CPU      5.66s WALL (       5 calls)
     potinit      :      0.21s CPU      0.22s WALL (       1 calls)
     hinit0       :      0.61s CPU      0.73s WALL (       1 calls)

     Called by electrons:
     c_bands      :    554.30s CPU    559.37s WALL (      49 calls)
     sum_band     :    109.05s CPU    113.43s WALL (      49 calls)
     v_of_rho     :      5.36s CPU      5.62s WALL (      50 calls)
     v_h          :      0.49s CPU      0.49s WALL (      50 calls)
     v_xc         :      4.87s CPU      5.13s WALL (      50 calls)
     newd         :     16.71s CPU     19.22s WALL (      50 calls)
     PAW_pot      :      1.59s CPU      1.61s WALL (      50 calls)
     mix_rho      :     12.64s CPU     12.90s WALL (      49 calls)

     Called by c_bands:
     init_us_2    :      7.10s CPU      7.17s WALL (     495 calls)
     init_us_2:cp :      7.10s CPU      7.16s WALL (     495 calls)
     cegterg      :    520.88s CPU    525.73s WALL (     245 calls)

     Called by sum_band:
     sum_band:wei :      0.34s CPU      0.34s WALL (      49 calls)
     sum_band:loo :     89.41s CPU     90.10s WALL (      49 calls)
     sum_band:buf :      1.44s CPU      1.45s WALL (     245 calls)
     sum_band:ini :      3.41s CPU      3.42s WALL (     245 calls)
     sum_band:cal :     18.42s CPU     18.47s WALL (     245 calls)
     sum_band:bec :      0.54s CPU      0.55s WALL (     245 calls)
     addusdens    :     18.34s CPU     21.99s WALL (      49 calls)
                                        0.00s GPU  (      49 calls)
     addusd:skk   :      0.35s CPU      0.69s WALL (     196 calls)
                                        0.00s GPU  (     196 calls)

     Called by *egterg:
     cdiaghg      :     56.47s CPU     56.69s WALL (    1342 calls)
     cegterg:over :     37.23s CPU     37.35s WALL (    1097 calls)
     cegterg:upda :     27.84s CPU     28.21s WALL (    1097 calls)
     cegterg:last :     55.76s CPU     55.95s WALL (     438 calls)
     cdiaghg:chol :      3.28s CPU      3.31s WALL (    1342 calls)
     cdiaghg:inve :      3.51s CPU      3.53s WALL (    1342 calls)
     cdiaghg:para :      7.19s CPU      7.22s WALL (    2684 calls)
     h_psi        :    289.06s CPU    291.94s WALL (    1347 calls)
     s_psi        :     39.36s CPU     39.47s WALL (    1347 calls)
     g_psi        :      1.16s CPU      1.17s WALL (    1097 calls)

     Called by h_psi:
     h_psi:calbec :     42.22s CPU     42.36s WALL (    1347 calls)
     vloc_psi     :    204.62s CPU    206.81s WALL (    1347 calls)
     add_vuspsi   :     38.91s CPU     39.04s WALL (    1347 calls)

     General routines
     calbec       :     60.63s CPU     60.83s WALL (    1592 calls)
     fft          :      3.52s CPU      3.56s WALL (     648 calls)
     ffts         :      4.65s CPU      4.69s WALL (    5277 calls)
     fftw         :    175.51s CPU    177.07s WALL (  328302 calls)
     interpolate  :      0.40s CPU      0.41s WALL (      50 calls)
 
     Parallel routines

     PAW routines
     PAW_pot      :      1.59s CPU      1.61s WALL (      50 calls)
 
     PWSCF        :  11m51.04s CPU  12m 7.09s WALL

 
   This run was terminated on:   0:41:36  22Jun2024            

=------------------------------------------------------------------------------=
   JOB DONE.
=------------------------------------------------------------------------------=
