
     Program PWSCF v.7.2 starts on 20Jun2024 at 13:53:28 

     This program is part of the open-source Quantum ESPRESSO suite
     for quantum simulation of materials; please cite
         "P. Giannozzi et al., J. Phys.:Condens. Matter 21 395502 (2009);
         "P. Giannozzi et al., J. Phys.:Condens. Matter 29 465901 (2017);
         "P. Giannozzi et al., J. Chem. Phys. 152 154105 (2020);
          URL http://www.quantum-espresso.org", 
     in publications or presentations arising from this work. More details at
     http://www.quantum-espresso.org/quote

     Parallel version (MPI & OpenMP), running on      48 processor cores
     Number of MPI processes:                48
     Threads/MPI process:                     1

     MPI processes distributed on     1 nodes
     41853 MiB available memory on the printing compute node when the environment starts
 
     Reading input from espresso.pwi
Warning: card &CELL ignored
Warning: card / ignored
Warning: card &FCP ignored
Warning: card / ignored
Warning: card &RISM ignored
Warning: card / ignored

     Current dimensions of program PWSCF are:
     Max number of different atomic species (ntypx) = 10
     Max number of k-points (npk) =  40000
     Max angular momentum in pseudopotentials (lmaxx) =  4
     file O.pbe-n-kjpaw_psl.0.1.UPF: wavefunction(s)  2P renormalized
     signal trapping enabled: kill the code with -SIGUSR1 to stop cleanly the simulation 
 
     K-points division:     npool     =       2
     R & G space division:  proc/nbgrp/npool/nimage =      24
     Subspace diagonalization in iterative solution of the eigenvalue problem:
     one sub-group per band group will be used
     scalapack distributed-memory algorithm (size of sub-group:  3*  3 procs)

 
     Parallelization info
     --------------------
     sticks:   dense  smooth     PW     G-vecs:    dense   smooth      PW
     Min         350     175     47                61430    21716    3036
     Max         351     177     48                61449    21727    3041
     Sum        8421    4205   1137              1474595   521381   72913
 
     Using Slab Decomposition
 


     bravais-lattice index     =            0
     lattice parameter (alat)  =      14.8599  a.u.
     unit-cell volume          =    8305.1283 (a.u.)^3
     number of atoms/cell      =           51
     number of atomic types    =            4
     number of electrons       =       437.00
     number of Kohn-Sham states=          263
     kinetic-energy cutoff     =      60.0000  Ry
     charge density cutoff     =     480.0000  Ry
     scf convergence threshold =      1.0E-08
     mixing beta               =       0.1500
     number of iterations used =            8  local-TF  mixing
     Exchange-correlation= PBE
                           (   1   4   3   4   0   0   0)

     celldm(1)=  14.859904  celldm(2)=   0.000000  celldm(3)=   0.000000
     celldm(4)=   0.000000  celldm(5)=   0.000000  celldm(6)=   0.000000

     crystal axes: (cart. coord. in units of alat)
               a(1) = (   1.000000   0.000000   0.000000 )  
               a(2) = (   0.000000   1.000000   0.000000 )  
               a(3) = (   0.000000   0.000000   2.531036 )  

     reciprocal axes: (cart. coord. in units 2 pi/alat)
               b(1) = (  1.000000  0.000000  0.000000 )  
               b(2) = (  0.000000  1.000000  0.000000 )  
               b(3) = (  0.000000  0.000000  0.395095 )  


     PseudoPot. # 1 for Sr read from file:
     /bsuhome/zayahcortright/q-e/pseudo/Sr_pbe_v1.uspp.F.UPF
     MD5 check sum: 6b418c05fbe9db5448babca5e47b7a5b
     Pseudo is Ultrasoft + core correction, Zval = 10.0
     Generated by new atomic code, or converted to UPF format
     Using radial grid of  883 points,  6 beta functions with: 
                l(1) =   0
                l(2) =   0
                l(3) =   1
                l(4) =   1
                l(5) =   2
                l(6) =   2
     Q(r) pseudized with  6 coefficients,  rinner =    1.400   1.400   1.400
                                                       1.400   1.400

     PseudoPot. # 2 for O  read from file:
     /bsuhome/zayahcortright/q-e/pseudo/O.pbe-n-kjpaw_psl.0.1.UPF
     MD5 check sum: 0234752ac141de4415c5fc33072bef88
     Pseudo is Projector augmented-wave + core cor, Zval =  6.0
     Generated using "atomic" code by A. Dal Corso  v.5.0.99 svn rev. 10869
     Shape of augmentation charge: BESSEL
     Using radial grid of 1095 points,  4 beta functions with: 
                l(1) =   0
                l(2) =   0
                l(3) =   1
                l(4) =   1
     Q(r) pseudized with 0 coefficients 


     PseudoPot. # 3 for Co read from file:
     /bsuhome/zayahcortright/q-e/pseudo/Co_pbe_v1.2.uspp.F.UPF
     MD5 check sum: 5f91765df6ddd3222702df6e7b74a16d
     Pseudo is Ultrasoft + core correction, Zval = 17.0
     Generated by new atomic code, or converted to UPF format
     Using radial grid of  863 points,  6 beta functions with: 
                l(1) =   0
                l(2) =   0
                l(3) =   1
                l(4) =   1
                l(5) =   2
                l(6) =   2
     Q(r) pseudized with  8 coefficients,  rinner =    1.200   1.200   1.200
                                                       1.200   1.200

     PseudoPot. # 4 for H  read from file:
     /bsuhome/zayahcortright/q-e/pseudo/H.pbe-rrkjus_psl.1.0.0.UPF
     MD5 check sum: f52b6d4d1c606e5624b1dc7b2218f220
     Pseudo is Ultrasoft, Zval =  1.0
     Generated using "atomic" code by A. Dal Corso  v.5.1
     Using radial grid of  929 points,  2 beta functions with: 
                l(1) =   0
                l(2) =   0
     Q(r) pseudized with 0 coefficients 


     atomic species   valence    mass     pseudopotential
        Sr            10.00    87.62000     Sr( 1.00)
        O              6.00    15.99900     O ( 1.00)
        Co            17.00    58.93319     Co( 1.00)
        H              1.00     1.00800     H ( 1.00)

     No symmetry found


                                    s                        frac. trans.

      isym =  1     identity                                     

 cryst.   s( 1) = (     1          0          0      )
                  (     0          1          0      )
                  (     0          0          1      )

 cart.    s( 1) = (  1.0000000  0.0000000  0.0000000 )
                  (  0.0000000  1.0000000  0.0000000 )
                  (  0.0000000  0.0000000  1.0000000 )


   Cartesian axes

     site n.     atom                  positions (alat units)
         1           Sr  tau(   1) = (   0.2508693   0.7491307   1.7574407  )
         2           O   tau(   2) = (   0.4985141   0.5014859   1.7715967  )
         3           Sr  tau(   3) = (   0.7482398   0.7454518   1.7648669  )
         4           Sr  tau(   4) = (   0.7441748   0.2558252   1.7667843  )
         5           Sr  tau(   5) = (   0.2508693   0.7491307   1.2696799  )
         6           Sr  tau(   6) = (   0.2508693   0.7491307   0.7632319  )
         7           Co  tau(   7) = (   0.4998914   0.5001086   1.0164559  )
         8           Co  tau(   8) = (   0.4936915   0.5063085   1.5135603  )
         9           O   tau(   9) = (   0.4988895   0.7610401   1.0164559  )
        10           O   tau(  10) = (   0.2389599   0.5011105   1.0164559  )
        11           O   tau(  11) = (   0.0070918   0.7374880   1.0164559  )
        12           O   tau(  12) = (   0.0088340   0.7405089   1.5135603  )
        13           O   tau(  13) = (   0.5066944   0.7415376   1.5135603  )
        14           O   tau(  14) = (   0.2584624   0.4933056   1.5135603  )
        15           O   tau(  15) = (   0.4985141   0.5014859   0.7773880  )
        16           O   tau(  16) = (   0.4985141   0.5014859   1.2555238  )
        17           Sr  tau(  17) = (   0.7482398   0.7454518   0.7706582  )
        18           Sr  tau(  18) = (   0.7482398   0.7454518   1.2622536  )
        19           Sr  tau(  19) = (   0.7441748   0.2558252   0.7725755  )
        20           Sr  tau(  20) = (   0.7441748   0.2558252   1.2603363  )
        21           O   tau(  21) = (   0.7322655   0.0078049   1.5135603  )
        22           O   tau(  22) = (   0.7558175   0.4996027   1.5135603  )
        23           O   tau(  23) = (   0.5003973   0.2441825   1.5135603  )
        24           O   tau(  24) = (   0.7527966   0.4978604   1.0164559  )
        25           O   tau(  25) = (   0.5021396   0.2472034   1.0164559  )
        26           O   tau(  26) = (   0.7517679   0.0000000   1.0164559  )
        27           O   tau(  27) = (   0.0114961   0.4948124   1.7455321  )
        28           O   tau(  28) = (   0.0048226   0.0077944   1.7715967  )
        29           Sr  tau(  29) = (   0.2545482   0.2517602   1.7648669  )
        30           O   tau(  30) = (   0.5048017   0.0015068   1.7786929  )
        31           Co  tau(  31) = (   0.0056869   0.5006215   1.0164559  )
        32           Co  tau(  32) = (   0.0065315   0.4997770   1.5135603  )
        33           Co  tau(  33) = (   0.0061999   0.0064171   1.0164559  )
        34           Co  tau(  34) = (   0.0000000   0.0126169   1.5135603  )
        35           O   tau(  35) = (   0.0114961   0.4948124   1.2815885  )
        36           O   tau(  36) = (   0.0114961   0.4948124   0.7513233  )
        37           O   tau(  37) = (   0.0051979   0.2673486   1.0164559  )
        38           O   tau(  38) = (   0.0130029   0.2478461   1.5135603  )
        39           O   tau(  39) = (   0.0048226   0.0077944   0.7773880  )
        40           O   tau(  40) = (   0.0048226   0.0077944   1.2555238  )
        41           Sr  tau(  41) = (   0.2545482   0.2517602   0.7706582  )
        42           Sr  tau(  42) = (   0.2545482   0.2517602   1.2622536  )
        43           Co  tau(  43) = (   0.4989925   0.0073160   1.5135603  )
        44           Co  tau(  44) = (   0.4998370   0.0064714   1.0164559  )
        45           O   tau(  45) = (   0.5048017   0.0015068   0.7844841  )
        46           O   tau(  46) = (   0.5048017   0.0015068   1.2484277  )
        47           O   tau(  47) = (   0.2621260   0.0059111   1.5135603  )
        48           O   tau(  48) = (   0.2591051   0.0041689   1.0164559  )
        49           O   tau(  49) = (   0.5686583   0.1421646   2.1602013  )
        50           O   tau(  50) = (   0.5686583   0.1421646   2.3186489  )
        51           H   tau(  51) = (   0.5686583   0.1421646   2.4431567  )

   Crystallographic axes

     site n.     atom                  positions (cryst. coord.)
         1           Sr  tau(   1) = (  0.2508693  0.7491307  0.6943562  )
         2           O   tau(   2) = (  0.4985141  0.5014859  0.6999492  )
         3           Sr  tau(   3) = (  0.7482398  0.7454518  0.6972903  )
         4           Sr  tau(   4) = (  0.7441748  0.2558252  0.6980478  )
         5           Sr  tau(   5) = (  0.2508693  0.7491307  0.5016443  )
         6           Sr  tau(   6) = (  0.2508693  0.7491307  0.3015492  )
         7           Co  tau(   7) = (  0.4998914  0.5001086  0.4015968  )
         8           Co  tau(   8) = (  0.4936915  0.5063085  0.5980003  )
         9           O   tau(   9) = (  0.4988895  0.7610401  0.4015968  )
        10           O   tau(  10) = (  0.2389599  0.5011105  0.4015968  )
        11           O   tau(  11) = (  0.0070918  0.7374880  0.4015968  )
        12           O   tau(  12) = (  0.0088340  0.7405089  0.5980003  )
        13           O   tau(  13) = (  0.5066944  0.7415376  0.5980003  )
        14           O   tau(  14) = (  0.2584624  0.4933056  0.5980003  )
        15           O   tau(  15) = (  0.4985141  0.5014859  0.3071422  )
        16           O   tau(  16) = (  0.4985141  0.5014859  0.4960513  )
        17           Sr  tau(  17) = (  0.7482398  0.7454518  0.3044833  )
        18           Sr  tau(  18) = (  0.7482398  0.7454518  0.4987103  )
        19           Sr  tau(  19) = (  0.7441748  0.2558252  0.3052408  )
        20           Sr  tau(  20) = (  0.7441748  0.2558252  0.4979527  )
        21           O   tau(  21) = (  0.7322655  0.0078049  0.5980003  )
        22           O   tau(  22) = (  0.7558175  0.4996027  0.5980003  )
        23           O   tau(  23) = (  0.5003973  0.2441825  0.5980003  )
        24           O   tau(  24) = (  0.7527966  0.4978604  0.4015968  )
        25           O   tau(  25) = (  0.5021396  0.2472034  0.4015968  )
        26           O   tau(  26) = (  0.7517679  0.0000000  0.4015968  )
        27           O   tau(  27) = (  0.0114961  0.4948124  0.6896512  )
        28           O   tau(  28) = (  0.0048226  0.0077944  0.6999492  )
        29           Sr  tau(  29) = (  0.2545482  0.2517602  0.6972903  )
        30           O   tau(  30) = (  0.5048017  0.0015068  0.7027529  )
        31           Co  tau(  31) = (  0.0056869  0.5006215  0.4015968  )
        32           Co  tau(  32) = (  0.0065315  0.4997770  0.5980003  )
        33           Co  tau(  33) = (  0.0061999  0.0064171  0.4015968  )
        34           Co  tau(  34) = (  0.0000000  0.0126169  0.5980003  )
        35           O   tau(  35) = (  0.0114961  0.4948124  0.5063494  )
        36           O   tau(  36) = (  0.0114961  0.4948124  0.2968442  )
        37           O   tau(  37) = (  0.0051979  0.2673486  0.4015968  )
        38           O   tau(  38) = (  0.0130029  0.2478461  0.5980003  )
        39           O   tau(  39) = (  0.0048226  0.0077944  0.3071422  )
        40           O   tau(  40) = (  0.0048226  0.0077944  0.4960513  )
        41           Sr  tau(  41) = (  0.2545482  0.2517602  0.3044833  )
        42           Sr  tau(  42) = (  0.2545482  0.2517602  0.4987103  )
        43           Co  tau(  43) = (  0.4989925  0.0073160  0.5980003  )
        44           Co  tau(  44) = (  0.4998370  0.0064714  0.4015968  )
        45           O   tau(  45) = (  0.5048017  0.0015068  0.3099459  )
        46           O   tau(  46) = (  0.5048017  0.0015068  0.4932477  )
        47           O   tau(  47) = (  0.2621260  0.0059111  0.5980003  )
        48           O   tau(  48) = (  0.2591051  0.0041689  0.4015968  )
        49           O   tau(  49) = (  0.5686583  0.1421646  0.8534850  )
        50           O   tau(  50) = (  0.5686583  0.1421646  0.9160869  )
        51           H   tau(  51) = (  0.5686583  0.1421646  0.9652793  )

     number of k points=    10  Gaussian smearing, width (Ry)=  0.0700
                       cart. coord. in units 2pi/alat
        k(    1) = (   0.0000000   0.0000000   0.0000000), wk =   0.1250000
        k(    2) = (   0.0000000   0.2500000   0.0000000), wk =   0.2500000
        k(    3) = (   0.0000000  -0.5000000   0.0000000), wk =   0.1250000
        k(    4) = (   0.2500000   0.2500000   0.0000000), wk =   0.2500000
        k(    5) = (   0.2500000  -0.5000000   0.0000000), wk =   0.2500000
        k(    6) = (  -0.5000000  -0.5000000   0.0000000), wk =   0.1250000
        k(    7) = (   0.2500000   0.0000000   0.0000000), wk =   0.2500000
        k(    8) = (  -0.5000000   0.0000000   0.0000000), wk =   0.1250000
        k(    9) = (  -0.2500000   0.2500000   0.0000000), wk =   0.2500000
        k(   10) = (  -0.5000000   0.2500000   0.0000000), wk =   0.2500000

                       cryst. coord.
        k(    1) = (   0.0000000   0.0000000   0.0000000), wk =   0.1250000
        k(    2) = (   0.0000000   0.2500000   0.0000000), wk =   0.2500000
        k(    3) = (   0.0000000  -0.5000000   0.0000000), wk =   0.1250000
        k(    4) = (   0.2500000   0.2500000   0.0000000), wk =   0.2500000
        k(    5) = (   0.2500000  -0.5000000   0.0000000), wk =   0.2500000
        k(    6) = (  -0.5000000  -0.5000000   0.0000000), wk =   0.1250000
        k(    7) = (   0.2500000   0.0000000   0.0000000), wk =   0.2500000
        k(    8) = (  -0.5000000   0.0000000   0.0000000), wk =   0.1250000
        k(    9) = (  -0.2500000   0.2500000   0.0000000), wk =   0.2500000
        k(   10) = (  -0.5000000   0.2500000   0.0000000), wk =   0.2500000

     Dense  grid:  1474595 G-vectors     FFT dimensions: ( 108, 108, 270)

     Smooth grid:   521381 G-vectors     FFT dimensions: (  75,  75, 192)

     Dynamical RAM for                 wfc:      10.90 MB

     Dynamical RAM for     wfc (w. buffer):      65.37 MB

     Dynamical RAM for           str. fact:       3.75 MB

     Dynamical RAM for           local pot:       0.00 MB

     Dynamical RAM for          nlocal pot:      24.94 MB

     Dynamical RAM for                qrad:       7.03 MB

     Dynamical RAM for          rho,v,vnew:       6.02 MB

     Dynamical RAM for               rhoin:       2.01 MB

     Dynamical RAM for            rho*nmix:      15.00 MB

     Dynamical RAM for           G-vectors:       3.68 MB

     Dynamical RAM for          h,s,v(r/c):       1.40 MB

     Dynamical RAM for          <psi|beta>:       2.42 MB

     Dynamical RAM for                 psi:      21.79 MB

     Dynamical RAM for                hpsi:      21.79 MB

     Dynamical RAM for                spsi:      21.79 MB

     Dynamical RAM for      wfcinit/wfcrot:      34.89 MB

     Dynamical RAM for           addusdens:     101.73 MB

     Estimated static dynamical RAM per process >     122.82 MB

     Estimated max dynamical RAM per process >     239.55 MB

     Estimated total dynamical RAM >      10.88 GB

     Check: negative core charge=   -0.000004

     Initial potential from superposition of free atoms

     starting charge     428.5961, renormalised to     437.0000

     negative rho (up, down):  7.813E-01 0.000E+00
     Starting wfcs are  381 randomized atomic wfcs
     Checking if some PAW data can be deallocated... 
       PAW data deallocated on   18 nodes for type:  2

     total cpu time spent up to now is        9.8 secs

     Self-consistent Calculation

     iteration #  1     ecut=    60.00 Ry     beta= 0.15
     Davidson diagonalization with overlap

---- Real-time Memory Report at c_bands before calling an iterative solver
             0 MiB given to the printing process from OS
             0 MiB allocation reported by mallinfo(arena+hblkhd)
         32070 MiB available memory on the node where the printing process lives
------------------
     ethr =  1.00E-02,  avg # of iterations =  2.0

     negative rho (up, down):  7.716E-01 0.000E+00

     total cpu time spent up to now is       26.3 secs

     total energy              =   -4489.32418229 Ry
     estimated scf accuracy    <      49.74304506 Ry

     iteration #  2     ecut=    60.00 Ry     beta= 0.15
     Davidson diagonalization with overlap

---- Real-time Memory Report at c_bands before calling an iterative solver
             0 MiB given to the printing process from OS
             0 MiB allocation reported by mallinfo(arena+hblkhd)
         32461 MiB available memory on the node where the printing process lives
------------------
     ethr =  1.00E-02,  avg # of iterations =  1.0

     negative rho (up, down):  7.614E-01 0.000E+00

     total cpu time spent up to now is       39.9 secs

     total energy              =   -4486.81642813 Ry
     estimated scf accuracy    <      35.42383928 Ry

     iteration #  3     ecut=    60.00 Ry     beta= 0.15
     Davidson diagonalization with overlap

---- Real-time Memory Report at c_bands before calling an iterative solver
             0 MiB given to the printing process from OS
             0 MiB allocation reported by mallinfo(arena+hblkhd)
         31693 MiB available memory on the node where the printing process lives
------------------
     ethr =  8.11E-03,  avg # of iterations =  1.0

     negative rho (up, down):  7.563E-01 0.000E+00

     total cpu time spent up to now is       53.2 secs

     total energy              =   -4486.77521712 Ry
     estimated scf accuracy    <      35.40767628 Ry

     iteration #  4     ecut=    60.00 Ry     beta= 0.15
     Davidson diagonalization with overlap

---- Real-time Memory Report at c_bands before calling an iterative solver
             0 MiB given to the printing process from OS
             0 MiB allocation reported by mallinfo(arena+hblkhd)
         31684 MiB available memory on the node where the printing process lives
------------------
     ethr =  8.10E-03,  avg # of iterations =  1.0

     negative rho (up, down):  7.576E-01 0.000E+00

     total cpu time spent up to now is       66.2 secs

     total energy              =   -4486.58083984 Ry
     estimated scf accuracy    <      34.26741103 Ry

     iteration #  5     ecut=    60.00 Ry     beta= 0.15
     Davidson diagonalization with overlap

---- Real-time Memory Report at c_bands before calling an iterative solver
             0 MiB given to the printing process from OS
             0 MiB allocation reported by mallinfo(arena+hblkhd)
         31663 MiB available memory on the node where the printing process lives
------------------
     ethr =  7.84E-03,  avg # of iterations =  1.0

     negative rho (up, down):  7.335E-01 0.000E+00

     total cpu time spent up to now is       79.0 secs

     total energy              =   -4482.44862389 Ry
     estimated scf accuracy    <      22.53846416 Ry

     iteration #  6     ecut=    60.00 Ry     beta= 0.15
     Davidson diagonalization with overlap

---- Real-time Memory Report at c_bands before calling an iterative solver
             0 MiB given to the printing process from OS
             0 MiB allocation reported by mallinfo(arena+hblkhd)
         31646 MiB available memory on the node where the printing process lives
------------------
     ethr =  5.16E-03,  avg # of iterations =  2.0

     negative rho (up, down):  7.491E-01 0.000E+00

     total cpu time spent up to now is       93.5 secs

     total energy              =   -4483.45978130 Ry
     estimated scf accuracy    <      34.24871883 Ry

     iteration #  7     ecut=    60.00 Ry     beta= 0.15
     Davidson diagonalization with overlap

---- Real-time Memory Report at c_bands before calling an iterative solver
             0 MiB given to the printing process from OS
             0 MiB allocation reported by mallinfo(arena+hblkhd)
         31612 MiB available memory on the node where the printing process lives
------------------
     ethr =  5.16E-03,  avg # of iterations =  1.0

     negative rho (up, down):  7.541E-01 0.000E+00

     total cpu time spent up to now is      106.3 secs

     total energy              =   -4483.62838656 Ry
     estimated scf accuracy    <      33.28608224 Ry

     iteration #  8     ecut=    60.00 Ry     beta= 0.15
     Davidson diagonalization with overlap

---- Real-time Memory Report at c_bands before calling an iterative solver
             0 MiB given to the printing process from OS
             0 MiB allocation reported by mallinfo(arena+hblkhd)
         31600 MiB available memory on the node where the printing process lives
------------------
     ethr =  5.16E-03,  avg # of iterations =  1.0

     negative rho (up, down):  7.515E-01 0.000E+00

     total cpu time spent up to now is      119.1 secs

     total energy              =   -4483.86750796 Ry
     estimated scf accuracy    <       6.59591677 Ry

     iteration #  9     ecut=    60.00 Ry     beta= 0.15
     Davidson diagonalization with overlap

---- Real-time Memory Report at c_bands before calling an iterative solver
             0 MiB given to the printing process from OS
             0 MiB allocation reported by mallinfo(arena+hblkhd)
         31582 MiB available memory on the node where the printing process lives
------------------
     ethr =  1.51E-03,  avg # of iterations =  2.9

     negative rho (up, down):  7.663E-01 0.000E+00

     total cpu time spent up to now is      133.8 secs

     total energy              =   -4483.76901611 Ry
     estimated scf accuracy    <       3.88201904 Ry

     iteration # 10     ecut=    60.00 Ry     beta= 0.15
     Davidson diagonalization with overlap

---- Real-time Memory Report at c_bands before calling an iterative solver
             0 MiB given to the printing process from OS
             0 MiB allocation reported by mallinfo(arena+hblkhd)
         31531 MiB available memory on the node where the printing process lives
------------------
     ethr =  8.88E-04,  avg # of iterations =  9.7

     negative rho (up, down):  7.896E-01 0.000E+00

     total cpu time spent up to now is      152.4 secs

     total energy              =   -4483.49421996 Ry
     estimated scf accuracy    <       4.54613114 Ry

     iteration # 11     ecut=    60.00 Ry     beta= 0.15
     Davidson diagonalization with overlap

---- Real-time Memory Report at c_bands before calling an iterative solver
             0 MiB given to the printing process from OS
             0 MiB allocation reported by mallinfo(arena+hblkhd)
         31232 MiB available memory on the node where the printing process lives
------------------
     ethr =  8.88E-04,  avg # of iterations =  6.7

     negative rho (up, down):  7.928E-01 0.000E+00

     total cpu time spent up to now is      169.5 secs

     total energy              =   -4483.19068008 Ry
     estimated scf accuracy    <       3.89974720 Ry

     iteration # 12     ecut=    60.00 Ry     beta= 0.15
     Davidson diagonalization with overlap

---- Real-time Memory Report at c_bands before calling an iterative solver
             0 MiB given to the printing process from OS
             0 MiB allocation reported by mallinfo(arena+hblkhd)
         31054 MiB available memory on the node where the printing process lives
------------------
     ethr =  8.88E-04,  avg # of iterations =  5.2

     negative rho (up, down):  8.021E-01 0.000E+00

     total cpu time spent up to now is      185.3 secs

     total energy              =   -4483.21617738 Ry
     estimated scf accuracy    <       2.00358962 Ry

     iteration # 13     ecut=    60.00 Ry     beta= 0.15
     Davidson diagonalization with overlap

---- Real-time Memory Report at c_bands before calling an iterative solver
             0 MiB given to the printing process from OS
             0 MiB allocation reported by mallinfo(arena+hblkhd)
         31061 MiB available memory on the node where the printing process lives
------------------
     ethr =  4.58E-04,  avg # of iterations =  1.9

     negative rho (up, down):  8.033E-01 0.000E+00

     total cpu time spent up to now is      199.5 secs

     total energy              =   -4483.26166096 Ry
     estimated scf accuracy    <       1.04799167 Ry

     iteration # 14     ecut=    60.00 Ry     beta= 0.15
     Davidson diagonalization with overlap

---- Real-time Memory Report at c_bands before calling an iterative solver
             0 MiB given to the printing process from OS
             0 MiB allocation reported by mallinfo(arena+hblkhd)
         31071 MiB available memory on the node where the printing process lives
------------------
     ethr =  2.40E-04,  avg # of iterations =  9.0

     negative rho (up, down):  8.154E-01 0.000E+00

     total cpu time spent up to now is      217.8 secs

     total energy              =   -4483.11300174 Ry
     estimated scf accuracy    <       0.72997376 Ry

     iteration # 15     ecut=    60.00 Ry     beta= 0.15
     Davidson diagonalization with overlap

---- Real-time Memory Report at c_bands before calling an iterative solver
             0 MiB given to the printing process from OS
             0 MiB allocation reported by mallinfo(arena+hblkhd)
         30994 MiB available memory on the node where the printing process lives
------------------
     ethr =  1.67E-04,  avg # of iterations =  5.4

     negative rho (up, down):  8.184E-01 0.000E+00

     total cpu time spent up to now is      234.6 secs

     total energy              =   -4483.13553133 Ry
     estimated scf accuracy    <       2.59920030 Ry

     iteration # 16     ecut=    60.00 Ry     beta= 0.15
     Davidson diagonalization with overlap

---- Real-time Memory Report at c_bands before calling an iterative solver
             0 MiB given to the printing process from OS
             0 MiB allocation reported by mallinfo(arena+hblkhd)
         31015 MiB available memory on the node where the printing process lives
------------------
     ethr =  1.67E-04,  avg # of iterations =  3.0

     negative rho (up, down):  8.162E-01 0.000E+00

     total cpu time spent up to now is      249.5 secs

     total energy              =   -4483.11297618 Ry
     estimated scf accuracy    <       1.02687029 Ry

     iteration # 17     ecut=    60.00 Ry     beta= 0.15
     Davidson diagonalization with overlap

---- Real-time Memory Report at c_bands before calling an iterative solver
             0 MiB given to the printing process from OS
             0 MiB allocation reported by mallinfo(arena+hblkhd)
         31001 MiB available memory on the node where the printing process lives
------------------
     ethr =  1.67E-04,  avg # of iterations =  1.4

     negative rho (up, down):  8.199E-01 0.000E+00

     total cpu time spent up to now is      263.1 secs

     total energy              =   -4483.04869977 Ry
     estimated scf accuracy    <       0.39902698 Ry

     iteration # 18     ecut=    60.00 Ry     beta= 0.15
     Davidson diagonalization with overlap

---- Real-time Memory Report at c_bands before calling an iterative solver
             0 MiB given to the printing process from OS
             0 MiB allocation reported by mallinfo(arena+hblkhd)
         31003 MiB available memory on the node where the printing process lives
------------------
     ethr =  9.13E-05,  avg # of iterations = 11.6

     negative rho (up, down):  8.205E-01 0.000E+00

     total cpu time spent up to now is      282.7 secs

     total energy              =   -4483.03146613 Ry
     estimated scf accuracy    <       1.23544796 Ry

     iteration # 19     ecut=    60.00 Ry     beta= 0.15
     Davidson diagonalization with overlap

---- Real-time Memory Report at c_bands before calling an iterative solver
             0 MiB given to the printing process from OS
             0 MiB allocation reported by mallinfo(arena+hblkhd)
         30989 MiB available memory on the node where the printing process lives
------------------
     ethr =  9.13E-05,  avg # of iterations =  4.2

     negative rho (up, down):  8.300E-01 0.000E+00

     total cpu time spent up to now is      298.6 secs

     total energy              =   -4483.02178082 Ry
     estimated scf accuracy    <       0.39979716 Ry

     iteration # 20     ecut=    60.00 Ry     beta= 0.15
     Davidson diagonalization with overlap

---- Real-time Memory Report at c_bands before calling an iterative solver
             0 MiB given to the printing process from OS
             0 MiB allocation reported by mallinfo(arena+hblkhd)
         30983 MiB available memory on the node where the printing process lives
------------------
     ethr =  9.13E-05,  avg # of iterations =  3.3

     negative rho (up, down):  8.273E-01 0.000E+00

     total cpu time spent up to now is      314.0 secs

     total energy              =   -4482.96677010 Ry
     estimated scf accuracy    <       0.66134039 Ry

     iteration # 21     ecut=    60.00 Ry     beta= 0.15
     Davidson diagonalization with overlap

---- Real-time Memory Report at c_bands before calling an iterative solver
             0 MiB given to the printing process from OS
             0 MiB allocation reported by mallinfo(arena+hblkhd)
         30986 MiB available memory on the node where the printing process lives
------------------
     ethr =  9.13E-05,  avg # of iterations = 10.0

     negative rho (up, down):  8.470E-01 0.000E+00

     total cpu time spent up to now is      332.7 secs

     total energy              =   -4482.97919234 Ry
     estimated scf accuracy    <       0.06300569 Ry

     iteration # 22     ecut=    60.00 Ry     beta= 0.15
     Davidson diagonalization with overlap

---- Real-time Memory Report at c_bands before calling an iterative solver
             0 MiB given to the printing process from OS
             0 MiB allocation reported by mallinfo(arena+hblkhd)
         30914 MiB available memory on the node where the printing process lives
------------------
     ethr =  1.44E-05,  avg # of iterations = 11.4

     negative rho (up, down):  8.372E-01 0.000E+00

     total cpu time spent up to now is      352.7 secs

     total energy              =   -4482.97758073 Ry
     estimated scf accuracy    <       0.04087453 Ry

     iteration # 23     ecut=    60.00 Ry     beta= 0.15
     Davidson diagonalization with overlap

---- Real-time Memory Report at c_bands before calling an iterative solver
             0 MiB given to the printing process from OS
             0 MiB allocation reported by mallinfo(arena+hblkhd)
         30755 MiB available memory on the node where the printing process lives
------------------
     ethr =  9.35E-06,  avg # of iterations =  2.0

     negative rho (up, down):  8.249E-01 0.000E+00

     total cpu time spent up to now is      367.2 secs

     total energy              =   -4482.97340095 Ry
     estimated scf accuracy    <       0.02746257 Ry

     iteration # 24     ecut=    60.00 Ry     beta= 0.15
     Davidson diagonalization with overlap

---- Real-time Memory Report at c_bands before calling an iterative solver
             0 MiB given to the printing process from OS
             0 MiB allocation reported by mallinfo(arena+hblkhd)
         30752 MiB available memory on the node where the printing process lives
------------------
     ethr =  6.28E-06,  avg # of iterations = 12.7

     negative rho (up, down):  8.189E-01 0.000E+00

     total cpu time spent up to now is      386.9 secs

     total energy              =   -4482.97349349 Ry
     estimated scf accuracy    <       0.01351521 Ry

     iteration # 25     ecut=    60.00 Ry     beta= 0.15
     Davidson diagonalization with overlap

---- Real-time Memory Report at c_bands before calling an iterative solver
             0 MiB given to the printing process from OS
             0 MiB allocation reported by mallinfo(arena+hblkhd)
         30701 MiB available memory on the node where the printing process lives
------------------
     ethr =  3.09E-06,  avg # of iterations =  2.0

     negative rho (up, down):  8.088E-01 0.000E+00

     total cpu time spent up to now is      401.6 secs

     total energy              =   -4482.97176050 Ry
     estimated scf accuracy    <       0.01109792 Ry

     iteration # 26     ecut=    60.00 Ry     beta= 0.15
     Davidson diagonalization with overlap

---- Real-time Memory Report at c_bands before calling an iterative solver
             0 MiB given to the printing process from OS
             0 MiB allocation reported by mallinfo(arena+hblkhd)
         30723 MiB available memory on the node where the printing process lives
------------------
     c_bands:  1 eigenvalues not converged
     ethr =  2.54E-06,  avg # of iterations =  8.2

     negative rho (up, down):  7.974E-01 0.000E+00

     total cpu time spent up to now is      419.2 secs

     total energy              =   -4482.97076021 Ry
     estimated scf accuracy    <       0.00650779 Ry

     iteration # 27     ecut=    60.00 Ry     beta= 0.15
     Davidson diagonalization with overlap

---- Real-time Memory Report at c_bands before calling an iterative solver
             0 MiB given to the printing process from OS
             0 MiB allocation reported by mallinfo(arena+hblkhd)
         30719 MiB available memory on the node where the printing process lives
------------------
     ethr =  1.49E-06,  avg # of iterations =  9.8

     negative rho (up, down):  7.963E-01 0.000E+00

     total cpu time spent up to now is      438.7 secs

     total energy              =   -4482.97111058 Ry
     estimated scf accuracy    <       0.00154262 Ry

     iteration # 28     ecut=    60.00 Ry     beta= 0.15
     Davidson diagonalization with overlap

---- Real-time Memory Report at c_bands before calling an iterative solver
             0 MiB given to the printing process from OS
             0 MiB allocation reported by mallinfo(arena+hblkhd)
         30678 MiB available memory on the node where the printing process lives
------------------
     ethr =  3.53E-07,  avg # of iterations =  3.2

     negative rho (up, down):  7.963E-01 0.000E+00

     total cpu time spent up to now is      454.3 secs

     total energy              =   -4482.97114975 Ry
     estimated scf accuracy    <       0.00086052 Ry

     iteration # 29     ecut=    60.00 Ry     beta= 0.15
     Davidson diagonalization with overlap

---- Real-time Memory Report at c_bands before calling an iterative solver
             0 MiB given to the printing process from OS
             0 MiB allocation reported by mallinfo(arena+hblkhd)
         30689 MiB available memory on the node where the printing process lives
------------------
     ethr =  1.97E-07,  avg # of iterations =  6.3

     negative rho (up, down):  7.948E-01 0.000E+00

     total cpu time spent up to now is      470.3 secs

     total energy              =   -4482.97108266 Ry
     estimated scf accuracy    <       0.00058455 Ry

     iteration # 30     ecut=    60.00 Ry     beta= 0.15
     Davidson diagonalization with overlap

---- Real-time Memory Report at c_bands before calling an iterative solver
             0 MiB given to the printing process from OS
             0 MiB allocation reported by mallinfo(arena+hblkhd)
         30718 MiB available memory on the node where the printing process lives
------------------
     ethr =  1.34E-07,  avg # of iterations =  7.8

     negative rho (up, down):  7.935E-01 0.000E+00

     total cpu time spent up to now is      487.5 secs

     total energy              =   -4482.97107321 Ry
     estimated scf accuracy    <       0.00028029 Ry

     iteration # 31     ecut=    60.00 Ry     beta= 0.15
     Davidson diagonalization with overlap

---- Real-time Memory Report at c_bands before calling an iterative solver
             0 MiB given to the printing process from OS
             0 MiB allocation reported by mallinfo(arena+hblkhd)
         30725 MiB available memory on the node where the printing process lives
------------------
     ethr =  6.41E-08,  avg # of iterations =  5.4

     negative rho (up, down):  7.926E-01 0.000E+00

     total cpu time spent up to now is      503.7 secs

     total energy              =   -4482.97105359 Ry
     estimated scf accuracy    <       0.00018659 Ry

     iteration # 32     ecut=    60.00 Ry     beta= 0.15
     Davidson diagonalization with overlap

---- Real-time Memory Report at c_bands before calling an iterative solver
             0 MiB given to the printing process from OS
             0 MiB allocation reported by mallinfo(arena+hblkhd)
         30712 MiB available memory on the node where the printing process lives
------------------
     ethr =  4.27E-08,  avg # of iterations =  4.5

     negative rho (up, down):  7.919E-01 0.000E+00

     total cpu time spent up to now is      519.6 secs

     total energy              =   -4482.97104598 Ry
     estimated scf accuracy    <       0.00013459 Ry

     iteration # 33     ecut=    60.00 Ry     beta= 0.15
     Davidson diagonalization with overlap

---- Real-time Memory Report at c_bands before calling an iterative solver
             0 MiB given to the printing process from OS
             0 MiB allocation reported by mallinfo(arena+hblkhd)
         30717 MiB available memory on the node where the printing process lives
------------------
     ethr =  3.08E-08,  avg # of iterations =  5.6

     negative rho (up, down):  7.919E-01 0.000E+00

     total cpu time spent up to now is      536.2 secs

     total energy              =   -4482.97105238 Ry
     estimated scf accuracy    <       0.00004579 Ry

     iteration # 34     ecut=    60.00 Ry     beta= 0.15
     Davidson diagonalization with overlap

---- Real-time Memory Report at c_bands before calling an iterative solver
             0 MiB given to the printing process from OS
             0 MiB allocation reported by mallinfo(arena+hblkhd)
         30718 MiB available memory on the node where the printing process lives
------------------
     ethr =  1.05E-08,  avg # of iterations =  4.9

     negative rho (up, down):  7.919E-01 0.000E+00

     total cpu time spent up to now is      552.3 secs

     total energy              =   -4482.97105480 Ry
     estimated scf accuracy    <       0.00002851 Ry

     iteration # 35     ecut=    60.00 Ry     beta= 0.15
     Davidson diagonalization with overlap

---- Real-time Memory Report at c_bands before calling an iterative solver
             0 MiB given to the printing process from OS
             0 MiB allocation reported by mallinfo(arena+hblkhd)
         30720 MiB available memory on the node where the printing process lives
------------------
     ethr =  6.53E-09,  avg # of iterations =  3.7

     negative rho (up, down):  7.919E-01 0.000E+00

     total cpu time spent up to now is      567.5 secs

     total energy              =   -4482.97105493 Ry
     estimated scf accuracy    <       0.00002533 Ry

     iteration # 36     ecut=    60.00 Ry     beta= 0.15
     Davidson diagonalization with overlap

---- Real-time Memory Report at c_bands before calling an iterative solver
             0 MiB given to the printing process from OS
             0 MiB allocation reported by mallinfo(arena+hblkhd)
         30711 MiB available memory on the node where the printing process lives
------------------
     ethr =  5.80E-09,  avg # of iterations =  3.8

     negative rho (up, down):  7.920E-01 0.000E+00

     total cpu time spent up to now is      583.7 secs

     total energy              =   -4482.97105731 Ry
     estimated scf accuracy    <       0.00002018 Ry

     iteration # 37     ecut=    60.00 Ry     beta= 0.15
     Davidson diagonalization with overlap

---- Real-time Memory Report at c_bands before calling an iterative solver
             0 MiB given to the printing process from OS
             0 MiB allocation reported by mallinfo(arena+hblkhd)
         30732 MiB available memory on the node where the printing process lives
------------------
     ethr =  4.62E-09,  avg # of iterations =  2.5

     negative rho (up, down):  7.922E-01 0.000E+00

     total cpu time spent up to now is      598.4 secs

     total energy              =   -4482.97105792 Ry
     estimated scf accuracy    <       0.00001790 Ry

     iteration # 38     ecut=    60.00 Ry     beta= 0.15
     Davidson diagonalization with overlap

---- Real-time Memory Report at c_bands before calling an iterative solver
             0 MiB given to the printing process from OS
             0 MiB allocation reported by mallinfo(arena+hblkhd)
         30749 MiB available memory on the node where the printing process lives
------------------
     ethr =  4.10E-09,  avg # of iterations =  4.4

     negative rho (up, down):  7.922E-01 0.000E+00

     total cpu time spent up to now is      614.0 secs

     total energy              =   -4482.97105788 Ry
     estimated scf accuracy    <       0.00001053 Ry

     iteration # 39     ecut=    60.00 Ry     beta= 0.15
     Davidson diagonalization with overlap

---- Real-time Memory Report at c_bands before calling an iterative solver
             0 MiB given to the printing process from OS
             0 MiB allocation reported by mallinfo(arena+hblkhd)
         30747 MiB available memory on the node where the printing process lives
------------------
     ethr =  2.41E-09,  avg # of iterations =  2.5

     negative rho (up, down):  7.923E-01 0.000E+00

     total cpu time spent up to now is      628.7 secs

     total energy              =   -4482.97105907 Ry
     estimated scf accuracy    <       0.00000927 Ry

     iteration # 40     ecut=    60.00 Ry     beta= 0.15
     Davidson diagonalization with overlap

---- Real-time Memory Report at c_bands before calling an iterative solver
             0 MiB given to the printing process from OS
             0 MiB allocation reported by mallinfo(arena+hblkhd)
         30762 MiB available memory on the node where the printing process lives
------------------
     ethr =  2.12E-09,  avg # of iterations =  2.5

     negative rho (up, down):  7.923E-01 0.000E+00

     total cpu time spent up to now is      643.7 secs

     total energy              =   -4482.97106307 Ry
     estimated scf accuracy    <       0.00000786 Ry

     iteration # 41     ecut=    60.00 Ry     beta= 0.15
     Davidson diagonalization with overlap

---- Real-time Memory Report at c_bands before calling an iterative solver
             0 MiB given to the printing process from OS
             0 MiB allocation reported by mallinfo(arena+hblkhd)
         30754 MiB available memory on the node where the printing process lives
------------------
     ethr =  1.80E-09,  avg # of iterations =  4.2

     negative rho (up, down):  7.924E-01 0.000E+00

     total cpu time spent up to now is      659.1 secs

     total energy              =   -4482.97106559 Ry
     estimated scf accuracy    <       0.00000570 Ry

     iteration # 42     ecut=    60.00 Ry     beta= 0.15
     Davidson diagonalization with overlap

---- Real-time Memory Report at c_bands before calling an iterative solver
             0 MiB given to the printing process from OS
             0 MiB allocation reported by mallinfo(arena+hblkhd)
         30753 MiB available memory on the node where the printing process lives
------------------
     ethr =  1.30E-09,  avg # of iterations =  5.7

     negative rho (up, down):  7.923E-01 0.000E+00

     total cpu time spent up to now is      675.5 secs

     total energy              =   -4482.97106607 Ry
     estimated scf accuracy    <       0.00000241 Ry

     iteration # 43     ecut=    60.00 Ry     beta= 0.15
     Davidson diagonalization with overlap

---- Real-time Memory Report at c_bands before calling an iterative solver
             0 MiB given to the printing process from OS
             0 MiB allocation reported by mallinfo(arena+hblkhd)
         30746 MiB available memory on the node where the printing process lives
------------------
     ethr =  5.52E-10,  avg # of iterations =  5.0

     negative rho (up, down):  7.922E-01 0.000E+00

     total cpu time spent up to now is      691.4 secs

     total energy              =   -4482.97106613 Ry
     estimated scf accuracy    <       0.00000123 Ry

     iteration # 44     ecut=    60.00 Ry     beta= 0.15
     Davidson diagonalization with overlap

---- Real-time Memory Report at c_bands before calling an iterative solver
             0 MiB given to the printing process from OS
             0 MiB allocation reported by mallinfo(arena+hblkhd)
         30812 MiB available memory on the node where the printing process lives
------------------
     ethr =  2.82E-10,  avg # of iterations =  4.4

     negative rho (up, down):  7.922E-01 0.000E+00

     total cpu time spent up to now is      707.1 secs

     total energy              =   -4482.97106626 Ry
     estimated scf accuracy    <       0.00000051 Ry

     iteration # 45     ecut=    60.00 Ry     beta= 0.15
     Davidson diagonalization with overlap

---- Real-time Memory Report at c_bands before calling an iterative solver
             0 MiB given to the printing process from OS
             0 MiB allocation reported by mallinfo(arena+hblkhd)
         30797 MiB available memory on the node where the printing process lives
------------------
     ethr =  1.17E-10,  avg # of iterations =  4.3

     negative rho (up, down):  7.922E-01 0.000E+00

     total cpu time spent up to now is      723.3 secs

     total energy              =   -4482.97106660 Ry
     estimated scf accuracy    <       0.00000019 Ry

     iteration # 46     ecut=    60.00 Ry     beta= 0.15
     Davidson diagonalization with overlap

---- Real-time Memory Report at c_bands before calling an iterative solver
             0 MiB given to the printing process from OS
             0 MiB allocation reported by mallinfo(arena+hblkhd)
         30794 MiB available memory on the node where the printing process lives
------------------
     ethr =  4.34E-11,  avg # of iterations =  4.7

     negative rho (up, down):  7.922E-01 0.000E+00

     total cpu time spent up to now is      739.2 secs

     total energy              =   -4482.97106677 Ry
     estimated scf accuracy    <       0.00000011 Ry

     iteration # 47     ecut=    60.00 Ry     beta= 0.15
     Davidson diagonalization with overlap

---- Real-time Memory Report at c_bands before calling an iterative solver
             0 MiB given to the printing process from OS
             0 MiB allocation reported by mallinfo(arena+hblkhd)
         30794 MiB available memory on the node where the printing process lives
------------------
     ethr =  2.62E-11,  avg # of iterations =  4.4

     negative rho (up, down):  7.923E-01 0.000E+00

     total cpu time spent up to now is      755.5 secs

     total energy              =   -4482.97106695 Ry
     estimated scf accuracy    <       0.00000004 Ry

     iteration # 48     ecut=    60.00 Ry     beta= 0.15
     Davidson diagonalization with overlap

---- Real-time Memory Report at c_bands before calling an iterative solver
             0 MiB given to the printing process from OS
             0 MiB allocation reported by mallinfo(arena+hblkhd)
         30763 MiB available memory on the node where the printing process lives
------------------
     ethr =  9.13E-12,  avg # of iterations =  5.9

     negative rho (up, down):  7.923E-01 0.000E+00

     total cpu time spent up to now is      772.3 secs

     total energy              =   -4482.97106700 Ry
     estimated scf accuracy    <       0.00000002 Ry

     iteration # 49     ecut=    60.00 Ry     beta= 0.15
     Davidson diagonalization with overlap

---- Real-time Memory Report at c_bands before calling an iterative solver
             0 MiB given to the printing process from OS
             0 MiB allocation reported by mallinfo(arena+hblkhd)
         30757 MiB available memory on the node where the printing process lives
------------------
     ethr =  5.50E-12,  avg # of iterations =  5.1

     negative rho (up, down):  7.923E-01 0.000E+00

     total cpu time spent up to now is      788.4 secs

     total energy              =   -4482.97106702 Ry
     estimated scf accuracy    <       0.00000002 Ry

     iteration # 50     ecut=    60.00 Ry     beta= 0.15
     Davidson diagonalization with overlap

---- Real-time Memory Report at c_bands before calling an iterative solver
             0 MiB given to the printing process from OS
             0 MiB allocation reported by mallinfo(arena+hblkhd)
         30767 MiB available memory on the node where the printing process lives
------------------
     ethr =  3.91E-12,  avg # of iterations =  5.4

     negative rho (up, down):  7.923E-01 0.000E+00

     total cpu time spent up to now is      804.5 secs

     total energy              =   -4482.97106703 Ry
     estimated scf accuracy    <       0.00000001 Ry

     iteration # 51     ecut=    60.00 Ry     beta= 0.15
     Davidson diagonalization with overlap

---- Real-time Memory Report at c_bands before calling an iterative solver
             0 MiB given to the printing process from OS
             0 MiB allocation reported by mallinfo(arena+hblkhd)
         30764 MiB available memory on the node where the printing process lives
------------------
     ethr =  2.50E-12,  avg # of iterations =  4.5

     negative rho (up, down):  7.923E-01 0.000E+00

     total cpu time spent up to now is      820.0 secs

     End of self-consistent calculation

          k = 0.0000 0.0000 0.0000 ( 65197 PWs)   bands (ev):

   -92.3311 -92.2742 -92.1846 -92.1367 -92.0773 -92.0373 -92.0198 -91.8957
   -55.6843 -55.6603 -55.5426 -55.5322 -55.5236 -55.5189 -55.4794 -55.4543
   -55.4378 -55.4363 -55.4260 -55.3854 -55.3685 -55.3289 -55.3104 -55.2772
   -55.2720 -55.2260 -55.2231 -55.2230 -55.2145 -55.1698 -55.1506 -55.0629
   -30.9179 -30.8989 -30.8053 -30.7576 -30.6709 -30.6221 -30.5936 -30.4541
   -29.4824 -29.4395 -29.4130 -29.3045 -22.2474 -14.7161 -14.6811 -14.5942
   -14.4639 -14.2818 -14.1584 -13.8569 -13.8423 -13.8084 -13.7717 -13.7625
   -13.7245 -13.7148 -13.7004 -13.6845 -13.6683 -13.6258 -13.5662 -13.4178
   -13.2507 -13.2074 -13.1743 -13.1510 -13.1290 -13.0825 -13.0435 -12.9648
   -12.8919 -12.8046 -12.7858 -12.7507 -12.7393 -12.7159 -12.6974 -12.6822
   -12.6453 -12.6344 -12.6044 -12.5861 -12.5830 -12.5612 -12.5373 -12.5280
   -12.5061 -12.4697 -12.4471 -12.3909 -12.3555 -12.3423 -11.9829 -11.8379
   -11.7087 -11.6475 -11.4965 -11.4218 -11.4104 -11.3886 -11.3709 -11.3068
   -11.2893 -11.2551 -11.2258 -11.1145 -11.0339 -11.0304  -5.8529  -3.1528
    -3.1476  -2.5769  -2.3430  -2.1137  -1.9680  -1.9035  -1.7603  -1.4548
    -1.4405  -1.4189  -1.3382  -1.3189  -1.2507  -1.2350  -1.1924  -1.1485
    -0.9673  -0.7463  -0.7161  -0.5642  -0.5508  -0.5082  -0.4890  -0.4452
    -0.4296  -0.3682  -0.3416  -0.2735  -0.2614  -0.1806  -0.0544  -0.0400
    -0.0114   0.0589   0.0718   0.0870   0.1558   0.2350   0.2737   0.3272
     0.3553   0.4061   0.4860   0.5450   0.5614   0.5733   0.8268   0.8427
     1.0148   1.0865   1.1520   1.1810   1.2820   1.2967   1.3090   1.3834
     1.4108   1.4452   1.5051   1.6395   1.6929   1.7120   1.7273   1.7398
     1.8108   1.8899   1.9806   1.9938   2.0572   2.0789   2.1141   2.1336
     2.1390   2.1966   2.2446   2.2655   2.2928   2.3265   2.3874   2.5164
     2.5975   2.6454   2.6542   2.8146   2.8251   2.8711   2.8814   2.9791
     3.0213   3.0451   3.0605   3.0649   3.0751   3.0856   3.1577   3.2705
     3.3030   3.3185   3.3256   3.3922   3.3960   3.4204   3.4291   3.4359
     3.4463   3.4549   3.4671   3.4728   3.4869   3.4955   3.5033   3.5240
     3.5453   3.5504   3.5622   3.5877   3.7037   3.7479   4.4276   4.7442
     4.8165   5.1438   5.3949   5.4965   5.6873   6.2803   6.3263   6.3556
     6.6247   6.6361   6.6824   6.7303   6.9488   7.1493   7.3088   7.3519
     7.4817   7.6558   7.8213   7.9252   7.9364   7.9672   7.9942   8.0691
     8.2890   8.3596   8.3839   8.4229   8.5220   8.5768   8.6326

     occupation numbers 
     1.0000   1.0000   1.0000   1.0000   1.0000   1.0000   1.0000   1.0000
     1.0000   1.0000   1.0000   1.0000   1.0000   1.0000   1.0000   1.0000
     1.0000   1.0000   1.0000   1.0000   1.0000   1.0000   1.0000   1.0000
     1.0000   1.0000   1.0000   1.0000   1.0000   1.0000   1.0000   1.0000
     1.0000   1.0000   1.0000   1.0000   1.0000   1.0000   1.0000   1.0000
     1.0000   1.0000   1.0000   1.0000   1.0000   1.0000   1.0000   1.0000
     1.0000   1.0000   1.0000   1.0000   1.0000   1.0000   1.0000   1.0000
     1.0000   1.0000   1.0000   1.0000   1.0000   1.0000   1.0000   1.0000
     1.0000   1.0000   1.0000   1.0000   1.0000   1.0000   1.0000   1.0000
     1.0000   1.0000   1.0000   1.0000   1.0000   1.0000   1.0000   1.0000
     1.0000   1.0000   1.0000   1.0000   1.0000   1.0000   1.0000   1.0000
     1.0000   1.0000   1.0000   1.0000   1.0000   1.0000   1.0000   1.0000
     1.0000   1.0000   1.0000   1.0000   1.0000   1.0000   1.0000   1.0000
     1.0000   1.0000   1.0000   1.0000   1.0000   1.0000   1.0000   1.0000
     1.0000   1.0000   1.0000   1.0000   1.0000   1.0000   1.0000   1.0000
     1.0000   1.0000   1.0000   1.0000   1.0000   1.0000   1.0000   1.0000
     1.0000   1.0000   1.0000   1.0000   1.0000   1.0000   1.0000   1.0000
     1.0000   1.0000   1.0000   1.0000   1.0000   1.0000   1.0000   1.0000
     1.0000   1.0000   1.0000   1.0000   1.0000   1.0000   1.0000   1.0000
     1.0000   1.0000   1.0000   1.0000   1.0000   1.0000   1.0000   1.0000
     1.0000   0.9999   0.9999   0.9999   0.9998   0.9998   0.9998   0.9997
     0.9997   0.9996   0.9994   0.9989   0.9985   0.9984   0.9983   0.9982
     0.9974   0.9963   0.9946   0.9942   0.9925   0.9918   0.9906   0.9898
     0.9896   0.9870   0.9844   0.9831   0.9814   0.9790   0.9739   0.9600
     0.9485   0.9405   0.9390   0.9046   0.9019   0.8895   0.8866   0.8563
     0.8416   0.8329   0.8271   0.8254   0.8215   0.8174   0.7877   0.7360
     0.7199   0.7122   0.7085   0.6737   0.6717   0.6585   0.6538   0.6500
     0.6443   0.6395   0.6327   0.6295   0.6216   0.6168   0.6123   0.6004
     0.5882   0.5853   0.5784   0.5636   0.4951   0.4690   0.1385   0.0597
     0.0480   0.0158   0.0058   0.0037   0.0015   0.0001   0.0000   0.0000
     0.0000   0.0000   0.0000   0.0000   0.0000   0.0000   0.0000   0.0000
     0.0000   0.0000   0.0000   0.0000   0.0000   0.0000   0.0000   0.0000
     0.0000   0.0000   0.0000   0.0000   0.0000   0.0000   0.0000

          k = 0.0000 0.2500 0.0000 ( 65257 PWs)   bands (ev):

   -92.3311 -92.2742 -92.1846 -92.1367 -92.0773 -92.0373 -92.0198 -91.8957
   -55.6843 -55.6603 -55.5426 -55.5322 -55.5236 -55.5189 -55.4794 -55.4543
   -55.4378 -55.4363 -55.4260 -55.3854 -55.3685 -55.3289 -55.3104 -55.2772
   -55.2720 -55.2261 -55.2231 -55.2230 -55.2145 -55.1698 -55.1506 -55.0629
   -30.9177 -30.8988 -30.8051 -30.7578 -30.6711 -30.6219 -30.5937 -30.4543
   -29.4818 -29.4392 -29.4136 -29.3048 -22.2474 -14.6790 -14.6551 -14.5690
   -14.4348 -14.3202 -14.1485 -14.0024 -13.8226 -13.7955 -13.7714 -13.7697
   -13.7402 -13.6863 -13.6773 -13.6649 -13.6513 -13.6096 -13.4866 -13.4493
   -13.2870 -13.2743 -13.2172 -13.1827 -13.1439 -13.0968 -13.0586 -12.9832
   -12.9504 -12.9057 -12.8602 -12.7903 -12.7821 -12.7484 -12.7303 -12.6355
   -12.6100 -12.5997 -12.5753 -12.5702 -12.5439 -12.5363 -12.5060 -12.4772
   -12.4380 -12.4070 -12.3989 -12.3753 -12.2754 -12.2046 -12.0442 -11.8892
   -11.7635 -11.7131 -11.4620 -11.4187 -11.3910 -11.3625 -11.3459 -11.2989
   -11.2873 -11.2648 -11.2312 -11.1286 -11.0756 -11.0650  -5.8528  -3.1528
    -3.1478  -2.4417  -2.2187  -2.0819  -1.8996  -1.8561  -1.6912  -1.4749
    -1.3868  -1.3737  -1.3195  -1.2151  -1.2004  -1.1665  -1.1405  -1.0971
    -0.8984  -0.7708  -0.7585  -0.6839  -0.6715  -0.5669  -0.5356  -0.4806
    -0.4566  -0.4121  -0.3513  -0.3260  -0.2921  -0.2614  -0.2445  -0.2113
    -0.1383  -0.0858  -0.0332   0.0833   0.0990   0.1460   0.2704   0.3017
     0.3619   0.4141   0.4614   0.4895   0.5230   0.5814   0.8760   0.9639
     0.9939   1.0803   1.1233   1.1420   1.2701   1.2893   1.3855   1.4082
     1.4397   1.5537   1.6381   1.6693   1.6903   1.7041   1.7378   1.7993
     1.8235   1.8520   1.9007   1.9303   1.9599   2.0386   2.0675   2.1095
     2.1595   2.2161   2.2558   2.2777   2.3064   2.3336   2.4208   2.5538
     2.6220   2.6384   2.7239   2.7698   2.8083   2.8148   2.8773   2.9209
     2.9976   3.0354   3.0521   3.0610   3.0792   3.2321   3.2539   3.2858
     3.3056   3.3247   3.3337   3.3414   3.3499   3.3792   3.3811   3.3977
     3.4022   3.4153   3.4318   3.4415   3.4525   3.4752   3.4854   3.4901
     3.5258   3.5426   3.6031   3.9665   3.9766   4.2407   4.6130   4.7541
     4.9189   5.0868   5.4139   5.5333   5.8144   5.9227   6.1634   6.3149
     6.3455   6.4640   6.5332   6.7431   6.9003   7.0442   7.2899   7.4671
     7.5507   7.7024   7.8073   7.8824   7.9479   7.9876   8.1053   8.2003
     8.2412   8.4177   8.5424   8.5762   8.6257   8.6934   8.9441

     occupation numbers 
     1.0000   1.0000   1.0000   1.0000   1.0000   1.0000   1.0000   1.0000
     1.0000   1.0000   1.0000   1.0000   1.0000   1.0000   1.0000   1.0000
     1.0000   1.0000   1.0000   1.0000   1.0000   1.0000   1.0000   1.0000
     1.0000   1.0000   1.0000   1.0000   1.0000   1.0000   1.0000   1.0000
     1.0000   1.0000   1.0000   1.0000   1.0000   1.0000   1.0000   1.0000
     1.0000   1.0000   1.0000   1.0000   1.0000   1.0000   1.0000   1.0000
     1.0000   1.0000   1.0000   1.0000   1.0000   1.0000   1.0000   1.0000
     1.0000   1.0000   1.0000   1.0000   1.0000   1.0000   1.0000   1.0000
     1.0000   1.0000   1.0000   1.0000   1.0000   1.0000   1.0000   1.0000
     1.0000   1.0000   1.0000   1.0000   1.0000   1.0000   1.0000   1.0000
     1.0000   1.0000   1.0000   1.0000   1.0000   1.0000   1.0000   1.0000
     1.0000   1.0000   1.0000   1.0000   1.0000   1.0000   1.0000   1.0000
     1.0000   1.0000   1.0000   1.0000   1.0000   1.0000   1.0000   1.0000
     1.0000   1.0000   1.0000   1.0000   1.0000   1.0000   1.0000   1.0000
     1.0000   1.0000   1.0000   1.0000   1.0000   1.0000   1.0000   1.0000
     1.0000   1.0000   1.0000   1.0000   1.0000   1.0000   1.0000   1.0000
     1.0000   1.0000   1.0000   1.0000   1.0000   1.0000   1.0000   1.0000
     1.0000   1.0000   1.0000   1.0000   1.0000   1.0000   1.0000   1.0000
     1.0000   1.0000   1.0000   1.0000   1.0000   1.0000   1.0000   1.0000
     1.0000   1.0000   1.0000   1.0000   1.0000   1.0000   1.0000   1.0000
     1.0000   0.9999   0.9999   0.9999   0.9998   0.9998   0.9997   0.9997
     0.9996   0.9993   0.9989   0.9987   0.9985   0.9984   0.9982   0.9976
     0.9973   0.9969   0.9962   0.9956   0.9950   0.9931   0.9922   0.9907
     0.9887   0.9860   0.9837   0.9824   0.9804   0.9784   0.9708   0.9550
     0.9445   0.9418   0.9254   0.9154   0.9061   0.9045   0.8878   0.8750
     0.8500   0.8365   0.8303   0.8269   0.8199   0.7543   0.7440   0.7285
     0.7187   0.7090   0.7044   0.7005   0.6960   0.6807   0.6797   0.6708
     0.6684   0.6613   0.6523   0.6470   0.6408   0.6282   0.6224   0.6198
     0.5994   0.5898   0.5545   0.3437   0.3381   0.2091   0.0865   0.0580
     0.0346   0.0194   0.0054   0.0032   0.0008   0.0005   0.0001   0.0001
     0.0000   0.0000   0.0000   0.0000   0.0000   0.0000   0.0000   0.0000
     0.0000   0.0000   0.0000   0.0000   0.0000   0.0000   0.0000   0.0000
     0.0000   0.0000   0.0000   0.0000   0.0000   0.0000   0.0000

          k = 0.0000-0.5000 0.0000 ( 65180 PWs)   bands (ev):

   -92.3311 -92.2742 -92.1846 -92.1367 -92.0773 -92.0373 -92.0198 -91.8957
   -55.6843 -55.6603 -55.5426 -55.5321 -55.5236 -55.5189 -55.4794 -55.4543
   -55.4378 -55.4363 -55.4260 -55.3854 -55.3685 -55.3289 -55.3104 -55.2772
   -55.2720 -55.2260 -55.2231 -55.2230 -55.2145 -55.1698 -55.1506 -55.0629
   -30.9175 -30.8986 -30.8050 -30.7580 -30.6712 -30.6217 -30.5939 -30.4545
   -29.4812 -29.4389 -29.4143 -29.3051 -22.2474 -14.6476 -14.5989 -14.5461
   -14.4237 -14.3322 -14.1986 -14.0478 -13.9316 -13.7923 -13.7696 -13.7302
   -13.6872 -13.6732 -13.6301 -13.6091 -13.5599 -13.5488 -13.5168 -13.4847
   -13.4693 -13.4127 -13.2191 -13.1656 -13.1527 -13.0928 -13.0606 -12.9970
   -12.9794 -12.9368 -12.9247 -12.8595 -12.7838 -12.7488 -12.7291 -12.6530
   -12.6111 -12.5987 -12.5711 -12.5687 -12.5357 -12.5201 -12.4712 -12.4004
   -12.3846 -12.3754 -12.3454 -12.2919 -12.1553 -12.1405 -11.9966 -11.9645
   -11.8680 -11.8245 -11.4157 -11.4136 -11.3862 -11.3478 -11.3139 -11.3029
   -11.2610 -11.2569 -11.2131 -11.1499 -11.1361 -11.1219  -5.8528  -3.1528
    -3.1480  -2.2271  -2.1673  -2.0156  -1.9429  -1.6643  -1.5796  -1.4513
    -1.3130  -1.2794  -1.2571  -1.1787  -1.1483  -1.0654  -1.0307  -0.9552
    -0.9133  -0.8738  -0.8472  -0.7930  -0.7530  -0.7091  -0.6723  -0.6368
    -0.6045  -0.4927  -0.4478  -0.4157  -0.4150  -0.3287  -0.2966  -0.2732
    -0.2259  -0.1428  -0.0708   0.0047   0.0333   0.1441   0.1891   0.3356
     0.3540   0.3960   0.4384   0.5676   0.6222   0.7580   0.8221   0.8298
     0.9588   0.9946   1.0928   1.2382   1.3434   1.3738   1.4080   1.4164
     1.4492   1.4744   1.5113   1.5274   1.5405   1.6474   1.7071   1.7297
     1.7546   2.0139   2.0528   2.0733   2.1656   2.1861   2.2238   2.2409
     2.2732   2.2833   2.2871   2.3249   2.3626   2.3902   2.4112   2.4307
     2.4603   2.5141   2.5923   2.6210   2.8020   2.9681   2.9757   2.9898
     3.0299   3.0367   3.0473   3.0614   3.0788   3.0999   3.1121   3.1663
     3.1860   3.2603   3.2749   3.3423   3.3527   3.3761   3.3771   3.3977
     3.4009   3.4032   3.4089   3.4121   3.4252   3.4455   3.4462   3.5113
     3.5164   3.5321   3.5869   4.4741   4.5115   4.5383   4.5939   4.9716
     5.1090   5.2372   5.4071   5.5166   5.6158   5.8423   5.9428   6.0030
     6.2149   6.3737   6.4047   6.4606   7.0232   7.0618   7.1274   7.4304
     7.5242   7.5875   7.7987   8.0183   8.0349   8.0764   8.2192   8.3933
     8.5457   8.5832   8.6819   8.7149   8.7384   8.8570   8.9514

     occupation numbers 
     1.0000   1.0000   1.0000   1.0000   1.0000   1.0000   1.0000   1.0000
     1.0000   1.0000   1.0000   1.0000   1.0000   1.0000   1.0000   1.0000
     1.0000   1.0000   1.0000   1.0000   1.0000   1.0000   1.0000   1.0000
     1.0000   1.0000   1.0000   1.0000   1.0000   1.0000   1.0000   1.0000
     1.0000   1.0000   1.0000   1.0000   1.0000   1.0000   1.0000   1.0000
     1.0000   1.0000   1.0000   1.0000   1.0000   1.0000   1.0000   1.0000
     1.0000   1.0000   1.0000   1.0000   1.0000   1.0000   1.0000   1.0000
     1.0000   1.0000   1.0000   1.0000   1.0000   1.0000   1.0000   1.0000
     1.0000   1.0000   1.0000   1.0000   1.0000   1.0000   1.0000   1.0000
     1.0000   1.0000   1.0000   1.0000   1.0000   1.0000   1.0000   1.0000
     1.0000   1.0000   1.0000   1.0000   1.0000   1.0000   1.0000   1.0000
     1.0000   1.0000   1.0000   1.0000   1.0000   1.0000   1.0000   1.0000
     1.0000   1.0000   1.0000   1.0000   1.0000   1.0000   1.0000   1.0000
     1.0000   1.0000   1.0000   1.0000   1.0000   1.0000   1.0000   1.0000
     1.0000   1.0000   1.0000   1.0000   1.0000   1.0000   1.0000   1.0000
     1.0000   1.0000   1.0000   1.0000   1.0000   1.0000   1.0000   1.0000
     1.0000   1.0000   1.0000   1.0000   1.0000   1.0000   1.0000   1.0000
     1.0000   1.0000   1.0000   1.0000   1.0000   1.0000   1.0000   1.0000
     1.0000   1.0000   1.0000   1.0000   1.0000   1.0000   1.0000   1.0000
     1.0000   1.0000   1.0000   1.0000   1.0000   1.0000   1.0000   1.0000
     1.0000   1.0000   0.9999   0.9999   0.9998   0.9997   0.9997   0.9996
     0.9996   0.9995   0.9994   0.9994   0.9993   0.9988   0.9984   0.9982
     0.9980   0.9937   0.9926   0.9920   0.9884   0.9875   0.9856   0.9846
     0.9827   0.9820   0.9817   0.9791   0.9761   0.9737   0.9717   0.9698
     0.9667   0.9603   0.9493   0.9447   0.9077   0.8600   0.8574   0.8526
     0.8385   0.8360   0.8321   0.8268   0.8201   0.8117   0.8068   0.7840
     0.7753   0.7409   0.7339   0.7000   0.6946   0.6823   0.6818   0.6708
     0.6691   0.6678   0.6648   0.6630   0.6559   0.6447   0.6443   0.6077
     0.6049   0.5958   0.5640   0.1238   0.1128   0.1054   0.0911   0.0290
     0.0179   0.0110   0.0055   0.0034   0.0022   0.0007   0.0004   0.0003
     0.0001   0.0000   0.0000   0.0000   0.0000   0.0000   0.0000   0.0000
     0.0000   0.0000   0.0000   0.0000   0.0000   0.0000   0.0000   0.0000
     0.0000   0.0000   0.0000   0.0000   0.0000   0.0000   0.0000

          k = 0.2500 0.2500 0.0000 ( 65198 PWs)   bands (ev):

   -92.3311 -92.2742 -92.1846 -92.1367 -92.0773 -92.0373 -92.0198 -91.8957
   -55.6843 -55.6603 -55.5426 -55.5321 -55.5236 -55.5189 -55.4794 -55.4543
   -55.4378 -55.4363 -55.4260 -55.3854 -55.3685 -55.3289 -55.3104 -55.2772
   -55.2720 -55.2260 -55.2231 -55.2230 -55.2145 -55.1698 -55.1506 -55.0629
   -30.9160 -30.9005 -30.8050 -30.7574 -30.6714 -30.6220 -30.5935 -30.4545
   -29.4808 -29.4402 -29.4132 -29.3052 -22.2474 -14.6512 -14.6196 -14.5412
   -14.4245 -14.3114 -14.1873 -14.1074 -13.9087 -13.7698 -13.7462 -13.7360
   -13.7002 -13.6714 -13.6477 -13.6262 -13.5989 -13.5695 -13.4788 -13.4637
   -13.3021 -13.2894 -13.2589 -13.2394 -13.2082 -13.1491 -13.1013 -13.0657
   -12.9789 -12.9398 -12.8708 -12.7860 -12.7537 -12.7347 -12.6866 -12.6620
   -12.6205 -12.6013 -12.5882 -12.5625 -12.5518 -12.5129 -12.4839 -12.4498
   -12.3962 -12.3841 -12.3812 -12.3540 -12.2006 -12.0931 -12.0912 -11.9184
   -11.7956 -11.7604 -11.4341 -11.4023 -11.3915 -11.3841 -11.3221 -11.2867
   -11.2803 -11.2450 -11.2370 -11.1452 -11.1039 -11.0863  -5.8528  -3.1530
    -3.1478  -2.3036  -2.0930  -1.9761  -1.8826  -1.7602  -1.6944  -1.5002
    -1.3523  -1.3319  -1.3059  -1.2101  -1.1763  -1.0831  -1.0563  -1.0060
    -0.8734  -0.8264  -0.7550  -0.7087  -0.6657  -0.6403  -0.6148  -0.5729
    -0.5573  -0.4679  -0.4177  -0.3566  -0.3067  -0.2759  -0.2225  -0.2124
    -0.1499  -0.1000  -0.0501  -0.0094   0.0709   0.1280   0.1548   0.1980
     0.2508   0.3226   0.3619   0.3827   0.4544   0.4897   0.7693   0.9138
     0.9544   1.0036   1.0506   1.0952   1.1617   1.2197   1.2548   1.5274
     1.6010   1.6753   1.7032   1.7431   1.7813   1.8155   1.8532   1.8704
     1.8992   1.9386   1.9468   1.9664   2.0032   2.0444   2.0877   2.1370
     2.1783   2.1851   2.2198   2.2544   2.3045   2.3338   2.4631   2.5319
     2.5721   2.6009   2.6533   2.7305   2.7584   2.7964   2.8213   2.8319
     2.9415   2.9781   3.0567   3.0674   3.0809   3.2429   3.2602   3.2668
     3.2824   3.2958   3.3090   3.3218   3.3299   3.3394   3.3527   3.3637
     3.3842   3.3904   3.4016   3.4213   3.4362   3.4462   3.4767   3.7789
     3.8710   3.9051   3.9737   3.9943   4.2089   4.3205   4.6528   4.7998
     4.9933   5.1343   5.3349   5.5902   5.9163   5.9306   6.0081   6.1313
     6.2094   6.2505   6.3624   6.4175   6.9312   6.9928   7.0945   7.1810
     7.7191   7.8107   7.8548   7.8957   8.0303   8.1518   8.2146   8.2821
     8.3939   8.4566   8.5627   8.6853   8.7279   8.7692   8.8708

     occupation numbers 
     1.0000   1.0000   1.0000   1.0000   1.0000   1.0000   1.0000   1.0000
     1.0000   1.0000   1.0000   1.0000   1.0000   1.0000   1.0000   1.0000
     1.0000   1.0000   1.0000   1.0000   1.0000   1.0000   1.0000   1.0000
     1.0000   1.0000   1.0000   1.0000   1.0000   1.0000   1.0000   1.0000
     1.0000   1.0000   1.0000   1.0000   1.0000   1.0000   1.0000   1.0000
     1.0000   1.0000   1.0000   1.0000   1.0000   1.0000   1.0000   1.0000
     1.0000   1.0000   1.0000   1.0000   1.0000   1.0000   1.0000   1.0000
     1.0000   1.0000   1.0000   1.0000   1.0000   1.0000   1.0000   1.0000
     1.0000   1.0000   1.0000   1.0000   1.0000   1.0000   1.0000   1.0000
     1.0000   1.0000   1.0000   1.0000   1.0000   1.0000   1.0000   1.0000
     1.0000   1.0000   1.0000   1.0000   1.0000   1.0000   1.0000   1.0000
     1.0000   1.0000   1.0000   1.0000   1.0000   1.0000   1.0000   1.0000
     1.0000   1.0000   1.0000   1.0000   1.0000   1.0000   1.0000   1.0000
     1.0000   1.0000   1.0000   1.0000   1.0000   1.0000   1.0000   1.0000
     1.0000   1.0000   1.0000   1.0000   1.0000   1.0000   1.0000   1.0000
     1.0000   1.0000   1.0000   1.0000   1.0000   1.0000   1.0000   1.0000
     1.0000   1.0000   1.0000   1.0000   1.0000   1.0000   1.0000   1.0000
     1.0000   1.0000   1.0000   1.0000   1.0000   1.0000   1.0000   1.0000
     1.0000   1.0000   1.0000   1.0000   1.0000   1.0000   1.0000   1.0000
     1.0000   1.0000   1.0000   1.0000   1.0000   1.0000   1.0000   1.0000
     1.0000   1.0000   1.0000   0.9999   0.9999   0.9999   0.9999   0.9994
     0.9991   0.9986   0.9985   0.9981   0.9978   0.9974   0.9969   0.9966
     0.9962   0.9955   0.9953   0.9949   0.9940   0.9929   0.9915   0.9897
     0.9879   0.9875   0.9858   0.9838   0.9806   0.9784   0.9664   0.9580
     0.9523   0.9480   0.9391   0.9241   0.9180   0.9091   0.9028   0.9001
     0.8685   0.8566   0.8285   0.8245   0.8192   0.7492   0.7409   0.7378
     0.7301   0.7236   0.7169   0.7105   0.7064   0.7015   0.6946   0.6889
     0.6780   0.6747   0.6687   0.6580   0.6499   0.6443   0.6274   0.4507
     0.3971   0.3778   0.3397   0.3286   0.2229   0.1767   0.0776   0.0505
     0.0270   0.0163   0.0075   0.0025   0.0005   0.0005   0.0003   0.0001
     0.0001   0.0001   0.0000   0.0000   0.0000   0.0000   0.0000   0.0000
     0.0000   0.0000   0.0000   0.0000   0.0000   0.0000   0.0000   0.0000
     0.0000   0.0000   0.0000   0.0000   0.0000   0.0000   0.0000

          k = 0.2500-0.5000 0.0000 ( 65138 PWs)   bands (ev):

   -92.3311 -92.2742 -92.1846 -92.1367 -92.0773 -92.0373 -92.0198 -91.8957
   -55.6843 -55.6603 -55.5426 -55.5321 -55.5236 -55.5189 -55.4794 -55.4543
   -55.4378 -55.4363 -55.4260 -55.3854 -55.3685 -55.3289 -55.3104 -55.2772
   -55.2720 -55.2260 -55.2231 -55.2230 -55.2145 -55.1698 -55.1506 -55.0629
   -30.9158 -30.9004 -30.8048 -30.7576 -30.6716 -30.6219 -30.5936 -30.4547
   -29.4802 -29.4399 -29.4139 -29.3055 -22.2474 -14.6174 -14.5719 -14.5033
   -14.3928 -14.3561 -14.2379 -14.1500 -14.0259 -13.7695 -13.7093 -13.6631
   -13.6339 -13.6126 -13.5971 -13.5801 -13.5459 -13.5361 -13.5000 -13.4593
   -13.4494 -13.4050 -13.3031 -13.2552 -13.2250 -13.1754 -13.1221 -13.1051
   -13.0255 -12.9993 -12.8473 -12.7833 -12.7706 -12.7257 -12.6724 -12.6324
   -12.6191 -12.5973 -12.5848 -12.5721 -12.5521 -12.5181 -12.4817 -12.4282
   -12.4047 -12.3937 -12.2958 -12.2643 -12.1620 -12.1080 -11.9623 -11.9588
   -11.8639 -11.8299 -11.4096 -11.3977 -11.3866 -11.3592 -11.3282 -11.2993
   -11.2589 -11.2307 -11.2089 -11.1631 -11.1371 -11.1261  -5.8528  -3.1530
    -3.1480  -2.0859  -2.0194  -1.8897  -1.8119  -1.6849  -1.6001  -1.4759
    -1.3249  -1.2731  -1.2500  -1.1871  -1.1734  -1.0759  -1.0102  -0.9240
    -0.8770  -0.8675  -0.8023  -0.7625  -0.7257  -0.6789  -0.6426  -0.6071
    -0.5662  -0.5551  -0.5105  -0.4822  -0.4417  -0.4104  -0.3430  -0.2445
    -0.2033  -0.1264  -0.0628  -0.0165   0.0298   0.0529   0.1006   0.2651
     0.2753   0.3670   0.4137   0.4225   0.4673   0.4975   0.5405   0.5680
     0.6401   0.8998   0.9902   1.0572   1.1282   1.3859   1.4120   1.5001
     1.5298   1.6980   1.7273   1.7735   1.7982   1.8154   1.8348   1.8938
     1.9362   1.9757   2.0495   2.1385   2.1821   2.2003   2.2117   2.2514
     2.2650   2.2669   2.3136   2.3275   2.3462   2.3656   2.3972   2.4228
     2.4517   2.5121   2.5477   2.6248   2.7696   2.9211   2.9365   2.9544
     2.9800   3.0049   3.0345   3.0519   3.0588   3.0722   3.0852   3.0995
     3.1919   3.2397   3.2607   3.2624   3.2795   3.3004   3.3140   3.3332
     3.3395   3.3692   3.3816   3.3984   3.4064   3.4144   3.4267   3.9409
     3.9509   4.1102   4.1600   4.4941   4.5430   4.5480   4.6638   5.0369
     5.1322   5.2720   5.4363   5.5032   5.6253   5.7078   5.8733   5.9701
     6.0854   6.1034   6.2849   6.5220   6.5665   6.6672   7.0830   7.2445
     7.5690   7.6578   7.9715   8.0815   8.1787   8.2063   8.3472   8.3871
     8.5220   8.5941   8.6982   8.8151   8.8483   8.9390   8.9451

     occupation numbers 
     1.0000   1.0000   1.0000   1.0000   1.0000   1.0000   1.0000   1.0000
     1.0000   1.0000   1.0000   1.0000   1.0000   1.0000   1.0000   1.0000
     1.0000   1.0000   1.0000   1.0000   1.0000   1.0000   1.0000   1.0000
     1.0000   1.0000   1.0000   1.0000   1.0000   1.0000   1.0000   1.0000
     1.0000   1.0000   1.0000   1.0000   1.0000   1.0000   1.0000   1.0000
     1.0000   1.0000   1.0000   1.0000   1.0000   1.0000   1.0000   1.0000
     1.0000   1.0000   1.0000   1.0000   1.0000   1.0000   1.0000   1.0000
     1.0000   1.0000   1.0000   1.0000   1.0000   1.0000   1.0000   1.0000
     1.0000   1.0000   1.0000   1.0000   1.0000   1.0000   1.0000   1.0000
     1.0000   1.0000   1.0000   1.0000   1.0000   1.0000   1.0000   1.0000
     1.0000   1.0000   1.0000   1.0000   1.0000   1.0000   1.0000   1.0000
     1.0000   1.0000   1.0000   1.0000   1.0000   1.0000   1.0000   1.0000
     1.0000   1.0000   1.0000   1.0000   1.0000   1.0000   1.0000   1.0000
     1.0000   1.0000   1.0000   1.0000   1.0000   1.0000   1.0000   1.0000
     1.0000   1.0000   1.0000   1.0000   1.0000   1.0000   1.0000   1.0000
     1.0000   1.0000   1.0000   1.0000   1.0000   1.0000   1.0000   1.0000
     1.0000   1.0000   1.0000   1.0000   1.0000   1.0000   1.0000   1.0000
     1.0000   1.0000   1.0000   1.0000   1.0000   1.0000   1.0000   1.0000
     1.0000   1.0000   1.0000   1.0000   1.0000   1.0000   1.0000   1.0000
     1.0000   1.0000   1.0000   1.0000   1.0000   1.0000   1.0000   1.0000
     1.0000   1.0000   1.0000   1.0000   0.9999   0.9997   0.9997   0.9994
     0.9993   0.9985   0.9983   0.9978   0.9976   0.9974   0.9971   0.9963
     0.9955   0.9947   0.9927   0.9896   0.9877   0.9868   0.9862   0.9840
     0.9832   0.9831   0.9799   0.9789   0.9774   0.9759   0.9731   0.9706
     0.9676   0.9606   0.9558   0.9441   0.9154   0.8749   0.8701   0.8644
     0.8560   0.8474   0.8368   0.8304   0.8277   0.8227   0.8176   0.8119
     0.7727   0.7507   0.7407   0.7399   0.7316   0.7213   0.7144   0.7047
     0.7014   0.6860   0.6794   0.6704   0.6661   0.6618   0.6551   0.3578
     0.3522   0.2690   0.2452   0.1178   0.1041   0.1028   0.0752   0.0232
     0.0164   0.0096   0.0049   0.0036   0.0021   0.0014   0.0006   0.0004
     0.0002   0.0002   0.0001   0.0000   0.0000   0.0000   0.0000   0.0000
     0.0000   0.0000   0.0000   0.0000   0.0000   0.0000   0.0000   0.0000
     0.0000   0.0000   0.0000   0.0000   0.0000   0.0000   0.0000

          k =-0.5000-0.5000 0.0000 ( 65132 PWs)   bands (ev):

   -92.3311 -92.2742 -92.1846 -92.1367 -92.0773 -92.0373 -92.0198 -91.8957
   -55.6843 -55.6603 -55.5426 -55.5321 -55.5236 -55.5189 -55.4794 -55.4543
   -55.4378 -55.4363 -55.4260 -55.3854 -55.3685 -55.3289 -55.3104 -55.2772
   -55.2720 -55.2260 -55.2231 -55.2230 -55.2145 -55.1698 -55.1506 -55.0629
   -30.9135 -30.9027 -30.8047 -30.7573 -30.6720 -30.6220 -30.5934 -30.4550
   -29.4792 -29.4409 -29.4135 -29.3060 -22.2474 -14.5721 -14.5440 -14.4277
   -14.4159 -14.3217 -14.2844 -14.2556 -14.1239 -13.7694 -13.6224 -13.6130
   -13.5762 -13.5587 -13.5395 -13.5320 -13.4967 -13.4891 -13.4706 -13.4694
   -13.4530 -13.3721 -13.3658 -13.3413 -13.3237 -13.3031 -13.2035 -13.1955
   -13.0686 -13.0510 -12.7996 -12.7663 -12.6923 -12.6900 -12.6652 -12.6313
   -12.6254 -12.6160 -12.5963 -12.5640 -12.5394 -12.5140 -12.4907 -12.4687
   -12.4199 -12.4149 -12.2455 -12.2379 -12.1784 -12.0802 -11.9586 -11.9157
   -11.8697 -11.8337 -11.4059 -11.3937 -11.3759 -11.3591 -11.3246 -11.3073
   -11.2716 -11.2110 -11.1909 -11.1854 -11.1349 -11.1319  -5.8528  -3.1532
    -3.1479  -1.8633  -1.7862  -1.7746  -1.7039  -1.6644  -1.5857  -1.5180
    -1.3933  -1.2751  -1.2452  -1.2076  -1.1486  -1.0770  -1.0624  -0.9914
    -0.9489  -0.8335  -0.8068  -0.7577  -0.7246  -0.6609  -0.6180  -0.5978
    -0.5873  -0.5354  -0.4861  -0.4752  -0.3602  -0.3037  -0.2563  -0.2065
    -0.1846  -0.1736  -0.1344  -0.0936  -0.0622  -0.0449   0.0397   0.1066
     0.1559   0.1764   0.2525   0.3020   0.3223   0.3745   0.3851   0.4098
     0.4179   0.8656   0.9095   0.9991   1.0433   1.4190   1.4316   1.4662
     1.5020   1.7796   1.7990   1.8062   1.8413   1.9803   2.0754   2.1024
     2.1379   2.1497   2.1766   2.1861   2.2192   2.2263   2.2428   2.2482
     2.3050   2.3130   2.3376   2.3578   2.3675   2.3852   2.4221   2.4493
     2.4573   2.4966   2.5157   2.5949   2.6610   2.9335   2.9648   2.9838
     3.0052   3.0113   3.0351   3.0447   3.0591   3.0702   3.0800   3.0820
     3.1003   3.1171   3.1292   3.1934   3.1971   3.2183   3.2318   3.2420
     3.2609   3.2671   3.2765   3.3772   3.3818   3.4101   3.4196   4.3515
     4.3810   4.4264   4.4361   4.6865   4.7556   4.7868   5.0273   5.1367
     5.1628   5.2325   5.3582   5.4072   5.4268   5.5684   5.6928   5.7127
     5.9885   6.0173   6.1030   6.2788   6.5312   6.6731   6.7614   7.1999
     7.4862   7.5751   7.6923   8.2881   8.3116   8.3751   8.4309   8.5646
     8.7155   8.7735   8.8983   8.9132   8.9336   8.9707   9.0151

     occupation numbers 
     1.0000   1.0000   1.0000   1.0000   1.0000   1.0000   1.0000   1.0000
     1.0000   1.0000   1.0000   1.0000   1.0000   1.0000   1.0000   1.0000
     1.0000   1.0000   1.0000   1.0000   1.0000   1.0000   1.0000   1.0000
     1.0000   1.0000   1.0000   1.0000   1.0000   1.0000   1.0000   1.0000
     1.0000   1.0000   1.0000   1.0000   1.0000   1.0000   1.0000   1.0000
     1.0000   1.0000   1.0000   1.0000   1.0000   1.0000   1.0000   1.0000
[...]
     0.0000   0.0000   0.0000   0.0000   0.0000   0.0000   0.0000   0.0000
     0.0000   0.0000   0.0000   0.0000   0.0000   0.0000   0.0000

          k =-0.5000 0.0000 0.0000 ( 65180 PWs)   bands (ev):

   -92.3311 -92.2742 -92.1846 -92.1367 -92.0773 -92.0373 -92.0198 -91.8957
   -55.6843 -55.6603 -55.5426 -55.5322 -55.5236 -55.5189 -55.4794 -55.4543
   -55.4378 -55.4363 -55.4260 -55.3854 -55.3685 -55.3289 -55.3104 -55.2772
   -55.2720 -55.2260 -55.2231 -55.2230 -55.2145 -55.1698 -55.1506 -55.0629
   -30.9139 -30.9029 -30.8049 -30.7569 -30.6717 -30.6224 -30.5931 -30.4546
   -29.4804 -29.4415 -29.4122 -29.3053 -22.2474 -14.6509 -14.6036 -14.5405
   -14.4338 -14.3258 -14.1823 -14.0446 -13.9022 -13.7744 -13.7684 -13.7637
   -13.7427 -13.6963 -13.6317 -13.5986 -13.5577 -13.5467 -13.5294 -13.4769
   -13.4675 -13.3719 -13.1908 -13.1808 -13.1320 -13.1230 -13.0831 -13.0022
   -12.9870 -12.9096 -12.8906 -12.8863 -12.7683 -12.6945 -12.6839 -12.6771
   -12.6566 -12.6475 -12.5866 -12.5658 -12.5464 -12.5215 -12.4889 -12.4039
   -12.3986 -12.3771 -12.2803 -12.2712 -12.1814 -12.1338 -11.9905 -11.9684
   -11.8667 -11.8313 -11.4127 -11.3919 -11.3847 -11.3703 -11.3524 -11.3112
   -11.2474 -11.2298 -11.1974 -11.1527 -11.1434 -11.1273  -5.8528  -3.1532
    -3.1476  -2.2169  -2.1778  -2.0130  -1.9738  -1.6627  -1.5884  -1.4379
    -1.3198  -1.2817  -1.2368  -1.1876  -1.1610  -1.0397  -0.9941  -0.9814
    -0.8979  -0.8618  -0.8501  -0.8145  -0.7596  -0.6900  -0.6593  -0.6336
    -0.5383  -0.4892  -0.4419  -0.4088  -0.3865  -0.3592  -0.3094  -0.2849
    -0.2467  -0.1567  -0.0794  -0.0221   0.0432   0.2109   0.2397   0.3088
     0.3267   0.3981   0.4149   0.5495   0.5814   0.6161   0.8065   0.9042
     0.9511   1.0134   1.0958   1.2177   1.2346   1.3670   1.3925   1.4442
     1.4643   1.5077   1.5250   1.5678   1.5935   1.6571   1.7037   1.7515
     1.7587   2.0538   2.0631   2.0794   2.0968   2.2160   2.2243   2.2345
     2.2522   2.2774   2.2896   2.3279   2.3592   2.3795   2.4432   2.4474
     2.5044   2.5193   2.5828   2.6782   2.7947   2.8656   2.8813   2.9647
     2.9945   3.0166   3.0575   3.0790   3.0861   3.0963   3.1059   3.1328
     3.2019   3.2481   3.2878   3.3219   3.3647   3.3705   3.3714   3.3843
     3.3966   3.4094   3.4246   3.4273   3.4499   3.4543   3.4770   3.4971
     3.5018   3.6302   3.6348   4.4141   4.4720   4.5387   4.6766   4.9668
     5.1479   5.2338   5.3535   5.5302   5.6192   5.8895   5.9199   6.0089
     6.1801   6.3843   6.3951   6.4150   6.9713   7.0720   7.2175   7.4402
     7.5467   7.6464   7.7025   8.0174   8.0971   8.1271   8.2021   8.3679
     8.4622   8.5822   8.6277   8.7133   8.7673   8.8650   8.9804

     occupation numbers 
     1.0000   1.0000   1.0000   1.0000   1.0000   1.0000   1.0000   1.0000
     1.0000   1.0000   1.0000   1.0000   1.0000   1.0000   1.0000   1.0000
     1.0000   1.0000   1.0000   1.0000   1.0000   1.0000   1.0000   1.0000
     1.0000   1.0000   1.0000   1.0000   1.0000   1.0000   1.0000   1.0000
     1.0000   1.0000   1.0000   1.0000   1.0000   1.0000   1.0000   1.0000
     1.0000   1.0000   1.0000   1.0000   1.0000   1.0000   1.0000   1.0000
     1.0000   1.0000   1.0000   1.0000   1.0000   1.0000   1.0000   1.0000
     1.0000   1.0000   1.0000   1.0000   1.0000   1.0000   1.0000   1.0000
     1.0000   1.0000   1.0000   1.0000   1.0000   1.0000   1.0000   1.0000
     1.0000   1.0000   1.0000   1.0000   1.0000   1.0000   1.0000   1.0000
     1.0000   1.0000   1.0000   1.0000   1.0000   1.0000   1.0000   1.0000
     1.0000   1.0000   1.0000   1.0000   1.0000   1.0000   1.0000   1.0000
     1.0000   1.0000   1.0000   1.0000   1.0000   1.0000   1.0000   1.0000
     1.0000   1.0000   1.0000   1.0000   1.0000   1.0000   1.0000   1.0000
     1.0000   1.0000   1.0000   1.0000   1.0000   1.0000   1.0000   1.0000
     1.0000   1.0000   1.0000   1.0000   1.0000   1.0000   1.0000   1.0000
     1.0000   1.0000   1.0000   1.0000   1.0000   1.0000   1.0000   1.0000
     1.0000   1.0000   1.0000   1.0000   1.0000   1.0000   1.0000   1.0000
     1.0000   1.0000   1.0000   1.0000   1.0000   1.0000   1.0000   1.0000
     1.0000   1.0000   1.0000   1.0000   1.0000   1.0000   1.0000   1.0000
     1.0000   1.0000   0.9999   0.9999   0.9999   0.9997   0.9997   0.9996
     0.9995   0.9994   0.9994   0.9992   0.9991   0.9988   0.9984   0.9981
     0.9980   0.9926   0.9923   0.9918   0.9912   0.9860   0.9855   0.9850
     0.9839   0.9824   0.9816   0.9789   0.9764   0.9746   0.9685   0.9681
     0.9615   0.9596   0.9508   0.9345   0.9095   0.8911   0.8866   0.8611
     0.8510   0.8433   0.8283   0.8200   0.8172   0.8132   0.8093   0.7983
     0.7682   0.7467   0.7275   0.7104   0.6883   0.6853   0.6848   0.6780
     0.6714   0.6645   0.6562   0.6548   0.6423   0.6399   0.6271   0.6158
     0.6131   0.5386   0.5359   0.1430   0.1244   0.1053   0.0726   0.0295
     0.0155   0.0112   0.0069   0.0032   0.0021   0.0006   0.0005   0.0003
     0.0001   0.0000   0.0000   0.0000   0.0000   0.0000   0.0000   0.0000
     0.0000   0.0000   0.0000   0.0000   0.0000   0.0000   0.0000   0.0000
     0.0000   0.0000   0.0000   0.0000   0.0000   0.0000   0.0000

          k =-0.2500 0.2500 0.0000 ( 65198 PWs)   bands (ev):

   -92.3311 -92.2742 -92.1846 -92.1367 -92.0773 -92.0373 -92.0198 -91.8957
   -55.6843 -55.6603 -55.5426 -55.5321 -55.5236 -55.5189 -55.4794 -55.4543
   -55.4378 -55.4363 -55.4260 -55.3854 -55.3685 -55.3289 -55.3104 -55.2772
   -55.2720 -55.2260 -55.2231 -55.2230 -55.2145 -55.1698 -55.1506 -55.0629
   -30.9160 -30.9005 -30.8050 -30.7574 -30.6714 -30.6220 -30.5935 -30.4545
   -29.4808 -29.4402 -29.4132 -29.3052 -22.2474 -14.6526 -14.6183 -14.5400
   -14.4221 -14.3180 -14.1918 -14.0991 -13.9002 -13.7697 -13.7541 -13.7245
   -13.7145 -13.6661 -13.6418 -13.6247 -13.6162 -13.5719 -13.4752 -13.4643
   -13.3118 -13.2846 -13.2588 -13.2363 -13.2079 -13.1355 -13.0954 -13.0755
   -12.9753 -12.9482 -12.8645 -12.7888 -12.7523 -12.7257 -12.6814 -12.6496
   -12.6276 -12.6025 -12.5874 -12.5701 -12.5653 -12.5289 -12.4811 -12.4472
   -12.4118 -12.3980 -12.3714 -12.3320 -12.1876 -12.1014 -12.0825 -11.9241
   -11.7945 -11.7615 -11.4334 -11.4115 -11.3845 -11.3720 -11.3318 -11.2965
   -11.2739 -11.2518 -11.2295 -11.1449 -11.0992 -11.0897  -5.8529  -3.1530
    -3.1478  -2.3020  -2.0919  -1.9718  -1.8846  -1.7644  -1.6971  -1.4978
    -1.3489  -1.3296  -1.3039  -1.2106  -1.1751  -1.0826  -1.0498  -1.0237
    -0.8790  -0.8243  -0.7583  -0.7285  -0.6694  -0.6452  -0.6050  -0.5759
    -0.5361  -0.4746  -0.4266  -0.3686  -0.2974  -0.2720  -0.2191  -0.1912
    -0.1461  -0.0913  -0.0520  -0.0040   0.0899   0.1280   0.1357   0.1840
     0.2495   0.3226   0.3644   0.3882   0.4560   0.4882   0.7512   0.9142
     0.9627   0.9976   1.0545   1.0952   1.1658   1.2234   1.2536   1.5348
     1.6521   1.6919   1.7209   1.7310   1.7737   1.7924   1.8347   1.8659
     1.8826   1.9086   1.9466   1.9607   2.0062   2.0210   2.0660   2.1518
     2.1662   2.1851   2.2206   2.2515   2.2907   2.3389   2.4530   2.5619
     2.5964   2.6360   2.6598   2.7272   2.7719   2.7992   2.8229   2.8419
     2.9421   2.9767   3.0568   3.0686   3.0794   3.2492   3.2582   3.2717
     3.2824   3.2924   3.3060   3.3115   3.3297   3.3372   3.3542   3.3631
     3.3764   3.3854   3.3914   3.4232   3.4355   3.4454   3.4784   3.7718
     3.8532   3.9093   3.9821   3.9977   4.1931   4.3290   4.6522   4.7996
     4.9904   5.1359   5.3447   5.5916   5.9189   5.9367   5.9960   6.1341
     6.2060   6.2535   6.3558   6.4231   6.9217   6.9989   7.0986   7.1883
     7.7306   7.7966   7.8508   7.9084   7.9915   8.1749   8.2028   8.3254
     8.3589   8.4623   8.5298   8.6786   8.7326   8.7912   8.9154

     occupation numbers 
     1.0000   1.0000   1.0000   1.0000   1.0000   1.0000   1.0000   1.0000
     1.0000   1.0000   1.0000   1.0000   1.0000   1.0000   1.0000   1.0000
     1.0000   1.0000   1.0000   1.0000   1.0000   1.0000   1.0000   1.0000
     1.0000   1.0000   1.0000   1.0000   1.0000   1.0000   1.0000   1.0000
     1.0000   1.0000   1.0000   1.0000   1.0000   1.0000   1.0000   1.0000
     1.0000   1.0000   1.0000   1.0000   1.0000   1.0000   1.0000   1.0000
     1.0000   1.0000   1.0000   1.0000   1.0000   1.0000   1.0000   1.0000
     1.0000   1.0000   1.0000   1.0000   1.0000   1.0000   1.0000   1.0000
     1.0000   1.0000   1.0000   1.0000   1.0000   1.0000   1.0000   1.0000
     1.0000   1.0000   1.0000   1.0000   1.0000   1.0000   1.0000   1.0000
     1.0000   1.0000   1.0000   1.0000   1.0000   1.0000   1.0000   1.0000
     1.0000   1.0000   1.0000   1.0000   1.0000   1.0000   1.0000   1.0000
     1.0000   1.0000   1.0000   1.0000   1.0000   1.0000   1.0000   1.0000
     1.0000   1.0000   1.0000   1.0000   1.0000   1.0000   1.0000   1.0000
     1.0000   1.0000   1.0000   1.0000   1.0000   1.0000   1.0000   1.0000
     1.0000   1.0000   1.0000   1.0000   1.0000   1.0000   1.0000   1.0000
     1.0000   1.0000   1.0000   1.0000   1.0000   1.0000   1.0000   1.0000
     1.0000   1.0000   1.0000   1.0000   1.0000   1.0000   1.0000   1.0000
     1.0000   1.0000   1.0000   1.0000   1.0000   1.0000   1.0000   1.0000
     1.0000   1.0000   1.0000   1.0000   1.0000   1.0000   1.0000   1.0000
     1.0000   1.0000   1.0000   0.9999   0.9999   0.9999   0.9999   0.9993
     0.9988   0.9985   0.9983   0.9982   0.9978   0.9976   0.9971   0.9967
     0.9964   0.9960   0.9953   0.9950   0.9939   0.9935   0.9922   0.9891
     0.9884   0.9875   0.9857   0.9840   0.9815   0.9780   0.9675   0.9538
     0.9487   0.9422   0.9380   0.9247   0.9149   0.9084   0.9024   0.8975
     0.8684   0.8571   0.8285   0.8240   0.8198   0.7462   0.7419   0.7354
     0.7302   0.7252   0.7185   0.7157   0.7065   0.7026   0.6938   0.6891
     0.6821   0.6774   0.6742   0.6570   0.6503   0.6448   0.6264   0.4548
     0.4074   0.3754   0.3352   0.3268   0.2299   0.1734   0.0777   0.0506
     0.0273   0.0162   0.0072   0.0024   0.0005   0.0004   0.0003   0.0001
     0.0001   0.0001   0.0000   0.0000   0.0000   0.0000   0.0000   0.0000
     0.0000   0.0000   0.0000   0.0000   0.0000   0.0000   0.0000   0.0000
     0.0000   0.0000   0.0000   0.0000   0.0000   0.0000   0.0000

          k =-0.5000 0.2500 0.0000 ( 65138 PWs)   bands (ev):

   -92.3311 -92.2742 -92.1846 -92.1367 -92.0773 -92.0373 -92.0198 -91.8957
   -55.6843 -55.6603 -55.5426 -55.5321 -55.5236 -55.5189 -55.4794 -55.4543
   -55.4378 -55.4363 -55.4260 -55.3854 -55.3685 -55.3289 -55.3104 -55.2772
   -55.2720 -55.2260 -55.2231 -55.2230 -55.2145 -55.1698 -55.1506 -55.0629
   -30.9137 -30.9028 -30.8048 -30.7571 -30.6718 -30.6222 -30.5933 -30.4548
   -29.4798 -29.4412 -29.4128 -29.3056 -22.2474 -14.6188 -14.5766 -14.4976
   -14.3997 -14.3548 -14.2289 -14.1476 -14.0182 -13.7695 -13.7045 -13.6754
   -13.6628 -13.6194 -13.6023 -13.5706 -13.5430 -13.5318 -13.5075 -13.4692
   -13.4564 -13.3599 -13.2752 -13.2418 -13.2245 -13.2150 -13.1415 -13.1083
   -13.0292 -12.9723 -12.8415 -12.8057 -12.7335 -12.7016 -12.6683 -12.6561
   -12.6267 -12.6174 -12.5918 -12.5813 -12.5496 -12.5166 -12.4866 -12.4371
   -12.4009 -12.3984 -12.2625 -12.2551 -12.1797 -12.1054 -11.9640 -11.9557
   -11.8634 -11.8339 -11.4056 -11.3931 -11.3791 -11.3671 -11.3462 -11.3160
   -11.2347 -11.2261 -11.2029 -11.1671 -11.1389 -11.1297  -5.8528  -3.1532
    -3.1478  -2.0751  -2.0326  -1.8830  -1.8407  -1.6818  -1.6073  -1.4621
    -1.3262  -1.2709  -1.2431  -1.2037  -1.1636  -1.0839  -0.9691  -0.9126
    -0.8889  -0.8647  -0.7907  -0.7580  -0.7226  -0.7022  -0.6421  -0.6151
    -0.5742  -0.5388  -0.5102  -0.4536  -0.4267  -0.3844  -0.3515  -0.2484
    -0.2204  -0.1399  -0.0724  -0.0430   0.0117   0.1014   0.1341   0.2345
     0.2719   0.3258   0.3776   0.3948   0.4810   0.5038   0.5350   0.5963
     0.6344   0.9304   0.9934   1.0533   1.0893   1.3731   1.4226   1.5038
     1.5259   1.7087   1.7466   1.7834   1.7985   1.8169   1.8347   1.9029
     1.9442   1.9839   2.0081   2.1326   2.1623   2.1967   2.2099   2.2500
     2.2739   2.2867   2.3023   2.3250   2.3483   2.3928   2.4152   2.4450
     2.4680   2.4946   2.5596   2.6735   2.7860   2.8119   2.8814   2.9210
     2.9797   3.0151   3.0247   3.0533   3.0641   3.0785   3.0964   3.1180
     3.2013   3.2440   3.2563   3.2637   3.2846   3.3076   3.3206   3.3346
     3.3483   3.3671   3.3799   3.3915   3.3990   3.4086   3.4204   3.9408
     3.9903   4.1395   4.1636   4.4247   4.5003   4.5506   4.7619   5.0379
     5.1507   5.2490   5.3606   5.5238   5.6942   5.7823   5.8051   5.9273
     6.0688   6.1024   6.3081   6.4725   6.6033   6.6290   7.1294   7.3329
     7.5212   7.5962   7.9765   8.0763   8.1873   8.2334   8.3353   8.4060
     8.5447   8.6044   8.6860   8.7810   8.8801   8.8987   8.9415

     occupation numbers 
     1.0000   1.0000   1.0000   1.0000   1.0000   1.0000   1.0000   1.0000
     1.0000   1.0000   1.0000   1.0000   1.0000   1.0000   1.0000   1.0000
     1.0000   1.0000   1.0000   1.0000   1.0000   1.0000   1.0000   1.0000
     1.0000   1.0000   1.0000   1.0000   1.0000   1.0000   1.0000   1.0000
     1.0000   1.0000   1.0000   1.0000   1.0000   1.0000   1.0000   1.0000
     1.0000   1.0000   1.0000   1.0000   1.0000   1.0000   1.0000   1.0000
     1.0000   1.0000   1.0000   1.0000   1.0000   1.0000   1.0000   1.0000
     1.0000   1.0000   1.0000   1.0000   1.0000   1.0000   1.0000   1.0000
     1.0000   1.0000   1.0000   1.0000   1.0000   1.0000   1.0000   1.0000
     1.0000   1.0000   1.0000   1.0000   1.0000   1.0000   1.0000   1.0000
     1.0000   1.0000   1.0000   1.0000   1.0000   1.0000   1.0000   1.0000
     1.0000   1.0000   1.0000   1.0000   1.0000   1.0000   1.0000   1.0000
     1.0000   1.0000   1.0000   1.0000   1.0000   1.0000   1.0000   1.0000
     1.0000   1.0000   1.0000   1.0000   1.0000   1.0000   1.0000   1.0000
     1.0000   1.0000   1.0000   1.0000   1.0000   1.0000   1.0000   1.0000
     1.0000   1.0000   1.0000   1.0000   1.0000   1.0000   1.0000   1.0000
     1.0000   1.0000   1.0000   1.0000   1.0000   1.0000   1.0000   1.0000
     1.0000   1.0000   1.0000   1.0000   1.0000   1.0000   1.0000   1.0000
     1.0000   1.0000   1.0000   1.0000   1.0000   1.0000   1.0000   1.0000
     1.0000   1.0000   1.0000   1.0000   1.0000   1.0000   1.0000   1.0000
     1.0000   1.0000   1.0000   1.0000   0.9999   0.9997   0.9996   0.9994
     0.9994   0.9984   0.9981   0.9977   0.9976   0.9974   0.9971   0.9961
     0.9953   0.9945   0.9939   0.9898   0.9886   0.9870   0.9863   0.9841
     0.9826   0.9818   0.9807   0.9791   0.9773   0.9735   0.9714   0.9683
     0.9658   0.9627   0.9542   0.9354   0.9116   0.9052   0.8866   0.8749
     0.8561   0.8438   0.8404   0.8298   0.8257   0.8202   0.8131   0.8044
     0.7684   0.7487   0.7428   0.7393   0.7291   0.7177   0.7111   0.7039
     0.6969   0.6871   0.6803   0.6741   0.6701   0.6649   0.6585   0.3578
     0.3307   0.2548   0.2435   0.1395   0.1160   0.1021   0.0566   0.0231
     0.0154   0.0105   0.0067   0.0033   0.0015   0.0010   0.0009   0.0005
     0.0002   0.0002   0.0001   0.0000   0.0000   0.0000   0.0000   0.0000
     0.0000   0.0000   0.0000   0.0000   0.0000   0.0000   0.0000   0.0000
     0.0000   0.0000   0.0000   0.0000   0.0000   0.0000   0.0000

     the Fermi energy is     3.6954 ev

!    total energy              =   -4482.97106702 Ry
     estimated scf accuracy    <          6.1E-09 Ry
     smearing contrib. (-TS)   =      -1.17267021 Ry
     internal energy E=F+TS    =   -4481.79839681 Ry

     The total energy is F=E-TS. E is the sum of the following terms:
     one-electron contribution =  -20253.96769563 Ry
     hartree contribution      =   10266.75430838 Ry
     xc contribution           =    -701.58056750 Ry
     ewald contribution        =    6492.65248685 Ry
     one-center paw contrib.   =    -285.65692891 Ry
      -> PAW hartree energy AE =      25.17338127 Ry
      -> PAW hartree energy PS =     -25.05720385 Ry
      -> PAW xc energy AE      =     -16.51891032 Ry
      -> PAW xc energy PS      =       6.87846736 Ry
      -> total E_H with PAW    =   10266.87048580 Ry
      -> total E_XC with PAW   =    -711.22101046 Ry

     convergence has been achieved in  51 iterations

     Writing all to output data dir /bsuhome/zayahcortright/scratch/pwscf.save/
 
     init_run     :      8.43s CPU      9.15s WALL (       1 calls)
     electrons    :    796.99s CPU    810.51s WALL (       1 calls)

     Called by init_run:
     wfcinit      :      6.97s CPU      7.15s WALL (       1 calls)
     wfcinit:atom :      0.06s CPU      0.08s WALL (       5 calls)
     wfcinit:wfcr :      6.60s CPU      6.73s WALL (       5 calls)
     potinit      :      0.19s CPU      0.21s WALL (       1 calls)
     hinit0       :      0.42s CPU      0.84s WALL (       1 calls)

     Called by electrons:
     c_bands      :    631.91s CPU    637.46s WALL (      51 calls)
     sum_band     :    121.79s CPU    126.29s WALL (      51 calls)
     v_of_rho     :      5.59s CPU      5.89s WALL (      52 calls)
     v_h          :      0.50s CPU      0.50s WALL (      52 calls)
     v_xc         :      5.09s CPU      5.39s WALL (      52 calls)
     newd         :     22.15s CPU     24.68s WALL (      52 calls)
     PAW_pot      :      1.63s CPU      1.67s WALL (      52 calls)
     mix_rho      :     13.51s CPU     13.90s WALL (      51 calls)

     Called by c_bands:
     init_us_2    :      7.52s CPU      7.57s WALL (     515 calls)
     init_us_2:cp :      7.52s CPU      7.56s WALL (     515 calls)
     cegterg      :    596.63s CPU    601.99s WALL (     255 calls)

     Called by sum_band:
     sum_band:wei :      0.36s CPU      0.36s WALL (      51 calls)
     sum_band:loo :     98.78s CPU     99.58s WALL (      51 calls)
     sum_band:buf :      1.72s CPU      1.74s WALL (     255 calls)
     sum_band:ini :      3.66s CPU      3.68s WALL (     255 calls)
     sum_band:cal :     21.10s CPU     21.16s WALL (     255 calls)
     sum_band:bec :      0.58s CPU      0.59s WALL (     255 calls)
     addusdens    :     21.36s CPU     25.03s WALL (      51 calls)
                                        0.00s GPU  (      51 calls)
     addusd:skk   :      0.40s CPU      0.77s WALL (     204 calls)
                                        0.00s GPU  (     204 calls)

     Called by *egterg:
     cdiaghg      :     61.82s CPU     62.08s WALL (    1458 calls)
     cegterg:over :     43.39s CPU     43.58s WALL (    1203 calls)
     cegterg:upda :     33.66s CPU     34.02s WALL (    1203 calls)
     cegterg:last :     67.85s CPU     68.09s WALL (     477 calls)
     cdiaghg:chol :      3.70s CPU      3.73s WALL (    1458 calls)
     cdiaghg:inve :      3.84s CPU      3.85s WALL (    1458 calls)
     cdiaghg:para :      7.31s CPU      7.35s WALL (    2916 calls)
     h_psi        :    327.15s CPU    330.33s WALL (    1463 calls)
     s_psi        :     44.81s CPU     44.94s WALL (    1463 calls)
     g_psi        :      1.19s CPU      1.20s WALL (    1203 calls)

     Called by h_psi:
     h_psi:calbec :     48.91s CPU     49.12s WALL (    1463 calls)
     vloc_psi     :    230.01s CPU    232.41s WALL (    1463 calls)
     add_vuspsi   :     44.65s CPU     44.82s WALL (    1463 calls)

     General routines
     calbec       :     70.00s CPU     70.27s WALL (    1718 calls)
     fft          :      3.89s CPU      3.93s WALL (     674 calls)
     ffts         :      4.76s CPU      4.82s WALL (    5357 calls)
     fftw         :    192.47s CPU    194.10s WALL (  352469 calls)
     interpolate  :      0.41s CPU      0.41s WALL (      52 calls)
 
     Parallel routines

     PAW routines
     PAW_pot      :      1.63s CPU      1.67s WALL (      52 calls)
 
     PWSCF        :  13m27.35s CPU  13m44.86s WALL

 
   This run was terminated on:  14: 7:13  20Jun2024            

=------------------------------------------------------------------------------=
   JOB DONE.
=------------------------------------------------------------------------------=
