
     Program PWSCF v.7.2 starts on 18Jun2024 at 20: 2:24 

     This program is part of the open-source Quantum ESPRESSO suite
     for quantum simulation of materials; please cite
         "P. Giannozzi et al., J. Phys.:Condens. Matter 21 395502 (2009);
         "P. Giannozzi et al., J. Phys.:Condens. Matter 29 465901 (2017);
         "P. Giannozzi et al., J. Chem. Phys. 152 154105 (2020);
          URL http://www.quantum-espresso.org", 
     in publications or presentations arising from this work. More details at
     http://www.quantum-espresso.org/quote

     Parallel version (MPI & OpenMP), running on      48 processor cores
     Number of MPI processes:                48
     Threads/MPI process:                     1

     MPI processes distributed on     1 nodes
     16422 MiB available memory on the printing compute node when the environment starts
 
     Reading input from espresso.pwi
Warning: card &CELL ignored
Warning: card / ignored
Warning: card &FCP ignored
Warning: card / ignored
Warning: card &RISM ignored
Warning: card / ignored

     Current dimensions of program PWSCF are:
     Max number of different atomic species (ntypx) = 10
     Max number of k-points (npk) =  40000
     Max angular momentum in pseudopotentials (lmaxx) =  4
     file O.pbe-n-kjpaw_psl.0.1.UPF: wavefunction(s)  2P renormalized
     signal trapping enabled: kill the code with -SIGUSR1 to stop cleanly the simulation 
 
     K-points division:     npool     =       2
     R & G space division:  proc/nbgrp/npool/nimage =      24
     Subspace diagonalization in iterative solution of the eigenvalue problem:
     one sub-group per band group will be used
     scalapack distributed-memory algorithm (size of sub-group:  3*  3 procs)

 
     Parallelization info
     --------------------
     sticks:   dense  smooth     PW     G-vecs:    dense   smooth      PW
     Min         350     175     47                61430    21716    3036
     Max         351     177     48                61449    21727    3041
     Sum        8421    4205   1137              1474595   521381   72913
 
     Using Slab Decomposition
 


     bravais-lattice index     =            0
     lattice parameter (alat)  =      14.8599  a.u.
     unit-cell volume          =    8305.1283 (a.u.)^3
     number of atoms/cell      =           51
     number of atomic types    =            4
     number of electrons       =       437.00
     number of Kohn-Sham states=          263
     kinetic-energy cutoff     =      60.0000  Ry
     charge density cutoff     =     480.0000  Ry
     scf convergence threshold =      1.0E-08
     mixing beta               =       0.1500
     number of iterations used =            8  local-TF  mixing
     Exchange-correlation= PBE
                           (   1   4   3   4   0   0   0)

     celldm(1)=  14.859904  celldm(2)=   0.000000  celldm(3)=   0.000000
     celldm(4)=   0.000000  celldm(5)=   0.000000  celldm(6)=   0.000000

     crystal axes: (cart. coord. in units of alat)
               a(1) = (   1.000000   0.000000   0.000000 )  
               a(2) = (   0.000000   1.000000   0.000000 )  
               a(3) = (   0.000000   0.000000   2.531036 )  

     reciprocal axes: (cart. coord. in units 2 pi/alat)
               b(1) = (  1.000000  0.000000  0.000000 )  
               b(2) = (  0.000000  1.000000  0.000000 )  
               b(3) = (  0.000000  0.000000  0.395095 )  


     PseudoPot. # 1 for Sr read from file:
     /bsuhome/zayahcortright/q-e/pseudo/Sr_pbe_v1.uspp.F.UPF
     MD5 check sum: 6b418c05fbe9db5448babca5e47b7a5b
     Pseudo is Ultrasoft + core correction, Zval = 10.0
     Generated by new atomic code, or converted to UPF format
     Using radial grid of  883 points,  6 beta functions with: 
                l(1) =   0
                l(2) =   0
                l(3) =   1
                l(4) =   1
                l(5) =   2
                l(6) =   2
     Q(r) pseudized with  6 coefficients,  rinner =    1.400   1.400   1.400
                                                       1.400   1.400

     PseudoPot. # 2 for O  read from file:
     /bsuhome/zayahcortright/q-e/pseudo/O.pbe-n-kjpaw_psl.0.1.UPF
     MD5 check sum: 0234752ac141de4415c5fc33072bef88
     Pseudo is Projector augmented-wave + core cor, Zval =  6.0
     Generated using "atomic" code by A. Dal Corso  v.5.0.99 svn rev. 10869
     Shape of augmentation charge: BESSEL
     Using radial grid of 1095 points,  4 beta functions with: 
                l(1) =   0
                l(2) =   0
                l(3) =   1
                l(4) =   1
     Q(r) pseudized with 0 coefficients 


     PseudoPot. # 3 for Co read from file:
     /bsuhome/zayahcortright/q-e/pseudo/Co_pbe_v1.2.uspp.F.UPF
     MD5 check sum: 5f91765df6ddd3222702df6e7b74a16d
     Pseudo is Ultrasoft + core correction, Zval = 17.0
     Generated by new atomic code, or converted to UPF format
     Using radial grid of  863 points,  6 beta functions with: 
                l(1) =   0
                l(2) =   0
                l(3) =   1
                l(4) =   1
                l(5) =   2
                l(6) =   2
     Q(r) pseudized with  8 coefficients,  rinner =    1.200   1.200   1.200
                                                       1.200   1.200

     PseudoPot. # 4 for H  read from file:
     /bsuhome/zayahcortright/q-e/pseudo/H.pbe-rrkjus_psl.1.0.0.UPF
     MD5 check sum: f52b6d4d1c606e5624b1dc7b2218f220
     Pseudo is Ultrasoft, Zval =  1.0
     Generated using "atomic" code by A. Dal Corso  v.5.1
     Using radial grid of  929 points,  2 beta functions with: 
                l(1) =   0
                l(2) =   0
     Q(r) pseudized with 0 coefficients 


     atomic species   valence    mass     pseudopotential
        Sr            10.00    87.62000     Sr( 1.00)
        O              6.00    15.99900     O ( 1.00)
        Co            17.00    58.93319     Co( 1.00)
        H              1.00     1.00800     H ( 1.00)

     No symmetry found


                                    s                        frac. trans.

      isym =  1     identity                                     

 cryst.   s( 1) = (     1          0          0      )
                  (     0          1          0      )
                  (     0          0          1      )

 cart.    s( 1) = (  1.0000000  0.0000000  0.0000000 )
                  (  0.0000000  1.0000000  0.0000000 )
                  (  0.0000000  0.0000000  1.0000000 )


   Cartesian axes

     site n.     atom                  positions (alat units)
         1           Sr  tau(   1) = (   0.2508693   0.7491307   1.7574407  )
         2           O   tau(   2) = (   0.4985141   0.5014859   1.7715967  )
         3           Sr  tau(   3) = (   0.7482398   0.7454518   1.7648669  )
         4           Sr  tau(   4) = (   0.7441748   0.2558252   1.7667843  )
         5           Sr  tau(   5) = (   0.2508693   0.7491307   1.2696799  )
         6           Sr  tau(   6) = (   0.2508693   0.7491307   0.7632319  )
         7           Co  tau(   7) = (   0.4998914   0.5001086   1.0164559  )
         8           Co  tau(   8) = (   0.4936915   0.5063085   1.5135603  )
         9           O   tau(   9) = (   0.4988895   0.7610401   1.0164559  )
        10           O   tau(  10) = (   0.2389599   0.5011105   1.0164559  )
        11           O   tau(  11) = (   0.0070918   0.7374880   1.0164559  )
        12           O   tau(  12) = (   0.0088340   0.7405089   1.5135603  )
        13           O   tau(  13) = (   0.5066944   0.7415376   1.5135603  )
        14           O   tau(  14) = (   0.2584624   0.4933056   1.5135603  )
        15           O   tau(  15) = (   0.4985141   0.5014859   0.7773880  )
        16           O   tau(  16) = (   0.4985141   0.5014859   1.2555238  )
        17           Sr  tau(  17) = (   0.7482398   0.7454518   0.7706582  )
        18           Sr  tau(  18) = (   0.7482398   0.7454518   1.2622536  )
        19           Sr  tau(  19) = (   0.7441748   0.2558252   0.7725755  )
        20           Sr  tau(  20) = (   0.7441748   0.2558252   1.2603363  )
        21           O   tau(  21) = (   0.7322655   0.0078049   1.5135603  )
        22           O   tau(  22) = (   0.7558175   0.4996027   1.5135603  )
        23           O   tau(  23) = (   0.5003973   0.2441825   1.5135603  )
        24           O   tau(  24) = (   0.7527966   0.4978604   1.0164559  )
        25           O   tau(  25) = (   0.5021396   0.2472034   1.0164559  )
        26           O   tau(  26) = (   0.7517679   0.0000000   1.0164559  )
        27           O   tau(  27) = (   0.0114961   0.4948124   1.7455321  )
        28           O   tau(  28) = (   0.0048226   0.0077944   1.7715967  )
        29           Sr  tau(  29) = (   0.2545482   0.2517602   1.7648669  )
        30           O   tau(  30) = (   0.5048017   0.0015068   1.7786929  )
        31           Co  tau(  31) = (   0.0056869   0.5006215   1.0164559  )
        32           Co  tau(  32) = (   0.0065315   0.4997770   1.5135603  )
        33           Co  tau(  33) = (   0.0061999   0.0064171   1.0164559  )
        34           Co  tau(  34) = (   0.0000000   0.0126169   1.5135603  )
        35           O   tau(  35) = (   0.0114961   0.4948124   1.2815885  )
        36           O   tau(  36) = (   0.0114961   0.4948124   0.7513233  )
        37           O   tau(  37) = (   0.0051979   0.2673486   1.0164559  )
        38           O   tau(  38) = (   0.0130029   0.2478461   1.5135603  )
        39           O   tau(  39) = (   0.0048226   0.0077944   0.7773880  )
        40           O   tau(  40) = (   0.0048226   0.0077944   1.2555238  )
        41           Sr  tau(  41) = (   0.2545482   0.2517602   0.7706582  )
        42           Sr  tau(  42) = (   0.2545482   0.2517602   1.2622536  )
        43           Co  tau(  43) = (   0.4989925   0.0073160   1.5135603  )
        44           Co  tau(  44) = (   0.4998370   0.0064714   1.0164559  )
        45           O   tau(  45) = (   0.5048017   0.0015068   0.7844841  )
        46           O   tau(  46) = (   0.5048017   0.0015068   1.2484277  )
        47           O   tau(  47) = (   0.2621260   0.0059111   1.5135603  )
        48           O   tau(  48) = (   0.2591051   0.0041689   1.0164559  )
        49           O   tau(  49) = (   0.1421646   0.4264937   2.1602013  )
        50           O   tau(  50) = (   0.1421646   0.4264937   2.3186489  )
        51           H   tau(  51) = (   0.1421646   0.4264937   2.4431567  )

   Crystallographic axes

     site n.     atom                  positions (cryst. coord.)
         1           Sr  tau(   1) = (  0.2508693  0.7491307  0.6943562  )
         2           O   tau(   2) = (  0.4985141  0.5014859  0.6999492  )
         3           Sr  tau(   3) = (  0.7482398  0.7454518  0.6972903  )
         4           Sr  tau(   4) = (  0.7441748  0.2558252  0.6980478  )
         5           Sr  tau(   5) = (  0.2508693  0.7491307  0.5016443  )
         6           Sr  tau(   6) = (  0.2508693  0.7491307  0.3015492  )
         7           Co  tau(   7) = (  0.4998914  0.5001086  0.4015968  )
         8           Co  tau(   8) = (  0.4936915  0.5063085  0.5980003  )
         9           O   tau(   9) = (  0.4988895  0.7610401  0.4015968  )
        10           O   tau(  10) = (  0.2389599  0.5011105  0.4015968  )
        11           O   tau(  11) = (  0.0070918  0.7374880  0.4015968  )
        12           O   tau(  12) = (  0.0088340  0.7405089  0.5980003  )
        13           O   tau(  13) = (  0.5066944  0.7415376  0.5980003  )
        14           O   tau(  14) = (  0.2584624  0.4933056  0.5980003  )
        15           O   tau(  15) = (  0.4985141  0.5014859  0.3071422  )
        16           O   tau(  16) = (  0.4985141  0.5014859  0.4960513  )
        17           Sr  tau(  17) = (  0.7482398  0.7454518  0.3044833  )
        18           Sr  tau(  18) = (  0.7482398  0.7454518  0.4987103  )
        19           Sr  tau(  19) = (  0.7441748  0.2558252  0.3052408  )
        20           Sr  tau(  20) = (  0.7441748  0.2558252  0.4979527  )
        21           O   tau(  21) = (  0.7322655  0.0078049  0.5980003  )
        22           O   tau(  22) = (  0.7558175  0.4996027  0.5980003  )
        23           O   tau(  23) = (  0.5003973  0.2441825  0.5980003  )
        24           O   tau(  24) = (  0.7527966  0.4978604  0.4015968  )
        25           O   tau(  25) = (  0.5021396  0.2472034  0.4015968  )
        26           O   tau(  26) = (  0.7517679  0.0000000  0.4015968  )
        27           O   tau(  27) = (  0.0114961  0.4948124  0.6896512  )
        28           O   tau(  28) = (  0.0048226  0.0077944  0.6999492  )
        29           Sr  tau(  29) = (  0.2545482  0.2517602  0.6972903  )
        30           O   tau(  30) = (  0.5048017  0.0015068  0.7027529  )
        31           Co  tau(  31) = (  0.0056869  0.5006215  0.4015968  )
        32           Co  tau(  32) = (  0.0065315  0.4997770  0.5980003  )
        33           Co  tau(  33) = (  0.0061999  0.0064171  0.4015968  )
        34           Co  tau(  34) = (  0.0000000  0.0126169  0.5980003  )
        35           O   tau(  35) = (  0.0114961  0.4948124  0.5063494  )
        36           O   tau(  36) = (  0.0114961  0.4948124  0.2968442  )
        37           O   tau(  37) = (  0.0051979  0.2673486  0.4015968  )
        38           O   tau(  38) = (  0.0130029  0.2478461  0.5980003  )
        39           O   tau(  39) = (  0.0048226  0.0077944  0.3071422  )
        40           O   tau(  40) = (  0.0048226  0.0077944  0.4960513  )
        41           Sr  tau(  41) = (  0.2545482  0.2517602  0.3044833  )
        42           Sr  tau(  42) = (  0.2545482  0.2517602  0.4987103  )
        43           Co  tau(  43) = (  0.4989925  0.0073160  0.5980003  )
        44           Co  tau(  44) = (  0.4998370  0.0064714  0.4015968  )
        45           O   tau(  45) = (  0.5048017  0.0015068  0.3099459  )
        46           O   tau(  46) = (  0.5048017  0.0015068  0.4932477  )
        47           O   tau(  47) = (  0.2621260  0.0059111  0.5980003  )
        48           O   tau(  48) = (  0.2591051  0.0041689  0.4015968  )
        49           O   tau(  49) = (  0.1421646  0.4264937  0.8534850  )
        50           O   tau(  50) = (  0.1421646  0.4264937  0.9160869  )
        51           H   tau(  51) = (  0.1421646  0.4264937  0.9652793  )

     number of k points=    10  Gaussian smearing, width (Ry)=  0.0700
                       cart. coord. in units 2pi/alat
        k(    1) = (   0.0000000   0.0000000   0.0000000), wk =   0.1250000
        k(    2) = (   0.0000000   0.2500000   0.0000000), wk =   0.2500000
        k(    3) = (   0.0000000  -0.5000000   0.0000000), wk =   0.1250000
        k(    4) = (   0.2500000   0.2500000   0.0000000), wk =   0.2500000
        k(    5) = (   0.2500000  -0.5000000   0.0000000), wk =   0.2500000
        k(    6) = (  -0.5000000  -0.5000000   0.0000000), wk =   0.1250000
        k(    7) = (   0.2500000   0.0000000   0.0000000), wk =   0.2500000
        k(    8) = (  -0.5000000   0.0000000   0.0000000), wk =   0.1250000
        k(    9) = (  -0.2500000   0.2500000   0.0000000), wk =   0.2500000
        k(   10) = (  -0.5000000   0.2500000   0.0000000), wk =   0.2500000

                       cryst. coord.
        k(    1) = (   0.0000000   0.0000000   0.0000000), wk =   0.1250000
        k(    2) = (   0.0000000   0.2500000   0.0000000), wk =   0.2500000
        k(    3) = (   0.0000000  -0.5000000   0.0000000), wk =   0.1250000
        k(    4) = (   0.2500000   0.2500000   0.0000000), wk =   0.2500000
        k(    5) = (   0.2500000  -0.5000000   0.0000000), wk =   0.2500000
        k(    6) = (  -0.5000000  -0.5000000   0.0000000), wk =   0.1250000
        k(    7) = (   0.2500000   0.0000000   0.0000000), wk =   0.2500000
        k(    8) = (  -0.5000000   0.0000000   0.0000000), wk =   0.1250000
        k(    9) = (  -0.2500000   0.2500000   0.0000000), wk =   0.2500000
        k(   10) = (  -0.5000000   0.2500000   0.0000000), wk =   0.2500000

     Dense  grid:  1474595 G-vectors     FFT dimensions: ( 108, 108, 270)

     Smooth grid:   521381 G-vectors     FFT dimensions: (  75,  75, 192)

     Dynamical RAM for                 wfc:      10.90 MB

     Dynamical RAM for     wfc (w. buffer):      65.37 MB

     Dynamical RAM for           str. fact:       3.75 MB

     Dynamical RAM for           local pot:       0.00 MB

     Dynamical RAM for          nlocal pot:      24.94 MB

     Dynamical RAM for                qrad:       7.03 MB

     Dynamical RAM for          rho,v,vnew:       6.02 MB

     Dynamical RAM for               rhoin:       2.01 MB

     Dynamical RAM for            rho*nmix:      15.00 MB

     Dynamical RAM for           G-vectors:       3.68 MB

     Dynamical RAM for          h,s,v(r/c):       1.40 MB

     Dynamical RAM for          <psi|beta>:       2.42 MB

     Dynamical RAM for                 psi:      21.79 MB

     Dynamical RAM for                hpsi:      21.79 MB

     Dynamical RAM for                spsi:      21.79 MB

     Dynamical RAM for      wfcinit/wfcrot:      34.89 MB

     Dynamical RAM for           addusdens:     101.73 MB

     Estimated static dynamical RAM per process >     122.82 MB

     Estimated max dynamical RAM per process >     239.55 MB

     Estimated total dynamical RAM >      10.88 GB

     Check: negative core charge=   -0.000004

     Initial potential from superposition of free atoms

     starting charge     428.5961, renormalised to     437.0000

     negative rho (up, down):  7.813E-01 0.000E+00
     Starting wfcs are  381 randomized atomic wfcs
     Checking if some PAW data can be deallocated... 
       PAW data deallocated on   18 nodes for type:  2

     total cpu time spent up to now is        9.5 secs

     Self-consistent Calculation

     iteration #  1     ecut=    60.00 Ry     beta= 0.15
     Davidson diagonalization with overlap

---- Real-time Memory Report at c_bands before calling an iterative solver
             0 MiB given to the printing process from OS
             0 MiB allocation reported by mallinfo(arena+hblkhd)
          6886 MiB available memory on the node where the printing process lives
------------------
     ethr =  1.00E-02,  avg # of iterations =  2.0

     negative rho (up, down):  7.716E-01 0.000E+00

     total cpu time spent up to now is       26.1 secs

     total energy              =   -4489.31395835 Ry
     estimated scf accuracy    <      49.79674852 Ry

     iteration #  2     ecut=    60.00 Ry     beta= 0.15
     Davidson diagonalization with overlap

---- Real-time Memory Report at c_bands before calling an iterative solver
             0 MiB given to the printing process from OS
             0 MiB allocation reported by mallinfo(arena+hblkhd)
          7208 MiB available memory on the node where the printing process lives
------------------
     ethr =  1.00E-02,  avg # of iterations =  1.0

     negative rho (up, down):  7.615E-01 0.000E+00

     total cpu time spent up to now is       39.0 secs

     total energy              =   -4486.83241024 Ry
     estimated scf accuracy    <      35.38734584 Ry

     iteration #  3     ecut=    60.00 Ry     beta= 0.15
     Davidson diagonalization with overlap

---- Real-time Memory Report at c_bands before calling an iterative solver
             0 MiB given to the printing process from OS
             0 MiB allocation reported by mallinfo(arena+hblkhd)
          6415 MiB available memory on the node where the printing process lives
------------------
     ethr =  8.10E-03,  avg # of iterations =  1.0

     negative rho (up, down):  7.562E-01 0.000E+00

     total cpu time spent up to now is       52.0 secs

     total energy              =   -4486.75114161 Ry
     estimated scf accuracy    <      34.94622484 Ry

     iteration #  4     ecut=    60.00 Ry     beta= 0.15
     Davidson diagonalization with overlap

---- Real-time Memory Report at c_bands before calling an iterative solver
             0 MiB given to the printing process from OS
             0 MiB allocation reported by mallinfo(arena+hblkhd)
          6388 MiB available memory on the node where the printing process lives
------------------
     ethr =  8.00E-03,  avg # of iterations =  1.0

     negative rho (up, down):  7.571E-01 0.000E+00

     total cpu time spent up to now is       64.9 secs

     total energy              =   -4486.70365648 Ry
     estimated scf accuracy    <      34.35806552 Ry

     iteration #  5     ecut=    60.00 Ry     beta= 0.15
     Davidson diagonalization with overlap

---- Real-time Memory Report at c_bands before calling an iterative solver
             0 MiB given to the printing process from OS
             0 MiB allocation reported by mallinfo(arena+hblkhd)
          6368 MiB available memory on the node where the printing process lives
------------------
     ethr =  7.86E-03,  avg # of iterations =  1.0

     negative rho (up, down):  7.343E-01 0.000E+00

     total cpu time spent up to now is       77.7 secs

     total energy              =   -4483.13224101 Ry
     estimated scf accuracy    <      24.60913849 Ry

     iteration #  6     ecut=    60.00 Ry     beta= 0.15
     Davidson diagonalization with overlap

---- Real-time Memory Report at c_bands before calling an iterative solver
             0 MiB given to the printing process from OS
             0 MiB allocation reported by mallinfo(arena+hblkhd)
          6355 MiB available memory on the node where the printing process lives
------------------
     ethr =  5.63E-03,  avg # of iterations =  2.0

     negative rho (up, down):  7.469E-01 0.000E+00

     total cpu time spent up to now is       92.1 secs

     total energy              =   -4484.36979529 Ry
     estimated scf accuracy    <      46.65540049 Ry

     iteration #  7     ecut=    60.00 Ry     beta= 0.15
     Davidson diagonalization with overlap

---- Real-time Memory Report at c_bands before calling an iterative solver
             0 MiB given to the printing process from OS
             0 MiB allocation reported by mallinfo(arena+hblkhd)
          6333 MiB available memory on the node where the printing process lives
------------------
     ethr =  5.63E-03,  avg # of iterations =  1.0

     negative rho (up, down):  7.527E-01 0.000E+00

     total cpu time spent up to now is      105.0 secs

     total energy              =   -4483.37636103 Ry
     estimated scf accuracy    <      47.25993987 Ry

     iteration #  8     ecut=    60.00 Ry     beta= 0.15
     Davidson diagonalization with overlap

---- Real-time Memory Report at c_bands before calling an iterative solver
             0 MiB given to the printing process from OS
             0 MiB allocation reported by mallinfo(arena+hblkhd)
          6312 MiB available memory on the node where the printing process lives
------------------
     ethr =  5.63E-03,  avg # of iterations =  1.0

     negative rho (up, down):  7.504E-01 0.000E+00

     total cpu time spent up to now is      117.7 secs

     total energy              =   -4483.85469195 Ry
     estimated scf accuracy    <       6.01409253 Ry

     iteration #  9     ecut=    60.00 Ry     beta= 0.15
     Davidson diagonalization with overlap

---- Real-time Memory Report at c_bands before calling an iterative solver
             0 MiB given to the printing process from OS
             0 MiB allocation reported by mallinfo(arena+hblkhd)
          6295 MiB available memory on the node where the printing process lives
------------------
     ethr =  1.38E-03,  avg # of iterations =  4.1

     negative rho (up, down):  7.628E-01 0.000E+00

     total cpu time spent up to now is      132.7 secs

     total energy              =   -4483.68402681 Ry
     estimated scf accuracy    <       3.60570908 Ry

     iteration # 10     ecut=    60.00 Ry     beta= 0.15
     Davidson diagonalization with overlap

---- Real-time Memory Report at c_bands before calling an iterative solver
             0 MiB given to the printing process from OS
             0 MiB allocation reported by mallinfo(arena+hblkhd)
          6243 MiB available memory on the node where the printing process lives
------------------
     ethr =  8.25E-04,  avg # of iterations =  9.9

     negative rho (up, down):  7.745E-01 0.000E+00

     total cpu time spent up to now is      150.7 secs

     total energy              =   -4483.52689236 Ry
     estimated scf accuracy    <       3.95914803 Ry

     iteration # 11     ecut=    60.00 Ry     beta= 0.15
     Davidson diagonalization with overlap

---- Real-time Memory Report at c_bands before calling an iterative solver
             0 MiB given to the printing process from OS
             0 MiB allocation reported by mallinfo(arena+hblkhd)
          5953 MiB available memory on the node where the printing process lives
------------------
     ethr =  8.25E-04,  avg # of iterations =  5.3

     negative rho (up, down):  7.872E-01 0.000E+00

     total cpu time spent up to now is      166.5 secs

     total energy              =   -4483.38865285 Ry
     estimated scf accuracy    <       3.28197921 Ry

     iteration # 12     ecut=    60.00 Ry     beta= 0.15
     Davidson diagonalization with overlap

---- Real-time Memory Report at c_bands before calling an iterative solver
             0 MiB given to the printing process from OS
             0 MiB allocation reported by mallinfo(arena+hblkhd)
          5908 MiB available memory on the node where the printing process lives
------------------
     ethr =  7.51E-04,  avg # of iterations =  9.3

     negative rho (up, down):  7.991E-01 0.000E+00

     total cpu time spent up to now is      184.5 secs

     total energy              =   -4483.19472631 Ry
     estimated scf accuracy    <       2.04569430 Ry

     iteration # 13     ecut=    60.00 Ry     beta= 0.15
     Davidson diagonalization with overlap

---- Real-time Memory Report at c_bands before calling an iterative solver
             0 MiB given to the printing process from OS
             0 MiB allocation reported by mallinfo(arena+hblkhd)
          5820 MiB available memory on the node where the printing process lives
------------------
     ethr =  4.68E-04,  avg # of iterations =  3.1

     negative rho (up, down):  7.965E-01 0.000E+00

     total cpu time spent up to now is      199.5 secs

     total energy              =   -4483.33129559 Ry
     estimated scf accuracy    <       2.34564499 Ry

     iteration # 14     ecut=    60.00 Ry     beta= 0.15
     Davidson diagonalization with overlap

---- Real-time Memory Report at c_bands before calling an iterative solver
             0 MiB given to the printing process from OS
             0 MiB allocation reported by mallinfo(arena+hblkhd)
          5830 MiB available memory on the node where the printing process lives
------------------
     ethr =  4.68E-04,  avg # of iterations =  1.1

     negative rho (up, down):  7.996E-01 0.000E+00

     total cpu time spent up to now is      212.4 secs

     total energy              =   -4483.32709839 Ry
     estimated scf accuracy    <       1.15762933 Ry

     iteration # 15     ecut=    60.00 Ry     beta= 0.15
     Davidson diagonalization with overlap

---- Real-time Memory Report at c_bands before calling an iterative solver
             0 MiB given to the printing process from OS
             0 MiB allocation reported by mallinfo(arena+hblkhd)
          5829 MiB available memory on the node where the printing process lives
------------------
     ethr =  2.65E-04,  avg # of iterations =  4.0

     negative rho (up, down):  8.042E-01 0.000E+00

     total cpu time spent up to now is      228.1 secs

     total energy              =   -4483.26797665 Ry
     estimated scf accuracy    <       0.96466327 Ry

     iteration # 16     ecut=    60.00 Ry     beta= 0.15
     Davidson diagonalization with overlap

---- Real-time Memory Report at c_bands before calling an iterative solver
             0 MiB given to the printing process from OS
             0 MiB allocation reported by mallinfo(arena+hblkhd)
          5830 MiB available memory on the node where the printing process lives
------------------
     ethr =  2.21E-04,  avg # of iterations =  1.3

     negative rho (up, down):  8.034E-01 0.000E+00

     total cpu time spent up to now is      241.3 secs

     total energy              =   -4483.26835226 Ry
     estimated scf accuracy    <       1.93745604 Ry

     iteration # 17     ecut=    60.00 Ry     beta= 0.15
     Davidson diagonalization with overlap

---- Real-time Memory Report at c_bands before calling an iterative solver
             0 MiB given to the printing process from OS
             0 MiB allocation reported by mallinfo(arena+hblkhd)
          5837 MiB available memory on the node where the printing process lives
------------------
     ethr =  2.21E-04,  avg # of iterations =  1.0

     negative rho (up, down):  8.108E-01 0.000E+00

     total cpu time spent up to now is      254.0 secs

     total energy              =   -4483.21790137 Ry
     estimated scf accuracy    <       1.64655627 Ry

     iteration # 18     ecut=    60.00 Ry     beta= 0.15
     Davidson diagonalization with overlap

---- Real-time Memory Report at c_bands before calling an iterative solver
             0 MiB given to the printing process from OS
             0 MiB allocation reported by mallinfo(arena+hblkhd)
          5844 MiB available memory on the node where the printing process lives
------------------
     ethr =  2.21E-04,  avg # of iterations =  2.5

     negative rho (up, down):  8.114E-01 0.000E+00

     total cpu time spent up to now is      268.3 secs

     total energy              =   -4483.09820761 Ry
     estimated scf accuracy    <       3.31505897 Ry

     iteration # 19     ecut=    60.00 Ry     beta= 0.15
     Davidson diagonalization with overlap

---- Real-time Memory Report at c_bands before calling an iterative solver
             0 MiB given to the printing process from OS
             0 MiB allocation reported by mallinfo(arena+hblkhd)
          5865 MiB available memory on the node where the printing process lives
------------------
     ethr =  2.21E-04,  avg # of iterations =  2.9

     negative rho (up, down):  8.101E-01 0.000E+00

     total cpu time spent up to now is      282.9 secs

     total energy              =   -4483.11287206 Ry
     estimated scf accuracy    <       0.71840844 Ry

     iteration # 20     ecut=    60.00 Ry     beta= 0.15
     Davidson diagonalization with overlap

---- Real-time Memory Report at c_bands before calling an iterative solver
             0 MiB given to the printing process from OS
             0 MiB allocation reported by mallinfo(arena+hblkhd)
          5852 MiB available memory on the node where the printing process lives
------------------
     ethr =  1.64E-04,  avg # of iterations =  5.5

     negative rho (up, down):  8.095E-01 0.000E+00

     total cpu time spent up to now is      298.6 secs

     total energy              =   -4483.04800079 Ry
     estimated scf accuracy    <       0.35897515 Ry

     iteration # 21     ecut=    60.00 Ry     beta= 0.15
     Davidson diagonalization with overlap

---- Real-time Memory Report at c_bands before calling an iterative solver
             0 MiB given to the printing process from OS
             0 MiB allocation reported by mallinfo(arena+hblkhd)
          5845 MiB available memory on the node where the printing process lives
------------------
     ethr =  8.21E-05,  avg # of iterations = 11.8

     negative rho (up, down):  8.091E-01 0.000E+00

     total cpu time spent up to now is      318.0 secs

     total energy              =   -4483.02297741 Ry
     estimated scf accuracy    <       0.20240079 Ry

     iteration # 22     ecut=    60.00 Ry     beta= 0.15
     Davidson diagonalization with overlap

---- Real-time Memory Report at c_bands before calling an iterative solver
             0 MiB given to the printing process from OS
             0 MiB allocation reported by mallinfo(arena+hblkhd)
          5736 MiB available memory on the node where the printing process lives
------------------
     ethr =  4.63E-05,  avg # of iterations =  5.5

     negative rho (up, down):  8.276E-01 0.000E+00

     total cpu time spent up to now is      334.4 secs

     total energy              =   -4483.00079078 Ry
     estimated scf accuracy    <       0.14518366 Ry

     iteration # 23     ecut=    60.00 Ry     beta= 0.15
     Davidson diagonalization with overlap

---- Real-time Memory Report at c_bands before calling an iterative solver
             0 MiB given to the printing process from OS
             0 MiB allocation reported by mallinfo(arena+hblkhd)
          5681 MiB available memory on the node where the printing process lives
------------------
     ethr =  3.32E-05,  avg # of iterations =  9.7

     negative rho (up, down):  8.429E-01 0.000E+00

     total cpu time spent up to now is      353.3 secs

     total energy              =   -4482.99141364 Ry
     estimated scf accuracy    <       0.13959420 Ry

     iteration # 24     ecut=    60.00 Ry     beta= 0.15
     Davidson diagonalization with overlap

---- Real-time Memory Report at c_bands before calling an iterative solver
             0 MiB given to the printing process from OS
             0 MiB allocation reported by mallinfo(arena+hblkhd)
          5624 MiB available memory on the node where the printing process lives
------------------
     ethr =  3.19E-05,  avg # of iterations =  8.3

     negative rho (up, down):  8.414E-01 0.000E+00

     total cpu time spent up to now is      371.1 secs

     total energy              =   -4482.98173049 Ry
     estimated scf accuracy    <       0.09999154 Ry

     iteration # 25     ecut=    60.00 Ry     beta= 0.15
     Davidson diagonalization with overlap

---- Real-time Memory Report at c_bands before calling an iterative solver
             0 MiB given to the printing process from OS
             0 MiB allocation reported by mallinfo(arena+hblkhd)
          5626 MiB available memory on the node where the printing process lives
------------------
     ethr =  2.29E-05,  avg # of iterations = 10.6

     negative rho (up, down):  8.239E-01 0.000E+00

     total cpu time spent up to now is      390.0 secs

     total energy              =   -4482.98187631 Ry
     estimated scf accuracy    <       0.03685603 Ry

     iteration # 26     ecut=    60.00 Ry     beta= 0.15
     Davidson diagonalization with overlap

---- Real-time Memory Report at c_bands before calling an iterative solver
             0 MiB given to the printing process from OS
             0 MiB allocation reported by mallinfo(arena+hblkhd)
          5596 MiB available memory on the node where the printing process lives
------------------
     ethr =  8.43E-06,  avg # of iterations =  6.0

     negative rho (up, down):  8.093E-01 0.000E+00

     total cpu time spent up to now is      407.0 secs

     total energy              =   -4482.97823857 Ry
     estimated scf accuracy    <       0.02689506 Ry

     iteration # 27     ecut=    60.00 Ry     beta= 0.15
     Davidson diagonalization with overlap

---- Real-time Memory Report at c_bands before calling an iterative solver
             0 MiB given to the printing process from OS
             0 MiB allocation reported by mallinfo(arena+hblkhd)
          5560 MiB available memory on the node where the printing process lives
------------------
     ethr =  6.15E-06,  avg # of iterations = 10.0

     negative rho (up, down):  8.016E-01 0.000E+00

     total cpu time spent up to now is      425.9 secs

     total energy              =   -4482.97673580 Ry
     estimated scf accuracy    <       0.01421406 Ry

     iteration # 28     ecut=    60.00 Ry     beta= 0.15
     Davidson diagonalization with overlap

---- Real-time Memory Report at c_bands before calling an iterative solver
             0 MiB given to the printing process from OS
             0 MiB allocation reported by mallinfo(arena+hblkhd)
          5518 MiB available memory on the node where the printing process lives
------------------
     ethr =  3.25E-06,  avg # of iterations =  8.0

     negative rho (up, down):  8.040E-01 0.000E+00

     total cpu time spent up to now is      444.3 secs

     total energy              =   -4482.97608613 Ry
     estimated scf accuracy    <       0.00772189 Ry

     iteration # 29     ecut=    60.00 Ry     beta= 0.15
     Davidson diagonalization with overlap

---- Real-time Memory Report at c_bands before calling an iterative solver
             0 MiB given to the printing process from OS
             0 MiB allocation reported by mallinfo(arena+hblkhd)
          5508 MiB available memory on the node where the printing process lives
------------------
     ethr =  1.77E-06,  avg # of iterations = 10.0

     negative rho (up, down):  7.986E-01 0.000E+00

     total cpu time spent up to now is      463.4 secs

     total energy              =   -4482.97572613 Ry
     estimated scf accuracy    <       0.00449485 Ry

     iteration # 30     ecut=    60.00 Ry     beta= 0.15
     Davidson diagonalization with overlap

---- Real-time Memory Report at c_bands before calling an iterative solver
             0 MiB given to the printing process from OS
             0 MiB allocation reported by mallinfo(arena+hblkhd)
          5517 MiB available memory on the node where the printing process lives
------------------
     ethr =  1.03E-06,  avg # of iterations =  3.4

     negative rho (up, down):  7.942E-01 0.000E+00

     total cpu time spent up to now is      478.9 secs

     total energy              =   -4482.97560577 Ry
     estimated scf accuracy    <       0.00177535 Ry

     iteration # 31     ecut=    60.00 Ry     beta= 0.15
     Davidson diagonalization with overlap

---- Real-time Memory Report at c_bands before calling an iterative solver
             0 MiB given to the printing process from OS
             0 MiB allocation reported by mallinfo(arena+hblkhd)
          5523 MiB available memory on the node where the printing process lives
------------------
     ethr =  4.06E-07,  avg # of iterations =  7.0

     negative rho (up, down):  7.922E-01 0.000E+00

     total cpu time spent up to now is      496.1 secs

     total energy              =   -4482.97559667 Ry
     estimated scf accuracy    <       0.00075307 Ry

     iteration # 32     ecut=    60.00 Ry     beta= 0.15
     Davidson diagonalization with overlap

---- Real-time Memory Report at c_bands before calling an iterative solver
             0 MiB given to the printing process from OS
             0 MiB allocation reported by mallinfo(arena+hblkhd)
          5528 MiB available memory on the node where the printing process lives
------------------
     ethr =  1.72E-07,  avg # of iterations =  5.7

     negative rho (up, down):  7.922E-01 0.000E+00

     total cpu time spent up to now is      512.4 secs

     total energy              =   -4482.97562183 Ry
     estimated scf accuracy    <       0.00032654 Ry

     iteration # 33     ecut=    60.00 Ry     beta= 0.15
     Davidson diagonalization with overlap

---- Real-time Memory Report at c_bands before calling an iterative solver
             0 MiB given to the printing process from OS
             0 MiB allocation reported by mallinfo(arena+hblkhd)
          5510 MiB available memory on the node where the printing process lives
------------------
     ethr =  7.47E-08,  avg # of iterations =  3.7

     negative rho (up, down):  7.922E-01 0.000E+00

     total cpu time spent up to now is      527.9 secs

     total energy              =   -4482.97563271 Ry
     estimated scf accuracy    <       0.00016824 Ry

     iteration # 34     ecut=    60.00 Ry     beta= 0.15
     Davidson diagonalization with overlap

---- Real-time Memory Report at c_bands before calling an iterative solver
             0 MiB given to the printing process from OS
             0 MiB allocation reported by mallinfo(arena+hblkhd)
          5534 MiB available memory on the node where the printing process lives
------------------
     ethr =  3.85E-08,  avg # of iterations =  3.1

     negative rho (up, down):  7.922E-01 0.000E+00

     total cpu time spent up to now is      542.8 secs

     total energy              =   -4482.97563400 Ry
     estimated scf accuracy    <       0.00012163 Ry

     iteration # 35     ecut=    60.00 Ry     beta= 0.15
     Davidson diagonalization with overlap

---- Real-time Memory Report at c_bands before calling an iterative solver
             0 MiB given to the printing process from OS
             0 MiB allocation reported by mallinfo(arena+hblkhd)
          5529 MiB available memory on the node where the printing process lives
------------------
     ethr =  2.78E-08,  avg # of iterations =  4.9

     negative rho (up, down):  7.921E-01 0.000E+00

     total cpu time spent up to now is      558.7 secs

     total energy              =   -4482.97563507 Ry
     estimated scf accuracy    <       0.00008215 Ry

     iteration # 36     ecut=    60.00 Ry     beta= 0.15
     Davidson diagonalization with overlap

---- Real-time Memory Report at c_bands before calling an iterative solver
             0 MiB given to the printing process from OS
             0 MiB allocation reported by mallinfo(arena+hblkhd)
          5563 MiB available memory on the node where the printing process lives
------------------
     ethr =  1.88E-08,  avg # of iterations =  6.9

     negative rho (up, down):  7.922E-01 0.000E+00

     total cpu time spent up to now is      574.9 secs

     total energy              =   -4482.97563096 Ry
     estimated scf accuracy    <       0.00005381 Ry

     iteration # 37     ecut=    60.00 Ry     beta= 0.15
     Davidson diagonalization with overlap

---- Real-time Memory Report at c_bands before calling an iterative solver
             0 MiB given to the printing process from OS
             0 MiB allocation reported by mallinfo(arena+hblkhd)
          5558 MiB available memory on the node where the printing process lives
------------------
     ethr =  1.23E-08,  avg # of iterations =  2.7

     negative rho (up, down):  7.922E-01 0.000E+00

     total cpu time spent up to now is      589.9 secs

     total energy              =   -4482.97563129 Ry
     estimated scf accuracy    <       0.00003323 Ry

     iteration # 38     ecut=    60.00 Ry     beta= 0.15
     Davidson diagonalization with overlap

---- Real-time Memory Report at c_bands before calling an iterative solver
             0 MiB given to the printing process from OS
             0 MiB allocation reported by mallinfo(arena+hblkhd)
          5573 MiB available memory on the node where the printing process lives
------------------
     ethr =  7.60E-09,  avg # of iterations =  3.3

     negative rho (up, down):  7.923E-01 0.000E+00

     total cpu time spent up to now is      604.9 secs

     total energy              =   -4482.97563006 Ry
     estimated scf accuracy    <       0.00002416 Ry

     iteration # 39     ecut=    60.00 Ry     beta= 0.15
     Davidson diagonalization with overlap

---- Real-time Memory Report at c_bands before calling an iterative solver
             0 MiB given to the printing process from OS
             0 MiB allocation reported by mallinfo(arena+hblkhd)
          5570 MiB available memory on the node where the printing process lives
------------------
     ethr =  5.53E-09,  avg # of iterations =  3.8

     negative rho (up, down):  7.923E-01 0.000E+00

     total cpu time spent up to now is      619.9 secs

     total energy              =   -4482.97563118 Ry
     estimated scf accuracy    <       0.00001809 Ry

     iteration # 40     ecut=    60.00 Ry     beta= 0.15
     Davidson diagonalization with overlap

---- Real-time Memory Report at c_bands before calling an iterative solver
             0 MiB given to the printing process from OS
             0 MiB allocation reported by mallinfo(arena+hblkhd)
          5575 MiB available memory on the node where the printing process lives
------------------
     ethr =  4.14E-09,  avg # of iterations =  3.2

     negative rho (up, down):  7.923E-01 0.000E+00

     total cpu time spent up to now is      634.8 secs

     total energy              =   -4482.97563428 Ry
     estimated scf accuracy    <       0.00001423 Ry

     iteration # 41     ecut=    60.00 Ry     beta= 0.15
     Davidson diagonalization with overlap

---- Real-time Memory Report at c_bands before calling an iterative solver
             0 MiB given to the printing process from OS
             0 MiB allocation reported by mallinfo(arena+hblkhd)
          5614 MiB available memory on the node where the printing process lives
------------------
     ethr =  3.26E-09,  avg # of iterations =  3.3

     negative rho (up, down):  7.924E-01 0.000E+00

     total cpu time spent up to now is      649.9 secs

     total energy              =   -4482.97563800 Ry
     estimated scf accuracy    <       0.00000878 Ry

     iteration # 42     ecut=    60.00 Ry     beta= 0.15
     Davidson diagonalization with overlap

---- Real-time Memory Report at c_bands before calling an iterative solver
             0 MiB given to the printing process from OS
             0 MiB allocation reported by mallinfo(arena+hblkhd)
          5633 MiB available memory on the node where the printing process lives
------------------
     ethr =  2.01E-09,  avg # of iterations =  4.7

     negative rho (up, down):  7.924E-01 0.000E+00

     total cpu time spent up to now is      665.5 secs

     total energy              =   -4482.97563968 Ry
     estimated scf accuracy    <       0.00000443 Ry

     iteration # 43     ecut=    60.00 Ry     beta= 0.15
     Davidson diagonalization with overlap

---- Real-time Memory Report at c_bands before calling an iterative solver
             0 MiB given to the printing process from OS
             0 MiB allocation reported by mallinfo(arena+hblkhd)
          5667 MiB available memory on the node where the printing process lives
------------------
     ethr =  1.01E-09,  avg # of iterations =  4.4

     negative rho (up, down):  7.923E-01 0.000E+00

     total cpu time spent up to now is      680.8 secs

     total energy              =   -4482.97564042 Ry
     estimated scf accuracy    <       0.00000319 Ry

     iteration # 44     ecut=    60.00 Ry     beta= 0.15
     Davidson diagonalization with overlap

---- Real-time Memory Report at c_bands before calling an iterative solver
             0 MiB given to the printing process from OS
             0 MiB allocation reported by mallinfo(arena+hblkhd)
          5659 MiB available memory on the node where the printing process lives
------------------
     ethr =  7.31E-10,  avg # of iterations =  4.8

     negative rho (up, down):  7.923E-01 0.000E+00

     total cpu time spent up to now is      696.8 secs

     total energy              =   -4482.97564059 Ry
     estimated scf accuracy    <       0.00000151 Ry

     iteration # 45     ecut=    60.00 Ry     beta= 0.15
     Davidson diagonalization with overlap

---- Real-time Memory Report at c_bands before calling an iterative solver
             0 MiB given to the printing process from OS
             0 MiB allocation reported by mallinfo(arena+hblkhd)
          5661 MiB available memory on the node where the printing process lives
------------------
     ethr =  3.46E-10,  avg # of iterations =  4.7

     negative rho (up, down):  7.923E-01 0.000E+00

     total cpu time spent up to now is      712.5 secs

     total energy              =   -4482.97564052 Ry
     estimated scf accuracy    <       0.00000079 Ry

     iteration # 46     ecut=    60.00 Ry     beta= 0.15
     Davidson diagonalization with overlap

---- Real-time Memory Report at c_bands before calling an iterative solver
             0 MiB given to the printing process from OS
             0 MiB allocation reported by mallinfo(arena+hblkhd)
          5665 MiB available memory on the node where the printing process lives
------------------
     ethr =  1.80E-10,  avg # of iterations =  4.2

     negative rho (up, down):  7.923E-01 0.000E+00

     total cpu time spent up to now is      727.8 secs

     total energy              =   -4482.97564055 Ry
     estimated scf accuracy    <       0.00000044 Ry

     iteration # 47     ecut=    60.00 Ry     beta= 0.15
     Davidson diagonalization with overlap

---- Real-time Memory Report at c_bands before calling an iterative solver
             0 MiB given to the printing process from OS
             0 MiB allocation reported by mallinfo(arena+hblkhd)
          5669 MiB available memory on the node where the printing process lives
------------------
     ethr =  9.96E-11,  avg # of iterations =  2.3

     negative rho (up, down):  7.923E-01 0.000E+00

     total cpu time spent up to now is      742.3 secs

     total energy              =   -4482.97564051 Ry
     estimated scf accuracy    <       0.00000033 Ry

     iteration # 48     ecut=    60.00 Ry     beta= 0.15
     Davidson diagonalization with overlap

---- Real-time Memory Report at c_bands before calling an iterative solver
             0 MiB given to the printing process from OS
             0 MiB allocation reported by mallinfo(arena+hblkhd)
          5669 MiB available memory on the node where the printing process lives
------------------
     ethr =  7.62E-11,  avg # of iterations =  2.4

     negative rho (up, down):  7.923E-01 0.000E+00

     total cpu time spent up to now is      756.7 secs

     total energy              =   -4482.97564064 Ry
     estimated scf accuracy    <       0.00000026 Ry

     iteration # 49     ecut=    60.00 Ry     beta= 0.15
     Davidson diagonalization with overlap

---- Real-time Memory Report at c_bands before calling an iterative solver
             0 MiB given to the printing process from OS
             0 MiB allocation reported by mallinfo(arena+hblkhd)
          5678 MiB available memory on the node where the printing process lives
------------------
     ethr =  5.89E-11,  avg # of iterations =  4.9

     negative rho (up, down):  7.923E-01 0.000E+00

     total cpu time spent up to now is      772.3 secs

     total energy              =   -4482.97564066 Ry
     estimated scf accuracy    <       0.00000020 Ry

     iteration # 50     ecut=    60.00 Ry     beta= 0.15
     Davidson diagonalization with overlap

---- Real-time Memory Report at c_bands before calling an iterative solver
             0 MiB given to the printing process from OS
             0 MiB allocation reported by mallinfo(arena+hblkhd)
          5668 MiB available memory on the node where the printing process lives
------------------
     ethr =  4.64E-11,  avg # of iterations =  2.4

     negative rho (up, down):  7.923E-01 0.000E+00

     total cpu time spent up to now is      786.9 secs

     total energy              =   -4482.97564068 Ry
     estimated scf accuracy    <       0.00000014 Ry

     iteration # 51     ecut=    60.00 Ry     beta= 0.15
     Davidson diagonalization with overlap

---- Real-time Memory Report at c_bands before calling an iterative solver
             0 MiB given to the printing process from OS
             0 MiB allocation reported by mallinfo(arena+hblkhd)
          5668 MiB available memory on the node where the printing process lives
------------------
     ethr =  3.19E-11,  avg # of iterations =  5.3

     negative rho (up, down):  7.923E-01 0.000E+00

     total cpu time spent up to now is      802.8 secs

     total energy              =   -4482.97564068 Ry
     estimated scf accuracy    <       0.00000009 Ry

     iteration # 52     ecut=    60.00 Ry     beta= 0.15
     Davidson diagonalization with overlap

---- Real-time Memory Report at c_bands before calling an iterative solver
             0 MiB given to the printing process from OS
             0 MiB allocation reported by mallinfo(arena+hblkhd)
          5676 MiB available memory on the node where the printing process lives
------------------
     ethr =  1.95E-11,  avg # of iterations =  2.9

     negative rho (up, down):  7.923E-01 0.000E+00

     total cpu time spent up to now is      817.9 secs

     total energy              =   -4482.97564068 Ry
     estimated scf accuracy    <       0.00000003 Ry

     iteration # 53     ecut=    60.00 Ry     beta= 0.15
     Davidson diagonalization with overlap

---- Real-time Memory Report at c_bands before calling an iterative solver
             0 MiB given to the printing process from OS
             0 MiB allocation reported by mallinfo(arena+hblkhd)
          5670 MiB available memory on the node where the printing process lives
------------------
     ethr =  7.88E-12,  avg # of iterations =  3.8

     negative rho (up, down):  7.923E-01 0.000E+00

     total cpu time spent up to now is      833.0 secs

     total energy              =   -4482.97564068 Ry
     estimated scf accuracy    <       0.00000002 Ry

     iteration # 54     ecut=    60.00 Ry     beta= 0.15
     Davidson diagonalization with overlap

---- Real-time Memory Report at c_bands before calling an iterative solver
             0 MiB given to the printing process from OS
             0 MiB allocation reported by mallinfo(arena+hblkhd)
          5672 MiB available memory on the node where the printing process lives
------------------
     ethr =  3.81E-12,  avg # of iterations =  2.0

     negative rho (up, down):  7.923E-01 0.000E+00

     total cpu time spent up to now is      847.4 secs

     total energy              =   -4482.97564068 Ry
     estimated scf accuracy    <       0.00000001 Ry

     iteration # 55     ecut=    60.00 Ry     beta= 0.15
     Davidson diagonalization with overlap

---- Real-time Memory Report at c_bands before calling an iterative solver
             0 MiB given to the printing process from OS
             0 MiB allocation reported by mallinfo(arena+hblkhd)
          5672 MiB available memory on the node where the printing process lives
------------------
     ethr =  2.51E-12,  avg # of iterations =  4.6

     negative rho (up, down):  7.923E-01 0.000E+00

     total cpu time spent up to now is      862.8 secs

     End of self-consistent calculation

          k = 0.0000 0.0000 0.0000 ( 65197 PWs)   bands (ev):

   -92.3440 -92.2912 -92.1983 -92.1484 -92.0915 -92.0504 -92.0330 -91.9096
   -55.6971 -55.6775 -55.5561 -55.5452 -55.5373 -55.5319 -55.4954 -55.4678
   -55.4510 -55.4494 -55.4424 -55.3995 -55.3796 -55.3431 -55.3245 -55.2912
   -55.2835 -55.2393 -55.2376 -55.2362 -55.2277 -55.1838 -55.1638 -55.0759
   -30.9315 -30.9124 -30.8280 -30.7713 -30.7187 -30.6848 -30.5735 -30.3674
   -29.4960 -29.4519 -29.4263 -29.3175 -22.2567 -14.7290 -14.6896 -14.6066
   -14.4764 -14.2900 -14.1688 -13.8698 -13.8530 -13.8206 -13.7805 -13.7773
   -13.7365 -13.7233 -13.7129 -13.6950 -13.6775 -13.6455 -13.5792 -13.4306
   -13.2537 -13.2200 -13.1871 -13.1559 -13.1399 -13.0963 -13.0568 -12.9784
   -12.9057 -12.8322 -12.8165 -12.7643 -12.7534 -12.7294 -12.7124 -12.7012
   -12.6672 -12.6495 -12.6310 -12.6160 -12.6045 -12.5787 -12.5666 -12.5537
   -12.5058 -12.4841 -12.4707 -12.3211 -12.3091 -12.3025 -11.9964 -11.8519
   -11.7158 -11.6425 -11.5094 -11.4350 -11.4237 -11.4013 -11.3836 -11.3196
   -11.3024 -11.2678 -11.2393 -11.1271 -11.0469 -11.0434  -5.8903  -3.1616
    -3.1580  -2.5891  -2.3560  -2.1266  -1.9793  -1.9163  -1.7734  -1.4663
    -1.4519  -1.4317  -1.3470  -1.3306  -1.2626  -1.2468  -1.2048  -1.1602
    -0.9798  -0.7557  -0.7256  -0.5774  -0.5635  -0.5191  -0.5008  -0.4571
    -0.4418  -0.3810  -0.3544  -0.2857  -0.2744  -0.1937  -0.0677  -0.0531
    -0.0231   0.0587   0.0730   0.0980   0.1446   0.2232   0.2483   0.3156
     0.3362   0.3914   0.4706   0.5316   0.5502   0.5603   0.8159   0.8314
     1.0012   1.0721   1.1326   1.1729   1.2681   1.2820   1.2972   1.3698
     1.3987   1.4327   1.4916   1.6267   1.6777   1.7003   1.7201   1.7300
     1.7967   1.8762   1.9712   1.9869   2.0370   2.0620   2.0995   2.1219
     2.1305   2.1832   2.2409   2.2439   2.2729   2.3009   2.3743   2.5035
     2.5857   2.6331   2.6434   2.7925   2.8069   2.8589   2.8681   2.9677
     3.0081   3.0270   3.0399   3.0536   3.0603   3.0746   3.1501   3.2584
     3.2939   3.3056   3.3123   3.3790   3.3832   3.4069   3.4159   3.4232
     3.4317   3.4425   3.4551   3.4610   3.4738   3.4828   3.4903   3.5110
     3.5324   3.5373   3.5493   3.5660   3.6900   3.7416   4.4166   4.7510
     4.7931   5.1389   5.3825   5.4664   5.7259   6.2849   6.3248   6.3462
     6.6171   6.6312   6.6690   6.7177   6.9809   7.1388   7.2674   7.3784
     7.5401   7.6475   7.8436   7.8986   7.9145   7.9556   8.0000   8.0733
     8.3015   8.3682   8.3961   8.4126   8.5038   8.5383   8.6721

     occupation numbers 
     1.0000   1.0000   1.0000   1.0000   1.0000   1.0000   1.0000   1.0000
     1.0000   1.0000   1.0000   1.0000   1.0000   1.0000   1.0000   1.0000
     1.0000   1.0000   1.0000   1.0000   1.0000   1.0000   1.0000   1.0000
     1.0000   1.0000   1.0000   1.0000   1.0000   1.0000   1.0000   1.0000
     1.0000   1.0000   1.0000   1.0000   1.0000   1.0000   1.0000   1.0000
     1.0000   1.0000   1.0000   1.0000   1.0000   1.0000   1.0000   1.0000
     1.0000   1.0000   1.0000   1.0000   1.0000   1.0000   1.0000   1.0000
     1.0000   1.0000   1.0000   1.0000   1.0000   1.0000   1.0000   1.0000
     1.0000   1.0000   1.0000   1.0000   1.0000   1.0000   1.0000   1.0000
     1.0000   1.0000   1.0000   1.0000   1.0000   1.0000   1.0000   1.0000
     1.0000   1.0000   1.0000   1.0000   1.0000   1.0000   1.0000   1.0000
     1.0000   1.0000   1.0000   1.0000   1.0000   1.0000   1.0000   1.0000
     1.0000   1.0000   1.0000   1.0000   1.0000   1.0000   1.0000   1.0000
     1.0000   1.0000   1.0000   1.0000   1.0000   1.0000   1.0000   1.0000
     1.0000   1.0000   1.0000   1.0000   1.0000   1.0000   1.0000   1.0000
     1.0000   1.0000   1.0000   1.0000   1.0000   1.0000   1.0000   1.0000
     1.0000   1.0000   1.0000   1.0000   1.0000   1.0000   1.0000   1.0000
     1.0000   1.0000   1.0000   1.0000   1.0000   1.0000   1.0000   1.0000
     1.0000   1.0000   1.0000   1.0000   1.0000   1.0000   1.0000   1.0000
     1.0000   1.0000   1.0000   1.0000   1.0000   1.0000   1.0000   1.0000
     1.0000   0.9999   0.9999   0.9999   0.9998   0.9998   0.9998   0.9997
     0.9997   0.9996   0.9994   0.9989   0.9985   0.9984   0.9982   0.9981
     0.9974   0.9963   0.9945   0.9941   0.9927   0.9919   0.9906   0.9897
     0.9894   0.9870   0.9838   0.9837   0.9818   0.9799   0.9739   0.9600
     0.9483   0.9404   0.9385   0.9068   0.9032   0.8892   0.8866   0.8556
     0.8416   0.8347   0.8299   0.8247   0.8221   0.8165   0.7853   0.7354
     0.7179   0.7120   0.7086   0.6737   0.6715   0.6587   0.6538   0.6498
     0.6451   0.6391   0.6321   0.6287   0.6215   0.6165   0.6122   0.6003
     0.5881   0.5852   0.5782   0.5685   0.4954   0.4649   0.1378   0.0563
     0.0495   0.0153   0.0058   0.0040   0.0012   0.0001   0.0000   0.0000
     0.0000   0.0000   0.0000   0.0000   0.0000   0.0000   0.0000   0.0000
     0.0000   0.0000   0.0000   0.0000   0.0000   0.0000   0.0000   0.0000
     0.0000   0.0000   0.0000   0.0000   0.0000   0.0000   0.0000

          k = 0.0000 0.2500 0.0000 ( 65257 PWs)   bands (ev):

   -92.3440 -92.2912 -92.1983 -92.1484 -92.0915 -92.0504 -92.0330 -91.9096
   -55.6971 -55.6775 -55.5561 -55.5452 -55.5373 -55.5319 -55.4954 -55.4678
   -55.4510 -55.4494 -55.4424 -55.3995 -55.3796 -55.3431 -55.3245 -55.2912
   -55.2835 -55.2393 -55.2376 -55.2362 -55.2277 -55.1838 -55.1638 -55.0759
   -30.9313 -30.9122 -30.8278 -30.7715 -30.7189 -30.6849 -30.5734 -30.3676
   -29.4953 -29.4516 -29.4270 -29.3178 -22.2567 -14.6922 -14.6630 -14.5818
   -14.4470 -14.3296 -14.1583 -14.0149 -13.8354 -13.8055 -13.7843 -13.7778
   -13.7550 -13.6971 -13.6917 -13.6742 -13.6595 -13.6260 -13.4991 -13.4614
   -13.2992 -13.2802 -13.2297 -13.1930 -13.1459 -13.1111 -13.0747 -12.9980
   -12.9655 -12.9390 -12.8782 -12.8068 -12.7989 -12.7619 -12.7440 -12.6741
   -12.6348 -12.6102 -12.5887 -12.5709 -12.5621 -12.5381 -12.5181 -12.5030
   -12.4517 -12.4469 -12.4201 -12.3092 -12.2371 -12.1766 -12.0578 -11.9032
   -11.7718 -11.7074 -11.4748 -11.4318 -11.4042 -11.3755 -11.3588 -11.3117
   -11.3003 -11.2779 -11.2441 -11.1413 -11.0885 -11.0779  -5.8903  -3.1618
    -3.1580  -2.4538  -2.2317  -2.0943  -1.9117  -1.8683  -1.7043  -1.4849
    -1.3997  -1.3866  -1.3270  -1.2273  -1.2129  -1.1784  -1.1524  -1.1090
    -0.9110  -0.7819  -0.7702  -0.6937  -0.6833  -0.5791  -0.5485  -0.4932
    -0.4679  -0.4249  -0.3622  -0.3377  -0.3032  -0.2757  -0.2579  -0.2239
    -0.1520  -0.0982  -0.0296   0.0748   0.1024   0.1393   0.2535   0.2894
     0.3464   0.3999   0.4500   0.4755   0.5078   0.5646   0.8633   0.9514
     0.9841   1.0655   1.1096   1.1305   1.2569   1.2763   1.3687   1.3953
     1.4272   1.5417   1.6298   1.6543   1.6795   1.6961   1.7243   1.7863
     1.8113   1.8389   1.8873   1.9171   1.9476   2.0285   2.0628   2.0892
     2.1502   2.1993   2.2266   2.2582   2.2945   2.3157   2.4083   2.5435
     2.6119   2.6283   2.7111   2.7525   2.7905   2.7957   2.8642   2.9078
     2.9854   3.0209   3.0339   3.0508   3.0651   3.2196   3.2401   3.2729
     3.2954   3.3117   3.3209   3.3282   3.3362   3.3666   3.3685   3.3859
     3.3908   3.4015   3.4183   3.4291   3.4395   3.4619   3.4724   3.4776
     3.5133   3.5298   3.5889   3.9405   3.9707   4.2302   4.6015   4.7435
     4.9113   5.0877   5.4036   5.4940   5.8599   5.9352   6.1669   6.2924
     6.3379   6.4510   6.5221   6.7473   6.8907   7.0642   7.2529   7.5390
     7.6163   7.7139   7.7880   7.8655   7.9106   7.9755   8.0740   8.2229
     8.2752   8.4122   8.5291   8.5886   8.6091   8.6729   8.9357

     occupation numbers 
     1.0000   1.0000   1.0000   1.0000   1.0000   1.0000   1.0000   1.0000
     1.0000   1.0000   1.0000   1.0000   1.0000   1.0000   1.0000   1.0000
     1.0000   1.0000   1.0000   1.0000   1.0000   1.0000   1.0000   1.0000
     1.0000   1.0000   1.0000   1.0000   1.0000   1.0000   1.0000   1.0000
     1.0000   1.0000   1.0000   1.0000   1.0000   1.0000   1.0000   1.0000
     1.0000   1.0000   1.0000   1.0000   1.0000   1.0000   1.0000   1.0000
     1.0000   1.0000   1.0000   1.0000   1.0000   1.0000   1.0000   1.0000
     1.0000   1.0000   1.0000   1.0000   1.0000   1.0000   1.0000   1.0000
     1.0000   1.0000   1.0000   1.0000   1.0000   1.0000   1.0000   1.0000
     1.0000   1.0000   1.0000   1.0000   1.0000   1.0000   1.0000   1.0000
     1.0000   1.0000   1.0000   1.0000   1.0000   1.0000   1.0000   1.0000
     1.0000   1.0000   1.0000   1.0000   1.0000   1.0000   1.0000   1.0000
     1.0000   1.0000   1.0000   1.0000   1.0000   1.0000   1.0000   1.0000
     1.0000   1.0000   1.0000   1.0000   1.0000   1.0000   1.0000   1.0000
     1.0000   1.0000   1.0000   1.0000   1.0000   1.0000   1.0000   1.0000
     1.0000   1.0000   1.0000   1.0000   1.0000   1.0000   1.0000   1.0000
     1.0000   1.0000   1.0000   1.0000   1.0000   1.0000   1.0000   1.0000
     1.0000   1.0000   1.0000   1.0000   1.0000   1.0000   1.0000   1.0000
     1.0000   1.0000   1.0000   1.0000   1.0000   1.0000   1.0000   1.0000
     1.0000   1.0000   1.0000   1.0000   1.0000   1.0000   1.0000   1.0000
     1.0000   0.9999   0.9999   0.9999   0.9998   0.9998   0.9997   0.9997
     0.9996   0.9993   0.9988   0.9987   0.9985   0.9984   0.9982   0.9976
     0.9973   0.9969   0.9962   0.9956   0.9950   0.9930   0.9919   0.9910
     0.9885   0.9862   0.9847   0.9828   0.9803   0.9788   0.9707   0.9546
     0.9440   0.9412   0.9254   0.9163   0.9073   0.9060   0.8878   0.8749
     0.8496   0.8370   0.8321   0.8258   0.8203   0.7540   0.7443   0.7283
     0.7172   0.7089   0.7042   0.7004   0.6963   0.6804   0.6794   0.6700
     0.6674   0.6616   0.6525   0.6465   0.6408   0.6283   0.6223   0.6194
     0.5990   0.5896   0.5551   0.3507   0.3342   0.2079   0.0861   0.0575
     0.0340   0.0184   0.0053   0.0036   0.0006   0.0004   0.0001   0.0001
     0.0000   0.0000   0.0000   0.0000   0.0000   0.0000   0.0000   0.0000
     0.0000   0.0000   0.0000   0.0000   0.0000   0.0000   0.0000   0.0000
     0.0000   0.0000   0.0000   0.0000   0.0000   0.0000   0.0000

          k = 0.0000-0.5000 0.0000 ( 65180 PWs)   bands (ev):

   -92.3440 -92.2912 -92.1983 -92.1484 -92.0915 -92.0504 -92.0330 -91.9096
   -55.6971 -55.6775 -55.5561 -55.5452 -55.5373 -55.5319 -55.4954 -55.4678
   -55.4510 -55.4494 -55.4424 -55.3995 -55.3796 -55.3431 -55.3245 -55.2912
   -55.2835 -55.2393 -55.2376 -55.2362 -55.2277 -55.1838 -55.1638 -55.0759
   -30.9311 -30.9121 -30.8275 -30.7717 -30.7192 -30.6851 -30.5732 -30.3678
   -29.4947 -29.4513 -29.4276 -29.3182 -22.2567 -14.6582 -14.6104 -14.5573
   -14.4347 -14.3445 -14.2096 -14.0583 -13.9416 -13.8055 -13.7783 -13.7468
   -13.6989 -13.6865 -13.6404 -13.6218 -13.5745 -13.5524 -13.5305 -13.4963
   -13.4723 -13.4311 -13.2324 -13.1738 -13.1524 -13.1062 -13.0871 -13.0121
   -13.0035 -12.9572 -12.9383 -12.8731 -12.7962 -12.7619 -12.7351 -12.7138
   -12.6216 -12.6108 -12.5834 -12.5655 -12.5364 -12.5343 -12.5051 -12.4253
   -12.4025 -12.3590 -12.3110 -12.3042 -12.1689 -12.1079 -11.9859 -11.9784
   -11.8712 -11.8261 -11.4287 -11.4265 -11.3993 -11.3610 -11.3270 -11.3162
   -11.2737 -11.2698 -11.2257 -11.1628 -11.1491 -11.1349  -5.8903  -3.1619
    -3.1580  -2.2384  -2.1805  -2.0282  -1.9560  -1.6738  -1.5928  -1.4632
    -1.3263  -1.2852  -1.2697  -1.1914  -1.1612  -1.0781  -1.0437  -0.9660
    -0.9258  -0.8867  -0.8601  -0.8019  -0.7665  -0.7198  -0.6841  -0.6498
    -0.6171  -0.5054  -0.4608  -0.4278  -0.4248  -0.3397  -0.3078  -0.2860
    -0.2404  -0.1500  -0.0849   0.0039   0.0398   0.1323   0.1663   0.3224
     0.3606   0.3848   0.4234   0.5355   0.6075   0.7447   0.8105   0.8186
     0.9475   0.9915   1.0697   1.2266   1.3278   1.3610   1.3988   1.4076
     1.4378   1.4615   1.4971   1.5111   1.5260   1.6339   1.6922   1.7246
     1.7483   2.0134   2.0404   2.0556   2.1372   2.1715   2.2082   2.2237
     2.2587   2.2689   2.2715   2.3028   2.3530   2.3741   2.3999   2.4185
     2.4457   2.5001   2.5840   2.6147   2.7807   2.9561   2.9660   2.9777
     3.0141   3.0211   3.0316   3.0414   3.0610   3.0876   3.0993   3.1531
     3.1728   3.2492   3.2659   3.3343   3.3362   3.3645   3.3664   3.3834
     3.3864   3.3905   3.3972   3.3996   3.4113   3.4322   3.4327   3.4987
     3.5033   3.5192   3.5739   4.4652   4.4675   4.5236   4.5880   5.0329
     5.0766   5.2413   5.2825   5.5479   5.7024   5.8304   5.8699   6.0588
     6.2360   6.3697   6.3912   6.4050   7.0259   7.1049   7.1080   7.4311
     7.5624   7.6161   7.8132   8.0524   8.0700   8.0767   8.2017   8.3326
     8.4848   8.5731   8.6754   8.7241   8.7563   8.8518   8.9692

     occupation numbers 
     1.0000   1.0000   1.0000   1.0000   1.0000   1.0000   1.0000   1.0000
     1.0000   1.0000   1.0000   1.0000   1.0000   1.0000   1.0000   1.0000
     1.0000   1.0000   1.0000   1.0000   1.0000   1.0000   1.0000   1.0000
     1.0000   1.0000   1.0000   1.0000   1.0000   1.0000   1.0000   1.0000
     1.0000   1.0000   1.0000   1.0000   1.0000   1.0000   1.0000   1.0000
     1.0000   1.0000   1.0000   1.0000   1.0000   1.0000   1.0000   1.0000
     1.0000   1.0000   1.0000   1.0000   1.0000   1.0000   1.0000   1.0000
     1.0000   1.0000   1.0000   1.0000   1.0000   1.0000   1.0000   1.0000
     1.0000   1.0000   1.0000   1.0000   1.0000   1.0000   1.0000   1.0000
     1.0000   1.0000   1.0000   1.0000   1.0000   1.0000   1.0000   1.0000
     1.0000   1.0000   1.0000   1.0000   1.0000   1.0000   1.0000   1.0000
     1.0000   1.0000   1.0000   1.0000   1.0000   1.0000   1.0000   1.0000
     1.0000   1.0000   1.0000   1.0000   1.0000   1.0000   1.0000   1.0000
     1.0000   1.0000   1.0000   1.0000   1.0000   1.0000   1.0000   1.0000
     1.0000   1.0000   1.0000   1.0000   1.0000   1.0000   1.0000   1.0000
     1.0000   1.0000   1.0000   1.0000   1.0000   1.0000   1.0000   1.0000
     1.0000   1.0000   1.0000   1.0000   1.0000   1.0000   1.0000   1.0000
     1.0000   1.0000   1.0000   1.0000   1.0000   1.0000   1.0000   1.0000
     1.0000   1.0000   1.0000   1.0000   1.0000   1.0000   1.0000   1.0000
     1.0000   1.0000   1.0000   1.0000   1.0000   1.0000   1.0000   1.0000
     1.0000   1.0000   0.9999   0.9999   0.9998   0.9997   0.9997   0.9996
     0.9996   0.9995   0.9994   0.9994   0.9993   0.9988   0.9984   0.9982
     0.9980   0.9934   0.9926   0.9921   0.9891   0.9876   0.9857   0.9848
     0.9827   0.9821   0.9819   0.9797   0.9758   0.9740   0.9716   0.9697
     0.9668   0.9604   0.9485   0.9435   0.9097   0.8595   0.8562   0.8522
     0.8394   0.8369   0.8330   0.8294   0.8218   0.8114   0.8067   0.7840
     0.7753   0.7399   0.7318   0.6973   0.6963   0.6815   0.6805   0.6714
     0.6698   0.6676   0.6640   0.6627   0.6563   0.6448   0.6445   0.6074
     0.6048   0.5956   0.5639   0.1225   0.1218   0.1058   0.0893   0.0225
     0.0192   0.0103   0.0087   0.0028   0.0014   0.0007   0.0006   0.0002
     0.0001   0.0000   0.0000   0.0000   0.0000   0.0000   0.0000   0.0000
     0.0000   0.0000   0.0000   0.0000   0.0000   0.0000   0.0000   0.0000
     0.0000   0.0000   0.0000   0.0000   0.0000   0.0000   0.0000

          k = 0.2500 0.2500 0.0000 ( 65198 PWs)   bands (ev):

   -92.3440 -92.2912 -92.1983 -92.1484 -92.0915 -92.0504 -92.0330 -91.9096
   -55.6971 -55.6775 -55.5561 -55.5452 -55.5373 -55.5319 -55.4954 -55.4678
   -55.4510 -55.4494 -55.4424 -55.3995 -55.3796 -55.3431 -55.3245 -55.2912
   -55.2835 -55.2393 -55.2376 -55.2362 -55.2277 -55.1838 -55.1638 -55.0759
   -30.9296 -30.9140 -30.8276 -30.7711 -30.7189 -30.6853 -30.5735 -30.3677
   -29.4944 -29.4526 -29.4266 -29.3182 -22.2567 -14.6638 -14.6272 -14.5540
   -14.4369 -14.3214 -14.1976 -14.1204 -13.9204 -13.7785 -13.7587 -13.7483
   -13.7139 -13.6830 -13.6610 -13.6324 -13.6058 -13.5877 -13.4914 -13.4758
   -13.3157 -13.3024 -13.2698 -13.2520 -13.2006 -13.1631 -13.1208 -13.0797
   -12.9990 -12.9629 -12.8850 -12.7999 -12.7714 -12.7512 -12.7048 -12.6758
   -12.6681 -12.6211 -12.6017 -12.5917 -12.5570 -12.5295 -12.5023 -12.4550
   -12.3981 -12.3831 -12.3680 -12.3085 -12.2020 -12.1063 -12.0719 -11.9324
   -11.7988 -11.7574 -11.4471 -11.4151 -11.4046 -11.3975 -11.3347 -11.2997
   -11.2931 -11.2580 -11.2505 -11.1579 -11.1168 -11.0993  -5.8903  -3.1618
    -3.1582  -2.3156  -2.1059  -1.9888  -1.8938  -1.7727  -1.7075  -1.5099
    -1.3648  -1.3449  -1.3143  -1.2217  -1.1885  -1.0956  -1.0678  -1.0182
    -0.8863  -0.8384  -0.7655  -0.7209  -0.6758  -0.6523  -0.6274  -0.5860
    -0.5698  -0.4802  -0.4307  -0.3653  -0.3176  -0.2892  -0.2364  -0.2264
    -0.1619  -0.1099  -0.0503  -0.0199   0.0678   0.1165   0.1467   0.1859
     0.2396   0.3041   0.3493   0.3735   0.4380   0.4764   0.7572   0.9061
     0.9418   0.9936   1.0346   1.0813   1.1371   1.2048   1.2447   1.5188
     1.5894   1.6640   1.6892   1.7350   1.7681   1.8048   1.8415   1.8588
     1.8876   1.9258   1.9372   1.9545   1.9965   2.0326   2.0753   2.1216
     2.1535   2.1746   2.1946   2.2391   2.2865   2.3154   2.4483   2.5205
     2.5605   2.5881   2.6454   2.7105   2.7443   2.7828   2.8053   2.8161
     2.9284   2.9690   3.0320   3.0551   3.0668   3.2300   3.2481   3.2535
     3.2699   3.2837   3.2971   3.3095   3.3170   3.3272   3.3412   3.3530
     3.3717   3.3778   3.3891   3.4099   3.4235   3.4336   3.4637   3.7657
     3.8555   3.8968   3.9579   3.9676   4.2037   4.3071   4.6370   4.7962
     4.9830   5.1377   5.3223   5.5393   5.9132   5.9905   6.0238   6.1290
     6.1945   6.2402   6.3382   6.4237   6.9123   7.0280   7.1182   7.2098
     7.7004   7.7839   7.8645   7.9134   8.0167   8.1245   8.2142   8.3394
     8.3575   8.4422   8.5223   8.6967   8.7177   8.8034   8.9162

     occupation numbers 
     1.0000   1.0000   1.0000   1.0000   1.0000   1.0000   1.0000   1.0000
     1.0000   1.0000   1.0000   1.0000   1.0000   1.0000   1.0000   1.0000
     1.0000   1.0000   1.0000   1.0000   1.0000   1.0000   1.0000   1.0000
     1.0000   1.0000   1.0000   1.0000   1.0000   1.0000   1.0000   1.0000
     1.0000   1.0000   1.0000   1.0000   1.0000   1.0000   1.0000   1.0000
     1.0000   1.0000   1.0000   1.0000   1.0000   1.0000   1.0000   1.0000
     1.0000   1.0000   1.0000   1.0000   1.0000   1.0000   1.0000   1.0000
     1.0000   1.0000   1.0000   1.0000   1.0000   1.0000   1.0000   1.0000
     1.0000   1.0000   1.0000   1.0000   1.0000   1.0000   1.0000   1.0000
     1.0000   1.0000   1.0000   1.0000   1.0000   1.0000   1.0000   1.0000
     1.0000   1.0000   1.0000   1.0000   1.0000   1.0000   1.0000   1.0000
     1.0000   1.0000   1.0000   1.0000   1.0000   1.0000   1.0000   1.0000
     1.0000   1.0000   1.0000   1.0000   1.0000   1.0000   1.0000   1.0000
     1.0000   1.0000   1.0000   1.0000   1.0000   1.0000   1.0000   1.0000
     1.0000   1.0000   1.0000   1.0000   1.0000   1.0000   1.0000   1.0000
     1.0000   1.0000   1.0000   1.0000   1.0000   1.0000   1.0000   1.0000
     1.0000   1.0000   1.0000   1.0000   1.0000   1.0000   1.0000   1.0000
     1.0000   1.0000   1.0000   1.0000   1.0000   1.0000   1.0000   1.0000
     1.0000   1.0000   1.0000   1.0000   1.0000   1.0000   1.0000   1.0000
     1.0000   1.0000   1.0000   1.0000   1.0000   1.0000   1.0000   1.0000
     1.0000   1.0000   1.0000   0.9999   0.9999   0.9999   0.9999   0.9993
     0.9991   0.9986   0.9985   0.9981   0.9978   0.9973   0.9969   0.9966
     0.9961   0.9954   0.9952   0.9948   0.9938   0.9928   0.9915   0.9898
     0.9884   0.9874   0.9864   0.9839   0.9809   0.9788   0.9665   0.9577
     0.9521   0.9479   0.9382   0.9255   0.9181   0.9092   0.9036   0.9008
     0.8685   0.8552   0.8329   0.8241   0.8196   0.7491   0.7404   0.7378
     0.7299   0.7230   0.7163   0.7100   0.7062   0.7010   0.6937   0.6876
     0.6777   0.6744   0.6683   0.6570   0.6496   0.6440   0.6272   0.4507
     0.3985   0.3750   0.3411   0.3359   0.2194   0.1767   0.0781   0.0491
     0.0267   0.0153   0.0074   0.0029   0.0005   0.0003   0.0003   0.0001
     0.0001   0.0001   0.0000   0.0000   0.0000   0.0000   0.0000   0.0000
     0.0000   0.0000   0.0000   0.0000   0.0000   0.0000   0.0000   0.0000
     0.0000   0.0000   0.0000   0.0000   0.0000   0.0000   0.0000

          k = 0.2500-0.5000 0.0000 ( 65138 PWs)   bands (ev):

   -92.3440 -92.2912 -92.1983 -92.1484 -92.0915 -92.0504 -92.0330 -91.9096
   -55.6971 -55.6775 -55.5561 -55.5452 -55.5373 -55.5319 -55.4954 -55.4678
   -55.4510 -55.4494 -55.4424 -55.3995 -55.3796 -55.3431 -55.3245 -55.2912
   -55.2835 -55.2393 -55.2376 -55.2362 -55.2277 -55.1838 -55.1638 -55.0759
   -30.9294 -30.9138 -30.8274 -30.7713 -30.7191 -30.6855 -30.5733 -30.3679
   -29.4938 -29.4523 -29.4272 -29.3186 -22.2567 -14.6275 -14.5833 -14.5140
   -14.4039 -14.3688 -14.2495 -14.1619 -14.0366 -13.7783 -13.7231 -13.6761
   -13.6457 -13.6247 -13.6093 -13.5929 -13.5590 -13.5402 -13.5119 -13.4714
   -13.4558 -13.4215 -13.3158 -13.2682 -13.2184 -13.1887 -13.1421 -13.1198
   -13.0565 -13.0202 -12.8607 -12.7969 -12.7853 -12.7366 -12.6846 -12.6835
   -12.6424 -12.6217 -12.5972 -12.5662 -12.5607 -12.5270 -12.4986 -12.4493
   -12.4253 -12.3183 -12.3068 -12.2771 -12.1756 -12.0829 -11.9762 -11.9574
   -11.8617 -11.8318 -11.4226 -11.4107 -11.3996 -11.3725 -11.3411 -11.3125
   -11.2717 -11.2434 -11.2217 -11.1759 -11.1502 -11.1390  -5.8903  -3.1619
    -3.1582  -2.0965  -2.0328  -1.9021  -1.8250  -1.6946  -1.6128  -1.4877
    -1.3374  -1.2816  -1.2610  -1.1998  -1.1863  -1.0889  -1.0228  -0.9370
    -0.8881  -0.8790  -0.8147  -0.7729  -0.7387  -0.6911  -0.6542  -0.6194
    -0.5791  -0.5676  -0.5231  -0.4948  -0.4522  -0.4224  -0.3543  -0.2516
    -0.2177  -0.1365  -0.0713  -0.0205   0.0204   0.0389   0.0951   0.2504
     0.2575   0.3720   0.3972   0.4088   0.4546   0.4857   0.5187   0.5553
     0.6280   0.8936   0.9875   1.0355   1.0984   1.3815   1.3966   1.4904
     1.5172   1.6867   1.7206   1.7605   1.7858   1.8018   1.8228   1.8839
     1.9320   1.9662   2.0354   2.1270   2.1602   2.1823   2.1993   2.2294
     2.2492   2.2530   2.2944   2.3094   2.3302   2.3567   2.3775   2.4095
     2.4379   2.4984   2.5396   2.6169   2.7519   2.9084   2.9234   2.9416
     2.9708   2.9947   3.0150   3.0371   3.0455   3.0526   3.0627   3.0845
     3.1790   3.2286   3.2490   3.2539   3.2670   3.2872   3.3010   3.3199
     3.3274   3.3612   3.3718   3.3863   3.3933   3.4019   3.4133   3.9190
     3.9427   4.0970   4.1472   4.4664   4.5230   4.5331   4.6541   5.0855
     5.1132   5.2942   5.3125   5.5079   5.6360   5.7658   5.8386   5.9398
     6.0645   6.1452   6.3412   6.4725   6.5604   6.6482   7.1696   7.3248
     7.4887   7.6614   7.9604   8.0656   8.1749   8.1984   8.3350   8.4202
     8.5212   8.6321   8.7163   8.7994   8.8445   8.9059   8.9380

     occupation numbers 
     1.0000   1.0000   1.0000   1.0000   1.0000   1.0000   1.0000   1.0000
     1.0000   1.0000   1.0000   1.0000   1.0000   1.0000   1.0000   1.0000
     1.0000   1.0000   1.0000   1.0000   1.0000   1.0000   1.0000   1.0000
     1.0000   1.0000   1.0000   1.0000   1.0000   1.0000   1.0000   1.0000
     1.0000   1.0000   1.0000   1.0000   1.0000   1.0000   1.0000   1.0000
     1.0000   1.0000   1.0000   1.0000   1.0000   1.0000   1.0000   1.0000
     1.0000   1.0000   1.0000   1.0000   1.0000   1.0000   1.0000   1.0000
     1.0000   1.0000   1.0000   1.0000   1.0000   1.0000   1.0000   1.0000
     1.0000   1.0000   1.0000   1.0000   1.0000   1.0000   1.0000   1.0000
     1.0000   1.0000   1.0000   1.0000   1.0000   1.0000   1.0000   1.0000
     1.0000   1.0000   1.0000   1.0000   1.0000   1.0000   1.0000   1.0000
     1.0000   1.0000   1.0000   1.0000   1.0000   1.0000   1.0000   1.0000
     1.0000   1.0000   1.0000   1.0000   1.0000   1.0000   1.0000   1.0000
     1.0000   1.0000   1.0000   1.0000   1.0000   1.0000   1.0000   1.0000
     1.0000   1.0000   1.0000   1.0000   1.0000   1.0000   1.0000   1.0000
     1.0000   1.0000   1.0000   1.0000   1.0000   1.0000   1.0000   1.0000
     1.0000   1.0000   1.0000   1.0000   1.0000   1.0000   1.0000   1.0000
     1.0000   1.0000   1.0000   1.0000   1.0000   1.0000   1.0000   1.0000
     1.0000   1.0000   1.0000   1.0000   1.0000   1.0000   1.0000   1.0000
     1.0000   1.0000   1.0000   1.0000   1.0000   1.0000   1.0000   1.0000
     1.0000   1.0000   1.0000   1.0000   0.9999   0.9997   0.9997   0.9994
     0.9993   0.9985   0.9982   0.9978   0.9976   0.9974   0.9971   0.9962
     0.9953   0.9946   0.9928   0.9895   0.9881   0.9870   0.9862   0.9845
     0.9833   0.9831   0.9803   0.9793   0.9777   0.9755   0.9736   0.9706
     0.9677   0.9606   0.9551   0.9432   0.9164   0.8747   0.8701   0.8643
     0.8546   0.8464   0.8391   0.8309   0.8278   0.8251   0.8212   0.8126
     0.7725   0.7497   0.7400   0.7376   0.7312   0.7213   0.7143   0.7047
     0.7009   0.6832   0.6776   0.6698   0.6661   0.6614   0.6552   0.3626
     0.3495   0.2690   0.2450   0.1221   0.1059   0.1032   0.0745   0.0186
     0.0168   0.0083   0.0077   0.0034   0.0019   0.0010   0.0007   0.0004
     0.0002   0.0001   0.0000   0.0000   0.0000   0.0000   0.0000   0.0000
     0.0000   0.0000   0.0000   0.0000   0.0000   0.0000   0.0000   0.0000
     0.0000   0.0000   0.0000   0.0000   0.0000   0.0000   0.0000

          k =-0.5000-0.5000 0.0000 ( 65132 PWs)   bands (ev):

   -92.3440 -92.2912 -92.1983 -92.1484 -92.0915 -92.0504 -92.0330 -91.9096
   -55.6971 -55.6775 -55.5561 -55.5452 -55.5373 -55.5319 -55.4954 -55.4678
   -55.4510 -55.4494 -55.4424 -55.3995 -55.3796 -55.3431 -55.3245 -55.2912
   -55.2835 -55.2393 -55.2376 -55.2362 -55.2277 -55.1838 -55.1638 -55.0759
[...]
     0.0000   0.0000   0.0000   0.0000   0.0000   0.0000   0.0000   0.0000
     0.0000   0.0000   0.0000   0.0000   0.0000   0.0000   0.0000

          k =-0.5000 0.0000 0.0000 ( 65180 PWs)   bands (ev):

   -92.3440 -92.2912 -92.1983 -92.1484 -92.0915 -92.0504 -92.0330 -91.9096
   -55.6971 -55.6775 -55.5561 -55.5452 -55.5373 -55.5319 -55.4954 -55.4678
   -55.4510 -55.4494 -55.4424 -55.3995 -55.3796 -55.3431 -55.3245 -55.2912
   -55.2835 -55.2393 -55.2376 -55.2362 -55.2277 -55.1838 -55.1638 -55.0759
   -30.9275 -30.9164 -30.8278 -30.7706 -30.7185 -30.6856 -30.5738 -30.3676
   -29.4940 -29.4539 -29.4256 -29.3183 -22.2567 -14.6632 -14.6118 -14.5514
   -14.4470 -14.3378 -14.1946 -14.0526 -13.9175 -13.7847 -13.7790 -13.7746
   -13.7560 -13.7049 -13.6445 -13.6102 -13.5616 -13.5584 -13.5435 -13.4902
   -13.4846 -13.3869 -13.2040 -13.1740 -13.1441 -13.1361 -13.0986 -13.0154
   -12.9975 -12.9233 -12.9112 -12.8998 -12.8070 -12.7082 -12.7022 -12.6915
   -12.6808 -12.6655 -12.6130 -12.6042 -12.5917 -12.5699 -12.4844 -12.3513
   -12.3364 -12.3139 -12.2938 -12.2845 -12.1949 -12.1542 -12.0320 -11.9825
   -11.8555 -11.8120 -11.4261 -11.4048 -11.3980 -11.3827 -11.3649 -11.3238
   -11.2606 -11.2434 -11.2113 -11.1651 -11.1559 -11.1402  -5.8903  -3.1616
    -3.1583  -2.2290  -2.1903  -2.0257  -1.9870  -1.6741  -1.5972  -1.4501
    -1.3326  -1.2926  -1.2467  -1.1990  -1.1740  -1.0526  -1.0073  -0.9928
    -0.9096  -0.8751  -0.8602  -0.8274  -0.7712  -0.7018  -0.6722  -0.6445
    -0.5524  -0.5019  -0.4526  -0.4212  -0.3999  -0.3692  -0.3218  -0.2977
    -0.2600  -0.1586  -0.0950  -0.0212   0.0381   0.1869   0.2298   0.2946
     0.3297   0.3798   0.4057   0.5319   0.5704   0.6089   0.7927   0.8911
     0.9370   1.0090   1.0685   1.2052   1.2159   1.3478   1.3802   1.4342
     1.4604   1.4962   1.5112   1.5562   1.5832   1.6471   1.6925   1.7397
     1.7500   2.0409   2.0500   2.0628   2.0882   2.2027   2.2130   2.2152
     2.2317   2.2658   2.2778   2.3102   2.3415   2.3603   2.4301   2.4339
     2.4927   2.5044   2.5714   2.6699   2.7693   2.8522   2.8674   2.9481
     2.9813   3.0079   3.0333   3.0535   3.0785   3.0850   3.0956   3.1245
     3.1888   3.2338   3.2829   3.3070   3.3536   3.3578   3.3592   3.3709
     3.3852   3.3981   3.4121   3.4155   3.4359   3.4417   3.4631   3.4840
     3.4885   3.6151   3.6213   4.4026   4.4677   4.5273   4.6360   5.0052
     5.1280   5.2351   5.3020   5.4472   5.7111   5.8687   5.9385   5.9816
     6.1908   6.3775   6.4026   6.4749   6.9709   7.0813   7.1572   7.4793
     7.5170   7.6740   7.7295   7.9626   8.0448   8.0885   8.1857   8.3969
     8.5154   8.6259   8.7058   8.7309   8.7737   8.8576   8.9644

     occupation numbers 
     1.0000   1.0000   1.0000   1.0000   1.0000   1.0000   1.0000   1.0000
     1.0000   1.0000   1.0000   1.0000   1.0000   1.0000   1.0000   1.0000
     1.0000   1.0000   1.0000   1.0000   1.0000   1.0000   1.0000   1.0000
     1.0000   1.0000   1.0000   1.0000   1.0000   1.0000   1.0000   1.0000
     1.0000   1.0000   1.0000   1.0000   1.0000   1.0000   1.0000   1.0000
     1.0000   1.0000   1.0000   1.0000   1.0000   1.0000   1.0000   1.0000
     1.0000   1.0000   1.0000   1.0000   1.0000   1.0000   1.0000   1.0000
     1.0000   1.0000   1.0000   1.0000   1.0000   1.0000   1.0000   1.0000
     1.0000   1.0000   1.0000   1.0000   1.0000   1.0000   1.0000   1.0000
     1.0000   1.0000   1.0000   1.0000   1.0000   1.0000   1.0000   1.0000
     1.0000   1.0000   1.0000   1.0000   1.0000   1.0000   1.0000   1.0000
     1.0000   1.0000   1.0000   1.0000   1.0000   1.0000   1.0000   1.0000
     1.0000   1.0000   1.0000   1.0000   1.0000   1.0000   1.0000   1.0000
     1.0000   1.0000   1.0000   1.0000   1.0000   1.0000   1.0000   1.0000
     1.0000   1.0000   1.0000   1.0000   1.0000   1.0000   1.0000   1.0000
     1.0000   1.0000   1.0000   1.0000   1.0000   1.0000   1.0000   1.0000
     1.0000   1.0000   1.0000   1.0000   1.0000   1.0000   1.0000   1.0000
     1.0000   1.0000   1.0000   1.0000   1.0000   1.0000   1.0000   1.0000
     1.0000   1.0000   1.0000   1.0000   1.0000   1.0000   1.0000   1.0000
     1.0000   1.0000   1.0000   1.0000   1.0000   1.0000   1.0000   1.0000
     1.0000   1.0000   0.9999   0.9999   0.9999   0.9997   0.9997   0.9996
     0.9995   0.9994   0.9994   0.9992   0.9991   0.9987   0.9984   0.9980
     0.9979   0.9926   0.9923   0.9919   0.9910   0.9860   0.9854   0.9853
     0.9844   0.9823   0.9815   0.9792   0.9768   0.9752   0.9685   0.9681
     0.9613   0.9599   0.9505   0.9336   0.9124   0.8911   0.8869   0.8622
     0.8510   0.8417   0.8324   0.8247   0.8150   0.8124   0.8081   0.7962
     0.7681   0.7473   0.7234   0.7113   0.6872   0.6850   0.6843   0.6781
     0.6704   0.6634   0.6558   0.6540   0.6428   0.6395   0.6276   0.6158
     0.6132   0.5397   0.5361   0.1424   0.1218   0.1048   0.0784   0.0247
     0.0159   0.0106   0.0081   0.0044   0.0013   0.0006   0.0004   0.0003
     0.0001   0.0000   0.0000   0.0000   0.0000   0.0000   0.0000   0.0000
     0.0000   0.0000   0.0000   0.0000   0.0000   0.0000   0.0000   0.0000
     0.0000   0.0000   0.0000   0.0000   0.0000   0.0000   0.0000

          k =-0.2500 0.2500 0.0000 ( 65198 PWs)   bands (ev):

   -92.3440 -92.2912 -92.1983 -92.1484 -92.0915 -92.0504 -92.0330 -91.9096
   -55.6971 -55.6775 -55.5561 -55.5452 -55.5373 -55.5319 -55.4954 -55.4678
   -55.4510 -55.4494 -55.4424 -55.3995 -55.3796 -55.3431 -55.3245 -55.2912
   -55.2835 -55.2393 -55.2376 -55.2362 -55.2277 -55.1838 -55.1638 -55.0759
   -30.9296 -30.9140 -30.8276 -30.7711 -30.7189 -30.6853 -30.5735 -30.3677
   -29.4944 -29.4526 -29.4266 -29.3182 -22.2567 -14.6652 -14.6261 -14.5527
   -14.4348 -14.3278 -14.2026 -14.1121 -13.9112 -13.7786 -13.7668 -13.7370
   -13.7264 -13.6780 -13.6536 -13.6357 -13.6219 -13.5892 -13.4879 -13.4764
   -13.3248 -13.2977 -13.2678 -13.2480 -13.2029 -13.1484 -13.1108 -13.0895
   -13.0077 -12.9676 -12.8783 -12.8025 -12.7703 -12.7466 -12.6962 -12.6744
   -12.6524 -12.6273 -12.6109 -12.5895 -12.5795 -12.5406 -12.5060 -12.4545
   -12.4243 -12.3618 -12.3463 -12.3110 -12.1636 -12.1120 -12.0960 -11.9381
   -11.8079 -11.7460 -11.4463 -11.4247 -11.3974 -11.3852 -11.3445 -11.3094
   -11.2865 -11.2652 -11.2426 -11.1576 -11.1121 -11.1027  -5.8903  -3.1618
    -3.1582  -2.3139  -2.1049  -1.9846  -1.8955  -1.7771  -1.7102  -1.5074
    -1.3616  -1.3425  -1.3123  -1.2223  -1.1873  -1.0953  -1.0617  -1.0353
    -0.8919  -0.8371  -0.7683  -0.7397  -0.6796  -0.6584  -0.6176  -0.5887
    -0.5486  -0.4867  -0.4398  -0.3763  -0.3095  -0.2857  -0.2321  -0.2044
    -0.1593  -0.0999  -0.0527  -0.0152   0.0859   0.1174   0.1272   0.1749
     0.2364   0.3037   0.3485   0.3805   0.4417   0.4741   0.7386   0.9075
     0.9500   0.9858   1.0409   1.0797   1.1406   1.2115   1.2420   1.5262
     1.6407   1.6792   1.7136   1.7190   1.7615   1.7785   1.8233   1.8543
     1.8696   1.8961   1.9367   1.9504   1.9938   2.0130   2.0560   2.1306
     2.1489   2.1731   2.1985   2.2362   2.2726   2.3165   2.4364   2.5538
     2.5846   2.6259   2.6473   2.7096   2.7560   2.7845   2.8056   2.8273
     2.9293   2.9691   3.0299   3.0526   3.0703   3.2382   3.2450   3.2594
     3.2688   3.2797   3.2932   3.3001   3.3174   3.3256   3.3415   3.3511
     3.3638   3.3729   3.3794   3.4123   3.4230   3.4324   3.4657   3.7588
     3.8388   3.8990   3.9546   3.9842   4.1874   4.3156   4.6356   4.7969
     4.9786   5.1414   5.3318   5.5395   5.9079   5.9874   6.0291   6.1387
     6.1907   6.2383   6.3474   6.4125   6.9479   7.0153   7.0770   7.2128
     7.7229   7.8156   7.8579   7.8857   7.9757   8.1738   8.2044   8.2885
     8.4214   8.4380   8.5619   8.6919   8.7212   8.7708   8.8671

     occupation numbers 
     1.0000   1.0000   1.0000   1.0000   1.0000   1.0000   1.0000   1.0000
     1.0000   1.0000   1.0000   1.0000   1.0000   1.0000   1.0000   1.0000
     1.0000   1.0000   1.0000   1.0000   1.0000   1.0000   1.0000   1.0000
     1.0000   1.0000   1.0000   1.0000   1.0000   1.0000   1.0000   1.0000
     1.0000   1.0000   1.0000   1.0000   1.0000   1.0000   1.0000   1.0000
     1.0000   1.0000   1.0000   1.0000   1.0000   1.0000   1.0000   1.0000
     1.0000   1.0000   1.0000   1.0000   1.0000   1.0000   1.0000   1.0000
     1.0000   1.0000   1.0000   1.0000   1.0000   1.0000   1.0000   1.0000
     1.0000   1.0000   1.0000   1.0000   1.0000   1.0000   1.0000   1.0000
     1.0000   1.0000   1.0000   1.0000   1.0000   1.0000   1.0000   1.0000
     1.0000   1.0000   1.0000   1.0000   1.0000   1.0000   1.0000   1.0000
     1.0000   1.0000   1.0000   1.0000   1.0000   1.0000   1.0000   1.0000
     1.0000   1.0000   1.0000   1.0000   1.0000   1.0000   1.0000   1.0000
     1.0000   1.0000   1.0000   1.0000   1.0000   1.0000   1.0000   1.0000
     1.0000   1.0000   1.0000   1.0000   1.0000   1.0000   1.0000   1.0000
     1.0000   1.0000   1.0000   1.0000   1.0000   1.0000   1.0000   1.0000
     1.0000   1.0000   1.0000   1.0000   1.0000   1.0000   1.0000   1.0000
     1.0000   1.0000   1.0000   1.0000   1.0000   1.0000   1.0000   1.0000
     1.0000   1.0000   1.0000   1.0000   1.0000   1.0000   1.0000   1.0000
     1.0000   1.0000   1.0000   1.0000   1.0000   1.0000   1.0000   1.0000
     1.0000   1.0000   1.0000   0.9999   0.9999   0.9999   0.9999   0.9993
     0.9988   0.9985   0.9983   0.9982   0.9978   0.9976   0.9971   0.9967
     0.9964   0.9960   0.9952   0.9949   0.9939   0.9934   0.9921   0.9894
     0.9886   0.9875   0.9862   0.9841   0.9818   0.9787   0.9678   0.9531
     0.9484   0.9416   0.9378   0.9257   0.9155   0.9087   0.9035   0.8979
     0.8682   0.8552   0.8336   0.8251   0.8182   0.7452   0.7419   0.7349
     0.7303   0.7250   0.7182   0.7148   0.7060   0.7018   0.6936   0.6885
     0.6819   0.6770   0.6736   0.6557   0.6499   0.6447   0.6261   0.4548
     0.4081   0.3738   0.3430   0.3269   0.2266   0.1735   0.0784   0.0490
     0.0271   0.0151   0.0072   0.0029   0.0005   0.0003   0.0002   0.0001
     0.0001   0.0001   0.0000   0.0000   0.0000   0.0000   0.0000   0.0000
     0.0000   0.0000   0.0000   0.0000   0.0000   0.0000   0.0000   0.0000
     0.0000   0.0000   0.0000   0.0000   0.0000   0.0000   0.0000

          k =-0.5000 0.2500 0.0000 ( 65138 PWs)   bands (ev):

   -92.3440 -92.2912 -92.1983 -92.1484 -92.0915 -92.0504 -92.0330 -91.9096
   -55.6971 -55.6775 -55.5561 -55.5452 -55.5373 -55.5319 -55.4954 -55.4678
   -55.4510 -55.4494 -55.4424 -55.3995 -55.3796 -55.3431 -55.3245 -55.2912
   -55.2835 -55.2393 -55.2376 -55.2362 -55.2277 -55.1838 -55.1638 -55.0759
   -30.9273 -30.9162 -30.8275 -30.7708 -30.7188 -30.6857 -30.5736 -30.3678
   -29.4934 -29.4536 -29.4262 -29.3187 -22.2567 -14.6304 -14.5854 -14.5083
   -14.4124 -14.3678 -14.2411 -14.1571 -14.0313 -13.7783 -13.7168 -13.6875
   -13.6749 -13.6302 -13.6123 -13.5833 -13.5468 -13.5451 -13.5200 -13.4855
   -13.4701 -13.3744 -13.2883 -13.2386 -13.2359 -13.2236 -13.1571 -13.1219
   -13.0482 -13.0010 -12.8547 -12.8196 -12.7577 -12.7213 -12.6828 -12.6702
   -12.6622 -12.6328 -12.6170 -12.5972 -12.5883 -12.5469 -12.4941 -12.4123
   -12.3912 -12.3139 -12.2758 -12.2679 -12.1933 -12.1018 -11.9803 -11.9774
   -11.8525 -11.8235 -11.4189 -11.4060 -11.3920 -11.3804 -11.3587 -11.3286
   -11.2481 -11.2390 -11.2163 -11.1796 -11.1517 -11.1427  -5.8903  -3.1618
    -3.1583  -2.0868  -2.0446  -1.8955  -1.8540  -1.6940  -1.6161  -1.4744
    -1.3389  -1.2805  -1.2542  -1.2151  -1.1767  -1.0966  -0.9819  -0.9251
    -0.9021  -0.8762  -0.8002  -0.7712  -0.7339  -0.7152  -0.6544  -0.6259
    -0.5865  -0.5515  -0.5228  -0.4653  -0.4394  -0.3980  -0.3628  -0.2582
    -0.2336  -0.1412  -0.0874  -0.0501   0.0092   0.0878   0.1184   0.2248
     0.2529   0.3160   0.3588   0.3988   0.4667   0.4920   0.5231   0.5837
     0.6210   0.9287   0.9846   1.0347   1.0520   1.3572   1.4179   1.4924
     1.5208   1.6989   1.7344   1.7719   1.7865   1.8042   1.8217   1.8915
     1.9345   1.9715   2.0032   2.1080   2.1533   2.1860   2.1955   2.2255
     2.2608   2.2745   2.2846   2.3070   2.3323   2.3733   2.4015   2.4309
     2.4550   2.4825   2.5474   2.6646   2.7665   2.7974   2.8660   2.9081
     2.9648   3.0046   3.0122   3.0314   3.0488   3.0578   3.0853   3.1079
     3.1888   3.2309   3.2468   3.2519   3.2729   3.2952   3.3078   3.3230
     3.3349   3.3557   3.3697   3.3796   3.3871   3.3960   3.4080   3.9312
     3.9661   4.1278   4.1483   4.4135   4.4873   4.5385   4.7339   5.0761
     5.1311   5.2495   5.3411   5.4378   5.7258   5.7708   5.8351   5.8920
     6.0466   6.1583   6.2952   6.5478   6.5755   6.6558   7.1499   7.2268
     7.5518   7.6834   7.9653   8.0544   8.1859   8.1979   8.3140   8.3702
     8.5316   8.6327   8.7248   8.8171   8.8639   8.9212   8.9443

     occupation numbers 
     1.0000   1.0000   1.0000   1.0000   1.0000   1.0000   1.0000   1.0000
     1.0000   1.0000   1.0000   1.0000   1.0000   1.0000   1.0000   1.0000
     1.0000   1.0000   1.0000   1.0000   1.0000   1.0000   1.0000   1.0000
     1.0000   1.0000   1.0000   1.0000   1.0000   1.0000   1.0000   1.0000
     1.0000   1.0000   1.0000   1.0000   1.0000   1.0000   1.0000   1.0000
     1.0000   1.0000   1.0000   1.0000   1.0000   1.0000   1.0000   1.0000
     1.0000   1.0000   1.0000   1.0000   1.0000   1.0000   1.0000   1.0000
     1.0000   1.0000   1.0000   1.0000   1.0000   1.0000   1.0000   1.0000
     1.0000   1.0000   1.0000   1.0000   1.0000   1.0000   1.0000   1.0000
     1.0000   1.0000   1.0000   1.0000   1.0000   1.0000   1.0000   1.0000
     1.0000   1.0000   1.0000   1.0000   1.0000   1.0000   1.0000   1.0000
     1.0000   1.0000   1.0000   1.0000   1.0000   1.0000   1.0000   1.0000
     1.0000   1.0000   1.0000   1.0000   1.0000   1.0000   1.0000   1.0000
     1.0000   1.0000   1.0000   1.0000   1.0000   1.0000   1.0000   1.0000
     1.0000   1.0000   1.0000   1.0000   1.0000   1.0000   1.0000   1.0000
     1.0000   1.0000   1.0000   1.0000   1.0000   1.0000   1.0000   1.0000
     1.0000   1.0000   1.0000   1.0000   1.0000   1.0000   1.0000   1.0000
     1.0000   1.0000   1.0000   1.0000   1.0000   1.0000   1.0000   1.0000
     1.0000   1.0000   1.0000   1.0000   1.0000   1.0000   1.0000   1.0000
     1.0000   1.0000   1.0000   1.0000   1.0000   1.0000   1.0000   1.0000
     1.0000   1.0000   1.0000   1.0000   1.0000   0.9997   0.9996   0.9994
     0.9993   0.9984   0.9981   0.9977   0.9976   0.9974   0.9971   0.9961
     0.9953   0.9945   0.9937   0.9903   0.9884   0.9869   0.9864   0.9847
     0.9826   0.9817   0.9810   0.9794   0.9775   0.9740   0.9714   0.9684
     0.9658   0.9626   0.9540   0.9346   0.9131   0.9056   0.8872   0.8748
     0.8566   0.8428   0.8401   0.8331   0.8265   0.8231   0.8123   0.8031
     0.7681   0.7487   0.7410   0.7386   0.7283   0.7173   0.7109   0.7032
     0.6970   0.6861   0.6787   0.6735   0.6694   0.6646   0.6581   0.3558
     0.3367   0.2541   0.2445   0.1388   0.1159   0.1018   0.0592   0.0192
     0.0157   0.0100   0.0069   0.0046   0.0012   0.0010   0.0007   0.0005
     0.0002   0.0001   0.0001   0.0000   0.0000   0.0000   0.0000   0.0000
     0.0000   0.0000   0.0000   0.0000   0.0000   0.0000   0.0000   0.0000
     0.0000   0.0000   0.0000   0.0000   0.0000   0.0000   0.0000

     the Fermi energy is     3.6822 ev

!    total energy              =   -4482.97564068 Ry
     estimated scf accuracy    <          4.7E-09 Ry
     smearing contrib. (-TS)   =      -1.17204802 Ry
     internal energy E=F+TS    =   -4481.80359267 Ry

     The total energy is F=E-TS. E is the sum of the following terms:
     one-electron contribution =  -20252.26010290 Ry
     hartree contribution      =   10265.71454805 Ry
     xc contribution           =    -701.58367314 Ry
     ewald contribution        =    6491.98106872 Ry
     one-center paw contrib.   =    -285.65543339 Ry
      -> PAW hartree energy AE =      25.17135974 Ry
      -> PAW hartree energy PS =     -25.05519971 Ry
      -> PAW xc energy AE      =     -16.51863641 Ry
      -> PAW xc energy PS      =       6.87817534 Ry
      -> total E_H with PAW    =   10265.83070808 Ry
      -> total E_XC with PAW   =    -711.22413422 Ry

     convergence has been achieved in  55 iterations

     Writing all to output data dir /bsuhome/zayahcortright/scratch/pwscf.save/
 
     init_run     :      7.73s CPU      8.76s WALL (       1 calls)
     electrons    :    822.67s CPU    853.53s WALL (       1 calls)

     Called by init_run:
     wfcinit      :      6.36s CPU      6.60s WALL (       1 calls)
     wfcinit:atom :      0.05s CPU      0.07s WALL (       5 calls)
     wfcinit:wfcr :      6.03s CPU      6.19s WALL (       5 calls)
     potinit      :      0.18s CPU      0.20s WALL (       1 calls)
     hinit0       :      0.32s CPU      0.84s WALL (       1 calls)

     Called by electrons:
     c_bands      :    654.86s CPU    660.66s WALL (      55 calls)
     sum_band     :    127.63s CPU    140.44s WALL (      55 calls)
     v_of_rho     :      6.01s CPU      6.42s WALL (      56 calls)
     v_h          :      0.50s CPU      0.50s WALL (      56 calls)
     v_xc         :      5.51s CPU      5.92s WALL (      56 calls)
     newd         :     18.12s CPU     29.62s WALL (      56 calls)
     PAW_pot      :      1.83s CPU      1.85s WALL (      56 calls)
     mix_rho      :     13.79s CPU     14.16s WALL (      55 calls)

     Called by c_bands:
     init_us_2    :      7.89s CPU      7.99s WALL (     555 calls)
     init_us_2:cp :      7.89s CPU      7.99s WALL (     555 calls)
     cegterg      :    617.76s CPU    623.17s WALL (     275 calls)

     Called by sum_band:
     sum_band:wei :      0.37s CPU      0.38s WALL (      55 calls)
     sum_band:loo :    104.75s CPU    105.57s WALL (      55 calls)
     sum_band:buf :      1.65s CPU      1.72s WALL (     275 calls)
     sum_band:ini :      3.70s CPU      3.73s WALL (     275 calls)
     sum_band:cal :     22.88s CPU     22.95s WALL (     275 calls)
     sum_band:bec :      0.64s CPU      0.66s WALL (     275 calls)
     addusdens    :     20.09s CPU     32.01s WALL (      55 calls)
                                        0.00s GPU  (      55 calls)
     addusd:skk   :      0.34s CPU      1.03s WALL (     220 calls)
                                        0.00s GPU  (     220 calls)

     Called by *egterg:
     cdiaghg      :     65.20s CPU     65.48s WALL (    1492 calls)
     cegterg:over :     46.05s CPU     46.26s WALL (    1217 calls)
     cegterg:upda :     34.20s CPU     34.64s WALL (    1217 calls)
     cegterg:last :     69.31s CPU     69.63s WALL (     500 calls)
     cdiaghg:chol :      3.83s CPU      3.86s WALL (    1492 calls)
     cdiaghg:inve :      3.97s CPU      3.99s WALL (    1492 calls)
     cdiaghg:para :      8.28s CPU      8.33s WALL (    2984 calls)
     h_psi        :    337.01s CPU    340.08s WALL (    1497 calls)
     s_psi        :     46.30s CPU     46.46s WALL (    1497 calls)
     g_psi        :      1.23s CPU      1.24s WALL (    1217 calls)

     Called by h_psi:
     h_psi:calbec :     53.00s CPU     53.26s WALL (    1497 calls)
     vloc_psi     :    234.32s CPU    236.49s WALL (    1497 calls)
     add_vuspsi   :     46.41s CPU     46.66s WALL (    1497 calls)

     General routines
     calbec       :     75.87s CPU     76.20s WALL (    1772 calls)
     fft          :      5.07s CPU      5.12s WALL (     726 calls)
     ffts         :      5.00s CPU      5.05s WALL (    5645 calls)
     fftw         :    196.78s CPU    198.34s WALL (  376897 calls)
     interpolate  :      0.48s CPU      0.49s WALL (      56 calls)
 
     Parallel routines

     PAW routines
     PAW_pot      :      1.83s CPU      1.85s WALL (      56 calls)
 
     PWSCF        :  13m52.22s CPU  14m27.98s WALL

 
   This run was terminated on:  20:16:52  18Jun2024            

=------------------------------------------------------------------------------=
   JOB DONE.
=------------------------------------------------------------------------------=
