
     Program PWSCF v.7.2 starts on 21Jun2024 at 14:59: 9 

     This program is part of the open-source Quantum ESPRESSO suite
     for quantum simulation of materials; please cite
         "P. Giannozzi et al., J. Phys.:Condens. Matter 21 395502 (2009);
         "P. Giannozzi et al., J. Phys.:Condens. Matter 29 465901 (2017);
         "P. Giannozzi et al., J. Chem. Phys. 152 154105 (2020);
          URL http://www.quantum-espresso.org", 
     in publications or presentations arising from this work. More details at
     http://www.quantum-espresso.org/quote

     Parallel version (MPI & OpenMP), running on      48 processor cores
     Number of MPI processes:                48
     Threads/MPI process:                     1

     MPI processes distributed on     1 nodes
     33239 MiB available memory on the printing compute node when the environment starts
 
     Reading input from espresso.pwi
Warning: card &CELL ignored
Warning: card / ignored
Warning: card &FCP ignored
Warning: card / ignored
Warning: card &RISM ignored
Warning: card / ignored

     Current dimensions of program PWSCF are:
     Max number of different atomic species (ntypx) = 10
     Max number of k-points (npk) =  40000
     Max angular momentum in pseudopotentials (lmaxx) =  4
     file O.pbe-n-kjpaw_psl.0.1.UPF: wavefunction(s)  2P renormalized
     signal trapping enabled: kill the code with -SIGUSR1 to stop cleanly the simulation 
 
     K-points division:     npool     =       2
     R & G space division:  proc/nbgrp/npool/nimage =      24
     Subspace diagonalization in iterative solution of the eigenvalue problem:
     one sub-group per band group will be used
     scalapack distributed-memory algorithm (size of sub-group:  3*  3 procs)

 
     Parallelization info
     --------------------
     sticks:   dense  smooth     PW     G-vecs:    dense   smooth      PW
     Min         350     175     47                61430    21716    3036
     Max         351     177     48                61449    21727    3041
     Sum        8421    4205   1137              1474595   521381   72913
 
     Using Slab Decomposition
 


     bravais-lattice index     =            0
     lattice parameter (alat)  =      14.8599  a.u.
     unit-cell volume          =    8305.1283 (a.u.)^3
     number of atoms/cell      =           50
     number of atomic types    =            4
     number of electrons       =       431.00
     number of Kohn-Sham states=          259
     kinetic-energy cutoff     =      60.0000  Ry
     charge density cutoff     =     480.0000  Ry
     scf convergence threshold =      1.0E-08
     mixing beta               =       0.1500
     number of iterations used =            8  local-TF  mixing
     Exchange-correlation= PBE
                           (   1   4   3   4   0   0   0)

     celldm(1)=  14.859904  celldm(2)=   0.000000  celldm(3)=   0.000000
     celldm(4)=   0.000000  celldm(5)=   0.000000  celldm(6)=   0.000000

     crystal axes: (cart. coord. in units of alat)
               a(1) = (   1.000000   0.000000   0.000000 )  
               a(2) = (   0.000000   1.000000   0.000000 )  
               a(3) = (   0.000000   0.000000   2.531036 )  

     reciprocal axes: (cart. coord. in units 2 pi/alat)
               b(1) = (  1.000000  0.000000  0.000000 )  
               b(2) = (  0.000000  1.000000  0.000000 )  
               b(3) = (  0.000000  0.000000  0.395095 )  


     PseudoPot. # 1 for Sr read from file:
     /bsuhome/zayahcortright/q-e/pseudo/Sr_pbe_v1.uspp.F.UPF
     MD5 check sum: 6b418c05fbe9db5448babca5e47b7a5b
     Pseudo is Ultrasoft + core correction, Zval = 10.0
     Generated by new atomic code, or converted to UPF format
     Using radial grid of  883 points,  6 beta functions with: 
                l(1) =   0
                l(2) =   0
                l(3) =   1
                l(4) =   1
                l(5) =   2
                l(6) =   2
     Q(r) pseudized with  6 coefficients,  rinner =    1.400   1.400   1.400
                                                       1.400   1.400

     PseudoPot. # 2 for O  read from file:
     /bsuhome/zayahcortright/q-e/pseudo/O.pbe-n-kjpaw_psl.0.1.UPF
     MD5 check sum: 0234752ac141de4415c5fc33072bef88
     Pseudo is Projector augmented-wave + core cor, Zval =  6.0
     Generated using "atomic" code by A. Dal Corso  v.5.0.99 svn rev. 10869
     Shape of augmentation charge: BESSEL
     Using radial grid of 1095 points,  4 beta functions with: 
                l(1) =   0
                l(2) =   0
                l(3) =   1
                l(4) =   1
     Q(r) pseudized with 0 coefficients 


     PseudoPot. # 3 for Co read from file:
     /bsuhome/zayahcortright/q-e/pseudo/Co_pbe_v1.2.uspp.F.UPF
     MD5 check sum: 5f91765df6ddd3222702df6e7b74a16d
     Pseudo is Ultrasoft + core correction, Zval = 17.0
     Generated by new atomic code, or converted to UPF format
     Using radial grid of  863 points,  6 beta functions with: 
                l(1) =   0
                l(2) =   0
                l(3) =   1
                l(4) =   1
                l(5) =   2
                l(6) =   2
     Q(r) pseudized with  8 coefficients,  rinner =    1.200   1.200   1.200
                                                       1.200   1.200

     PseudoPot. # 4 for H  read from file:
     /bsuhome/zayahcortright/q-e/pseudo/H.pbe-rrkjus_psl.1.0.0.UPF
     MD5 check sum: f52b6d4d1c606e5624b1dc7b2218f220
     Pseudo is Ultrasoft, Zval =  1.0
     Generated using "atomic" code by A. Dal Corso  v.5.1
     Using radial grid of  929 points,  2 beta functions with: 
                l(1) =   0
                l(2) =   0
     Q(r) pseudized with 0 coefficients 


     atomic species   valence    mass     pseudopotential
        Sr            10.00    87.62000     Sr( 1.00)
        O              6.00    15.99900     O ( 1.00)
        Co            17.00    58.93319     Co( 1.00)
        H              1.00     1.00800     H ( 1.00)

     No symmetry found


                                    s                        frac. trans.

      isym =  1     identity                                     

 cryst.   s( 1) = (     1          0          0      )
                  (     0          1          0      )
                  (     0          0          1      )

 cart.    s( 1) = (  1.0000000  0.0000000  0.0000000 )
                  (  0.0000000  1.0000000  0.0000000 )
                  (  0.0000000  0.0000000  1.0000000 )


   Cartesian axes

     site n.     atom                  positions (alat units)
         1           Sr  tau(   1) = (   0.2508693   0.7491307   1.7574407  )
         2           O   tau(   2) = (   0.4985141   0.5014859   1.7715967  )
         3           Sr  tau(   3) = (   0.7482398   0.7454518   1.7648669  )
         4           Sr  tau(   4) = (   0.7441748   0.2558252   1.7667843  )
         5           Sr  tau(   5) = (   0.2508693   0.7491307   1.2696799  )
         6           Sr  tau(   6) = (   0.2508693   0.7491307   0.7632319  )
         7           Co  tau(   7) = (   0.4998914   0.5001086   1.0164559  )
         8           Co  tau(   8) = (   0.4936915   0.5063085   1.5135603  )
         9           O   tau(   9) = (   0.4988895   0.7610401   1.0164559  )
        10           O   tau(  10) = (   0.2389599   0.5011105   1.0164559  )
        11           O   tau(  11) = (   0.0070918   0.7374880   1.0164559  )
        12           O   tau(  12) = (   0.0088340   0.7405089   1.5135603  )
        13           O   tau(  13) = (   0.5066944   0.7415376   1.5135603  )
        14           O   tau(  14) = (   0.2584624   0.4933056   1.5135603  )
        15           O   tau(  15) = (   0.4985141   0.5014859   0.7773880  )
        16           O   tau(  16) = (   0.4985141   0.5014859   1.2555238  )
        17           Sr  tau(  17) = (   0.7482398   0.7454518   0.7706582  )
        18           Sr  tau(  18) = (   0.7482398   0.7454518   1.2622536  )
        19           Sr  tau(  19) = (   0.7441748   0.2558252   0.7725755  )
        20           Sr  tau(  20) = (   0.7441748   0.2558252   1.2603363  )
        21           O   tau(  21) = (   0.7322655   0.0078049   1.5135603  )
        22           O   tau(  22) = (   0.7558175   0.4996027   1.5135603  )
        23           O   tau(  23) = (   0.5003973   0.2441825   1.5135603  )
        24           O   tau(  24) = (   0.7527966   0.4978604   1.0164559  )
        25           O   tau(  25) = (   0.5021396   0.2472034   1.0164559  )
        26           O   tau(  26) = (   0.7517679   0.0000000   1.0164559  )
        27           O   tau(  27) = (   0.0114961   0.4948124   1.7455321  )
        28           O   tau(  28) = (   0.0048226   0.0077944   1.7715967  )
        29           Sr  tau(  29) = (   0.2545482   0.2517602   1.7648669  )
        30           O   tau(  30) = (   0.5048017   0.0015068   1.7786929  )
        31           Co  tau(  31) = (   0.0056869   0.5006215   1.0164559  )
        32           Co  tau(  32) = (   0.0065315   0.4997770   1.5135603  )
        33           Co  tau(  33) = (   0.0061999   0.0064171   1.0164559  )
        34           Co  tau(  34) = (   0.0000000   0.0126169   1.5135603  )
        35           O   tau(  35) = (   0.0114961   0.4948124   1.2815885  )
        36           O   tau(  36) = (   0.0114961   0.4948124   0.7513233  )
        37           O   tau(  37) = (   0.0051979   0.2673486   1.0164559  )
        38           O   tau(  38) = (   0.0130029   0.2478461   1.5135603  )
        39           O   tau(  39) = (   0.0048226   0.0077944   0.7773880  )
        40           O   tau(  40) = (   0.0048226   0.0077944   1.2555238  )
        41           Sr  tau(  41) = (   0.2545482   0.2517602   0.7706582  )
        42           Sr  tau(  42) = (   0.2545482   0.2517602   1.2622536  )
        43           Co  tau(  43) = (   0.4989925   0.0073160   1.5135603  )
        44           Co  tau(  44) = (   0.4998370   0.0064714   1.0164559  )
        45           O   tau(  45) = (   0.5048017   0.0015068   0.7844841  )
        46           O   tau(  46) = (   0.5048017   0.0015068   1.2484277  )
        47           O   tau(  47) = (   0.2621260   0.0059111   1.5135603  )
        48           O   tau(  48) = (   0.2591051   0.0041689   1.0164559  )
        49           O   tau(  49) = (   0.0000000   0.4264937   2.1602013  )
        50           H   tau(  50) = (   0.0000000   0.4264937   2.2847091  )

   Crystallographic axes

     site n.     atom                  positions (cryst. coord.)
         1           Sr  tau(   1) = (  0.2508693  0.7491307  0.6943562  )
         2           O   tau(   2) = (  0.4985141  0.5014859  0.6999492  )
         3           Sr  tau(   3) = (  0.7482398  0.7454518  0.6972903  )
         4           Sr  tau(   4) = (  0.7441748  0.2558252  0.6980478  )
         5           Sr  tau(   5) = (  0.2508693  0.7491307  0.5016443  )
         6           Sr  tau(   6) = (  0.2508693  0.7491307  0.3015492  )
         7           Co  tau(   7) = (  0.4998914  0.5001086  0.4015968  )
         8           Co  tau(   8) = (  0.4936915  0.5063085  0.5980003  )
         9           O   tau(   9) = (  0.4988895  0.7610401  0.4015968  )
        10           O   tau(  10) = (  0.2389599  0.5011105  0.4015968  )
        11           O   tau(  11) = (  0.0070918  0.7374880  0.4015968  )
        12           O   tau(  12) = (  0.0088340  0.7405089  0.5980003  )
        13           O   tau(  13) = (  0.5066944  0.7415376  0.5980003  )
        14           O   tau(  14) = (  0.2584624  0.4933056  0.5980003  )
        15           O   tau(  15) = (  0.4985141  0.5014859  0.3071422  )
        16           O   tau(  16) = (  0.4985141  0.5014859  0.4960513  )
        17           Sr  tau(  17) = (  0.7482398  0.7454518  0.3044833  )
        18           Sr  tau(  18) = (  0.7482398  0.7454518  0.4987103  )
        19           Sr  tau(  19) = (  0.7441748  0.2558252  0.3052408  )
        20           Sr  tau(  20) = (  0.7441748  0.2558252  0.4979527  )
        21           O   tau(  21) = (  0.7322655  0.0078049  0.5980003  )
        22           O   tau(  22) = (  0.7558175  0.4996027  0.5980003  )
        23           O   tau(  23) = (  0.5003973  0.2441825  0.5980003  )
        24           O   tau(  24) = (  0.7527966  0.4978604  0.4015968  )
        25           O   tau(  25) = (  0.5021396  0.2472034  0.4015968  )
        26           O   tau(  26) = (  0.7517679  0.0000000  0.4015968  )
        27           O   tau(  27) = (  0.0114961  0.4948124  0.6896512  )
        28           O   tau(  28) = (  0.0048226  0.0077944  0.6999492  )
        29           Sr  tau(  29) = (  0.2545482  0.2517602  0.6972903  )
        30           O   tau(  30) = (  0.5048017  0.0015068  0.7027529  )
        31           Co  tau(  31) = (  0.0056869  0.5006215  0.4015968  )
        32           Co  tau(  32) = (  0.0065315  0.4997770  0.5980003  )
        33           Co  tau(  33) = (  0.0061999  0.0064171  0.4015968  )
        34           Co  tau(  34) = (  0.0000000  0.0126169  0.5980003  )
        35           O   tau(  35) = (  0.0114961  0.4948124  0.5063494  )
        36           O   tau(  36) = (  0.0114961  0.4948124  0.2968442  )
        37           O   tau(  37) = (  0.0051979  0.2673486  0.4015968  )
        38           O   tau(  38) = (  0.0130029  0.2478461  0.5980003  )
        39           O   tau(  39) = (  0.0048226  0.0077944  0.3071422  )
        40           O   tau(  40) = (  0.0048226  0.0077944  0.4960513  )
        41           Sr  tau(  41) = (  0.2545482  0.2517602  0.3044833  )
        42           Sr  tau(  42) = (  0.2545482  0.2517602  0.4987103  )
        43           Co  tau(  43) = (  0.4989925  0.0073160  0.5980003  )
        44           Co  tau(  44) = (  0.4998370  0.0064714  0.4015968  )
        45           O   tau(  45) = (  0.5048017  0.0015068  0.3099459  )
        46           O   tau(  46) = (  0.5048017  0.0015068  0.4932477  )
        47           O   tau(  47) = (  0.2621260  0.0059111  0.5980003  )
        48           O   tau(  48) = (  0.2591051  0.0041689  0.4015968  )
        49           O   tau(  49) = (  0.0000000  0.4264937  0.8534850  )
        50           H   tau(  50) = (  0.0000000  0.4264937  0.9026774  )

     number of k points=    10  Gaussian smearing, width (Ry)=  0.0700
                       cart. coord. in units 2pi/alat
        k(    1) = (   0.0000000   0.0000000   0.0000000), wk =   0.1250000
        k(    2) = (   0.0000000   0.2500000   0.0000000), wk =   0.2500000
        k(    3) = (   0.0000000  -0.5000000   0.0000000), wk =   0.1250000
        k(    4) = (   0.2500000   0.2500000   0.0000000), wk =   0.2500000
        k(    5) = (   0.2500000  -0.5000000   0.0000000), wk =   0.2500000
        k(    6) = (  -0.5000000  -0.5000000   0.0000000), wk =   0.1250000
        k(    7) = (   0.2500000   0.0000000   0.0000000), wk =   0.2500000
        k(    8) = (  -0.5000000   0.0000000   0.0000000), wk =   0.1250000
        k(    9) = (  -0.2500000   0.2500000   0.0000000), wk =   0.2500000
        k(   10) = (  -0.5000000   0.2500000   0.0000000), wk =   0.2500000

                       cryst. coord.
        k(    1) = (   0.0000000   0.0000000   0.0000000), wk =   0.1250000
        k(    2) = (   0.0000000   0.2500000   0.0000000), wk =   0.2500000
        k(    3) = (   0.0000000  -0.5000000   0.0000000), wk =   0.1250000
        k(    4) = (   0.2500000   0.2500000   0.0000000), wk =   0.2500000
        k(    5) = (   0.2500000  -0.5000000   0.0000000), wk =   0.2500000
        k(    6) = (  -0.5000000  -0.5000000   0.0000000), wk =   0.1250000
        k(    7) = (   0.2500000   0.0000000   0.0000000), wk =   0.2500000
        k(    8) = (  -0.5000000   0.0000000   0.0000000), wk =   0.1250000
        k(    9) = (  -0.2500000   0.2500000   0.0000000), wk =   0.2500000
        k(   10) = (  -0.5000000   0.2500000   0.0000000), wk =   0.2500000

     Dense  grid:  1474595 G-vectors     FFT dimensions: ( 108, 108, 270)

     Smooth grid:   521381 G-vectors     FFT dimensions: (  75,  75, 192)

     Dynamical RAM for                 wfc:      10.73 MB

     Dynamical RAM for     wfc (w. buffer):      64.38 MB

     Dynamical RAM for           str. fact:       3.75 MB

     Dynamical RAM for           local pot:       0.00 MB

     Dynamical RAM for          nlocal pot:      24.61 MB

     Dynamical RAM for                qrad:       7.03 MB

     Dynamical RAM for          rho,v,vnew:       6.02 MB

     Dynamical RAM for               rhoin:       2.01 MB

     Dynamical RAM for            rho*nmix:      15.00 MB

     Dynamical RAM for           G-vectors:       3.68 MB

     Dynamical RAM for          h,s,v(r/c):       1.35 MB

     Dynamical RAM for          <psi|beta>:       2.35 MB

     Dynamical RAM for                 psi:      21.46 MB

     Dynamical RAM for                hpsi:      21.46 MB

     Dynamical RAM for                spsi:      21.46 MB

     Dynamical RAM for      wfcinit/wfcrot:      34.49 MB

     Dynamical RAM for           addusdens:     101.26 MB

     Estimated static dynamical RAM per process >     121.50 MB

     Estimated max dynamical RAM per process >     237.76 MB

     Estimated total dynamical RAM >      10.79 GB

     Check: negative core charge=   -0.000004

     Initial potential from superposition of free atoms

     starting charge     422.5961, renormalised to     431.0000

     negative rho (up, down):  7.820E-01 0.000E+00
     Starting wfcs are  377 randomized atomic wfcs
     Checking if some PAW data can be deallocated... 
       PAW data deallocated on   19 nodes for type:  2

     total cpu time spent up to now is        9.2 secs

     Self-consistent Calculation

     iteration #  1     ecut=    60.00 Ry     beta= 0.15
     Davidson diagonalization with overlap

---- Real-time Memory Report at c_bands before calling an iterative solver
             0 MiB given to the printing process from OS
             0 MiB allocation reported by mallinfo(arena+hblkhd)
         24021 MiB available memory on the node where the printing process lives
------------------
     ethr =  1.00E-02,  avg # of iterations =  2.0

     negative rho (up, down):  7.717E-01 0.000E+00

     total cpu time spent up to now is       26.0 secs

     total energy              =   -4446.66535468 Ry
     estimated scf accuracy    <      44.90464277 Ry

     iteration #  2     ecut=    60.00 Ry     beta= 0.15
     Davidson diagonalization with overlap

---- Real-time Memory Report at c_bands before calling an iterative solver
             0 MiB given to the printing process from OS
             0 MiB allocation reported by mallinfo(arena+hblkhd)
         24268 MiB available memory on the node where the printing process lives
------------------
     ethr =  1.00E-02,  avg # of iterations =  1.0

     negative rho (up, down):  7.584E-01 0.000E+00

     total cpu time spent up to now is       40.8 secs

     total energy              =   -4443.29780490 Ry
     estimated scf accuracy    <      29.85410201 Ry

     iteration #  3     ecut=    60.00 Ry     beta= 0.15
     Davidson diagonalization with overlap

---- Real-time Memory Report at c_bands before calling an iterative solver
             0 MiB given to the printing process from OS
             0 MiB allocation reported by mallinfo(arena+hblkhd)
         23422 MiB available memory on the node where the printing process lives
------------------
     ethr =  6.93E-03,  avg # of iterations =  1.0

     negative rho (up, down):  7.553E-01 0.000E+00

     total cpu time spent up to now is       56.3 secs

     total energy              =   -4444.25954581 Ry
     estimated scf accuracy    <      28.33715545 Ry

     iteration #  4     ecut=    60.00 Ry     beta= 0.15
     Davidson diagonalization with overlap

---- Real-time Memory Report at c_bands before calling an iterative solver
             0 MiB given to the printing process from OS
             0 MiB allocation reported by mallinfo(arena+hblkhd)
         23399 MiB available memory on the node where the printing process lives
------------------
     ethr =  6.57E-03,  avg # of iterations =  1.0

     negative rho (up, down):  7.503E-01 0.000E+00

     total cpu time spent up to now is       71.6 secs

     total energy              =   -4443.05738621 Ry
     estimated scf accuracy    <      20.98288289 Ry

     iteration #  5     ecut=    60.00 Ry     beta= 0.15
     Davidson diagonalization with overlap

---- Real-time Memory Report at c_bands before calling an iterative solver
             0 MiB given to the printing process from OS
             0 MiB allocation reported by mallinfo(arena+hblkhd)
         23381 MiB available memory on the node where the printing process lives
------------------
     ethr =  4.87E-03,  avg # of iterations =  1.0

     negative rho (up, down):  7.397E-01 0.000E+00

     total cpu time spent up to now is       86.8 secs

     total energy              =   -4442.47345604 Ry
     estimated scf accuracy    <      11.97474235 Ry

     iteration #  6     ecut=    60.00 Ry     beta= 0.15
     Davidson diagonalization with overlap

---- Real-time Memory Report at c_bands before calling an iterative solver
             0 MiB given to the printing process from OS
             0 MiB allocation reported by mallinfo(arena+hblkhd)
         23362 MiB available memory on the node where the printing process lives
------------------
     ethr =  2.78E-03,  avg # of iterations =  1.1

     negative rho (up, down):  7.425E-01 0.000E+00

     total cpu time spent up to now is      102.0 secs

     total energy              =   -4442.81555465 Ry
     estimated scf accuracy    <       5.06323015 Ry

     iteration #  7     ecut=    60.00 Ry     beta= 0.15
     Davidson diagonalization with overlap

---- Real-time Memory Report at c_bands before calling an iterative solver
             0 MiB given to the printing process from OS
             0 MiB allocation reported by mallinfo(arena+hblkhd)
         23338 MiB available memory on the node where the printing process lives
------------------
     ethr =  1.17E-03,  avg # of iterations =  1.5

     negative rho (up, down):  7.646E-01 0.000E+00

     total cpu time spent up to now is      117.5 secs

     total energy              =   -4441.67522269 Ry
     estimated scf accuracy    <       3.99511982 Ry

     iteration #  8     ecut=    60.00 Ry     beta= 0.15
     Davidson diagonalization with overlap

---- Real-time Memory Report at c_bands before calling an iterative solver
             0 MiB given to the printing process from OS
             0 MiB allocation reported by mallinfo(arena+hblkhd)
         23322 MiB available memory on the node where the printing process lives
------------------
     ethr =  9.27E-04,  avg # of iterations =  3.6

     negative rho (up, down):  7.731E-01 0.000E+00

     total cpu time spent up to now is      136.6 secs

     total energy              =   -4441.24653335 Ry
     estimated scf accuracy    <      22.88381801 Ry

     iteration #  9     ecut=    60.00 Ry     beta= 0.15
     Davidson diagonalization with overlap

---- Real-time Memory Report at c_bands before calling an iterative solver
             0 MiB given to the printing process from OS
             0 MiB allocation reported by mallinfo(arena+hblkhd)
         23199 MiB available memory on the node where the printing process lives
------------------
     ethr =  9.27E-04,  avg # of iterations =  9.6

     negative rho (up, down):  7.702E-01 0.000E+00

     total cpu time spent up to now is      159.3 secs

     total energy              =   -4441.71938446 Ry
     estimated scf accuracy    <       3.85741151 Ry

     iteration # 10     ecut=    60.00 Ry     beta= 0.15
     Davidson diagonalization with overlap

---- Real-time Memory Report at c_bands before calling an iterative solver
             0 MiB given to the printing process from OS
             0 MiB allocation reported by mallinfo(arena+hblkhd)
         22842 MiB available memory on the node where the printing process lives
------------------
     ethr =  8.95E-04,  avg # of iterations =  1.1

     negative rho (up, down):  7.743E-01 0.000E+00

     total cpu time spent up to now is      174.7 secs

     total energy              =   -4441.87790966 Ry
     estimated scf accuracy    <       1.64175054 Ry

     iteration # 11     ecut=    60.00 Ry     beta= 0.15
     Davidson diagonalization with overlap

---- Real-time Memory Report at c_bands before calling an iterative solver
             0 MiB given to the printing process from OS
             0 MiB allocation reported by mallinfo(arena+hblkhd)
         22828 MiB available memory on the node where the printing process lives
------------------
     ethr =  3.81E-04,  avg # of iterations =  1.4

     negative rho (up, down):  8.025E-01 0.000E+00

     total cpu time spent up to now is      190.7 secs

     total energy              =   -4441.74663647 Ry
     estimated scf accuracy    <       1.04849205 Ry

     iteration # 12     ecut=    60.00 Ry     beta= 0.15
     Davidson diagonalization with overlap

---- Real-time Memory Report at c_bands before calling an iterative solver
             0 MiB given to the printing process from OS
             0 MiB allocation reported by mallinfo(arena+hblkhd)
         22829 MiB available memory on the node where the printing process lives
------------------
     ethr =  2.43E-04,  avg # of iterations =  2.4

     negative rho (up, down):  8.173E-01 0.000E+00

     total cpu time spent up to now is      207.9 secs

     total energy              =   -4441.88718960 Ry
     estimated scf accuracy    <       1.69003972 Ry

     iteration # 13     ecut=    60.00 Ry     beta= 0.15
     Davidson diagonalization with overlap

---- Real-time Memory Report at c_bands before calling an iterative solver
             0 MiB given to the printing process from OS
             0 MiB allocation reported by mallinfo(arena+hblkhd)
         22834 MiB available memory on the node where the printing process lives
------------------
     ethr =  2.43E-04,  avg # of iterations = 10.6

     negative rho (up, down):  8.184E-01 0.000E+00

     total cpu time spent up to now is      229.5 secs

     total energy              =   -4441.78934945 Ry
     estimated scf accuracy    <       1.28475453 Ry

     iteration # 14     ecut=    60.00 Ry     beta= 0.15
     Davidson diagonalization with overlap

---- Real-time Memory Report at c_bands before calling an iterative solver
             0 MiB given to the printing process from OS
             0 MiB allocation reported by mallinfo(arena+hblkhd)
         22779 MiB available memory on the node where the printing process lives
------------------
     ethr =  2.43E-04,  avg # of iterations =  4.5

     negative rho (up, down):  8.150E-01 0.000E+00

     total cpu time spent up to now is      247.9 secs

     total energy              =   -4441.75300715 Ry
     estimated scf accuracy    <       0.43806172 Ry

     iteration # 15     ecut=    60.00 Ry     beta= 0.15
     Davidson diagonalization with overlap

---- Real-time Memory Report at c_bands before calling an iterative solver
             0 MiB given to the printing process from OS
             0 MiB allocation reported by mallinfo(arena+hblkhd)
         22783 MiB available memory on the node where the printing process lives
------------------
     ethr =  1.02E-04,  avg # of iterations =  5.5

     negative rho (up, down):  8.256E-01 0.000E+00

     total cpu time spent up to now is      266.8 secs

     total energy              =   -4441.72892553 Ry
     estimated scf accuracy    <       0.29178755 Ry

     iteration # 16     ecut=    60.00 Ry     beta= 0.15
     Davidson diagonalization with overlap

---- Real-time Memory Report at c_bands before calling an iterative solver
             0 MiB given to the printing process from OS
             0 MiB allocation reported by mallinfo(arena+hblkhd)
         22764 MiB available memory on the node where the printing process lives
------------------
     ethr =  6.77E-05,  avg # of iterations = 10.6

     negative rho (up, down):  8.296E-01 0.000E+00

     total cpu time spent up to now is      289.3 secs

     total energy              =   -4441.72445899 Ry
     estimated scf accuracy    <       0.29274964 Ry

     iteration # 17     ecut=    60.00 Ry     beta= 0.15
     Davidson diagonalization with overlap

---- Real-time Memory Report at c_bands before calling an iterative solver
             0 MiB given to the printing process from OS
             0 MiB allocation reported by mallinfo(arena+hblkhd)
         22757 MiB available memory on the node where the printing process lives
------------------
     ethr =  6.77E-05,  avg # of iterations =  2.0

     negative rho (up, down):  8.230E-01 0.000E+00

     total cpu time spent up to now is      305.9 secs

     total energy              =   -4441.70616422 Ry
     estimated scf accuracy    <       0.23046481 Ry

     iteration # 18     ecut=    60.00 Ry     beta= 0.15
     Davidson diagonalization with overlap

---- Real-time Memory Report at c_bands before calling an iterative solver
             0 MiB given to the printing process from OS
             0 MiB allocation reported by mallinfo(arena+hblkhd)
         22752 MiB available memory on the node where the printing process lives
------------------
     ethr =  5.35E-05,  avg # of iterations =  6.3

     negative rho (up, down):  8.131E-01 0.000E+00

     total cpu time spent up to now is      325.8 secs

     total energy              =   -4441.68165331 Ry
     estimated scf accuracy    <       0.15044456 Ry

     iteration # 19     ecut=    60.00 Ry     beta= 0.15
     Davidson diagonalization with overlap

---- Real-time Memory Report at c_bands before calling an iterative solver
             0 MiB given to the printing process from OS
             0 MiB allocation reported by mallinfo(arena+hblkhd)
         22752 MiB available memory on the node where the printing process lives
------------------
     ethr =  3.49E-05,  avg # of iterations = 10.3

     negative rho (up, down):  8.301E-01 0.000E+00

     total cpu time spent up to now is      347.9 secs

     total energy              =   -4441.66654005 Ry
     estimated scf accuracy    <       0.11315690 Ry

     iteration # 20     ecut=    60.00 Ry     beta= 0.15
     Davidson diagonalization with overlap

---- Real-time Memory Report at c_bands before calling an iterative solver
             0 MiB given to the printing process from OS
             0 MiB allocation reported by mallinfo(arena+hblkhd)
         22700 MiB available memory on the node where the printing process lives
------------------
     ethr =  2.63E-05,  avg # of iterations =  6.4

     negative rho (up, down):  8.197E-01 0.000E+00

     total cpu time spent up to now is      367.7 secs

     total energy              =   -4441.66817103 Ry
     estimated scf accuracy    <       0.04350730 Ry

     iteration # 21     ecut=    60.00 Ry     beta= 0.15
     Davidson diagonalization with overlap

---- Real-time Memory Report at c_bands before calling an iterative solver
             0 MiB given to the printing process from OS
             0 MiB allocation reported by mallinfo(arena+hblkhd)
         22720 MiB available memory on the node where the printing process lives
------------------
     c_bands:  1 eigenvalues not converged
     ethr =  1.01E-05,  avg # of iterations = 11.0

     negative rho (up, down):  8.110E-01 0.000E+00

     total cpu time spent up to now is      389.8 secs

     total energy              =   -4441.66614132 Ry
     estimated scf accuracy    <       0.03160532 Ry

     iteration # 22     ecut=    60.00 Ry     beta= 0.15
     Davidson diagonalization with overlap

---- Real-time Memory Report at c_bands before calling an iterative solver
             0 MiB given to the printing process from OS
             0 MiB allocation reported by mallinfo(arena+hblkhd)
         22665 MiB available memory on the node where the printing process lives
------------------
     ethr =  7.33E-06,  avg # of iterations =  5.6

     negative rho (up, down):  8.032E-01 0.000E+00

     total cpu time spent up to now is      409.4 secs

     total energy              =   -4441.66486080 Ry
     estimated scf accuracy    <       0.02177873 Ry

     iteration # 23     ecut=    60.00 Ry     beta= 0.15
     Davidson diagonalization with overlap

---- Real-time Memory Report at c_bands before calling an iterative solver
             0 MiB given to the printing process from OS
             0 MiB allocation reported by mallinfo(arena+hblkhd)
         22744 MiB available memory on the node where the printing process lives
------------------
     ethr =  5.05E-06,  avg # of iterations =  5.6

     negative rho (up, down):  7.914E-01 0.000E+00

     total cpu time spent up to now is      428.4 secs

     total energy              =   -4441.66229111 Ry
     estimated scf accuracy    <       0.01622359 Ry

     iteration # 24     ecut=    60.00 Ry     beta= 0.15
     Davidson diagonalization with overlap

---- Real-time Memory Report at c_bands before calling an iterative solver
             0 MiB given to the printing process from OS
             0 MiB allocation reported by mallinfo(arena+hblkhd)
         22717 MiB available memory on the node where the printing process lives
------------------
     ethr =  3.76E-06,  avg # of iterations = 10.2

     negative rho (up, down):  7.992E-01 0.000E+00

     total cpu time spent up to now is      451.2 secs

     total energy              =   -4441.66114467 Ry
     estimated scf accuracy    <       0.01131841 Ry

     iteration # 25     ecut=    60.00 Ry     beta= 0.15
     Davidson diagonalization with overlap

---- Real-time Memory Report at c_bands before calling an iterative solver
             0 MiB given to the printing process from OS
             0 MiB allocation reported by mallinfo(arena+hblkhd)
         22697 MiB available memory on the node where the printing process lives
------------------
     ethr =  2.63E-06,  avg # of iterations =  9.2

     negative rho (up, down):  7.989E-01 0.000E+00

     total cpu time spent up to now is      473.6 secs

     total energy              =   -4441.66110879 Ry
     estimated scf accuracy    <       0.00377252 Ry

     iteration # 26     ecut=    60.00 Ry     beta= 0.15
     Davidson diagonalization with overlap

---- Real-time Memory Report at c_bands before calling an iterative solver
             0 MiB given to the printing process from OS
             0 MiB allocation reported by mallinfo(arena+hblkhd)
         22679 MiB available memory on the node where the printing process lives
------------------
     ethr =  8.75E-07,  avg # of iterations =  3.1

     negative rho (up, down):  7.991E-01 0.000E+00

     total cpu time spent up to now is      491.3 secs

     total energy              =   -4441.66106637 Ry
     estimated scf accuracy    <       0.00215367 Ry

     iteration # 27     ecut=    60.00 Ry     beta= 0.15
     Davidson diagonalization with overlap

---- Real-time Memory Report at c_bands before calling an iterative solver
             0 MiB given to the printing process from OS
             0 MiB allocation reported by mallinfo(arena+hblkhd)
         22680 MiB available memory on the node where the printing process lives
------------------
     c_bands:  1 eigenvalues not converged
     ethr =  5.00E-07,  avg # of iterations =  7.9

     negative rho (up, down):  7.951E-01 0.000E+00

     total cpu time spent up to now is      512.3 secs

     total energy              =   -4441.66097402 Ry
     estimated scf accuracy    <       0.00078799 Ry

     iteration # 28     ecut=    60.00 Ry     beta= 0.15
     Davidson diagonalization with overlap

---- Real-time Memory Report at c_bands before calling an iterative solver
             0 MiB given to the printing process from OS
             0 MiB allocation reported by mallinfo(arena+hblkhd)
         22696 MiB available memory on the node where the printing process lives
------------------
     c_bands:  1 eigenvalues not converged
     ethr =  1.83E-07,  avg # of iterations = 10.3

     negative rho (up, down):  7.947E-01 0.000E+00

     total cpu time spent up to now is      537.6 secs

     total energy              =   -4441.66106261 Ry
     estimated scf accuracy    <       0.00021721 Ry

     iteration # 29     ecut=    60.00 Ry     beta= 0.15
     Davidson diagonalization with overlap

---- Real-time Memory Report at c_bands before calling an iterative solver
             0 MiB given to the printing process from OS
             0 MiB allocation reported by mallinfo(arena+hblkhd)
         22615 MiB available memory on the node where the printing process lives
------------------
     ethr =  5.04E-08,  avg # of iterations =  2.0

     negative rho (up, down):  7.932E-01 0.000E+00

     total cpu time spent up to now is      554.9 secs

     total energy              =   -4441.66105058 Ry
     estimated scf accuracy    <       0.00015142 Ry

     iteration # 30     ecut=    60.00 Ry     beta= 0.15
     Davidson diagonalization with overlap

---- Real-time Memory Report at c_bands before calling an iterative solver
             0 MiB given to the printing process from OS
             0 MiB allocation reported by mallinfo(arena+hblkhd)
         22603 MiB available memory on the node where the printing process lives
------------------
     ethr =  3.51E-08,  avg # of iterations =  5.1

     negative rho (up, down):  7.927E-01 0.000E+00

     total cpu time spent up to now is      573.8 secs

     total energy              =   -4441.66105826 Ry
     estimated scf accuracy    <       0.00006170 Ry

     iteration # 31     ecut=    60.00 Ry     beta= 0.15
     Davidson diagonalization with overlap

---- Real-time Memory Report at c_bands before calling an iterative solver
             0 MiB given to the printing process from OS
             0 MiB allocation reported by mallinfo(arena+hblkhd)
         22631 MiB available memory on the node where the printing process lives
------------------
     ethr =  1.43E-08,  avg # of iterations =  4.6

     negative rho (up, down):  7.925E-01 0.000E+00

     total cpu time spent up to now is      593.3 secs

     total energy              =   -4441.66106468 Ry
     estimated scf accuracy    <       0.00002116 Ry

     iteration # 32     ecut=    60.00 Ry     beta= 0.15
     Davidson diagonalization with overlap

---- Real-time Memory Report at c_bands before calling an iterative solver
             0 MiB given to the printing process from OS
             0 MiB allocation reported by mallinfo(arena+hblkhd)
         22623 MiB available memory on the node where the printing process lives
------------------
     ethr =  4.91E-09,  avg # of iterations =  2.2

     negative rho (up, down):  7.924E-01 0.000E+00

     total cpu time spent up to now is      610.7 secs

     total energy              =   -4441.66106689 Ry
     estimated scf accuracy    <       0.00001121 Ry

     iteration # 33     ecut=    60.00 Ry     beta= 0.15
     Davidson diagonalization with overlap

---- Real-time Memory Report at c_bands before calling an iterative solver
             0 MiB given to the printing process from OS
             0 MiB allocation reported by mallinfo(arena+hblkhd)
         22686 MiB available memory on the node where the printing process lives
------------------
     ethr =  2.60E-09,  avg # of iterations =  2.7

     negative rho (up, down):  7.923E-01 0.000E+00

     total cpu time spent up to now is      628.3 secs

     total energy              =   -4441.66107026 Ry
     estimated scf accuracy    <       0.00000716 Ry

     iteration # 34     ecut=    60.00 Ry     beta= 0.15
     Davidson diagonalization with overlap

---- Real-time Memory Report at c_bands before calling an iterative solver
             0 MiB given to the printing process from OS
             0 MiB allocation reported by mallinfo(arena+hblkhd)
         22668 MiB available memory on the node where the printing process lives
------------------
     ethr =  1.66E-09,  avg # of iterations =  2.1

     negative rho (up, down):  7.923E-01 0.000E+00

     total cpu time spent up to now is      645.5 secs

     total energy              =   -4441.66107179 Ry
     estimated scf accuracy    <       0.00000273 Ry

     iteration # 35     ecut=    60.00 Ry     beta= 0.15
     Davidson diagonalization with overlap

---- Real-time Memory Report at c_bands before calling an iterative solver
             0 MiB given to the printing process from OS
             0 MiB allocation reported by mallinfo(arena+hblkhd)
         22665 MiB available memory on the node where the printing process lives
------------------
     ethr =  6.34E-10,  avg # of iterations =  2.7

     negative rho (up, down):  7.924E-01 0.000E+00

     total cpu time spent up to now is      663.5 secs

     total energy              =   -4441.66107245 Ry
     estimated scf accuracy    <       0.00000153 Ry

     iteration # 36     ecut=    60.00 Ry     beta= 0.15
     Davidson diagonalization with overlap

---- Real-time Memory Report at c_bands before calling an iterative solver
             0 MiB given to the printing process from OS
             0 MiB allocation reported by mallinfo(arena+hblkhd)
         22665 MiB available memory on the node where the printing process lives
------------------
     ethr =  3.55E-10,  avg # of iterations =  3.2

     negative rho (up, down):  7.925E-01 0.000E+00

     total cpu time spent up to now is      681.4 secs

     total energy              =   -4441.66107244 Ry
     estimated scf accuracy    <       0.00000088 Ry

     iteration # 37     ecut=    60.00 Ry     beta= 0.15
     Davidson diagonalization with overlap

---- Real-time Memory Report at c_bands before calling an iterative solver
             0 MiB given to the printing process from OS
             0 MiB allocation reported by mallinfo(arena+hblkhd)
         22665 MiB available memory on the node where the printing process lives
------------------
     ethr =  2.04E-10,  avg # of iterations =  3.2

     negative rho (up, down):  7.925E-01 0.000E+00

     total cpu time spent up to now is      700.0 secs

     total energy              =   -4441.66107264 Ry
     estimated scf accuracy    <       0.00000046 Ry

     iteration # 38     ecut=    60.00 Ry     beta= 0.15
     Davidson diagonalization with overlap

---- Real-time Memory Report at c_bands before calling an iterative solver
             0 MiB given to the printing process from OS
             0 MiB allocation reported by mallinfo(arena+hblkhd)
         22663 MiB available memory on the node where the printing process lives
------------------
     ethr =  1.08E-10,  avg # of iterations =  2.1

     negative rho (up, down):  7.925E-01 0.000E+00

     total cpu time spent up to now is      717.3 secs

     total energy              =   -4441.66107276 Ry
     estimated scf accuracy    <       0.00000034 Ry

     iteration # 39     ecut=    60.00 Ry     beta= 0.15
     Davidson diagonalization with overlap

---- Real-time Memory Report at c_bands before calling an iterative solver
             0 MiB given to the printing process from OS
             0 MiB allocation reported by mallinfo(arena+hblkhd)
         22665 MiB available memory on the node where the printing process lives
------------------
     ethr =  7.86E-11,  avg # of iterations =  2.2

     negative rho (up, down):  7.925E-01 0.000E+00

     total cpu time spent up to now is      734.7 secs

     total energy              =   -4441.66107284 Ry
     estimated scf accuracy    <       0.00000030 Ry

     iteration # 40     ecut=    60.00 Ry     beta= 0.15
     Davidson diagonalization with overlap

---- Real-time Memory Report at c_bands before calling an iterative solver
             0 MiB given to the printing process from OS
             0 MiB allocation reported by mallinfo(arena+hblkhd)
         22665 MiB available memory on the node where the printing process lives
------------------
     ethr =  7.05E-11,  avg # of iterations =  2.0

     negative rho (up, down):  7.925E-01 0.000E+00

     total cpu time spent up to now is      752.0 secs

     total energy              =   -4441.66107293 Ry
     estimated scf accuracy    <       0.00000024 Ry

     iteration # 41     ecut=    60.00 Ry     beta= 0.15
     Davidson diagonalization with overlap

---- Real-time Memory Report at c_bands before calling an iterative solver
             0 MiB given to the printing process from OS
             0 MiB allocation reported by mallinfo(arena+hblkhd)
         22666 MiB available memory on the node where the printing process lives
------------------
     ethr =  5.63E-11,  avg # of iterations =  2.9

     negative rho (up, down):  7.925E-01 0.000E+00

     total cpu time spent up to now is      769.8 secs

     total energy              =   -4441.66107294 Ry
     estimated scf accuracy    <       0.00000019 Ry

     iteration # 42     ecut=    60.00 Ry     beta= 0.15
     Davidson diagonalization with overlap

---- Real-time Memory Report at c_bands before calling an iterative solver
             0 MiB given to the printing process from OS
             0 MiB allocation reported by mallinfo(arena+hblkhd)
         22667 MiB available memory on the node where the printing process lives
------------------
     ethr =  4.41E-11,  avg # of iterations =  2.0

     negative rho (up, down):  7.925E-01 0.000E+00

     total cpu time spent up to now is      787.1 secs

     total energy              =   -4441.66107295 Ry
     estimated scf accuracy    <       0.00000012 Ry

     iteration # 43     ecut=    60.00 Ry     beta= 0.15
     Davidson diagonalization with overlap

---- Real-time Memory Report at c_bands before calling an iterative solver
             0 MiB given to the printing process from OS
             0 MiB allocation reported by mallinfo(arena+hblkhd)
         22671 MiB available memory on the node where the printing process lives
------------------
     ethr =  2.85E-11,  avg # of iterations =  2.8

     negative rho (up, down):  7.925E-01 0.000E+00

     total cpu time spent up to now is      804.6 secs

     total energy              =   -4441.66107293 Ry
     estimated scf accuracy    <       0.00000007 Ry

     iteration # 44     ecut=    60.00 Ry     beta= 0.15
     Davidson diagonalization with overlap

---- Real-time Memory Report at c_bands before calling an iterative solver
             0 MiB given to the printing process from OS
             0 MiB allocation reported by mallinfo(arena+hblkhd)
         22672 MiB available memory on the node where the printing process lives
------------------
     ethr =  1.56E-11,  avg # of iterations =  3.0

     negative rho (up, down):  7.925E-01 0.000E+00

     total cpu time spent up to now is      822.3 secs

     total energy              =   -4441.66107292 Ry
     estimated scf accuracy    <       0.00000004 Ry

     iteration # 45     ecut=    60.00 Ry     beta= 0.15
     Davidson diagonalization with overlap

---- Real-time Memory Report at c_bands before calling an iterative solver
             0 MiB given to the printing process from OS
             0 MiB allocation reported by mallinfo(arena+hblkhd)
         22678 MiB available memory on the node where the printing process lives
------------------
     ethr =  9.72E-12,  avg # of iterations =  2.1

     negative rho (up, down):  7.925E-01 0.000E+00

     total cpu time spent up to now is      839.7 secs

     total energy              =   -4441.66107292 Ry
     estimated scf accuracy    <       0.00000003 Ry

     iteration # 46     ecut=    60.00 Ry     beta= 0.15
     Davidson diagonalization with overlap

---- Real-time Memory Report at c_bands before calling an iterative solver
             0 MiB given to the printing process from OS
             0 MiB allocation reported by mallinfo(arena+hblkhd)
         22683 MiB available memory on the node where the printing process lives
------------------
     ethr =  6.00E-12,  avg # of iterations =  1.7

     negative rho (up, down):  7.925E-01 0.000E+00

     total cpu time spent up to now is      856.3 secs

     total energy              =   -4441.66107293 Ry
     estimated scf accuracy    <       0.00000002 Ry

     iteration # 47     ecut=    60.00 Ry     beta= 0.15
     Davidson diagonalization with overlap

---- Real-time Memory Report at c_bands before calling an iterative solver
             0 MiB given to the printing process from OS
             0 MiB allocation reported by mallinfo(arena+hblkhd)
         22684 MiB available memory on the node where the printing process lives
------------------
     ethr =  4.34E-12,  avg # of iterations =  2.1

     negative rho (up, down):  7.925E-01 0.000E+00

     total cpu time spent up to now is      873.3 secs

     total energy              =   -4441.66107292 Ry
     estimated scf accuracy    <       0.00000001 Ry

     iteration # 48     ecut=    60.00 Ry     beta= 0.15
     Davidson diagonalization with overlap

---- Real-time Memory Report at c_bands before calling an iterative solver
             0 MiB given to the printing process from OS
             0 MiB allocation reported by mallinfo(arena+hblkhd)
         22689 MiB available memory on the node where the printing process lives
------------------
     ethr =  2.98E-12,  avg # of iterations =  4.0

     negative rho (up, down):  7.925E-01 0.000E+00

     total cpu time spent up to now is      891.7 secs

     End of self-consistent calculation

          k = 0.0000 0.0000 0.0000 ( 65197 PWs)   bands (ev):

   -92.7074 -92.6600 -92.5626 -92.5143 -92.4575 -92.4140 -92.3965 -92.2764
   -56.0608 -56.0464 -55.9194 -55.9081 -55.9021 -55.8949 -55.8624 -55.8313
   -55.8151 -55.8136 -55.8104 -55.7644 -55.7450 -55.7083 -55.6896 -55.6577
   -55.6496 -55.6031 -55.6022 -55.5992 -55.5908 -55.5515 -55.5268 -55.4414
   -31.2843 -31.2648 -31.1230 -31.0766 -31.0362 -30.9030 -30.8859 -30.6860
   -29.8547 -29.8114 -29.7854 -29.6769 -15.0876 -15.0396 -14.9614 -14.8326
   -14.6323 -14.5154 -14.2245 -14.2035 -14.1760 -14.1292 -14.0828 -14.0652
   -14.0612 -14.0404 -14.0239 -13.9825 -13.9591 -13.9368 -13.7830 -13.5949
   -13.5717 -13.5413 -13.5015 -13.4826 -13.4376 -13.4041 -13.3287 -13.2561
   -13.1292 -13.1160 -13.1072 -13.0812 -13.0652 -13.0599 -13.0083 -13.0013
   -12.9876 -12.9592 -12.9293 -12.9082 -12.8848 -12.8650 -12.8100 -12.7930
   -12.7617 -12.7550 -12.6341 -12.6182 -12.6042 -12.3489 -12.2027 -12.0174
   -11.9458 -11.8678 -11.7940 -11.7827 -11.7599 -11.7422 -11.6786 -11.6613
   -11.6268 -11.5977 -11.4855 -11.4059 -11.4025  -2.9468  -2.7155  -2.4862
    -2.3366  -2.2760  -2.1341  -1.8257  -1.8109  -1.7926  -1.7041  -1.6878
    -1.6198  -1.6031  -1.5629  -1.5190  -1.3374  -1.1107  -1.1061  -1.0752
    -0.9373  -0.9223  -0.8747  -0.8546  -0.8085  -0.7936  -0.7402  -0.7126
    -0.6383  -0.6269  -0.5532  -0.4212  -0.4090  -0.3778  -0.2981  -0.2766
    -0.2153  -0.1735  -0.1311  -0.0853  -0.0293  -0.0122   0.0538   0.1258
     0.1742   0.1991   0.2085   0.4680   0.4842   0.6634   0.7204   0.7830
     0.8359   0.9203   0.9315   0.9494   1.0179   1.0453   1.0785   1.1359
     1.2675   1.3247   1.3469   1.3755   1.3849   1.4443   1.5147   1.6265
     1.6469   1.6978   1.7079   1.7517   1.7745   1.7856   1.8365   1.9015
     1.9164   1.9431   1.9684   2.0219   2.1532   2.2386   2.2804   2.3020
     2.4336   2.4397   2.4628   2.4685   2.5062   2.5085   2.6205   2.6525
     2.6813   2.7005   2.7205   2.8011   2.9026   2.9393   2.9456   2.9512
     3.0188   3.0254   3.0467   3.0546   3.0634   3.0749   3.0842   3.0981
     3.1049   3.1145   3.1227   3.1297   3.1504   3.1716   3.1766   3.1889
     3.2101   3.3287   3.4130   4.0991   4.4227   4.7653   4.8651   5.0349
     5.8160   5.9541   5.9885   6.0080   6.3077   6.3546   6.4790   6.4891
     6.7700   7.0058   7.1032   7.3124   7.5810   7.6154   7.6502   7.6649
     7.6977   7.9151   7.9478   8.0513   8.1094   8.1662   8.4142   8.4595
     8.7188   8.8380   8.9080

     occupation numbers 
     1.0000   1.0000   1.0000   1.0000   1.0000   1.0000   1.0000   1.0000
     1.0000   1.0000   1.0000   1.0000   1.0000   1.0000   1.0000   1.0000
     1.0000   1.0000   1.0000   1.0000   1.0000   1.0000   1.0000   1.0000
     1.0000   1.0000   1.0000   1.0000   1.0000   1.0000   1.0000   1.0000
     1.0000   1.0000   1.0000   1.0000   1.0000   1.0000   1.0000   1.0000
     1.0000   1.0000   1.0000   1.0000   1.0000   1.0000   1.0000   1.0000
     1.0000   1.0000   1.0000   1.0000   1.0000   1.0000   1.0000   1.0000
     1.0000   1.0000   1.0000   1.0000   1.0000   1.0000   1.0000   1.0000
     1.0000   1.0000   1.0000   1.0000   1.0000   1.0000   1.0000   1.0000
     1.0000   1.0000   1.0000   1.0000   1.0000   1.0000   1.0000   1.0000
     1.0000   1.0000   1.0000   1.0000   1.0000   1.0000   1.0000   1.0000
     1.0000   1.0000   1.0000   1.0000   1.0000   1.0000   1.0000   1.0000
     1.0000   1.0000   1.0000   1.0000   1.0000   1.0000   1.0000   1.0000
     1.0000   1.0000   1.0000   1.0000   1.0000   1.0000   1.0000   1.0000
     1.0000   1.0000   1.0000   1.0000   1.0000   1.0000   1.0000   1.0000
     1.0000   1.0000   1.0000   1.0000   1.0000   1.0000   1.0000   1.0000
     1.0000   1.0000   1.0000   1.0000   1.0000   1.0000   1.0000   1.0000
     1.0000   1.0000   1.0000   1.0000   1.0000   1.0000   1.0000   1.0000
     1.0000   1.0000   1.0000   1.0000   1.0000   1.0000   1.0000   1.0000
     1.0000   1.0000   1.0000   1.0000   1.0000   1.0000   0.9999   0.9999
     0.9999   0.9998   0.9998   0.9998   0.9997   0.9996   0.9996   0.9994
     0.9988   0.9985   0.9983   0.9981   0.9980   0.9973   0.9963   0.9940
     0.9935   0.9920   0.9917   0.9901   0.9891   0.9887   0.9862   0.9824
     0.9814   0.9796   0.9776   0.9731   0.9584   0.9459   0.9387   0.9347
     0.9060   0.9045   0.8985   0.8970   0.8866   0.8859   0.8506   0.8392
     0.8286   0.8213   0.8134   0.7796   0.7324   0.7142   0.7109   0.7081
     0.6727   0.6692   0.6576   0.6533   0.6485   0.6421   0.6370   0.6292
     0.6254   0.6200   0.6153   0.6113   0.5995   0.5873   0.5844   0.5773
     0.5649   0.4949   0.4452   0.1237   0.0508   0.0159   0.0109   0.0054
     0.0001   0.0000   0.0000   0.0000   0.0000   0.0000   0.0000   0.0000
     0.0000   0.0000   0.0000   0.0000   0.0000   0.0000   0.0000   0.0000
     0.0000   0.0000   0.0000   0.0000   0.0000   0.0000   0.0000   0.0000
     0.0000   0.0000   0.0000

          k = 0.0000 0.2500 0.0000 ( 65257 PWs)   bands (ev):

   -92.7074 -92.6600 -92.5626 -92.5143 -92.4575 -92.4140 -92.3965 -92.2764
   -56.0608 -56.0464 -55.9194 -55.9081 -55.9021 -55.8949 -55.8624 -55.8313
   -55.8151 -55.8136 -55.8104 -55.7644 -55.7450 -55.7083 -55.6896 -55.6577
   -55.6496 -55.6031 -55.6022 -55.5992 -55.5908 -55.5515 -55.5268 -55.4414
   -31.2841 -31.2647 -31.1233 -31.0764 -31.0363 -30.9031 -30.8858 -30.6862
   -29.8541 -29.8111 -29.7860 -29.6772 -15.0512 -15.0129 -14.9367 -14.8028
   -14.6764 -14.5032 -14.3700 -14.1908 -14.1528 -14.1350 -14.1047 -14.0471
   -14.0389 -14.0235 -14.0032 -13.9616 -13.9483 -13.8551 -13.8140 -13.6535
   -13.6203 -13.5834 -13.5450 -13.4791 -13.4579 -13.4073 -13.3487 -13.3141
   -13.2428 -13.1747 -13.1538 -13.1153 -13.1000 -13.0445 -12.9916 -12.9673
   -12.9406 -12.9095 -12.8904 -12.8726 -12.8476 -12.8158 -12.8029 -12.7830
   -12.6978 -12.6753 -12.6274 -12.5487 -12.4899 -12.4102 -12.2538 -12.0740
   -12.0109 -11.8333 -11.7908 -11.7626 -11.7344 -11.7178 -11.6705 -11.6592
   -11.6365 -11.6027 -11.4997 -11.4476 -11.4371  -2.8114  -2.5912  -2.4531
    -2.2704  -2.2271  -2.0643  -1.8421  -1.7605  -1.7474  -1.6840  -1.5864
    -1.5708  -1.5370  -1.5093  -1.4654  -1.2686  -1.1407  -1.1275  -1.1008
    -1.0492  -1.0397  -0.9368  -0.9076  -0.8477  -0.8207  -0.7832  -0.7178
    -0.6913  -0.6581  -0.6291  -0.6118  -0.5792  -0.5066  -0.4548  -0.3697
    -0.2741  -0.2372  -0.1781  -0.0963  -0.0558   0.0143   0.0566   0.1121
     0.1268   0.1535   0.2115   0.5179   0.6040   0.6429   0.7223   0.7690
     0.7935   0.9040   0.9225   1.0191   1.0448   1.0713   1.1858   1.2831
     1.3007   1.3281   1.3497   1.3692   1.4292   1.4575   1.4853   1.5314
     1.5675   1.6022   1.6901   1.7269   1.7501   1.8084   1.8585   1.8951
     1.9250   1.9544   1.9663   2.0734   2.1915   2.2633   2.2864   2.3540
     2.3980   2.4340   2.4394   2.4486   2.4627   2.5131   2.5484   2.6341
     2.6850   2.7001   2.8601   2.8804   2.9146   2.9393   2.9533   2.9625
     2.9677   2.9766   3.0070   3.0091   3.0267   3.0370   3.0412   3.0617
     3.0727   3.0806   3.1013   3.1119   3.1180   3.1530   3.1693   3.2282
     3.5937   3.6345   3.8754   4.2895   4.4162   4.7125   5.0176   5.0588
     5.6414   5.8276   5.9574   6.0113   6.0814   6.1020   6.1782   6.5960
     6.8919   7.0984   7.1414   7.3272   7.4818   7.4958   7.6415   7.6929
     7.8527   7.9488   8.0606   8.1895   8.2568   8.3661   8.3987   8.4140
     8.5611   8.8133   8.9471

     occupation numbers 
     1.0000   1.0000   1.0000   1.0000   1.0000   1.0000   1.0000   1.0000
     1.0000   1.0000   1.0000   1.0000   1.0000   1.0000   1.0000   1.0000
     1.0000   1.0000   1.0000   1.0000   1.0000   1.0000   1.0000   1.0000
     1.0000   1.0000   1.0000   1.0000   1.0000   1.0000   1.0000   1.0000
     1.0000   1.0000   1.0000   1.0000   1.0000   1.0000   1.0000   1.0000
     1.0000   1.0000   1.0000   1.0000   1.0000   1.0000   1.0000   1.0000
     1.0000   1.0000   1.0000   1.0000   1.0000   1.0000   1.0000   1.0000
     1.0000   1.0000   1.0000   1.0000   1.0000   1.0000   1.0000   1.0000
     1.0000   1.0000   1.0000   1.0000   1.0000   1.0000   1.0000   1.0000
     1.0000   1.0000   1.0000   1.0000   1.0000   1.0000   1.0000   1.0000
     1.0000   1.0000   1.0000   1.0000   1.0000   1.0000   1.0000   1.0000
     1.0000   1.0000   1.0000   1.0000   1.0000   1.0000   1.0000   1.0000
     1.0000   1.0000   1.0000   1.0000   1.0000   1.0000   1.0000   1.0000
     1.0000   1.0000   1.0000   1.0000   1.0000   1.0000   1.0000   1.0000
     1.0000   1.0000   1.0000   1.0000   1.0000   1.0000   1.0000   1.0000
     1.0000   1.0000   1.0000   1.0000   1.0000   1.0000   1.0000   1.0000
     1.0000   1.0000   1.0000   1.0000   1.0000   1.0000   1.0000   1.0000
     1.0000   1.0000   1.0000   1.0000   1.0000   1.0000   1.0000   1.0000
     1.0000   1.0000   1.0000   1.0000   1.0000   1.0000   1.0000   1.0000
     1.0000   1.0000   1.0000   1.0000   1.0000   1.0000   0.9999   0.9999
     0.9999   0.9998   0.9998   0.9997   0.9996   0.9996   0.9992   0.9988
     0.9986   0.9985   0.9983   0.9981   0.9975   0.9972   0.9968   0.9960
     0.9954   0.9946   0.9923   0.9910   0.9901   0.9876   0.9850   0.9828
     0.9808   0.9787   0.9778   0.9679   0.9531   0.9417   0.9376   0.9243
     0.9145   0.9059   0.9045   0.9022   0.8985   0.8846   0.8741   0.8458
     0.8272   0.8214   0.7527   0.7431   0.7265   0.7141   0.7071   0.7023
     0.6996   0.6950   0.6790   0.6779   0.6685   0.6629   0.6606   0.6494
     0.6434   0.6389   0.6274   0.6214   0.6180   0.5980   0.5886   0.5543
     0.3423   0.3203   0.2048   0.0750   0.0518   0.0193   0.0059   0.0049
     0.0003   0.0001   0.0000   0.0000   0.0000   0.0000   0.0000   0.0000
     0.0000   0.0000   0.0000   0.0000   0.0000   0.0000   0.0000   0.0000
     0.0000   0.0000   0.0000   0.0000   0.0000   0.0000   0.0000   0.0000
     0.0000   0.0000   0.0000

          k = 0.0000-0.5000 0.0000 ( 65180 PWs)   bands (ev):

   -92.7074 -92.6600 -92.5626 -92.5143 -92.4575 -92.4140 -92.3965 -92.2764
   -56.0608 -56.0464 -55.9194 -55.9081 -55.9021 -55.8949 -55.8624 -55.8313
   -55.8151 -55.8136 -55.8104 -55.7644 -55.7450 -55.7083 -55.6896 -55.6577
   -55.6496 -55.6031 -55.6022 -55.5992 -55.5908 -55.5515 -55.5268 -55.4414
   -31.2839 -31.2646 -31.1235 -31.0763 -31.0365 -30.9033 -30.8856 -30.6864
   -29.8535 -29.8107 -29.7866 -29.6776 -15.0139 -14.9662 -14.9106 -14.7838
   -14.6993 -14.5646 -14.4027 -14.2880 -14.1637 -14.0879 -14.0468 -14.0405
   -13.9913 -13.9771 -13.9609 -13.9259 -13.8944 -13.8816 -13.8471 -13.7981
   -13.7619 -13.5896 -13.5301 -13.4779 -13.4629 -13.3986 -13.3643 -13.3167
   -13.2896 -13.2702 -13.2242 -13.1163 -13.1015 -13.0333 -12.9751 -12.9650
   -12.9358 -12.9282 -12.8883 -12.8443 -12.8111 -12.7774 -12.7120 -12.6777
   -12.6617 -12.6583 -12.6265 -12.5211 -12.4150 -12.3288 -12.2955 -12.1752
   -12.1287 -11.7877 -11.7849 -11.7575 -11.7202 -11.6858 -11.6747 -11.6325
   -11.6287 -11.5843 -11.5213 -11.5081 -11.4941  -2.5958  -2.5385  -2.3878
    -2.3163  -2.0307  -1.9506  -1.8221  -1.6869  -1.6417  -1.6289  -1.5512
    -1.5198  -1.4367  -1.4022  -1.3220  -1.2844  -1.2470  -1.2197  -1.1570
    -1.1266  -1.1012  -1.0748  -1.0393  -1.0073  -0.9747  -0.8636  -0.8201
    -0.7825  -0.7764  -0.6921  -0.6631  -0.6422  -0.5944  -0.5008  -0.4364
    -0.3428  -0.2719  -0.2126  -0.1814  -0.0362   0.0323   0.0463   0.0823
     0.2002   0.2661   0.3854   0.4560   0.4677   0.5907   0.6626   0.7429
     0.8710   0.9742   1.0080   1.0486   1.0633   1.0936   1.1088   1.1429
     1.1592   1.1747   1.2807   1.3417   1.3802   1.4087   1.6810   1.6972
     1.7134   1.8032   1.8295   1.8652   1.8802   1.9054   1.9261   1.9292
     1.9541   2.0009   2.0277   2.0601   2.0631   2.0926   2.1455   2.2401
     2.2716   2.4334   2.4406   2.4541   2.5978   2.6098   2.6251   2.6654
     2.6755   2.6822   2.7280   2.7389   2.7930   2.8134   2.8919   2.9137
     2.9774   2.9814   3.0074   3.0108   3.0240   3.0272   3.0323   3.0392
     3.0414   3.0535   3.0715   3.0729   3.1385   3.1421   3.1587   3.2135
     4.1191   4.1323   4.1787   4.2637   4.7323   4.8992   5.0201   5.1816
     5.4108   5.4594   5.5811   5.7434   6.0350   6.0401   6.3689   6.5066
     6.8496   6.9519   7.2168   7.3100   7.4270   7.4937   7.7484   7.7999
     7.9044   8.0733   8.1175   8.2622   8.2942   8.4793   8.4906   8.6671
     8.8075   8.8519   8.8557

     occupation numbers 
     1.0000   1.0000   1.0000   1.0000   1.0000   1.0000   1.0000   1.0000
     1.0000   1.0000   1.0000   1.0000   1.0000   1.0000   1.0000   1.0000
     1.0000   1.0000   1.0000   1.0000   1.0000   1.0000   1.0000   1.0000
     1.0000   1.0000   1.0000   1.0000   1.0000   1.0000   1.0000   1.0000
     1.0000   1.0000   1.0000   1.0000   1.0000   1.0000   1.0000   1.0000
     1.0000   1.0000   1.0000   1.0000   1.0000   1.0000   1.0000   1.0000
     1.0000   1.0000   1.0000   1.0000   1.0000   1.0000   1.0000   1.0000
     1.0000   1.0000   1.0000   1.0000   1.0000   1.0000   1.0000   1.0000
     1.0000   1.0000   1.0000   1.0000   1.0000   1.0000   1.0000   1.0000
     1.0000   1.0000   1.0000   1.0000   1.0000   1.0000   1.0000   1.0000
     1.0000   1.0000   1.0000   1.0000   1.0000   1.0000   1.0000   1.0000
     1.0000   1.0000   1.0000   1.0000   1.0000   1.0000   1.0000   1.0000
     1.0000   1.0000   1.0000   1.0000   1.0000   1.0000   1.0000   1.0000
     1.0000   1.0000   1.0000   1.0000   1.0000   1.0000   1.0000   1.0000
     1.0000   1.0000   1.0000   1.0000   1.0000   1.0000   1.0000   1.0000
     1.0000   1.0000   1.0000   1.0000   1.0000   1.0000   1.0000   1.0000
     1.0000   1.0000   1.0000   1.0000   1.0000   1.0000   1.0000   1.0000
     1.0000   1.0000   1.0000   1.0000   1.0000   1.0000   1.0000   1.0000
     1.0000   1.0000   1.0000   1.0000   1.0000   1.0000   1.0000   1.0000
     1.0000   1.0000   1.0000   1.0000   1.0000   1.0000   1.0000   0.9999
     0.9999   0.9998   0.9997   0.9996   0.9996   0.9995   0.9995   0.9994
     0.9993   0.9993   0.9988   0.9983   0.9980   0.9977   0.9925   0.9920
     0.9915   0.9879   0.9866   0.9846   0.9837   0.9822   0.9808   0.9806
     0.9787   0.9749   0.9725   0.9693   0.9690   0.9658   0.9594   0.9456
     0.9403   0.9060   0.9042   0.9008   0.8583   0.8542   0.8490   0.8345
     0.8308   0.8282   0.8104   0.8060   0.7831   0.7741   0.7376   0.7269
     0.6946   0.6925   0.6788   0.6770   0.6699   0.6682   0.6655   0.6618
     0.6606   0.6539   0.6440   0.6432   0.6063   0.6043   0.5948   0.5629
     0.1177   0.1139   0.1012   0.0806   0.0180   0.0095   0.0058   0.0029
     0.0010   0.0007   0.0004   0.0002   0.0000   0.0000   0.0000   0.0000
     0.0000   0.0000   0.0000   0.0000   0.0000   0.0000   0.0000   0.0000
     0.0000   0.0000   0.0000   0.0000   0.0000   0.0000   0.0000   0.0000
     0.0000   0.0000   0.0000

          k = 0.2500 0.2500 0.0000 ( 65198 PWs)   bands (ev):

   -92.7074 -92.6600 -92.5626 -92.5143 -92.4575 -92.4140 -92.3965 -92.2764
   -56.0608 -56.0464 -55.9194 -55.9081 -55.9021 -55.8949 -55.8624 -55.8313
   -55.8151 -55.8136 -55.8104 -55.7644 -55.7450 -55.7083 -55.6896 -55.6577
   -55.6496 -55.6031 -55.6022 -55.5992 -55.5908 -55.5515 -55.5268 -55.4414
   -31.2824 -31.2664 -31.1229 -31.0763 -31.0367 -30.9030 -30.8859 -30.6863
   -29.8531 -29.8120 -29.7856 -29.6777 -15.0222 -14.9781 -14.9085 -14.7927
   -14.6683 -14.5453 -14.4758 -14.2666 -14.1139 -14.1010 -14.0637 -14.0351
   -14.0112 -13.9806 -13.9622 -13.9458 -13.9116 -13.8451 -13.8273 -13.6690
   -13.6540 -13.6221 -13.6059 -13.5228 -13.5116 -13.4382 -13.4314 -13.3022
   -13.2633 -13.2344 -13.1487 -13.1082 -13.0579 -13.0259 -13.0132 -12.9789
   -12.9529 -12.9234 -12.8900 -12.8371 -12.8008 -12.7755 -12.7502 -12.7444
   -12.7201 -12.6648 -12.6237 -12.4932 -12.4587 -12.3765 -12.2829 -12.1049
   -12.0601 -11.8056 -11.7742 -11.7630 -11.7560 -11.6936 -11.6585 -11.6521
   -11.6168 -11.6088 -11.5165 -11.4759 -11.4584  -2.6729  -2.4654  -2.3474
    -2.2507  -2.1321  -2.0677  -1.8666  -1.7249  -1.7062  -1.6720  -1.5809
    -1.5475  -1.4531  -1.4248  -1.3749  -1.2449  -1.1961  -1.1239  -1.1014
    -1.0770  -1.0305  -1.0093  -0.9860  -0.9431  -0.9281  -0.8369  -0.7874
    -0.7152  -0.6704  -0.6421  -0.5937  -0.5800  -0.5151  -0.4643  -0.3947
    -0.3697  -0.2734  -0.2337  -0.1958  -0.1644  -0.1104  -0.0368   0.0019
     0.0406   0.1022   0.1387   0.4065   0.5609   0.5885   0.6528   0.6877
     0.7517   0.7946   0.8632   0.9008   1.1738   1.2359   1.3100   1.3332
     1.3886   1.4132   1.4510   1.4883   1.5041   1.5319   1.5781   1.5870
     1.6049   1.6519   1.6850   1.7248   1.7809   1.8177   1.8346   1.8607
     1.8970   1.9528   1.9799   2.1107   2.1715   2.2067   2.2289   2.3030
     2.3590   2.3889   2.4247   2.4338   2.4514   2.4604   2.4667   2.5767
     2.6232   2.7130   2.8706   2.8890   2.8930   2.9097   2.9251   2.9388
     2.9504   2.9563   2.9690   2.9822   2.9983   3.0119   3.0186   3.0304
     3.0560   3.0641   3.0730   3.1042   3.4047   3.4966   3.5468   3.6113
     3.6231   3.8587   3.9473   4.2986   4.5031   4.7183   4.9749   5.1662
     5.6431   5.7019   5.7955   5.8337   5.8917   6.1417   6.1587   6.2083
     6.8925   7.0239   7.1533   7.2797   7.5490   7.6022   7.7087   7.8620
     7.8788   8.0256   8.1671   8.2319   8.3319   8.3769   8.4400   8.4503
     8.5650   8.7370   8.8983

     occupation numbers 
     1.0000   1.0000   1.0000   1.0000   1.0000   1.0000   1.0000   1.0000
     1.0000   1.0000   1.0000   1.0000   1.0000   1.0000   1.0000   1.0000
     1.0000   1.0000   1.0000   1.0000   1.0000   1.0000   1.0000   1.0000
     1.0000   1.0000   1.0000   1.0000   1.0000   1.0000   1.0000   1.0000
     1.0000   1.0000   1.0000   1.0000   1.0000   1.0000   1.0000   1.0000
     1.0000   1.0000   1.0000   1.0000   1.0000   1.0000   1.0000   1.0000
     1.0000   1.0000   1.0000   1.0000   1.0000   1.0000   1.0000   1.0000
     1.0000   1.0000   1.0000   1.0000   1.0000   1.0000   1.0000   1.0000
     1.0000   1.0000   1.0000   1.0000   1.0000   1.0000   1.0000   1.0000
     1.0000   1.0000   1.0000   1.0000   1.0000   1.0000   1.0000   1.0000
     1.0000   1.0000   1.0000   1.0000   1.0000   1.0000   1.0000   1.0000
     1.0000   1.0000   1.0000   1.0000   1.0000   1.0000   1.0000   1.0000
     1.0000   1.0000   1.0000   1.0000   1.0000   1.0000   1.0000   1.0000
     1.0000   1.0000   1.0000   1.0000   1.0000   1.0000   1.0000   1.0000
     1.0000   1.0000   1.0000   1.0000   1.0000   1.0000   1.0000   1.0000
     1.0000   1.0000   1.0000   1.0000   1.0000   1.0000   1.0000   1.0000
     1.0000   1.0000   1.0000   1.0000   1.0000   1.0000   1.0000   1.0000
     1.0000   1.0000   1.0000   1.0000   1.0000   1.0000   1.0000   1.0000
     1.0000   1.0000   1.0000   1.0000   1.0000   1.0000   1.0000   1.0000
     1.0000   1.0000   1.0000   1.0000   1.0000   1.0000   1.0000   1.0000
     0.9999   0.9999   0.9999   0.9998   0.9993   0.9990   0.9986   0.9984
     0.9979   0.9977   0.9972   0.9967   0.9965   0.9960   0.9952   0.9950
     0.9946   0.9934   0.9924   0.9911   0.9889   0.9872   0.9863   0.9849
     0.9827   0.9788   0.9767   0.9637   0.9560   0.9509   0.9474   0.9345
     0.9232   0.9166   0.9082   0.9059   0.9015   0.8991   0.8975   0.8652
     0.8496   0.8163   0.7478   0.7390   0.7370   0.7289   0.7213   0.7144
     0.7085   0.7055   0.6990   0.6921   0.6836   0.6764   0.6729   0.6665
     0.6526   0.6481   0.6432   0.6258   0.4500   0.3967   0.3682   0.3327
     0.3264   0.2120   0.1758   0.0731   0.0395   0.0189   0.0070   0.0031
     0.0003   0.0002   0.0001   0.0001   0.0001   0.0000   0.0000   0.0000
     0.0000   0.0000   0.0000   0.0000   0.0000   0.0000   0.0000   0.0000
     0.0000   0.0000   0.0000   0.0000   0.0000   0.0000   0.0000   0.0000
     0.0000   0.0000   0.0000

          k = 0.2500-0.5000 0.0000 ( 65138 PWs)   bands (ev):

   -92.7074 -92.6600 -92.5626 -92.5143 -92.4575 -92.4140 -92.3965 -92.2764
   -56.0608 -56.0464 -55.9194 -55.9081 -55.9021 -55.8949 -55.8624 -55.8313
   -55.8151 -55.8136 -55.8104 -55.7644 -55.7450 -55.7083 -55.6896 -55.6577
   -55.6496 -55.6031 -55.6022 -55.5992 -55.5908 -55.5515 -55.5268 -55.4414
   -31.2822 -31.2663 -31.1231 -31.0761 -31.0368 -30.9032 -30.8858 -30.6865
   -29.8525 -29.8117 -29.7862 -29.6780 -14.9830 -14.9392 -14.8676 -14.7551
   -14.7214 -14.6052 -14.5078 -14.3840 -14.0789 -14.0232 -13.9989 -13.9755
   -13.9617 -13.9590 -13.9485 -13.9094 -13.8827 -13.8598 -13.8255 -13.7942
   -13.7482 -13.6714 -13.6238 -13.5454 -13.5342 -13.4749 -13.4465 -13.3583
   -13.3213 -13.2133 -13.1485 -13.1276 -13.0421 -12.9993 -12.9953 -12.9803
   -12.9498 -12.9180 -12.8882 -12.8474 -12.7964 -12.7856 -12.7087 -12.6983
   -12.6630 -12.6369 -12.6241 -12.5277 -12.3818 -12.3262 -12.2588 -12.1672
   -12.1370 -11.7814 -11.7692 -11.7583 -11.7311 -11.6998 -11.6710 -11.6302
   -11.6025 -11.5805 -11.5345 -11.5093 -11.4983  -2.4533  -2.3904  -2.2616
    -2.1850  -2.0514  -1.9703  -1.8465  -1.6974  -1.6395  -1.6196  -1.5589
    -1.5460  -1.4473  -1.3814  -1.2971  -1.2449  -1.2357  -1.1741  -1.1295
    -1.1033  -1.0971  -1.0477  -1.0106  -0.9765  -0.9380  -0.9236  -0.8807
    -0.8513  -0.8054  -0.7775  -0.7095  -0.6008  -0.5708  -0.4882  -0.4217
    -0.3639  -0.3263  -0.3126  -0.2399  -0.1000  -0.0906   0.0448   0.0499
     0.0600   0.1033   0.1413   0.1716   0.2070   0.2715   0.5639   0.6550
     0.7087   0.7609   1.0410   1.0513   1.1445   1.1717   1.3341   1.3739
     1.4082   1.4324   1.4447   1.4675   1.5333   1.5860   1.6186   1.6881
     1.7885   1.8198   1.8404   1.8509   1.8872   1.9026   1.9068   1.9525
     1.9632   1.9826   2.0204   2.0304   2.0550   2.0879   2.1454   2.1944
     2.2723   2.3997   2.4360   2.4562   2.5495   2.5668   2.5845   2.6209
     2.6394   2.6665   2.6865   2.7007   2.7241   2.8194   2.8717   2.8893
     2.9001   2.9070   2.9270   2.9406   2.9599   2.9676   3.0106   3.0179
     3.0276   3.0343   3.0444   3.0537   3.5700   3.5958   3.7361   3.7892
     4.1205   4.1802   4.1874   4.3169   4.7519   4.9208   5.0560   5.1441
     5.2990   5.4323   5.6053   5.6627   5.7654   5.7918   6.3942   6.4693
     6.4960   6.6423   7.3407   7.4156   7.5679   7.6998   7.7603   7.8148
     7.8778   8.0367   8.3407   8.4277   8.4590   8.4894   8.5372   8.5615
     8.7107   8.7703   8.7857

     occupation numbers 
     1.0000   1.0000   1.0000   1.0000   1.0000   1.0000   1.0000   1.0000
     1.0000   1.0000   1.0000   1.0000   1.0000   1.0000   1.0000   1.0000
     1.0000   1.0000   1.0000   1.0000   1.0000   1.0000   1.0000   1.0000
     1.0000   1.0000   1.0000   1.0000   1.0000   1.0000   1.0000   1.0000
     1.0000   1.0000   1.0000   1.0000   1.0000   1.0000   1.0000   1.0000
     1.0000   1.0000   1.0000   1.0000   1.0000   1.0000   1.0000   1.0000
     1.0000   1.0000   1.0000   1.0000   1.0000   1.0000   1.0000   1.0000
     1.0000   1.0000   1.0000   1.0000   1.0000   1.0000   1.0000   1.0000
     1.0000   1.0000   1.0000   1.0000   1.0000   1.0000   1.0000   1.0000
     1.0000   1.0000   1.0000   1.0000   1.0000   1.0000   1.0000   1.0000
     1.0000   1.0000   1.0000   1.0000   1.0000   1.0000   1.0000   1.0000
     1.0000   1.0000   1.0000   1.0000   1.0000   1.0000   1.0000   1.0000
     1.0000   1.0000   1.0000   1.0000   1.0000   1.0000   1.0000   1.0000
     1.0000   1.0000   1.0000   1.0000   1.0000   1.0000   1.0000   1.0000
     1.0000   1.0000   1.0000   1.0000   1.0000   1.0000   1.0000   1.0000
     1.0000   1.0000   1.0000   1.0000   1.0000   1.0000   1.0000   1.0000
     1.0000   1.0000   1.0000   1.0000   1.0000   1.0000   1.0000   1.0000
     1.0000   1.0000   1.0000   1.0000   1.0000   1.0000   1.0000   1.0000
     1.0000   1.0000   1.0000   1.0000   1.0000   1.0000   1.0000   1.0000
     1.0000   1.0000   1.0000   1.0000   1.0000   1.0000   1.0000   1.0000
     0.9999   0.9999   0.9996   0.9996   0.9994   0.9993   0.9984   0.9981
     0.9977   0.9975   0.9973   0.9970   0.9960   0.9950   0.9942   0.9923
     0.9885   0.9871   0.9860   0.9854   0.9833   0.9824   0.9821   0.9789
     0.9780   0.9765   0.9732   0.9723   0.9699   0.9664   0.9595   0.9527
     0.9401   0.9142   0.9054   0.9002   0.8738   0.8684   0.8626   0.8504
     0.8440   0.8341   0.8266   0.8212   0.8119   0.7714   0.7473   0.7388
     0.7336   0.7302   0.7203   0.7135   0.7037   0.6997   0.6771   0.6732
     0.6680   0.6644   0.6589   0.6538   0.3553   0.3412   0.2684   0.2431
     0.1173   0.1008   0.0989   0.0694   0.0167   0.0087   0.0050   0.0034
     0.0016   0.0009   0.0003   0.0003   0.0001   0.0001   0.0000   0.0000
     0.0000   0.0000   0.0000   0.0000   0.0000   0.0000   0.0000   0.0000
     0.0000   0.0000   0.0000   0.0000   0.0000   0.0000   0.0000   0.0000
     0.0000   0.0000   0.0000

          k =-0.5000-0.5000 0.0000 ( 65132 PWs)   bands (ev):

   -92.7074 -92.6600 -92.5626 -92.5143 -92.4575 -92.4140 -92.3965 -92.2764
   -56.0608 -56.0464 -55.9194 -55.9081 -55.9021 -55.8949 -55.8624 -55.8313
   -55.8151 -55.8136 -55.8104 -55.7644 -55.7450 -55.7083 -55.6896 -55.6577
   -55.6496 -55.6031 -55.6022 -55.5992 -55.5908 -55.5515 -55.5268 -55.4414
   -31.2800 -31.2684 -31.1227 -31.0760 -31.0372 -30.9030 -30.8859 -30.6867
   -29.8515 -29.8128 -29.7858 -29.6784 -14.9356 -14.9118 -14.7956 -14.7802
   -14.6835 -14.6524 -14.6141 -14.4826 -13.9887 -13.9784 -13.9613 -13.9435
   -13.9250 -13.9064 -13.8794 -13.8655 -13.8539 -13.8354 -13.8304 -13.8133
   -13.7382 -13.7326 -13.6945 -13.6687 -13.6177 -13.5618 -13.5097 -13.3983
   -13.3636 -13.1641 -13.1248 -13.0557 -13.0317 -12.9962 -12.9905 -12.9813
   -12.9736 -12.9611 -12.8452 -12.8271 -12.7995 -12.7881 -12.7528 -12.7244
   -12.6440 -12.6104 -12.6026 -12.5441 -12.3527 -12.3225 -12.2195 -12.1575
   -12.1524 -11.7778 -11.7656 -11.7477 -11.7308 -11.6959 -11.6784 -11.6431
   -11.5825 -11.5628 -11.5572 -11.5072 -11.5040  -2.2267  -2.1542  -2.1473
    -2.0734  -2.0349  -1.9567  -1.8886  -1.7619  -1.6474  -1.6182  -1.5741
    -1.5214  -1.4493  -1.4339  -1.3646  -1.3216  -1.2036  -1.1718  -1.1264
    -1.1043  -1.0956  -1.0339  -0.9862  -0.9688  -0.9559  -0.8986  -0.8589
    -0.8381  -0.7279  -0.6718  -0.6252  -0.5771  -0.5467  -0.5238  -0.4955
    -0.4602  -0.4163  -0.4052  -0.3252  -0.2601  -0.2165  -0.1871  -0.1167
    -0.0537  -0.0494   0.0123   0.0448   0.0560   0.0973   0.5427   0.5769
     0.6507   0.6760   1.0629   1.0776   1.1165   1.1538   1.4216   1.4384
     1.4467   1.4935   1.6130   1.7061   1.7342   1.7704   1.7989   1.8134
     1.8237   1.8544   1.8675   1.8833   1.8911   1.9429   1.9453   1.9734
     1.9865   2.0078   2.0243   2.0613   2.0878   2.1038   2.1312   2.1669
     2.2280   2.2970   2.4329   2.4548   2.5615   2.5939   2.6157   2.6318
     2.6444   2.6741   2.6771   2.6954   2.7067   2.7231   2.7449   2.7559
     2.8212   2.8246   2.8463   2.8594   2.8758   2.8977   2.8996   2.9059
     3.0168   3.0223   3.0387   3.0523   4.0026   4.0404   4.0449   4.0793
     4.3128   4.3869   4.4122   4.6515   4.7749   4.8574   4.9869   5.0787
     5.0863   5.2030   5.2920   5.4685   5.8561   5.8876   5.9544   6.0247
     6.7416   6.8936   6.9739   7.0995   7.8802   7.9237   7.9576   7.9658
     7.9827   8.0188   8.0853   8.2663   8.5088   8.5839   8.6162   8.6413
     8.6632   8.6807   8.7398

     occupation numbers 
     1.0000   1.0000   1.0000   1.0000   1.0000   1.0000   1.0000   1.0000
     1.0000   1.0000   1.0000   1.0000   1.0000   1.0000   1.0000   1.0000
     1.0000   1.0000   1.0000   1.0000   1.0000   1.0000   1.0000   1.0000
     1.0000   1.0000   1.0000   1.0000   1.0000   1.0000   1.0000   1.0000
     1.0000   1.0000   1.0000   1.0000   1.0000   1.0000   1.0000   1.0000
     1.0000   1.0000   1.0000   1.0000   1.0000   1.0000   1.0000   1.0000
     1.0000   1.0000   1.0000   1.0000   1.0000   1.0000   1.0000   1.0000
     1.0000   1.0000   1.0000   1.0000   1.0000   1.0000   1.0000   1.0000
     1.0000   1.0000   1.0000   1.0000   1.0000   1.0000   1.0000   1.0000
     1.0000   1.0000   1.0000   1.0000   1.0000   1.0000   1.0000   1.0000
     1.0000   1.0000   1.0000   1.0000   1.0000   1.0000   1.0000   1.0000
     1.0000   1.0000   1.0000   1.0000   1.0000   1.0000   1.0000   1.0000
     1.0000   1.0000   1.0000   1.0000   1.0000   1.0000   1.0000   1.0000
     1.0000   1.0000   1.0000   1.0000   1.0000   1.0000   1.0000   1.0000
     1.0000   1.0000   1.0000   1.0000   1.0000   1.0000   1.0000   1.0000
     1.0000   1.0000   1.0000   1.0000   1.0000   1.0000   1.0000   1.0000
     1.0000   1.0000   1.0000   1.0000   1.0000   1.0000   1.0000   1.0000
     1.0000   1.0000   1.0000   1.0000   1.0000   1.0000   1.0000   1.0000
     1.0000   1.0000   1.0000   1.0000   1.0000   1.0000   1.0000   1.0000
     1.0000   1.0000   1.0000   1.0000   1.0000   1.0000   1.0000   1.0000
     1.0000   1.0000   0.9996   0.9996   0.9995   0.9994   0.9976   0.9974
     0.9973   0.9967   0.9944   0.9917   0.9907   0.9893   0.9881   0.9874
     0.9869   0.9852   0.9845   0.9836   0.9831   0.9796   0.9794   0.9772
     0.9762   0.9743   0.9728   0.9692   0.9664   0.9646   0.9613   0.9566
     0.9476   0.9357   0.9062   0.9006   0.8700   0.8596   0.8522   0.8466
     0.8422   0.8313   0.8302   0.8232   0.8188   0.8123   0.8035   0.7990
     0.7706   0.7691   0.7592   0.7531   0.7453   0.7348   0.7338   0.7307
     0.6738   0.6709   0.6620   0.6546   0.1555   0.1424   0.1409   0.1298
     0.0702   0.0566   0.0525   0.0240   0.0154   0.0112   0.0067   0.0045
     0.0044   0.0026   0.0017   0.0007   0.0001   0.0001   0.0000   0.0000
     0.0000   0.0000   0.0000   0.0000   0.0000   0.0000   0.0000   0.0000
     0.0000   0.0000   0.0000   0.0000   0.0000   0.0000   0.0000   0.0000
     0.0000   0.0000   0.0000

          k = 0.2500 0.0000 0.0000 ( 65257 PWs)   bands (ev):

   -92.7074 -92.6600 -92.5626 -92.5143 -92.4575 -92.4140 -92.3965 -92.2764
   -56.0608 -56.0464 -55.9194 -55.9081 -55.9021 -55.8949 -55.8624 -55.8313
   -55.8151 -55.8136 -55.8104 -55.7644 -55.7450 -55.7083 -55.6896 -55.6577
   -55.6496 -55.6031 -55.6022 -55.5992 -55.5908 -55.5515 -55.5268 -55.4414
   -31.2826 -31.2665 -31.1227 -31.0764 -31.0366 -30.9028 -30.8861 -30.6862
   -29.8537 -29.8124 -29.7850 -29.6773 -15.0550 -15.0083 -14.9420 -14.7961
[...]
     0.3549   0.3251   0.2038   0.0791   0.0462   0.0215   0.0058   0.0048
     0.0003   0.0001   0.0000   0.0000   0.0000   0.0000   0.0000   0.0000
     0.0000   0.0000   0.0000   0.0000   0.0000   0.0000   0.0000   0.0000
     0.0000   0.0000   0.0000   0.0000   0.0000   0.0000   0.0000   0.0000
     0.0000   0.0000   0.0000

          k =-0.5000 0.0000 0.0000 ( 65180 PWs)   bands (ev):

   -92.7074 -92.6600 -92.5626 -92.5143 -92.4575 -92.4140 -92.3965 -92.2764
   -56.0608 -56.0464 -55.9194 -55.9081 -55.9021 -55.8949 -55.8624 -55.8313
   -55.8151 -55.8136 -55.8104 -55.7644 -55.7450 -55.7083 -55.6896 -55.6577
   -55.6496 -55.6031 -55.6022 -55.5992 -55.5908 -55.5515 -55.5268 -55.4414
   -31.2804 -31.2687 -31.1223 -31.0763 -31.0369 -30.9027 -30.8862 -30.6863
   -29.8527 -29.8134 -29.7846 -29.6777 -15.0208 -14.9653 -14.9058 -14.7933
   -14.6945 -14.5495 -14.4036 -14.2547 -14.1385 -14.1218 -14.1146 -14.0515
   -13.9981 -13.9651 -13.9613 -13.9135 -13.8977 -13.8856 -13.8418 -13.8146
   -13.7159 -13.5615 -13.5106 -13.4979 -13.4865 -13.4176 -13.3702 -13.3133
   -13.2742 -13.2505 -13.2323 -13.0608 -13.0529 -13.0400 -13.0212 -13.0084
   -12.9574 -12.9401 -12.9288 -12.8434 -12.8213 -12.7734 -12.6646 -12.6521
   -12.6468 -12.6387 -12.6279 -12.5473 -12.4238 -12.3327 -12.3030 -12.1701
   -12.1287 -11.7848 -11.7631 -11.7565 -11.7420 -11.7238 -11.6826 -11.6196
   -11.6018 -11.5690 -11.5241 -11.5152 -11.4995  -2.5866  -2.5485  -2.3854
    -2.3464  -2.0310  -1.9536  -1.8099  -1.6918  -1.6516  -1.6046  -1.5588
    -1.5348  -1.4110  -1.3673  -1.3498  -1.2685  -1.2341  -1.2155  -1.1875
    -1.1266  -1.1038  -1.0591  -1.0320  -0.9947  -0.9059  -0.8601  -0.8093
    -0.7777  -0.7574  -0.7222  -0.6776  -0.6534  -0.6147  -0.5009  -0.4463
    -0.3611  -0.2994  -0.1538  -0.1093  -0.0630   0.0071   0.0357   0.0619
     0.1910   0.2233   0.2703   0.4337   0.5337   0.5819   0.6844   0.7318
     0.8559   0.8674   0.9978   1.0260   1.0815   1.1197   1.1472   1.1571
     1.2066   1.2281   1.2961   1.3444   1.3903   1.4085   1.6975   1.7107
     1.7260   1.7583   1.8523   1.8669   1.8809   1.8877   1.9207   1.9304
     1.9665   1.9915   2.0132   2.0714   2.0874   2.1409   2.1602   2.2187
     2.3300   2.4182   2.4354   2.4653   2.4958   2.5105   2.5958   2.6201
     2.6534   2.7200   2.7285   2.7376   2.7692   2.8305   2.8754   2.9352
     2.9481   2.9945   2.9993   3.0032   3.0109   3.0284   3.0393   3.0514
     3.0579   3.0770   3.0811   3.1027   3.1228   3.1276   3.2559   3.2628
     4.0612   4.1297   4.1892   4.3073   4.7859   4.8601   5.0396   5.0637
     5.4819   5.5082   5.6064   5.6497   6.0281   6.0542   6.4055   6.4783
     6.7949   7.0019   7.2780   7.2953   7.3929   7.4573   7.7709   7.7860
     7.8832   8.1010   8.1644   8.2321   8.3169   8.4749   8.5142   8.6243
     8.7583   8.8207   8.8943

     occupation numbers 
     1.0000   1.0000   1.0000   1.0000   1.0000   1.0000   1.0000   1.0000
     1.0000   1.0000   1.0000   1.0000   1.0000   1.0000   1.0000   1.0000
     1.0000   1.0000   1.0000   1.0000   1.0000   1.0000   1.0000   1.0000
     1.0000   1.0000   1.0000   1.0000   1.0000   1.0000   1.0000   1.0000
     1.0000   1.0000   1.0000   1.0000   1.0000   1.0000   1.0000   1.0000
     1.0000   1.0000   1.0000   1.0000   1.0000   1.0000   1.0000   1.0000
     1.0000   1.0000   1.0000   1.0000   1.0000   1.0000   1.0000   1.0000
     1.0000   1.0000   1.0000   1.0000   1.0000   1.0000   1.0000   1.0000
     1.0000   1.0000   1.0000   1.0000   1.0000   1.0000   1.0000   1.0000
     1.0000   1.0000   1.0000   1.0000   1.0000   1.0000   1.0000   1.0000
     1.0000   1.0000   1.0000   1.0000   1.0000   1.0000   1.0000   1.0000
     1.0000   1.0000   1.0000   1.0000   1.0000   1.0000   1.0000   1.0000
     1.0000   1.0000   1.0000   1.0000   1.0000   1.0000   1.0000   1.0000
     1.0000   1.0000   1.0000   1.0000   1.0000   1.0000   1.0000   1.0000
     1.0000   1.0000   1.0000   1.0000   1.0000   1.0000   1.0000   1.0000
     1.0000   1.0000   1.0000   1.0000   1.0000   1.0000   1.0000   1.0000
     1.0000   1.0000   1.0000   1.0000   1.0000   1.0000   1.0000   1.0000
     1.0000   1.0000   1.0000   1.0000   1.0000   1.0000   1.0000   1.0000
     1.0000   1.0000   1.0000   1.0000   1.0000   1.0000   1.0000   1.0000
     1.0000   1.0000   1.0000   1.0000   1.0000   1.0000   1.0000   0.9999
     0.9999   0.9999   0.9997   0.9997   0.9996   0.9995   0.9994   0.9993
     0.9992   0.9991   0.9987   0.9983   0.9979   0.9977   0.9920   0.9916
     0.9910   0.9898   0.9854   0.9845   0.9837   0.9833   0.9811   0.9805
     0.9778   0.9757   0.9738   0.9681   0.9664   0.9600   0.9575   0.9490
     0.9293   0.9098   0.9055   0.8978   0.8895   0.8854   0.8589   0.8507
     0.8389   0.8136   0.8102   0.8065   0.7933   0.7664   0.7455   0.7162
     0.7097   0.6857   0.6831   0.6811   0.6770   0.6676   0.6617   0.6551
     0.6515   0.6409   0.6387   0.6266   0.6153   0.6125   0.5380   0.5339
     0.1356   0.1147   0.0984   0.0714   0.0148   0.0111   0.0053   0.0048
     0.0007   0.0006   0.0003   0.0003   0.0000   0.0000   0.0000   0.0000
     0.0000   0.0000   0.0000   0.0000   0.0000   0.0000   0.0000   0.0000
     0.0000   0.0000   0.0000   0.0000   0.0000   0.0000   0.0000   0.0000
     0.0000   0.0000   0.0000

          k =-0.2500 0.2500 0.0000 ( 65198 PWs)   bands (ev):

   -92.7074 -92.6600 -92.5626 -92.5143 -92.4575 -92.4140 -92.3965 -92.2764
   -56.0608 -56.0464 -55.9194 -55.9081 -55.9021 -55.8949 -55.8624 -55.8313
   -55.8151 -55.8136 -55.8104 -55.7644 -55.7450 -55.7083 -55.6896 -55.6577
   -55.6496 -55.6031 -55.6022 -55.5992 -55.5908 -55.5515 -55.5268 -55.4414
   -31.2824 -31.2664 -31.1229 -31.0763 -31.0367 -30.9030 -30.8859 -30.6863
   -29.8531 -29.8120 -29.7856 -29.6777 -15.0235 -14.9769 -14.9073 -14.7911
   -14.6738 -14.5511 -14.4674 -14.2569 -14.1205 -14.0922 -14.0768 -14.0300
   -14.0054 -13.9825 -13.9676 -13.9493 -13.9206 -13.8405 -13.8278 -13.6784
   -13.6505 -13.6184 -13.6008 -13.5216 -13.5029 -13.4415 -13.4301 -13.3096
   -13.2611 -13.2286 -13.1529 -13.1100 -13.0466 -13.0215 -13.0027 -12.9891
   -12.9525 -12.9328 -12.8824 -12.8561 -12.8047 -12.7823 -12.7759 -12.7427
   -12.6988 -12.6486 -12.6296 -12.4636 -12.4484 -12.4031 -12.2886 -12.1100
   -12.0541 -11.8048 -11.7834 -11.7562 -11.7440 -11.7032 -11.6683 -11.6454
   -11.6237 -11.6012 -11.5162 -11.4712 -11.4618  -2.6713  -2.4643  -2.3434
    -2.2521  -2.1365  -2.0704  -1.8640  -1.7219  -1.7037  -1.6701  -1.5816
    -1.5464  -1.4530  -1.4182  -1.3920  -1.2510  -1.1943  -1.1246  -1.1036
    -1.0958  -1.0335  -1.0163  -0.9756  -0.9472  -0.9067  -0.8434  -0.7954
    -0.7253  -0.6628  -0.6388  -0.5883  -0.5596  -0.5136  -0.4534  -0.3953
    -0.3666  -0.2594  -0.2364  -0.2112  -0.1688  -0.1144  -0.0413  -0.0002
     0.0504   0.1062   0.1376   0.3861   0.5647   0.5955   0.6411   0.6958
     0.7505   0.8005   0.8675   0.8995   1.1815   1.2865   1.3265   1.3606
     1.3699   1.4078   1.4231   1.4697   1.5009   1.5132   1.5392   1.5878
     1.6044   1.6426   1.6691   1.7104   1.7934   1.8095   1.8347   1.8623
     1.8952   1.9391   1.9824   2.0970   2.2056   2.2302   2.2765   2.2980
     2.3577   2.4001   2.4268   2.4351   2.4512   2.4631   2.4751   2.5766
     2.6221   2.7122   2.8789   2.8851   2.9000   2.9084   2.9201   2.9337
     2.9420   2.9597   2.9703   2.9816   2.9933   3.0036   3.0131   3.0214
     3.0561   3.0656   3.0723   3.1063   3.3981   3.4788   3.5486   3.6137
     3.6345   3.8430   3.9559   4.2978   4.5003   4.7198   4.9847   5.1662
     5.6446   5.6999   5.7998   5.8288   5.8923   6.1442   6.1697   6.1947
     6.8900   7.0197   7.1765   7.2596   7.5629   7.6098   7.6694   7.8716
     7.9023   8.0200   8.1517   8.2238   8.3365   8.3790   8.4419   8.4793
     8.5718   8.7067   8.8998

     occupation numbers 
     1.0000   1.0000   1.0000   1.0000   1.0000   1.0000   1.0000   1.0000
     1.0000   1.0000   1.0000   1.0000   1.0000   1.0000   1.0000   1.0000
     1.0000   1.0000   1.0000   1.0000   1.0000   1.0000   1.0000   1.0000
     1.0000   1.0000   1.0000   1.0000   1.0000   1.0000   1.0000   1.0000
     1.0000   1.0000   1.0000   1.0000   1.0000   1.0000   1.0000   1.0000
     1.0000   1.0000   1.0000   1.0000   1.0000   1.0000   1.0000   1.0000
     1.0000   1.0000   1.0000   1.0000   1.0000   1.0000   1.0000   1.0000
     1.0000   1.0000   1.0000   1.0000   1.0000   1.0000   1.0000   1.0000
     1.0000   1.0000   1.0000   1.0000   1.0000   1.0000   1.0000   1.0000
     1.0000   1.0000   1.0000   1.0000   1.0000   1.0000   1.0000   1.0000
     1.0000   1.0000   1.0000   1.0000   1.0000   1.0000   1.0000   1.0000
     1.0000   1.0000   1.0000   1.0000   1.0000   1.0000   1.0000   1.0000
     1.0000   1.0000   1.0000   1.0000   1.0000   1.0000   1.0000   1.0000
     1.0000   1.0000   1.0000   1.0000   1.0000   1.0000   1.0000   1.0000
     1.0000   1.0000   1.0000   1.0000   1.0000   1.0000   1.0000   1.0000
     1.0000   1.0000   1.0000   1.0000   1.0000   1.0000   1.0000   1.0000
     1.0000   1.0000   1.0000   1.0000   1.0000   1.0000   1.0000   1.0000
     1.0000   1.0000   1.0000   1.0000   1.0000   1.0000   1.0000   1.0000
     1.0000   1.0000   1.0000   1.0000   1.0000   1.0000   1.0000   1.0000
     1.0000   1.0000   1.0000   1.0000   1.0000   1.0000   1.0000   1.0000
     0.9999   0.9999   0.9999   0.9998   0.9993   0.9987   0.9985   0.9982
     0.9981   0.9977   0.9976   0.9970   0.9965   0.9964   0.9959   0.9949
     0.9946   0.9936   0.9929   0.9916   0.9883   0.9876   0.9863   0.9848
     0.9828   0.9798   0.9765   0.9653   0.9510   0.9472   0.9394   0.9355
     0.9235   0.9141   0.9077   0.9056   0.9015   0.8984   0.8952   0.8652
     0.8500   0.8167   0.7438   0.7409   0.7337   0.7296   0.7237   0.7170
     0.7128   0.7038   0.6983   0.6924   0.6863   0.6809   0.6758   0.6713
     0.6525   0.6473   0.6436   0.6246   0.4539   0.4069   0.3672   0.3315
     0.3203   0.2188   0.1726   0.0733   0.0399   0.0188   0.0067   0.0031
     0.0003   0.0002   0.0001   0.0001   0.0001   0.0000   0.0000   0.0000
     0.0000   0.0000   0.0000   0.0000   0.0000   0.0000   0.0000   0.0000
     0.0000   0.0000   0.0000   0.0000   0.0000   0.0000   0.0000   0.0000
     0.0000   0.0000   0.0000

          k =-0.5000 0.2500 0.0000 ( 65138 PWs)   bands (ev):

   -92.7074 -92.6600 -92.5626 -92.5143 -92.4575 -92.4140 -92.3965 -92.2764
   -56.0608 -56.0464 -55.9194 -55.9081 -55.9021 -55.8949 -55.8624 -55.8313
   -55.8151 -55.8136 -55.8104 -55.7644 -55.7450 -55.7083 -55.6896 -55.6577
   -55.6496 -55.6031 -55.6022 -55.5992 -55.5908 -55.5515 -55.5268 -55.4414
   -31.2802 -31.2686 -31.1225 -31.0761 -31.0371 -30.9029 -30.8861 -30.6865
   -29.8521 -29.8131 -29.7852 -29.6781 -14.9875 -14.9392 -14.8627 -14.7612
   -14.7212 -14.5970 -14.5073 -14.3745 -14.0708 -14.0403 -14.0284 -13.9841
   -13.9640 -13.9573 -13.9368 -13.9000 -13.8812 -13.8664 -13.8282 -13.8146
   -13.7090 -13.6436 -13.5943 -13.5865 -13.5461 -13.4755 -13.4642 -13.3527
   -13.3032 -13.2066 -13.1706 -13.0741 -13.0340 -13.0223 -13.0070 -12.9836
   -12.9544 -12.9449 -12.8965 -12.8501 -12.7991 -12.7831 -12.7077 -12.6895
   -12.6364 -12.6265 -12.6179 -12.5454 -12.3855 -12.3279 -12.2626 -12.1641
   -12.1372 -11.7776 -11.7648 -11.7508 -11.7387 -11.7174 -11.6874 -11.6064
   -11.5979 -11.5748 -11.5385 -11.5109 -11.5019  -2.4438  -2.4024  -2.2550
    -2.2130  -2.0509  -1.9724  -1.8340  -1.6977  -1.6392  -1.6128  -1.5748
    -1.5375  -1.4561  -1.3407  -1.2835  -1.2607  -1.2332  -1.1555  -1.1300
    -1.1053  -1.0879  -1.0735  -1.0127  -0.9787  -0.9438  -0.9099  -0.8808
    -0.8218  -0.7947  -0.7537  -0.7164  -0.6109  -0.5882  -0.4823  -0.4385
    -0.3992  -0.3291  -0.2652  -0.2319  -0.1267  -0.0930  -0.0279   0.0153
     0.0808   0.1155   0.1446   0.1770   0.2266   0.2654   0.6026   0.6456
     0.6997   0.7248   1.0104   1.0781   1.1471   1.1781   1.3492   1.3823
     1.4206   1.4311   1.4490   1.4665   1.5365   1.5847   1.6227   1.6618
     1.7688   1.8153   1.8420   1.8518   1.8840   1.9155   1.9325   1.9443
     1.9600   1.9856   2.0274   2.0462   2.0810   2.1074   2.1393   2.1949
     2.3216   2.4100   2.4316   2.4467   2.4597   2.5090   2.5478   2.6110
     2.6490   2.6545   2.6964   2.7261   2.7500   2.8301   2.8741   2.8883
     2.8941   2.9155   2.9350   2.9471   2.9630   2.9759   3.0005   3.0133
     3.0215   3.0308   3.0380   3.0504   3.5817   3.6164   3.7697   3.7884
     4.0705   4.1423   4.1994   4.3946   4.7802   4.8777   5.0442   5.0770
     5.4108   5.4284   5.5881   5.6314   5.7407   5.8120   6.3914   6.4854
     6.5148   6.6145   7.3563   7.3948   7.5749   7.7116   7.7642   7.7977
     7.8874   8.0220   8.3145   8.4337   8.4640   8.5217   8.5621   8.5865
     8.6665   8.7492   8.7550

     occupation numbers 
     1.0000   1.0000   1.0000   1.0000   1.0000   1.0000   1.0000   1.0000
     1.0000   1.0000   1.0000   1.0000   1.0000   1.0000   1.0000   1.0000
     1.0000   1.0000   1.0000   1.0000   1.0000   1.0000   1.0000   1.0000
     1.0000   1.0000   1.0000   1.0000   1.0000   1.0000   1.0000   1.0000
     1.0000   1.0000   1.0000   1.0000   1.0000   1.0000   1.0000   1.0000
     1.0000   1.0000   1.0000   1.0000   1.0000   1.0000   1.0000   1.0000
     1.0000   1.0000   1.0000   1.0000   1.0000   1.0000   1.0000   1.0000
     1.0000   1.0000   1.0000   1.0000   1.0000   1.0000   1.0000   1.0000
     1.0000   1.0000   1.0000   1.0000   1.0000   1.0000   1.0000   1.0000
     1.0000   1.0000   1.0000   1.0000   1.0000   1.0000   1.0000   1.0000
     1.0000   1.0000   1.0000   1.0000   1.0000   1.0000   1.0000   1.0000
     1.0000   1.0000   1.0000   1.0000   1.0000   1.0000   1.0000   1.0000
     1.0000   1.0000   1.0000   1.0000   1.0000   1.0000   1.0000   1.0000
     1.0000   1.0000   1.0000   1.0000   1.0000   1.0000   1.0000   1.0000
     1.0000   1.0000   1.0000   1.0000   1.0000   1.0000   1.0000   1.0000
     1.0000   1.0000   1.0000   1.0000   1.0000   1.0000   1.0000   1.0000
     1.0000   1.0000   1.0000   1.0000   1.0000   1.0000   1.0000   1.0000
     1.0000   1.0000   1.0000   1.0000   1.0000   1.0000   1.0000   1.0000
     1.0000   1.0000   1.0000   1.0000   1.0000   1.0000   1.0000   1.0000
     1.0000   1.0000   1.0000   1.0000   1.0000   1.0000   1.0000   1.0000
     1.0000   0.9999   0.9997   0.9996   0.9994   0.9993   0.9983   0.9980
     0.9976   0.9975   0.9973   0.9970   0.9960   0.9950   0.9941   0.9931
     0.9894   0.9873   0.9859   0.9854   0.9835   0.9815   0.9803   0.9795
     0.9783   0.9762   0.9725   0.9707   0.9671   0.9641   0.9602   0.9526
     0.9309   0.9117   0.9065   0.9027   0.8993   0.8858   0.8743   0.8538
     0.8405   0.8385   0.8228   0.8111   0.8014   0.7666   0.7461   0.7393
     0.7365   0.7260   0.7163   0.7102   0.7021   0.6954   0.6825   0.6757
     0.6713   0.6663   0.6624   0.6556   0.3489   0.3300   0.2522   0.2434
     0.1326   0.1111   0.0958   0.0553   0.0151   0.0104   0.0052   0.0045
     0.0010   0.0009   0.0004   0.0003   0.0002   0.0001   0.0000   0.0000
     0.0000   0.0000   0.0000   0.0000   0.0000   0.0000   0.0000   0.0000
     0.0000   0.0000   0.0000   0.0000   0.0000   0.0000   0.0000   0.0000
     0.0000   0.0000   0.0000

     the Fermi energy is     3.3202 ev

!    total energy              =   -4441.66107292 Ry
     estimated scf accuracy    <          5.1E-09 Ry
     smearing contrib. (-TS)   =      -1.15490726 Ry
     internal energy E=F+TS    =   -4440.50616566 Ry

     The total energy is F=E-TS. E is the sum of the following terms:
     one-electron contribution =  -20803.14977683 Ry
     hartree contribution      =   10533.45935259 Ry
     xc contribution           =    -694.18020029 Ry
     ewald contribution        =    6799.53471816 Ry
     one-center paw contrib.   =    -276.17025929 Ry
      -> PAW hartree energy AE =      25.16106771 Ry
      -> PAW hartree energy PS =     -25.04497473 Ry
      -> PAW xc energy AE      =     -16.51726527 Ry
      -> PAW xc energy PS      =       6.87670532 Ry
      -> total E_H with PAW    =   10533.57544557 Ry
      -> total E_XC with PAW   =    -703.82076023 Ry

     convergence has been achieved in  48 iterations

     Writing all to output data dir /bsuhome/zayahcortright/scratch/pwscf.save/
 
     init_run     :      7.81s CPU      8.60s WALL (       1 calls)
     electrons    :    799.69s CPU    882.75s WALL (       1 calls)

     Called by init_run:
     wfcinit      :      6.28s CPU      6.51s WALL (       1 calls)
     wfcinit:atom :      0.05s CPU      0.07s WALL (       5 calls)
     wfcinit:wfcr :      5.94s CPU      6.08s WALL (       5 calls)
     potinit      :      0.18s CPU      0.20s WALL (       1 calls)
     hinit0       :      0.44s CPU      0.74s WALL (       1 calls)

     Called by electrons:
     c_bands      :    645.86s CPU    658.20s WALL (      48 calls)
     sum_band     :    115.75s CPU    153.92s WALL (      48 calls)
     v_of_rho     :      5.38s CPU      5.78s WALL (      49 calls)
     v_h          :      0.48s CPU      0.48s WALL (      49 calls)
     v_xc         :      4.90s CPU      5.30s WALL (      49 calls)
     newd         :     18.42s CPU     50.13s WALL (      49 calls)
     PAW_pot      :      1.64s CPU      1.67s WALL (      49 calls)
     mix_rho      :     12.34s CPU     12.78s WALL (      48 calls)

     Called by c_bands:
     init_us_2    :      6.65s CPU      6.76s WALL (     485 calls)
     init_us_2:cp :      6.65s CPU      6.76s WALL (     485 calls)
     cegterg      :    601.05s CPU    612.93s WALL (     240 calls)

     Called by sum_band:
     sum_band:wei :      0.36s CPU      0.36s WALL (      48 calls)
     sum_band:loo :     88.74s CPU     89.49s WALL (      48 calls)
     sum_band:buf :      1.34s CPU      1.41s WALL (     240 calls)
     sum_band:ini :      2.85s CPU      2.85s WALL (     240 calls)
     sum_band:cal :     18.21s CPU     18.28s WALL (     240 calls)
     sum_band:bec :      0.55s CPU      0.57s WALL (     240 calls)
     addusdens    :     17.97s CPU     55.29s WALL (      48 calls)
                                        0.00s GPU  (      48 calls)
     addusd:skk   :      0.31s CPU      2.40s WALL (     192 calls)
                                        0.00s GPU  (     192 calls)

     Called by *egterg:
     cdiaghg      :     57.53s CPU     57.83s WALL (    1267 calls)
     cegterg:over :     43.69s CPU     43.89s WALL (    1027 calls)
     cegterg:upda :     46.96s CPU     47.88s WALL (    1027 calls)
     cegterg:last :     67.36s CPU     67.65s WALL (     437 calls)
     cdiaghg:chol :      3.26s CPU      3.28s WALL (    1267 calls)
     cdiaghg:inve :      3.38s CPU      3.40s WALL (    1267 calls)
     cdiaghg:para :      7.52s CPU      7.58s WALL (    2534 calls)
     h_psi        :    316.02s CPU    320.91s WALL (    1272 calls)
     s_psi        :     43.30s CPU     43.43s WALL (    1272 calls)
     g_psi        :      2.07s CPU      2.08s WALL (    1027 calls)

     Called by h_psi:
     h_psi:calbec :     44.10s CPU     44.31s WALL (    1272 calls)
     vloc_psi     :    225.28s CPU    227.44s WALL (    1272 calls)
     add_vuspsi   :     41.55s CPU     41.78s WALL (    1272 calls)

     General routines
     calbec       :     62.30s CPU     62.58s WALL (    1512 calls)
     fft          :      6.74s CPU      6.80s WALL (     635 calls)
     ffts         :      4.64s CPU      4.68s WALL (    5168 calls)
     fftw         :    179.80s CPU    181.25s WALL (  325756 calls)
     interpolate  :      0.41s CPU      0.42s WALL (      49 calls)
 
     Parallel routines

     PAW routines
     PAW_pot      :      1.64s CPU      1.67s WALL (      49 calls)
 
     PWSCF        :  13m30.09s CPU  14m56.77s WALL

 
   This run was terminated on:  15:14: 6  21Jun2024            

=------------------------------------------------------------------------------=
   JOB DONE.
=------------------------------------------------------------------------------=
