
     Program PWSCF v.7.2 starts on 21Jun2024 at 14:54:10 

     This program is part of the open-source Quantum ESPRESSO suite
     for quantum simulation of materials; please cite
         "P. Giannozzi et al., J. Phys.:Condens. Matter 21 395502 (2009);
         "P. Giannozzi et al., J. Phys.:Condens. Matter 29 465901 (2017);
         "P. Giannozzi et al., J. Chem. Phys. 152 154105 (2020);
          URL http://www.quantum-espresso.org", 
     in publications or presentations arising from this work. More details at
     http://www.quantum-espresso.org/quote

     Parallel version (MPI & OpenMP), running on      48 processor cores
     Number of MPI processes:                48
     Threads/MPI process:                     1

     MPI processes distributed on     1 nodes
     60575 MiB available memory on the printing compute node when the environment starts
 
     Reading input from espresso.pwi
Warning: card &CELL ignored
Warning: card / ignored
Warning: card &FCP ignored
Warning: card / ignored
Warning: card &RISM ignored
Warning: card / ignored

     Current dimensions of program PWSCF are:
     Max number of different atomic species (ntypx) = 10
     Max number of k-points (npk) =  40000
     Max angular momentum in pseudopotentials (lmaxx) =  4
     file O.pbe-n-kjpaw_psl.0.1.UPF: wavefunction(s)  2P renormalized
     signal trapping enabled: kill the code with -SIGUSR1 to stop cleanly the simulation 
 
     K-points division:     npool     =       2
     R & G space division:  proc/nbgrp/npool/nimage =      24
     Subspace diagonalization in iterative solution of the eigenvalue problem:
     one sub-group per band group will be used
     scalapack distributed-memory algorithm (size of sub-group:  3*  3 procs)

 
     Parallelization info
     --------------------
     sticks:   dense  smooth     PW     G-vecs:    dense   smooth      PW
     Min         350     175     47                61430    21716    3036
     Max         351     177     48                61449    21727    3041
     Sum        8421    4205   1137              1474595   521381   72913
 
     Using Slab Decomposition
 


     bravais-lattice index     =            0
     lattice parameter (alat)  =      14.8599  a.u.
     unit-cell volume          =    8305.1283 (a.u.)^3
     number of atoms/cell      =           49
     number of atomic types    =            3
     number of electrons       =       430.00
     number of Kohn-Sham states=          258
     kinetic-energy cutoff     =      60.0000  Ry
     charge density cutoff     =     480.0000  Ry
     scf convergence threshold =      1.0E-08
     mixing beta               =       0.1500
     number of iterations used =            8  local-TF  mixing
     Exchange-correlation= SLA  PW   PBE  PBE
                           (   1   4   3   4   0   0   0)

     celldm(1)=  14.859904  celldm(2)=   0.000000  celldm(3)=   0.000000
     celldm(4)=   0.000000  celldm(5)=   0.000000  celldm(6)=   0.000000

     crystal axes: (cart. coord. in units of alat)
               a(1) = (   1.000000   0.000000   0.000000 )  
               a(2) = (   0.000000   1.000000   0.000000 )  
               a(3) = (   0.000000   0.000000   2.531036 )  

     reciprocal axes: (cart. coord. in units 2 pi/alat)
               b(1) = (  1.000000  0.000000  0.000000 )  
               b(2) = (  0.000000  1.000000  0.000000 )  
               b(3) = (  0.000000  0.000000  0.395095 )  


     PseudoPot. # 1 for Sr read from file:
     /bsuhome/zayahcortright/q-e/pseudo/Sr_pbe_v1.uspp.F.UPF
     MD5 check sum: 6b418c05fbe9db5448babca5e47b7a5b
     Pseudo is Ultrasoft + core correction, Zval = 10.0
     Generated by new atomic code, or converted to UPF format
     Using radial grid of  883 points,  6 beta functions with: 
                l(1) =   0
                l(2) =   0
                l(3) =   1
                l(4) =   1
                l(5) =   2
                l(6) =   2
     Q(r) pseudized with  6 coefficients,  rinner =    1.400   1.400   1.400
                                                       1.400   1.400

     PseudoPot. # 2 for O  read from file:
     /bsuhome/zayahcortright/q-e/pseudo/O.pbe-n-kjpaw_psl.0.1.UPF
     MD5 check sum: 0234752ac141de4415c5fc33072bef88
     Pseudo is Projector augmented-wave + core cor, Zval =  6.0
     Generated using "atomic" code by A. Dal Corso  v.5.0.99 svn rev. 10869
     Shape of augmentation charge: BESSEL
     Using radial grid of 1095 points,  4 beta functions with: 
                l(1) =   0
                l(2) =   0
                l(3) =   1
                l(4) =   1
     Q(r) pseudized with 0 coefficients 


     PseudoPot. # 3 for Co read from file:
     /bsuhome/zayahcortright/q-e/pseudo/Co_pbe_v1.2.uspp.F.UPF
     MD5 check sum: 5f91765df6ddd3222702df6e7b74a16d
     Pseudo is Ultrasoft + core correction, Zval = 17.0
     Generated by new atomic code, or converted to UPF format
     Using radial grid of  863 points,  6 beta functions with: 
                l(1) =   0
                l(2) =   0
                l(3) =   1
                l(4) =   1
                l(5) =   2
                l(6) =   2
     Q(r) pseudized with  8 coefficients,  rinner =    1.200   1.200   1.200
                                                       1.200   1.200

     atomic species   valence    mass     pseudopotential
        Sr            10.00    87.62000     Sr( 1.00)
        O              6.00    15.99900     O ( 1.00)
        Co            17.00    58.93319     Co( 1.00)

     No symmetry found


                                    s                        frac. trans.

      isym =  1     identity                                     

 cryst.   s( 1) = (     1          0          0      )
                  (     0          1          0      )
                  (     0          0          1      )

 cart.    s( 1) = (  1.0000000  0.0000000  0.0000000 )
                  (  0.0000000  1.0000000  0.0000000 )
                  (  0.0000000  0.0000000  1.0000000 )


   Cartesian axes

     site n.     atom                  positions (alat units)
         1           Sr  tau(   1) = (   0.2508693   0.7491307   1.7574407  )
         2           O   tau(   2) = (   0.4985141   0.5014859   1.7715967  )
         3           Sr  tau(   3) = (   0.7482398   0.7454518   1.7648669  )
         4           Sr  tau(   4) = (   0.7441748   0.2558252   1.7667843  )
         5           Sr  tau(   5) = (   0.2508693   0.7491307   1.2696799  )
         6           Sr  tau(   6) = (   0.2508693   0.7491307   0.7632319  )
         7           Co  tau(   7) = (   0.4998914   0.5001086   1.0164559  )
         8           Co  tau(   8) = (   0.4936915   0.5063085   1.5135603  )
         9           O   tau(   9) = (   0.4988895   0.7610401   1.0164559  )
        10           O   tau(  10) = (   0.2389599   0.5011105   1.0164559  )
        11           O   tau(  11) = (   0.0070918   0.7374880   1.0164559  )
        12           O   tau(  12) = (   0.0088340   0.7405089   1.5135603  )
        13           O   tau(  13) = (   0.5066944   0.7415376   1.5135603  )
        14           O   tau(  14) = (   0.2584624   0.4933056   1.5135603  )
        15           O   tau(  15) = (   0.4985141   0.5014859   0.7773880  )
        16           O   tau(  16) = (   0.4985141   0.5014859   1.2555238  )
        17           Sr  tau(  17) = (   0.7482398   0.7454518   0.7706582  )
        18           Sr  tau(  18) = (   0.7482398   0.7454518   1.2622536  )
        19           Sr  tau(  19) = (   0.7441748   0.2558252   0.7725755  )
        20           Sr  tau(  20) = (   0.7441748   0.2558252   1.2603363  )
        21           O   tau(  21) = (   0.7322655   0.0078049   1.5135603  )
        22           O   tau(  22) = (   0.7558175   0.4996027   1.5135603  )
        23           O   tau(  23) = (   0.5003973   0.2441825   1.5135603  )
        24           O   tau(  24) = (   0.7527966   0.4978604   1.0164559  )
        25           O   tau(  25) = (   0.5021396   0.2472034   1.0164559  )
        26           O   tau(  26) = (   0.7517679   0.0000000   1.0164559  )
        27           O   tau(  27) = (   0.0114961   0.4948124   1.7455321  )
        28           O   tau(  28) = (   0.0048226   0.0077944   1.7715967  )
        29           Sr  tau(  29) = (   0.2545482   0.2517602   1.7648669  )
        30           O   tau(  30) = (   0.5048017   0.0015068   1.7786929  )
        31           Co  tau(  31) = (   0.0056869   0.5006215   1.0164559  )
        32           Co  tau(  32) = (   0.0065315   0.4997770   1.5135603  )
        33           Co  tau(  33) = (   0.0061999   0.0064171   1.0164559  )
        34           Co  tau(  34) = (   0.0000000   0.0126169   1.5135603  )
        35           O   tau(  35) = (   0.0114961   0.4948124   1.2815885  )
        36           O   tau(  36) = (   0.0114961   0.4948124   0.7513233  )
        37           O   tau(  37) = (   0.0051979   0.2673486   1.0164559  )
        38           O   tau(  38) = (   0.0130029   0.2478461   1.5135603  )
        39           O   tau(  39) = (   0.0048226   0.0077944   0.7773880  )
        40           O   tau(  40) = (   0.0048226   0.0077944   1.2555238  )
        41           Sr  tau(  41) = (   0.2545482   0.2517602   0.7706582  )
        42           Sr  tau(  42) = (   0.2545482   0.2517602   1.2622536  )
        43           Co  tau(  43) = (   0.4989925   0.0073160   1.5135603  )
        44           Co  tau(  44) = (   0.4998370   0.0064714   1.0164559  )
        45           O   tau(  45) = (   0.5048017   0.0015068   0.7844841  )
        46           O   tau(  46) = (   0.5048017   0.0015068   1.2484277  )
        47           O   tau(  47) = (   0.2621260   0.0059111   1.5135603  )
        48           O   tau(  48) = (   0.2591051   0.0041689   1.0164559  )
        49           O   tau(  49) = (   0.0000000   0.4264937   2.1602013  )

   Crystallographic axes

     site n.     atom                  positions (cryst. coord.)
         1           Sr  tau(   1) = (  0.2508693  0.7491307  0.6943562  )
         2           O   tau(   2) = (  0.4985141  0.5014859  0.6999492  )
         3           Sr  tau(   3) = (  0.7482398  0.7454518  0.6972903  )
         4           Sr  tau(   4) = (  0.7441748  0.2558252  0.6980478  )
         5           Sr  tau(   5) = (  0.2508693  0.7491307  0.5016443  )
         6           Sr  tau(   6) = (  0.2508693  0.7491307  0.3015492  )
         7           Co  tau(   7) = (  0.4998914  0.5001086  0.4015968  )
         8           Co  tau(   8) = (  0.4936915  0.5063085  0.5980003  )
         9           O   tau(   9) = (  0.4988895  0.7610401  0.4015968  )
        10           O   tau(  10) = (  0.2389599  0.5011105  0.4015968  )
        11           O   tau(  11) = (  0.0070918  0.7374880  0.4015968  )
        12           O   tau(  12) = (  0.0088340  0.7405089  0.5980003  )
        13           O   tau(  13) = (  0.5066944  0.7415376  0.5980003  )
        14           O   tau(  14) = (  0.2584624  0.4933056  0.5980003  )
        15           O   tau(  15) = (  0.4985141  0.5014859  0.3071422  )
        16           O   tau(  16) = (  0.4985141  0.5014859  0.4960513  )
        17           Sr  tau(  17) = (  0.7482398  0.7454518  0.3044833  )
        18           Sr  tau(  18) = (  0.7482398  0.7454518  0.4987103  )
        19           Sr  tau(  19) = (  0.7441748  0.2558252  0.3052408  )
        20           Sr  tau(  20) = (  0.7441748  0.2558252  0.4979527  )
        21           O   tau(  21) = (  0.7322655  0.0078049  0.5980003  )
        22           O   tau(  22) = (  0.7558175  0.4996027  0.5980003  )
        23           O   tau(  23) = (  0.5003973  0.2441825  0.5980003  )
        24           O   tau(  24) = (  0.7527966  0.4978604  0.4015968  )
        25           O   tau(  25) = (  0.5021396  0.2472034  0.4015968  )
        26           O   tau(  26) = (  0.7517679  0.0000000  0.4015968  )
        27           O   tau(  27) = (  0.0114961  0.4948124  0.6896512  )
        28           O   tau(  28) = (  0.0048226  0.0077944  0.6999492  )
        29           Sr  tau(  29) = (  0.2545482  0.2517602  0.6972903  )
        30           O   tau(  30) = (  0.5048017  0.0015068  0.7027529  )
        31           Co  tau(  31) = (  0.0056869  0.5006215  0.4015968  )
        32           Co  tau(  32) = (  0.0065315  0.4997770  0.5980003  )
        33           Co  tau(  33) = (  0.0061999  0.0064171  0.4015968  )
        34           Co  tau(  34) = (  0.0000000  0.0126169  0.5980003  )
        35           O   tau(  35) = (  0.0114961  0.4948124  0.5063494  )
        36           O   tau(  36) = (  0.0114961  0.4948124  0.2968442  )
        37           O   tau(  37) = (  0.0051979  0.2673486  0.4015968  )
        38           O   tau(  38) = (  0.0130029  0.2478461  0.5980003  )
        39           O   tau(  39) = (  0.0048226  0.0077944  0.3071422  )
        40           O   tau(  40) = (  0.0048226  0.0077944  0.4960513  )
        41           Sr  tau(  41) = (  0.2545482  0.2517602  0.3044833  )
        42           Sr  tau(  42) = (  0.2545482  0.2517602  0.4987103  )
        43           Co  tau(  43) = (  0.4989925  0.0073160  0.5980003  )
        44           Co  tau(  44) = (  0.4998370  0.0064714  0.4015968  )
        45           O   tau(  45) = (  0.5048017  0.0015068  0.3099459  )
        46           O   tau(  46) = (  0.5048017  0.0015068  0.4932477  )
        47           O   tau(  47) = (  0.2621260  0.0059111  0.5980003  )
        48           O   tau(  48) = (  0.2591051  0.0041689  0.4015968  )
        49           O   tau(  49) = (  0.0000000  0.4264937  0.8534850  )

     number of k points=    10  Gaussian smearing, width (Ry)=  0.0700
                       cart. coord. in units 2pi/alat
        k(    1) = (   0.0000000   0.0000000   0.0000000), wk =   0.1250000
        k(    2) = (   0.0000000   0.2500000   0.0000000), wk =   0.2500000
        k(    3) = (   0.0000000  -0.5000000   0.0000000), wk =   0.1250000
        k(    4) = (   0.2500000   0.2500000   0.0000000), wk =   0.2500000
        k(    5) = (   0.2500000  -0.5000000   0.0000000), wk =   0.2500000
        k(    6) = (  -0.5000000  -0.5000000   0.0000000), wk =   0.1250000
        k(    7) = (   0.2500000   0.0000000   0.0000000), wk =   0.2500000
        k(    8) = (  -0.5000000   0.0000000   0.0000000), wk =   0.1250000
        k(    9) = (  -0.2500000   0.2500000   0.0000000), wk =   0.2500000
        k(   10) = (  -0.5000000   0.2500000   0.0000000), wk =   0.2500000

                       cryst. coord.
        k(    1) = (   0.0000000   0.0000000   0.0000000), wk =   0.1250000
        k(    2) = (   0.0000000   0.2500000   0.0000000), wk =   0.2500000
        k(    3) = (   0.0000000  -0.5000000   0.0000000), wk =   0.1250000
        k(    4) = (   0.2500000   0.2500000   0.0000000), wk =   0.2500000
        k(    5) = (   0.2500000  -0.5000000   0.0000000), wk =   0.2500000
        k(    6) = (  -0.5000000  -0.5000000   0.0000000), wk =   0.1250000
        k(    7) = (   0.2500000   0.0000000   0.0000000), wk =   0.2500000
        k(    8) = (  -0.5000000   0.0000000   0.0000000), wk =   0.1250000
        k(    9) = (  -0.2500000   0.2500000   0.0000000), wk =   0.2500000
        k(   10) = (  -0.5000000   0.2500000   0.0000000), wk =   0.2500000

     Dense  grid:  1474595 G-vectors     FFT dimensions: ( 108, 108, 270)

     Smooth grid:   521381 G-vectors     FFT dimensions: (  75,  75, 192)

     Dynamical RAM for                 wfc:      10.69 MB

     Dynamical RAM for     wfc (w. buffer):      64.13 MB

     Dynamical RAM for           str. fact:       2.81 MB

     Dynamical RAM for           local pot:       0.00 MB

     Dynamical RAM for          nlocal pot:      24.53 MB

     Dynamical RAM for                qrad:       5.27 MB

     Dynamical RAM for          rho,v,vnew:       6.02 MB

     Dynamical RAM for               rhoin:       2.01 MB

     Dynamical RAM for            rho*nmix:      15.00 MB

     Dynamical RAM for           G-vectors:       3.68 MB

     Dynamical RAM for          h,s,v(r/c):       1.35 MB

     Dynamical RAM for          <psi|beta>:       2.33 MB

     Dynamical RAM for                 psi:      21.38 MB

     Dynamical RAM for                hpsi:      21.38 MB

     Dynamical RAM for                spsi:      21.38 MB

     Dynamical RAM for      wfcinit/wfcrot:      34.39 MB

     Dynamical RAM for           addusdens:     101.26 MB

     Estimated static dynamical RAM per process >     117.53 MB

     Estimated max dynamical RAM per process >     233.79 MB

     Estimated total dynamical RAM >      10.61 GB

     Check: negative core charge=   -0.000004

     Initial potential from superposition of free atoms

     starting charge     421.5961, renormalised to     430.0000

     negative rho (up, down):  7.826E-01 0.000E+00
     Starting wfcs are  376 randomized atomic wfcs
     Checking if some PAW data can be deallocated... 
       PAW data deallocated on   19 nodes for type:  2

     total cpu time spent up to now is        9.1 secs

     Self-consistent Calculation

     iteration #  1     ecut=    60.00 Ry     beta= 0.15
     Davidson diagonalization with overlap

---- Real-time Memory Report at c_bands before calling an iterative solver
             0 MiB given to the printing process from OS
             0 MiB allocation reported by mallinfo(arena+hblkhd)
         51473 MiB available memory on the node where the printing process lives
------------------
     ethr =  1.00E-02,  avg # of iterations =  2.0

     negative rho (up, down):  7.718E-01 0.000E+00

     total cpu time spent up to now is       24.3 secs

     total energy              =   -4445.27052022 Ry
     estimated scf accuracy    <      54.10194480 Ry

     iteration #  2     ecut=    60.00 Ry     beta= 0.15
     Davidson diagonalization with overlap

---- Real-time Memory Report at c_bands before calling an iterative solver
             0 MiB given to the printing process from OS
             0 MiB allocation reported by mallinfo(arena+hblkhd)
         51834 MiB available memory on the node where the printing process lives
------------------
     ethr =  1.00E-02,  avg # of iterations =  1.0

     negative rho (up, down):  7.588E-01 0.000E+00

     total cpu time spent up to now is       37.4 secs

     total energy              =   -4441.81651292 Ry
     estimated scf accuracy    <      28.81227601 Ry

     iteration #  3     ecut=    60.00 Ry     beta= 0.15
     Davidson diagonalization with overlap

---- Real-time Memory Report at c_bands before calling an iterative solver
             0 MiB given to the printing process from OS
             0 MiB allocation reported by mallinfo(arena+hblkhd)
         51088 MiB available memory on the node where the printing process lives
------------------
     ethr =  6.70E-03,  avg # of iterations =  1.0

     negative rho (up, down):  7.534E-01 0.000E+00

     total cpu time spent up to now is       50.1 secs

     total energy              =   -4442.64938017 Ry
     estimated scf accuracy    <      28.62987302 Ry

     iteration #  4     ecut=    60.00 Ry     beta= 0.15
     Davidson diagonalization with overlap

---- Real-time Memory Report at c_bands before calling an iterative solver
             0 MiB given to the printing process from OS
             0 MiB allocation reported by mallinfo(arena+hblkhd)
         51040 MiB available memory on the node where the printing process lives
------------------
     ethr =  6.66E-03,  avg # of iterations =  1.0

     negative rho (up, down):  7.539E-01 0.000E+00

     total cpu time spent up to now is       62.8 secs

     total energy              =   -4442.45916150 Ry
     estimated scf accuracy    <      26.34633000 Ry

     iteration #  5     ecut=    60.00 Ry     beta= 0.15
     Davidson diagonalization with overlap

---- Real-time Memory Report at c_bands before calling an iterative solver
             0 MiB given to the printing process from OS
             0 MiB allocation reported by mallinfo(arena+hblkhd)
         51020 MiB available memory on the node where the printing process lives
------------------
     ethr =  6.13E-03,  avg # of iterations =  1.0

     negative rho (up, down):  7.357E-01 0.000E+00

     total cpu time spent up to now is       75.4 secs

     total energy              =   -4441.19708558 Ry
     estimated scf accuracy    <      18.41164699 Ry

     iteration #  6     ecut=    60.00 Ry     beta= 0.15
     Davidson diagonalization with overlap

---- Real-time Memory Report at c_bands before calling an iterative solver
             0 MiB given to the printing process from OS
             0 MiB allocation reported by mallinfo(arena+hblkhd)
         50995 MiB available memory on the node where the printing process lives
------------------
     ethr =  4.28E-03,  avg # of iterations =  2.0

     negative rho (up, down):  7.371E-01 0.000E+00

     total cpu time spent up to now is       89.4 secs

     total energy              =   -4444.82387182 Ry
     estimated scf accuracy    <      71.66530896 Ry

     iteration #  7     ecut=    60.00 Ry     beta= 0.15
     Davidson diagonalization with overlap

---- Real-time Memory Report at c_bands before calling an iterative solver
             0 MiB given to the printing process from OS
             0 MiB allocation reported by mallinfo(arena+hblkhd)
         50977 MiB available memory on the node where the printing process lives
------------------
     ethr =  4.28E-03,  avg # of iterations =  1.0

     negative rho (up, down):  7.365E-01 0.000E+00

     total cpu time spent up to now is      102.1 secs

     total energy              =   -4445.15819885 Ry
     estimated scf accuracy    <      71.64722062 Ry

     iteration #  8     ecut=    60.00 Ry     beta= 0.15
     Davidson diagonalization with overlap

---- Real-time Memory Report at c_bands before calling an iterative solver
             0 MiB given to the printing process from OS
             0 MiB allocation reported by mallinfo(arena+hblkhd)
         50965 MiB available memory on the node where the printing process lives
------------------
     ethr =  4.28E-03,  avg # of iterations =  1.0

     negative rho (up, down):  7.493E-01 0.000E+00

     total cpu time spent up to now is      114.9 secs

     total energy              =   -4440.73547167 Ry
     estimated scf accuracy    <      79.33138719 Ry

     iteration #  9     ecut=    60.00 Ry     beta= 0.15
     Davidson diagonalization with overlap

---- Real-time Memory Report at c_bands before calling an iterative solver
             0 MiB given to the printing process from OS
             0 MiB allocation reported by mallinfo(arena+hblkhd)
         50942 MiB available memory on the node where the printing process lives
------------------
     ethr =  4.28E-03,  avg # of iterations =  1.0

     negative rho (up, down):  7.604E-01 0.000E+00

     total cpu time spent up to now is      127.6 secs

     total energy              =   -4440.79547423 Ry
     estimated scf accuracy    <      12.26533668 Ry

     iteration # 10     ecut=    60.00 Ry     beta= 0.15
     Davidson diagonalization with overlap

---- Real-time Memory Report at c_bands before calling an iterative solver
             0 MiB given to the printing process from OS
             0 MiB allocation reported by mallinfo(arena+hblkhd)
         50917 MiB available memory on the node where the printing process lives
------------------
     ethr =  2.85E-03,  avg # of iterations =  1.1

     negative rho (up, down):  7.546E-01 0.000E+00

     total cpu time spent up to now is      140.5 secs

     total energy              =   -4440.19991665 Ry
     estimated scf accuracy    <       7.17180339 Ry

     iteration # 11     ecut=    60.00 Ry     beta= 0.15
     Davidson diagonalization with overlap

---- Real-time Memory Report at c_bands before calling an iterative solver
             0 MiB given to the printing process from OS
             0 MiB allocation reported by mallinfo(arena+hblkhd)
         50916 MiB available memory on the node where the printing process lives
------------------
     ethr =  1.67E-03,  avg # of iterations =  4.7

     negative rho (up, down):  7.682E-01 0.000E+00

     total cpu time spent up to now is      155.6 secs

     total energy              =   -4439.18923194 Ry
     estimated scf accuracy    <      14.53355706 Ry

     iteration # 12     ecut=    60.00 Ry     beta= 0.15
     Davidson diagonalization with overlap

---- Real-time Memory Report at c_bands before calling an iterative solver
             0 MiB given to the printing process from OS
             0 MiB allocation reported by mallinfo(arena+hblkhd)
         50836 MiB available memory on the node where the printing process lives
------------------
     ethr =  1.67E-03,  avg # of iterations =  2.0

     negative rho (up, down):  7.854E-01 0.000E+00

     total cpu time spent up to now is      169.6 secs

     total energy              =   -4440.68768178 Ry
     estimated scf accuracy    <      14.83656339 Ry

     iteration # 13     ecut=    60.00 Ry     beta= 0.15
     Davidson diagonalization with overlap

---- Real-time Memory Report at c_bands before calling an iterative solver
             0 MiB given to the printing process from OS
             0 MiB allocation reported by mallinfo(arena+hblkhd)
         50836 MiB available memory on the node where the printing process lives
------------------
     ethr =  1.67E-03,  avg # of iterations =  3.2

     negative rho (up, down):  7.839E-01 0.000E+00

     total cpu time spent up to now is      184.2 secs

     total energy              =   -4440.43552431 Ry
     estimated scf accuracy    <       5.60585050 Ry

     iteration # 14     ecut=    60.00 Ry     beta= 0.15
     Davidson diagonalization with overlap

---- Real-time Memory Report at c_bands before calling an iterative solver
             0 MiB given to the printing process from OS
             0 MiB allocation reported by mallinfo(arena+hblkhd)
         50827 MiB available memory on the node where the printing process lives
------------------
     ethr =  1.30E-03,  avg # of iterations =  3.1

     negative rho (up, down):  7.876E-01 0.000E+00

     total cpu time spent up to now is      198.7 secs

     total energy              =   -4440.51320825 Ry
     estimated scf accuracy    <       1.63904259 Ry

     iteration # 15     ecut=    60.00 Ry     beta= 0.15
     Davidson diagonalization with overlap

---- Real-time Memory Report at c_bands before calling an iterative solver
             0 MiB given to the printing process from OS
             0 MiB allocation reported by mallinfo(arena+hblkhd)
         50813 MiB available memory on the node where the printing process lives
------------------
     ethr =  3.81E-04,  avg # of iterations = 11.9

     negative rho (up, down):  7.923E-01 0.000E+00

     total cpu time spent up to now is      217.6 secs

     total energy              =   -4440.38837680 Ry
     estimated scf accuracy    <       1.13368289 Ry

     iteration # 16     ecut=    60.00 Ry     beta= 0.15
     Davidson diagonalization with overlap

---- Real-time Memory Report at c_bands before calling an iterative solver
             0 MiB given to the printing process from OS
             0 MiB allocation reported by mallinfo(arena+hblkhd)
         50452 MiB available memory on the node where the printing process lives
------------------
     ethr =  2.64E-04,  avg # of iterations =  3.9

     negative rho (up, down):  8.057E-01 0.000E+00

     total cpu time spent up to now is      232.7 secs

     total energy              =   -4440.43938248 Ry
     estimated scf accuracy    <       1.70051956 Ry

     iteration # 17     ecut=    60.00 Ry     beta= 0.15
     Davidson diagonalization with overlap

---- Real-time Memory Report at c_bands before calling an iterative solver
             0 MiB given to the printing process from OS
             0 MiB allocation reported by mallinfo(arena+hblkhd)
         50454 MiB available memory on the node where the printing process lives
------------------
     ethr =  2.64E-04,  avg # of iterations =  1.9

     negative rho (up, down):  8.237E-01 0.000E+00

     total cpu time spent up to now is      246.8 secs

     total energy              =   -4440.24742812 Ry
     estimated scf accuracy    <       1.00902236 Ry

     iteration # 18     ecut=    60.00 Ry     beta= 0.15
     Davidson diagonalization with overlap

---- Real-time Memory Report at c_bands before calling an iterative solver
             0 MiB given to the printing process from OS
             0 MiB allocation reported by mallinfo(arena+hblkhd)
         50465 MiB available memory on the node where the printing process lives
------------------
     ethr =  2.35E-04,  avg # of iterations =  7.6

     negative rho (up, down):  8.257E-01 0.000E+00

     total cpu time spent up to now is      263.8 secs

     total energy              =   -4440.39428053 Ry
     estimated scf accuracy    <      10.77533096 Ry

     iteration # 19     ecut=    60.00 Ry     beta= 0.15
     Davidson diagonalization with overlap

---- Real-time Memory Report at c_bands before calling an iterative solver
             0 MiB given to the printing process from OS
             0 MiB allocation reported by mallinfo(arena+hblkhd)
         50468 MiB available memory on the node where the printing process lives
------------------
     ethr =  2.35E-04,  avg # of iterations =  1.4

     negative rho (up, down):  8.169E-01 0.000E+00

     total cpu time spent up to now is      277.2 secs

     total energy              =   -4440.23840102 Ry
     estimated scf accuracy    <       3.82029768 Ry

     iteration # 20     ecut=    60.00 Ry     beta= 0.15
     Davidson diagonalization with overlap

---- Real-time Memory Report at c_bands before calling an iterative solver
             0 MiB given to the printing process from OS
             0 MiB allocation reported by mallinfo(arena+hblkhd)
         50466 MiB available memory on the node where the printing process lives
------------------
     ethr =  2.35E-04,  avg # of iterations =  3.5

     negative rho (up, down):  8.177E-01 0.000E+00

     total cpu time spent up to now is      292.2 secs

     total energy              =   -4440.32902007 Ry
     estimated scf accuracy    <       0.71255622 Ry

     iteration # 21     ecut=    60.00 Ry     beta= 0.15
     Davidson diagonalization with overlap

---- Real-time Memory Report at c_bands before calling an iterative solver
             0 MiB given to the printing process from OS
             0 MiB allocation reported by mallinfo(arena+hblkhd)
         50465 MiB available memory on the node where the printing process lives
------------------
     ethr =  1.66E-04,  avg # of iterations =  3.0

     negative rho (up, down):  8.176E-01 0.000E+00

     total cpu time spent up to now is      306.5 secs

     total energy              =   -4440.33404861 Ry
     estimated scf accuracy    <       0.16304945 Ry

     iteration # 22     ecut=    60.00 Ry     beta= 0.15
     Davidson diagonalization with overlap

---- Real-time Memory Report at c_bands before calling an iterative solver
             0 MiB given to the printing process from OS
             0 MiB allocation reported by mallinfo(arena+hblkhd)
         50464 MiB available memory on the node where the printing process lives
------------------
     ethr =  3.79E-05,  avg # of iterations = 15.4

     negative rho (up, down):  8.064E-01 0.000E+00

     total cpu time spent up to now is      326.7 secs

     total energy              =   -4440.31200142 Ry
     estimated scf accuracy    <       0.41444174 Ry

     iteration # 23     ecut=    60.00 Ry     beta= 0.15
     Davidson diagonalization with overlap

---- Real-time Memory Report at c_bands before calling an iterative solver
             0 MiB given to the printing process from OS
             0 MiB allocation reported by mallinfo(arena+hblkhd)
         50378 MiB available memory on the node where the printing process lives
------------------
     ethr =  3.79E-05,  avg # of iterations =  5.3

     negative rho (up, down):  8.218E-01 0.000E+00

     total cpu time spent up to now is      342.2 secs

     total energy              =   -4440.30975259 Ry
     estimated scf accuracy    <       0.06591429 Ry

     iteration # 24     ecut=    60.00 Ry     beta= 0.15
     Davidson diagonalization with overlap

---- Real-time Memory Report at c_bands before calling an iterative solver
             0 MiB given to the printing process from OS
             0 MiB allocation reported by mallinfo(arena+hblkhd)
         50403 MiB available memory on the node where the printing process lives
------------------
     ethr =  1.53E-05,  avg # of iterations =  9.8

     negative rho (up, down):  8.171E-01 0.000E+00

     total cpu time spent up to now is      360.2 secs

     total energy              =   -4440.30626810 Ry
     estimated scf accuracy    <       0.13185838 Ry

     iteration # 25     ecut=    60.00 Ry     beta= 0.15
     Davidson diagonalization with overlap

---- Real-time Memory Report at c_bands before calling an iterative solver
             0 MiB given to the printing process from OS
             0 MiB allocation reported by mallinfo(arena+hblkhd)
         50342 MiB available memory on the node where the printing process lives
------------------
     ethr =  1.53E-05,  avg # of iterations =  2.0

     negative rho (up, down):  8.130E-01 0.000E+00

     total cpu time spent up to now is      374.3 secs

     total energy              =   -4440.30188267 Ry
     estimated scf accuracy    <       0.02813475 Ry

     iteration # 26     ecut=    60.00 Ry     beta= 0.15
     Davidson diagonalization with overlap

---- Real-time Memory Report at c_bands before calling an iterative solver
             0 MiB given to the printing process from OS
             0 MiB allocation reported by mallinfo(arena+hblkhd)
         50370 MiB available memory on the node where the printing process lives
------------------
     c_bands:  1 eigenvalues not converged
     c_bands:  1 eigenvalues not converged
     ethr =  6.54E-06,  avg # of iterations = 10.4

     negative rho (up, down):  8.029E-01 0.000E+00

     total cpu time spent up to now is      392.8 secs

     total energy              =   -4440.30255564 Ry
     estimated scf accuracy    <       0.01542659 Ry

     iteration # 27     ecut=    60.00 Ry     beta= 0.15
     Davidson diagonalization with overlap

---- Real-time Memory Report at c_bands before calling an iterative solver
             0 MiB given to the printing process from OS
             0 MiB allocation reported by mallinfo(arena+hblkhd)
         50364 MiB available memory on the node where the printing process lives
------------------
     ethr =  3.59E-06,  avg # of iterations =  2.8

     negative rho (up, down):  7.966E-01 0.000E+00

     total cpu time spent up to now is      407.5 secs

     total energy              =   -4440.30178363 Ry
     estimated scf accuracy    <       0.01113366 Ry

     iteration # 28     ecut=    60.00 Ry     beta= 0.15
     Davidson diagonalization with overlap

---- Real-time Memory Report at c_bands before calling an iterative solver
             0 MiB given to the printing process from OS
             0 MiB allocation reported by mallinfo(arena+hblkhd)
         50356 MiB available memory on the node where the printing process lives
------------------
     ethr =  2.59E-06,  avg # of iterations =  2.0

     negative rho (up, down):  7.941E-01 0.000E+00

     total cpu time spent up to now is      421.7 secs

     total energy              =   -4440.30035097 Ry
     estimated scf accuracy    <       0.00951432 Ry

     iteration # 29     ecut=    60.00 Ry     beta= 0.15
     Davidson diagonalization with overlap

---- Real-time Memory Report at c_bands before calling an iterative solver
             0 MiB given to the printing process from OS
             0 MiB allocation reported by mallinfo(arena+hblkhd)
         50376 MiB available memory on the node where the printing process lives
------------------
     c_bands:  2 eigenvalues not converged
     ethr =  2.21E-06,  avg # of iterations =  9.7

     negative rho (up, down):  8.040E-01 0.000E+00

     total cpu time spent up to now is      440.0 secs

     total energy              =   -4440.30064980 Ry
     estimated scf accuracy    <       0.00328325 Ry

     iteration # 30     ecut=    60.00 Ry     beta= 0.15
     Davidson diagonalization with overlap

---- Real-time Memory Report at c_bands before calling an iterative solver
             0 MiB given to the printing process from OS
             0 MiB allocation reported by mallinfo(arena+hblkhd)
         50338 MiB available memory on the node where the printing process lives
------------------
     c_bands:  1 eigenvalues not converged
     ethr =  7.64E-07,  avg # of iterations = 12.9

     negative rho (up, down):  8.004E-01 0.000E+00

     total cpu time spent up to now is      460.1 secs

     total energy              =   -4440.30055821 Ry
     estimated scf accuracy    <       0.00085460 Ry

     iteration # 31     ecut=    60.00 Ry     beta= 0.15
     Davidson diagonalization with overlap

---- Real-time Memory Report at c_bands before calling an iterative solver
             0 MiB given to the printing process from OS
             0 MiB allocation reported by mallinfo(arena+hblkhd)
         50283 MiB available memory on the node where the printing process lives
------------------
     c_bands:  1 eigenvalues not converged
     ethr =  1.99E-07,  avg # of iterations =  7.6

     negative rho (up, down):  8.004E-01 0.000E+00

     total cpu time spent up to now is      476.6 secs

     total energy              =   -4440.30052541 Ry
     estimated scf accuracy    <       0.00064578 Ry

     iteration # 32     ecut=    60.00 Ry     beta= 0.15
     Davidson diagonalization with overlap

---- Real-time Memory Report at c_bands before calling an iterative solver
             0 MiB given to the printing process from OS
             0 MiB allocation reported by mallinfo(arena+hblkhd)
         50341 MiB available memory on the node where the printing process lives
------------------
     ethr =  1.50E-07,  avg # of iterations =  3.6

     negative rho (up, down):  7.978E-01 0.000E+00

     total cpu time spent up to now is      491.4 secs

     total energy              =   -4440.30045804 Ry
     estimated scf accuracy    <       0.00029807 Ry

     iteration # 33     ecut=    60.00 Ry     beta= 0.15
     Davidson diagonalization with overlap

---- Real-time Memory Report at c_bands before calling an iterative solver
             0 MiB given to the printing process from OS
             0 MiB allocation reported by mallinfo(arena+hblkhd)
         50306 MiB available memory on the node where the printing process lives
------------------
     ethr =  6.93E-08,  avg # of iterations =  2.2

     negative rho (up, down):  7.948E-01 0.000E+00

     total cpu time spent up to now is      505.7 secs

     total energy              =   -4440.30044019 Ry
     estimated scf accuracy    <       0.00016782 Ry

     iteration # 34     ecut=    60.00 Ry     beta= 0.15
     Davidson diagonalization with overlap

---- Real-time Memory Report at c_bands before calling an iterative solver
             0 MiB given to the printing process from OS
             0 MiB allocation reported by mallinfo(arena+hblkhd)
         50346 MiB available memory on the node where the printing process lives
------------------
     c_bands:  1 eigenvalues not converged
     ethr =  3.90E-08,  avg # of iterations =  9.3

     negative rho (up, down):  7.936E-01 0.000E+00

     total cpu time spent up to now is      523.2 secs

     total energy              =   -4440.30045217 Ry
     estimated scf accuracy    <       0.00005663 Ry

     iteration # 35     ecut=    60.00 Ry     beta= 0.15
     Davidson diagonalization with overlap

---- Real-time Memory Report at c_bands before calling an iterative solver
             0 MiB given to the printing process from OS
             0 MiB allocation reported by mallinfo(arena+hblkhd)
         50428 MiB available memory on the node where the printing process lives
------------------
     ethr =  1.32E-08,  avg # of iterations =  3.8

     negative rho (up, down):  7.931E-01 0.000E+00

     total cpu time spent up to now is      538.4 secs

     total energy              =   -4440.30045303 Ry
     estimated scf accuracy    <       0.00003365 Ry

     iteration # 36     ecut=    60.00 Ry     beta= 0.15
     Davidson diagonalization with overlap

---- Real-time Memory Report at c_bands before calling an iterative solver
             0 MiB given to the printing process from OS
             0 MiB allocation reported by mallinfo(arena+hblkhd)
         50447 MiB available memory on the node where the printing process lives
------------------
     ethr =  7.83E-09,  avg # of iterations =  2.0

     negative rho (up, down):  7.925E-01 0.000E+00

     total cpu time spent up to now is      552.5 secs

     total energy              =   -4440.30045334 Ry
     estimated scf accuracy    <       0.00002381 Ry

     iteration # 37     ecut=    60.00 Ry     beta= 0.15
     Davidson diagonalization with overlap

---- Real-time Memory Report at c_bands before calling an iterative solver
             0 MiB given to the printing process from OS
             0 MiB allocation reported by mallinfo(arena+hblkhd)
         50479 MiB available memory on the node where the printing process lives
------------------
     ethr =  5.54E-09,  avg # of iterations =  2.0

     negative rho (up, down):  7.922E-01 0.000E+00

     total cpu time spent up to now is      566.6 secs

     total energy              =   -4440.30045345 Ry
     estimated scf accuracy    <       0.00001758 Ry

     iteration # 38     ecut=    60.00 Ry     beta= 0.15
     Davidson diagonalization with overlap

---- Real-time Memory Report at c_bands before calling an iterative solver
             0 MiB given to the printing process from OS
             0 MiB allocation reported by mallinfo(arena+hblkhd)
         50465 MiB available memory on the node where the printing process lives
------------------
     ethr =  4.09E-09,  avg # of iterations =  3.4

     negative rho (up, down):  7.923E-01 0.000E+00

     total cpu time spent up to now is      581.3 secs

     total energy              =   -4440.30045474 Ry
     estimated scf accuracy    <       0.00001455 Ry

     iteration # 39     ecut=    60.00 Ry     beta= 0.15
     Davidson diagonalization with overlap

---- Real-time Memory Report at c_bands before calling an iterative solver
             0 MiB given to the printing process from OS
             0 MiB allocation reported by mallinfo(arena+hblkhd)
         50453 MiB available memory on the node where the printing process lives
------------------
     ethr =  3.38E-09,  avg # of iterations =  1.4

     negative rho (up, down):  7.923E-01 0.000E+00

     total cpu time spent up to now is      594.8 secs

     total energy              =   -4440.30045477 Ry
     estimated scf accuracy    <       0.00001357 Ry

     iteration # 40     ecut=    60.00 Ry     beta= 0.15
     Davidson diagonalization with overlap

---- Real-time Memory Report at c_bands before calling an iterative solver
             0 MiB given to the printing process from OS
             0 MiB allocation reported by mallinfo(arena+hblkhd)
         50457 MiB available memory on the node where the printing process lives
------------------
     ethr =  3.16E-09,  avg # of iterations =  2.0

     negative rho (up, down):  7.924E-01 0.000E+00

     total cpu time spent up to now is      609.1 secs

     total energy              =   -4440.30045469 Ry
     estimated scf accuracy    <       0.00001119 Ry

     iteration # 41     ecut=    60.00 Ry     beta= 0.15
     Davidson diagonalization with overlap

---- Real-time Memory Report at c_bands before calling an iterative solver
             0 MiB given to the printing process from OS
             0 MiB allocation reported by mallinfo(arena+hblkhd)
         50459 MiB available memory on the node where the printing process lives
------------------
     ethr =  2.60E-09,  avg # of iterations =  1.0

     negative rho (up, down):  7.923E-01 0.000E+00

     total cpu time spent up to now is      621.8 secs

     total energy              =   -4440.30045492 Ry
     estimated scf accuracy    <       0.00001198 Ry

     iteration # 42     ecut=    60.00 Ry     beta= 0.15
     Davidson diagonalization with overlap

---- Real-time Memory Report at c_bands before calling an iterative solver
             0 MiB given to the printing process from OS
             0 MiB allocation reported by mallinfo(arena+hblkhd)
         50458 MiB available memory on the node where the printing process lives
------------------
     ethr =  2.60E-09,  avg # of iterations =  1.0

     negative rho (up, down):  7.923E-01 0.000E+00

     total cpu time spent up to now is      634.5 secs

     total energy              =   -4440.30045497 Ry
     estimated scf accuracy    <       0.00001162 Ry

     iteration # 43     ecut=    60.00 Ry     beta= 0.15
     Davidson diagonalization with overlap

---- Real-time Memory Report at c_bands before calling an iterative solver
             0 MiB given to the printing process from OS
             0 MiB allocation reported by mallinfo(arena+hblkhd)
         50471 MiB available memory on the node where the printing process lives
------------------
     ethr =  2.60E-09,  avg # of iterations =  1.0

     negative rho (up, down):  7.923E-01 0.000E+00

     total cpu time spent up to now is      647.3 secs

     total energy              =   -4440.30045462 Ry
     estimated scf accuracy    <       0.00001142 Ry

     iteration # 44     ecut=    60.00 Ry     beta= 0.15
     Davidson diagonalization with overlap

---- Real-time Memory Report at c_bands before calling an iterative solver
             0 MiB given to the printing process from OS
             0 MiB allocation reported by mallinfo(arena+hblkhd)
         50470 MiB available memory on the node where the printing process lives
------------------
     ethr =  2.60E-09,  avg # of iterations =  1.8

     negative rho (up, down):  7.923E-01 0.000E+00

     total cpu time spent up to now is      661.1 secs

     total energy              =   -4440.30045470 Ry
     estimated scf accuracy    <       0.00001079 Ry

     iteration # 45     ecut=    60.00 Ry     beta= 0.15
     Davidson diagonalization with overlap

---- Real-time Memory Report at c_bands before calling an iterative solver
             0 MiB given to the printing process from OS
             0 MiB allocation reported by mallinfo(arena+hblkhd)
         50473 MiB available memory on the node where the printing process lives
------------------
     ethr =  2.51E-09,  avg # of iterations =  1.0

     negative rho (up, down):  7.924E-01 0.000E+00

     total cpu time spent up to now is      673.9 secs

     total energy              =   -4440.30045450 Ry
     estimated scf accuracy    <       0.00000964 Ry

     iteration # 46     ecut=    60.00 Ry     beta= 0.15
     Davidson diagonalization with overlap

---- Real-time Memory Report at c_bands before calling an iterative solver
             0 MiB given to the printing process from OS
             0 MiB allocation reported by mallinfo(arena+hblkhd)
         50477 MiB available memory on the node where the printing process lives
------------------
     ethr =  2.24E-09,  avg # of iterations =  1.2

     negative rho (up, down):  7.924E-01 0.000E+00

     total cpu time spent up to now is      687.0 secs

     total energy              =   -4440.30045292 Ry
     estimated scf accuracy    <       0.00000767 Ry

     iteration # 47     ecut=    60.00 Ry     beta= 0.15
     Davidson diagonalization with overlap

---- Real-time Memory Report at c_bands before calling an iterative solver
             0 MiB given to the printing process from OS
             0 MiB allocation reported by mallinfo(arena+hblkhd)
         50476 MiB available memory on the node where the printing process lives
------------------
     ethr =  1.78E-09,  avg # of iterations =  2.0

     negative rho (up, down):  7.924E-01 0.000E+00

     total cpu time spent up to now is      701.1 secs

     total energy              =   -4440.30045323 Ry
     estimated scf accuracy    <       0.00000302 Ry

     iteration # 48     ecut=    60.00 Ry     beta= 0.15
     Davidson diagonalization with overlap

---- Real-time Memory Report at c_bands before calling an iterative solver
             0 MiB given to the printing process from OS
             0 MiB allocation reported by mallinfo(arena+hblkhd)
         50483 MiB available memory on the node where the printing process lives
------------------
     ethr =  7.02E-10,  avg # of iterations =  2.0

     negative rho (up, down):  7.925E-01 0.000E+00

     total cpu time spent up to now is      715.4 secs

     total energy              =   -4440.30045319 Ry
     estimated scf accuracy    <       0.00000169 Ry

     iteration # 49     ecut=    60.00 Ry     beta= 0.15
     Davidson diagonalization with overlap

---- Real-time Memory Report at c_bands before calling an iterative solver
             0 MiB given to the printing process from OS
             0 MiB allocation reported by mallinfo(arena+hblkhd)
         50487 MiB available memory on the node where the printing process lives
------------------
     ethr =  3.94E-10,  avg # of iterations =  2.0

     negative rho (up, down):  7.926E-01 0.000E+00

     total cpu time spent up to now is      729.7 secs

     total energy              =   -4440.30045304 Ry
     estimated scf accuracy    <       0.00000080 Ry

     iteration # 50     ecut=    60.00 Ry     beta= 0.15
     Davidson diagonalization with overlap

---- Real-time Memory Report at c_bands before calling an iterative solver
             0 MiB given to the printing process from OS
             0 MiB allocation reported by mallinfo(arena+hblkhd)
         50493 MiB available memory on the node where the printing process lives
------------------
     ethr =  1.86E-10,  avg # of iterations =  3.0

     negative rho (up, down):  7.926E-01 0.000E+00

     total cpu time spent up to now is      745.4 secs

     total energy              =   -4440.30045310 Ry
     estimated scf accuracy    <       0.00000039 Ry

     iteration # 51     ecut=    60.00 Ry     beta= 0.15
     Davidson diagonalization with overlap

---- Real-time Memory Report at c_bands before calling an iterative solver
             0 MiB given to the printing process from OS
             0 MiB allocation reported by mallinfo(arena+hblkhd)
         50491 MiB available memory on the node where the printing process lives
------------------
     ethr =  9.04E-11,  avg # of iterations =  2.0

     negative rho (up, down):  7.927E-01 0.000E+00

     total cpu time spent up to now is      759.5 secs

     total energy              =   -4440.30045305 Ry
     estimated scf accuracy    <       0.00000023 Ry

     iteration # 52     ecut=    60.00 Ry     beta= 0.15
     Davidson diagonalization with overlap

---- Real-time Memory Report at c_bands before calling an iterative solver
             0 MiB given to the printing process from OS
             0 MiB allocation reported by mallinfo(arena+hblkhd)
         50494 MiB available memory on the node where the printing process lives
------------------
     ethr =  5.39E-11,  avg # of iterations =  2.0

     negative rho (up, down):  7.927E-01 0.000E+00

     total cpu time spent up to now is      773.6 secs

     total energy              =   -4440.30045308 Ry
     estimated scf accuracy    <       0.00000008 Ry

     iteration # 53     ecut=    60.00 Ry     beta= 0.15
     Davidson diagonalization with overlap

---- Real-time Memory Report at c_bands before calling an iterative solver
             0 MiB given to the printing process from OS
             0 MiB allocation reported by mallinfo(arena+hblkhd)
         50497 MiB available memory on the node where the printing process lives
------------------
     ethr =  1.82E-11,  avg # of iterations =  1.9

     negative rho (up, down):  7.926E-01 0.000E+00

     total cpu time spent up to now is      787.5 secs

     total energy              =   -4440.30045316 Ry
     estimated scf accuracy    <       0.00000006 Ry

     iteration # 54     ecut=    60.00 Ry     beta= 0.15
     Davidson diagonalization with overlap

---- Real-time Memory Report at c_bands before calling an iterative solver
             0 MiB given to the printing process from OS
             0 MiB allocation reported by mallinfo(arena+hblkhd)
         50494 MiB available memory on the node where the printing process lives
------------------
     ethr =  1.37E-11,  avg # of iterations =  2.6

     negative rho (up, down):  7.926E-01 0.000E+00

     total cpu time spent up to now is      801.9 secs

     total energy              =   -4440.30045322 Ry
     estimated scf accuracy    <       0.00000002 Ry

     iteration # 55     ecut=    60.00 Ry     beta= 0.15
     Davidson diagonalization with overlap

---- Real-time Memory Report at c_bands before calling an iterative solver
             0 MiB given to the printing process from OS
             0 MiB allocation reported by mallinfo(arena+hblkhd)
         50493 MiB available memory on the node where the printing process lives
------------------
     ethr =  5.32E-12,  avg # of iterations =  3.8

     negative rho (up, down):  7.926E-01 0.000E+00

     total cpu time spent up to now is      816.6 secs

     End of self-consistent calculation

          k = 0.0000 0.0000 0.0000 ( 65197 PWs)   bands (ev):

   -92.8841 -92.8335 -92.7392 -92.6911 -92.6343 -92.5910 -92.5734 -92.4532
   -56.2377 -56.2182 -56.0957 -56.0846 -56.0785 -56.0715 -56.0370 -56.0078
   -55.9923 -55.9908 -55.9851 -55.9410 -55.9218 -55.8850 -55.8663 -55.8345
   -55.8265 -55.7797 -55.7786 -55.7757 -55.7674 -55.7284 -55.7034 -55.6180
   -31.4478 -31.4280 -31.2860 -31.2305 -31.1991 -31.0475 -31.0422 -30.8334
   -30.0293 -29.9862 -29.9601 -29.8519 -15.2607 -15.2129 -15.1344 -15.0052
   -14.8031 -14.6848 -14.3966 -14.3752 -14.3482 -14.3013 -14.2526 -14.2351
   -14.2320 -14.2113 -14.1951 -14.1521 -14.1109 -13.9560 -13.7663 -13.7440
   -13.7143 -13.6736 -13.6568 -13.6047 -13.5734 -13.4903 -13.4219 -13.2961
   -13.2804 -13.2711 -13.2458 -13.2279 -13.2146 -13.1725 -13.1638 -13.1519
   -13.1218 -13.0930 -13.0717 -13.0402 -13.0209 -12.9657 -12.9446 -12.9151
   -12.9105 -12.7835 -12.7695 -12.7541 -12.5140 -12.3673 -12.1765 -12.1042
   -12.0423 -11.9918 -11.9687 -11.9574 -11.9343 -11.9167 -11.8534 -11.8360
   -11.8014 -11.7722 -11.6599 -11.5808 -11.5773  -3.1213  -2.8902  -2.6608
    -2.5112  -2.4510  -2.3090  -2.0004  -1.9850  -1.9675  -1.8774  -1.8616
    -1.7933  -1.7768  -1.7369  -1.6926  -1.5116  -1.2831  -1.2531  -1.1116
    -1.0966  -1.0489  -1.0288  -0.9823  -0.9662  -0.9149  -0.8871  -0.8116
    -0.8009  -0.7277  -0.5926  -0.5796  -0.5511  -0.4719  -0.4437  -0.3908
    -0.3650  -0.3067  -0.2577  -0.2051  -0.1836  -0.1150  -0.0437   0.0001
     0.0264   0.0365   0.2968   0.3130   0.4883   0.5475   0.6115   0.6662
     0.7488   0.7600   0.7773   0.8456   0.8726   0.9052   0.9626   1.0926
     1.1522   1.1742   1.2046   1.2146   1.2714   1.3391   1.4547   1.4751
     1.5298   1.5355   1.5824   1.6030   1.6144   1.6665   1.7321   1.7362
     1.7746   1.8017   1.8483   1.9813   2.0688   2.1081   2.1290   2.2724
     2.2872   2.3301   2.3347   2.4453   2.4771   2.5024   2.5233   2.5372
     2.6020   2.6128   2.6324   2.6439   2.7313   2.7667   2.7707   2.7765
     2.8440   2.8583   2.8725   2.8793   2.8885   2.9010   2.9098   2.9244
     2.9310   2.9404   2.9478   2.9550   2.9753   2.9964   3.0015   3.0137
     3.0371   3.1537   3.2598   3.9348   4.2529   4.6116   4.8283   4.8643
     5.7678   5.8106   5.8375   5.9210   6.1341   6.1796   6.4334   6.4432
     6.9407   6.9941   7.0832   7.1593   7.4976   7.5421   7.5472   7.5687
     7.6010   7.8657   7.8948   8.0228   8.0314   8.1447   8.3009   8.4746
     8.7595   8.9302

     occupation numbers 
     1.0000   1.0000   1.0000   1.0000   1.0000   1.0000   1.0000   1.0000
     1.0000   1.0000   1.0000   1.0000   1.0000   1.0000   1.0000   1.0000
     1.0000   1.0000   1.0000   1.0000   1.0000   1.0000   1.0000   1.0000
     1.0000   1.0000   1.0000   1.0000   1.0000   1.0000   1.0000   1.0000
     1.0000   1.0000   1.0000   1.0000   1.0000   1.0000   1.0000   1.0000
     1.0000   1.0000   1.0000   1.0000   1.0000   1.0000   1.0000   1.0000
     1.0000   1.0000   1.0000   1.0000   1.0000   1.0000   1.0000   1.0000
     1.0000   1.0000   1.0000   1.0000   1.0000   1.0000   1.0000   1.0000
     1.0000   1.0000   1.0000   1.0000   1.0000   1.0000   1.0000   1.0000
     1.0000   1.0000   1.0000   1.0000   1.0000   1.0000   1.0000   1.0000
     1.0000   1.0000   1.0000   1.0000   1.0000   1.0000   1.0000   1.0000
     1.0000   1.0000   1.0000   1.0000   1.0000   1.0000   1.0000   1.0000
     1.0000   1.0000   1.0000   1.0000   1.0000   1.0000   1.0000   1.0000
     1.0000   1.0000   1.0000   1.0000   1.0000   1.0000   1.0000   1.0000
     1.0000   1.0000   1.0000   1.0000   1.0000   1.0000   1.0000   1.0000
     1.0000   1.0000   1.0000   1.0000   1.0000   1.0000   1.0000   1.0000
     1.0000   1.0000   1.0000   1.0000   1.0000   1.0000   1.0000   1.0000
     1.0000   1.0000   1.0000   1.0000   1.0000   1.0000   1.0000   1.0000
     1.0000   1.0000   1.0000   1.0000   1.0000   1.0000   1.0000   1.0000
     1.0000   1.0000   1.0000   1.0000   1.0000   0.9999   0.9999   0.9999
     0.9998   0.9998   0.9998   0.9997   0.9996   0.9996   0.9994   0.9988
     0.9985   0.9983   0.9980   0.9979   0.9973   0.9963   0.9939   0.9934
     0.9917   0.9916   0.9898   0.9890   0.9885   0.9859   0.9820   0.9817
     0.9790   0.9769   0.9729   0.9579   0.9449   0.9381   0.9342   0.9023
     0.8985   0.8867   0.8854   0.8504   0.8391   0.8298   0.8218   0.8164
     0.7897   0.7850   0.7765   0.7713   0.7302   0.7125   0.7105   0.7076
     0.6722   0.6645   0.6568   0.6531   0.6480   0.6411   0.6362   0.6281
     0.6243   0.6190   0.6148   0.6107   0.5992   0.5870   0.5840   0.5769
     0.5633   0.4945   0.4319   0.1203   0.0499   0.0147   0.0062   0.0053
     0.0000   0.0000   0.0000   0.0000   0.0000   0.0000   0.0000   0.0000
     0.0000   0.0000   0.0000   0.0000   0.0000   0.0000   0.0000   0.0000
     0.0000   0.0000   0.0000   0.0000   0.0000   0.0000   0.0000   0.0000
     0.0000   0.0000

          k = 0.0000 0.2500 0.0000 ( 65257 PWs)   bands (ev):

   -92.8841 -92.8335 -92.7392 -92.6911 -92.6343 -92.5910 -92.5734 -92.4532
   -56.2377 -56.2182 -56.0957 -56.0846 -56.0785 -56.0715 -56.0370 -56.0078
   -55.9923 -55.9908 -55.9851 -55.9410 -55.9218 -55.8850 -55.8663 -55.8345
   -55.8265 -55.7797 -55.7786 -55.7757 -55.7674 -55.7284 -55.7034 -55.6180
   -31.4476 -31.4278 -31.2862 -31.2303 -31.1992 -31.0477 -31.0421 -30.8336
   -30.0287 -29.9859 -29.9607 -29.8522 -15.2243 -15.1862 -15.1095 -14.9755
   -14.8479 -14.6734 -14.5426 -14.3627 -14.3239 -14.3054 -14.2763 -14.2183
   -14.2101 -14.1945 -14.1728 -14.1194 -14.0287 -13.9871 -13.8228 -13.7927
   -13.7552 -13.7165 -13.6538 -13.6276 -13.5747 -13.5159 -13.4764 -13.4061
   -13.3369 -13.3174 -13.2791 -13.2636 -13.1984 -13.1555 -13.1299 -13.1044
   -13.0733 -13.0457 -13.0363 -13.0035 -12.9753 -12.9639 -12.9364 -12.8494
   -12.8250 -12.7768 -12.7047 -12.6477 -12.5752 -12.4184 -12.2325 -12.1689
   -12.0078 -11.9918 -11.9655 -11.9371 -11.9090 -11.8925 -11.8451 -11.8339
   -11.8111 -11.7773 -11.6742 -11.6224 -11.6119  -2.9857  -2.7659  -2.6277
    -2.4450  -2.4017  -2.2392  -2.0151  -1.9358  -1.9226  -1.8569  -1.7604
    -1.7449  -1.7108  -1.6830  -1.6389  -1.4427  -1.3124  -1.3012  -1.2232
    -1.2143  -1.1116  -1.0820  -1.0218  -0.9950  -0.9579  -0.8916  -0.8643
    -0.8328  -0.8025  -0.7852  -0.7529  -0.6781  -0.6285  -0.5457  -0.4428
    -0.4093  -0.3656  -0.2685  -0.2279  -0.1615  -0.1178  -0.0569  -0.0447
    -0.0190   0.0403   0.3451   0.4320   0.4684   0.5520   0.5993   0.6231
     0.7309   0.7495   0.8470   0.8729   0.8973   1.0117   1.1118   1.1283
     1.1555   1.1782   1.1962   1.2553   1.2839   1.3121   1.3578   1.3965
     1.4296   1.5201   1.5578   1.5812   1.6376   1.6898   1.7290   1.7582
     1.7828   1.7955   1.8986   2.0187   2.0918   2.1122   2.1799   2.2262
     2.2682   2.2744   2.3373   2.3739   2.4608   2.4998   2.5173   2.6066
     2.6103   2.6380   2.6881   2.7092   2.7421   2.7652   2.7791   2.7884
     2.7929   2.8018   2.8332   2.8352   2.8524   2.8651   2.8675   2.8892
     2.9006   2.9084   2.9264   2.9374   2.9438   2.9780   2.9940   3.0535
     3.4231   3.4739   3.7036   4.1248   4.2496   4.5537   4.8822   4.9902
     5.5137   5.6606   5.8112   5.9143   5.9610   6.0623   6.0677   6.5474
     7.0287   7.0946   7.2242   7.2452   7.3461   7.4052   7.5462   7.6353
     7.7172   7.9536   8.0678   8.1512   8.2668   8.2964   8.3597   8.3736
     8.5209   8.8510

     occupation numbers 
     1.0000   1.0000   1.0000   1.0000   1.0000   1.0000   1.0000   1.0000
     1.0000   1.0000   1.0000   1.0000   1.0000   1.0000   1.0000   1.0000
     1.0000   1.0000   1.0000   1.0000   1.0000   1.0000   1.0000   1.0000
     1.0000   1.0000   1.0000   1.0000   1.0000   1.0000   1.0000   1.0000
     1.0000   1.0000   1.0000   1.0000   1.0000   1.0000   1.0000   1.0000
     1.0000   1.0000   1.0000   1.0000   1.0000   1.0000   1.0000   1.0000
     1.0000   1.0000   1.0000   1.0000   1.0000   1.0000   1.0000   1.0000
     1.0000   1.0000   1.0000   1.0000   1.0000   1.0000   1.0000   1.0000
     1.0000   1.0000   1.0000   1.0000   1.0000   1.0000   1.0000   1.0000
     1.0000   1.0000   1.0000   1.0000   1.0000   1.0000   1.0000   1.0000
     1.0000   1.0000   1.0000   1.0000   1.0000   1.0000   1.0000   1.0000
     1.0000   1.0000   1.0000   1.0000   1.0000   1.0000   1.0000   1.0000
     1.0000   1.0000   1.0000   1.0000   1.0000   1.0000   1.0000   1.0000
     1.0000   1.0000   1.0000   1.0000   1.0000   1.0000   1.0000   1.0000
     1.0000   1.0000   1.0000   1.0000   1.0000   1.0000   1.0000   1.0000
     1.0000   1.0000   1.0000   1.0000   1.0000   1.0000   1.0000   1.0000
     1.0000   1.0000   1.0000   1.0000   1.0000   1.0000   1.0000   1.0000
     1.0000   1.0000   1.0000   1.0000   1.0000   1.0000   1.0000   1.0000
     1.0000   1.0000   1.0000   1.0000   1.0000   1.0000   1.0000   1.0000
     1.0000   1.0000   1.0000   1.0000   1.0000   0.9999   0.9999   0.9999
     0.9998   0.9998   0.9997   0.9996   0.9996   0.9992   0.9987   0.9986
     0.9984   0.9982   0.9981   0.9975   0.9971   0.9967   0.9960   0.9953
     0.9946   0.9921   0.9908   0.9899   0.9874   0.9846   0.9822   0.9802
     0.9784   0.9774   0.9678   0.9527   0.9410   0.9373   0.9240   0.9136
     0.9034   0.9018   0.8846   0.8737   0.8450   0.8308   0.8241   0.7877
     0.7861   0.7740   0.7510   0.7409   0.7249   0.7133   0.7063   0.7014
     0.6992   0.6945   0.6780   0.6769   0.6677   0.6608   0.6595   0.6477
     0.6413   0.6370   0.6269   0.6207   0.6171   0.5976   0.5884   0.5537
     0.3395   0.3123   0.2032   0.0727   0.0504   0.0182   0.0049   0.0031
     0.0002   0.0001   0.0000   0.0000   0.0000   0.0000   0.0000   0.0000
     0.0000   0.0000   0.0000   0.0000   0.0000   0.0000   0.0000   0.0000
     0.0000   0.0000   0.0000   0.0000   0.0000   0.0000   0.0000   0.0000
     0.0000   0.0000

          k = 0.0000-0.5000 0.0000 ( 65180 PWs)   bands (ev):

   -92.8841 -92.8335 -92.7392 -92.6911 -92.6343 -92.5910 -92.5734 -92.4532
   -56.2377 -56.2182 -56.0957 -56.0846 -56.0785 -56.0715 -56.0370 -56.0078
   -55.9923 -55.9908 -55.9851 -55.9410 -55.9218 -55.8850 -55.8663 -55.8345
   -55.8265 -55.7797 -55.7786 -55.7757 -55.7674 -55.7284 -55.7034 -55.6180
   -31.4474 -31.4277 -31.2864 -31.2302 -31.1994 -31.0479 -31.0419 -30.8338
   -30.0281 -29.9856 -29.9613 -29.8525 -15.1872 -15.1393 -15.0833 -14.9560
   -14.8722 -14.7374 -14.5730 -14.4583 -14.3356 -14.2595 -14.2189 -14.2121
   -14.1603 -14.1479 -14.0978 -14.0670 -14.0527 -14.0166 -13.9688 -13.9306
   -13.7615 -13.7019 -13.6532 -13.6337 -13.5629 -13.5338 -13.4800 -13.4522
   -13.4346 -13.3866 -13.2801 -13.2650 -13.1874 -13.1390 -13.1277 -13.0990
   -13.0802 -13.0532 -13.0000 -12.9673 -12.9300 -12.8774 -12.8289 -12.8235
   -12.8097 -12.7754 -12.6860 -12.5760 -12.4932 -12.4567 -12.3318 -12.2848
   -11.9918 -11.9624 -11.9593 -11.9319 -11.8950 -11.8604 -11.8493 -11.8071
   -11.8033 -11.7589 -11.6959 -11.6829 -11.6690  -2.7702  -2.7130  -2.5626
    -2.4912  -2.2045  -2.1242  -1.9966  -1.8618  -1.8141  -1.8031  -1.7257
    -1.6943  -1.6112  -1.5766  -1.4960  -1.4586  -1.4218  -1.3941  -1.3307
    -1.2976  -1.2495  -1.2135  -1.1817  -1.1491  -1.0381  -0.9945  -0.9558
    -0.9512  -0.8666  -0.8369  -0.8162  -0.7675  -0.6746  -0.6069  -0.5137
    -0.4620  -0.3802  -0.3497  -0.2098  -0.1431  -0.1346  -0.0858   0.0324
     0.0962   0.2115   0.2820   0.2938   0.4169   0.4870   0.5750   0.6982
     0.8019   0.8353   0.8760   0.8926   0.9229   0.9368   0.9699   0.9868
     1.0013   1.1094   1.1711   1.2087   1.2361   1.5099   1.5232   1.5447
     1.6366   1.6618   1.6948   1.7116   1.7323   1.7558   1.7600   1.7840
     1.8273   1.8568   1.8891   1.8900   1.9202   1.9727   2.0657   2.0989
     2.2637   2.4220   2.4300   2.4527   2.4857   2.4936   2.5008   2.5488
     2.5633   2.5962   2.6087   2.6199   2.6402   2.6468   2.7194   2.7473
     2.8042   2.8072   2.8343   2.8385   2.8495   2.8531   2.8590   2.8650
     2.8692   2.8837   2.8967   2.9008   2.9634   2.9667   2.9834   3.0405
     3.9486   3.9674   4.0098   4.1048   4.5619   4.7332   4.9018   5.0235
     5.2838   5.3650   5.4898   5.6045   5.8685   5.8733   6.3812   6.6383
     6.7874   6.8970   7.1392   7.3136   7.5720   7.6493   7.7456   7.7537
     7.7784   7.9816   8.0266   8.1426   8.1853   8.3439   8.4683   8.5217
     8.6877   8.7630

     occupation numbers 
     1.0000   1.0000   1.0000   1.0000   1.0000   1.0000   1.0000   1.0000
     1.0000   1.0000   1.0000   1.0000   1.0000   1.0000   1.0000   1.0000
     1.0000   1.0000   1.0000   1.0000   1.0000   1.0000   1.0000   1.0000
     1.0000   1.0000   1.0000   1.0000   1.0000   1.0000   1.0000   1.0000
     1.0000   1.0000   1.0000   1.0000   1.0000   1.0000   1.0000   1.0000
     1.0000   1.0000   1.0000   1.0000   1.0000   1.0000   1.0000   1.0000
     1.0000   1.0000   1.0000   1.0000   1.0000   1.0000   1.0000   1.0000
     1.0000   1.0000   1.0000   1.0000   1.0000   1.0000   1.0000   1.0000
     1.0000   1.0000   1.0000   1.0000   1.0000   1.0000   1.0000   1.0000
     1.0000   1.0000   1.0000   1.0000   1.0000   1.0000   1.0000   1.0000
     1.0000   1.0000   1.0000   1.0000   1.0000   1.0000   1.0000   1.0000
     1.0000   1.0000   1.0000   1.0000   1.0000   1.0000   1.0000   1.0000
     1.0000   1.0000   1.0000   1.0000   1.0000   1.0000   1.0000   1.0000
     1.0000   1.0000   1.0000   1.0000   1.0000   1.0000   1.0000   1.0000
     1.0000   1.0000   1.0000   1.0000   1.0000   1.0000   1.0000   1.0000
     1.0000   1.0000   1.0000   1.0000   1.0000   1.0000   1.0000   1.0000
     1.0000   1.0000   1.0000   1.0000   1.0000   1.0000   1.0000   1.0000
     1.0000   1.0000   1.0000   1.0000   1.0000   1.0000   1.0000   1.0000
     1.0000   1.0000   1.0000   1.0000   1.0000   1.0000   1.0000   1.0000
     1.0000   1.0000   1.0000   1.0000   1.0000   1.0000   0.9999   0.9999
     0.9997   0.9997   0.9996   0.9996   0.9995   0.9995   0.9994   0.9993
     0.9993   0.9987   0.9983   0.9980   0.9977   0.9924   0.9920   0.9912
     0.9874   0.9861   0.9843   0.9833   0.9820   0.9804   0.9801   0.9783
     0.9748   0.9721   0.9688   0.9687   0.9655   0.9591   0.9454   0.9397
     0.9045   0.8583   0.8556   0.8478   0.8360   0.8331   0.8304   0.8117
     0.8059   0.7922   0.7868   0.7820   0.7730   0.7700   0.7360   0.7223
     0.6933   0.6917   0.6774   0.6752   0.6693   0.6673   0.6642   0.6609
     0.6586   0.6507   0.6435   0.6412   0.6059   0.6041   0.5945   0.5613
     0.1162   0.1108   0.0994   0.0769   0.0176   0.0092   0.0045   0.0026
     0.0007   0.0005   0.0002   0.0001   0.0000   0.0000   0.0000   0.0000
     0.0000   0.0000   0.0000   0.0000   0.0000   0.0000   0.0000   0.0000
     0.0000   0.0000   0.0000   0.0000   0.0000   0.0000   0.0000   0.0000
     0.0000   0.0000

          k = 0.2500 0.2500 0.0000 ( 65198 PWs)   bands (ev):

   -92.8841 -92.8335 -92.7392 -92.6911 -92.6343 -92.5910 -92.5734 -92.4532
   -56.2377 -56.2182 -56.0957 -56.0846 -56.0785 -56.0715 -56.0370 -56.0078
   -55.9923 -55.9908 -55.9851 -55.9410 -55.9218 -55.8850 -55.8663 -55.8345
   -55.8265 -55.7797 -55.7786 -55.7757 -55.7674 -55.7284 -55.7034 -55.6180
   -31.4460 -31.4295 -31.2859 -31.2302 -31.1996 -31.0475 -31.0422 -30.8338
   -30.0277 -29.9869 -29.9603 -29.8526 -15.1953 -15.1514 -15.0814 -14.9654
   -14.8400 -14.7163 -14.6486 -14.4378 -14.2854 -14.2712 -14.2349 -14.2065
   -14.1830 -14.1502 -14.1194 -14.0813 -14.0182 -14.0002 -13.8387 -13.8247
   -13.7943 -13.7758 -13.6954 -13.6835 -13.6031 -13.5981 -13.4639 -13.4251
   -13.3980 -13.3126 -13.2720 -13.2220 -13.1898 -13.1703 -13.1419 -13.1168
   -13.0872 -13.0433 -12.9905 -12.9545 -12.9295 -12.9149 -12.8989 -12.8847
   -12.8173 -12.7729 -12.6510 -12.6236 -12.5329 -12.4474 -12.2631 -12.2180
   -11.9919 -11.9801 -11.9489 -11.9375 -11.9305 -11.8682 -11.8331 -11.8268
   -11.7914 -11.7833 -11.6910 -11.6507 -11.6333  -2.8472  -2.6401  -2.5218
    -2.4249  -2.3069  -2.2425  -2.0396  -1.9000  -1.8814  -1.8451  -1.7546
    -1.7215  -1.6273  -1.5987  -1.5485  -1.4190  -1.3700  -1.2946  -1.2521
    -1.2056  -1.1838  -1.1607  -1.1175  -1.1029  -1.0115  -0.9616  -0.8893
    -0.8435  -0.8153  -0.7679  -0.7526  -0.6883  -0.6384  -0.5701  -0.5440
    -0.4491  -0.4070  -0.3721  -0.3390  -0.2838  -0.2055  -0.1719  -0.1368
    -0.0681  -0.0313   0.2332   0.3861   0.4153   0.4793   0.5172   0.5824
     0.6240   0.6932   0.7308   1.0026   1.0630   1.1371   1.1599   1.2174
     1.2400   1.2776   1.3150   1.3308   1.3582   1.4073   1.4141   1.4328
     1.4796   1.5138   1.5523   1.6141   1.6497   1.6652   1.6929   1.7288
     1.7853   1.8079   1.9361   2.0001   2.0343   2.0543   2.1278   2.1880
     2.2161   2.2518   2.2794   2.2883   2.4033   2.4420   2.5299   2.5970
     2.6096   2.6423   2.6970   2.7157   2.7192   2.7370   2.7519   2.7660
     2.7769   2.7816   2.7949   2.8084   2.8261   2.8377   2.8449   2.8562
     2.8830   2.8897   2.8979   2.9296   3.2294   3.3218   3.3787   3.4402
     3.4562   3.6923   3.7731   4.1305   4.3398   4.5606   4.8046   5.1293
     5.5003   5.5638   5.6298   5.6614   5.7228   6.0915   6.1565   6.2059
     6.8375   7.1387   7.2334   7.3749   7.4528   7.4810   7.5913   7.7598
     7.8254   7.9872   8.2026   8.2525   8.3252   8.3411   8.4390   8.4899
     8.5360   8.6459

     occupation numbers 
     1.0000   1.0000   1.0000   1.0000   1.0000   1.0000   1.0000   1.0000
     1.0000   1.0000   1.0000   1.0000   1.0000   1.0000   1.0000   1.0000
     1.0000   1.0000   1.0000   1.0000   1.0000   1.0000   1.0000   1.0000
     1.0000   1.0000   1.0000   1.0000   1.0000   1.0000   1.0000   1.0000
     1.0000   1.0000   1.0000   1.0000   1.0000   1.0000   1.0000   1.0000
     1.0000   1.0000   1.0000   1.0000   1.0000   1.0000   1.0000   1.0000
     1.0000   1.0000   1.0000   1.0000   1.0000   1.0000   1.0000   1.0000
     1.0000   1.0000   1.0000   1.0000   1.0000   1.0000   1.0000   1.0000
     1.0000   1.0000   1.0000   1.0000   1.0000   1.0000   1.0000   1.0000
     1.0000   1.0000   1.0000   1.0000   1.0000   1.0000   1.0000   1.0000
     1.0000   1.0000   1.0000   1.0000   1.0000   1.0000   1.0000   1.0000
     1.0000   1.0000   1.0000   1.0000   1.0000   1.0000   1.0000   1.0000
     1.0000   1.0000   1.0000   1.0000   1.0000   1.0000   1.0000   1.0000
     1.0000   1.0000   1.0000   1.0000   1.0000   1.0000   1.0000   1.0000
     1.0000   1.0000   1.0000   1.0000   1.0000   1.0000   1.0000   1.0000
     1.0000   1.0000   1.0000   1.0000   1.0000   1.0000   1.0000   1.0000
     1.0000   1.0000   1.0000   1.0000   1.0000   1.0000   1.0000   1.0000
     1.0000   1.0000   1.0000   1.0000   1.0000   1.0000   1.0000   1.0000
     1.0000   1.0000   1.0000   1.0000   1.0000   1.0000   1.0000   1.0000
     1.0000   1.0000   1.0000   1.0000   1.0000   1.0000   1.0000   0.9999
     0.9999   0.9999   0.9998   0.9993   0.9990   0.9986   0.9984   0.9979
     0.9977   0.9972   0.9967   0.9965   0.9960   0.9951   0.9949   0.9945
     0.9933   0.9923   0.9910   0.9885   0.9868   0.9860   0.9844   0.9822
     0.9782   0.9764   0.9636   0.9554   0.9504   0.9472   0.9344   0.9222
     0.9160   0.9075   0.9005   0.8982   0.8644   0.8515   0.8192   0.7918
     0.7864   0.7720   0.7467   0.7378   0.7361   0.7274   0.7200   0.7129
     0.7074   0.7049   0.6981   0.6911   0.6818   0.6756   0.6717   0.6657
     0.6510   0.6474   0.6428   0.6251   0.4498   0.3961   0.3640   0.3303
     0.3217   0.2080   0.1753   0.0716   0.0379   0.0177   0.0068   0.0016
     0.0002   0.0002   0.0001   0.0001   0.0001   0.0000   0.0000   0.0000
     0.0000   0.0000   0.0000   0.0000   0.0000   0.0000   0.0000   0.0000
     0.0000   0.0000   0.0000   0.0000   0.0000   0.0000   0.0000   0.0000
     0.0000   0.0000

          k = 0.2500-0.5000 0.0000 ( 65138 PWs)   bands (ev):

   -92.8841 -92.8335 -92.7392 -92.6911 -92.6343 -92.5910 -92.5734 -92.4532
   -56.2377 -56.2182 -56.0957 -56.0846 -56.0785 -56.0715 -56.0370 -56.0078
   -55.9923 -55.9908 -55.9851 -55.9410 -55.9218 -55.8850 -55.8663 -55.8345
   -55.8265 -55.7797 -55.7786 -55.7757 -55.7674 -55.7284 -55.7034 -55.6180
   -31.4458 -31.4294 -31.2861 -31.2300 -31.1997 -31.0477 -31.0421 -30.8339
   -30.0271 -29.9866 -29.9609 -29.8530 -15.1563 -15.1124 -15.0402 -14.9276
   -14.8939 -14.7780 -14.6790 -14.5552 -14.2508 -14.1944 -14.1709 -14.1453
   -14.1313 -14.1197 -14.0813 -14.0557 -14.0319 -13.9946 -13.9659 -13.9173
   -13.8422 -13.7936 -13.7156 -13.7077 -13.6412 -13.6096 -13.5194 -13.4833
   -13.3776 -13.3122 -13.2919 -13.2067 -13.1603 -13.1536 -13.1444 -13.1145
   -13.0829 -13.0394 -13.0031 -12.9525 -12.9388 -12.8604 -12.8508 -12.8278
   -12.7979 -12.7770 -12.6925 -12.5411 -12.4906 -12.4184 -12.3239 -12.2933
   -11.9919 -11.9560 -11.9437 -11.9329 -11.9056 -11.8744 -11.8455 -11.8047
   -11.7772 -11.7552 -11.7092 -11.6840 -11.6732  -2.6275  -2.5646  -2.4362
    -2.3597  -2.2251  -2.1438  -2.0209  -1.8720  -1.8128  -1.7931  -1.7334
    -1.7206  -1.6219  -1.5561  -1.4718  -1.4187  -1.4095  -1.3487  -1.3026
    -1.2715  -1.2226  -1.1851  -1.1510  -1.1126  -1.0980  -1.0551  -1.0253
    -0.9801  -0.9512  -0.8835  -0.7770  -0.7432  -0.6608  -0.5949  -0.5380
    -0.5012  -0.4863  -0.4187  -0.2702  -0.2605  -0.1332  -0.1225  -0.1135
    -0.0686  -0.0308   0.0001   0.0325   0.0972   0.3898   0.4834   0.5410
     0.5919   0.8709   0.8818   0.9737   1.0007   1.1609   1.2016   1.2361
     1.2591   1.2710   1.2941   1.3604   1.4133   1.4459   1.5179   1.6210
     1.6523   1.6714   1.6793   1.7160   1.7299   1.7387   1.7821   1.7919
     1.8116   1.8504   1.8599   1.8815   1.9166   1.9729   2.0193   2.0985
     2.2291   2.3740   2.3917   2.4100   2.4391   2.4616   2.4889   2.5098
     2.5224   2.5446   2.5953   2.6010   2.6439   2.6503   2.7010   2.7180
     2.7294   2.7365   2.7527   2.7658   2.7864   2.7934   2.8394   2.8462
     2.8531   2.8601   2.8702   2.8791   3.3986   3.4295   3.5610   3.6153
     3.9508   4.0120   4.0192   4.1522   4.5809   4.7539   4.9214   4.9777
     5.1329   5.3129   5.5076   5.5544   5.6284   5.6741   6.3385   6.4513
     6.4876   6.7562   7.3136   7.5841   7.6595   7.6992   7.7248   7.7757
     7.8817   7.9367   8.2169   8.3214   8.3574   8.4021   8.5505   8.5881
     8.6367   8.6699

     occupation numbers 
     1.0000   1.0000   1.0000   1.0000   1.0000   1.0000   1.0000   1.0000
     1.0000   1.0000   1.0000   1.0000   1.0000   1.0000   1.0000   1.0000
     1.0000   1.0000   1.0000   1.0000   1.0000   1.0000   1.0000   1.0000
     1.0000   1.0000   1.0000   1.0000   1.0000   1.0000   1.0000   1.0000
     1.0000   1.0000   1.0000   1.0000   1.0000   1.0000   1.0000   1.0000
     1.0000   1.0000   1.0000   1.0000   1.0000   1.0000   1.0000   1.0000
     1.0000   1.0000   1.0000   1.0000   1.0000   1.0000   1.0000   1.0000
     1.0000   1.0000   1.0000   1.0000   1.0000   1.0000   1.0000   1.0000
     1.0000   1.0000   1.0000   1.0000   1.0000   1.0000   1.0000   1.0000
     1.0000   1.0000   1.0000   1.0000   1.0000   1.0000   1.0000   1.0000
     1.0000   1.0000   1.0000   1.0000   1.0000   1.0000   1.0000   1.0000
     1.0000   1.0000   1.0000   1.0000   1.0000   1.0000   1.0000   1.0000
     1.0000   1.0000   1.0000   1.0000   1.0000   1.0000   1.0000   1.0000
     1.0000   1.0000   1.0000   1.0000   1.0000   1.0000   1.0000   1.0000
     1.0000   1.0000   1.0000   1.0000   1.0000   1.0000   1.0000   1.0000
     1.0000   1.0000   1.0000   1.0000   1.0000   1.0000   1.0000   1.0000
     1.0000   1.0000   1.0000   1.0000   1.0000   1.0000   1.0000   1.0000
     1.0000   1.0000   1.0000   1.0000   1.0000   1.0000   1.0000   1.0000
     1.0000   1.0000   1.0000   1.0000   1.0000   1.0000   1.0000   1.0000
     1.0000   1.0000   1.0000   1.0000   1.0000   1.0000   1.0000   0.9999
     0.9999   0.9996   0.9996   0.9994   0.9993   0.9984   0.9980   0.9977
     0.9974   0.9973   0.9970   0.9960   0.9949   0.9942   0.9921   0.9882
     0.9866   0.9856   0.9852   0.9830   0.9821   0.9816   0.9785   0.9777
     0.9761   0.9727   0.9718   0.9696   0.9659   0.9590   0.9526   0.9398
     0.9129   0.8737   0.8682   0.8622   0.8525   0.8447   0.8348   0.8270
     0.8221   0.8135   0.7926   0.7901   0.7713   0.7684   0.7449   0.7367
     0.7311   0.7276   0.7196   0.7130   0.7025   0.6989   0.6747   0.6710
     0.6673   0.6636   0.6580   0.6532   0.3529   0.3360   0.2681   0.2422
     0.1156   0.0988   0.0970   0.0673   0.0165   0.0084   0.0042   0.0032
     0.0016   0.0006   0.0002   0.0002   0.0001   0.0001   0.0000   0.0000
     0.0000   0.0000   0.0000   0.0000   0.0000   0.0000   0.0000   0.0000
     0.0000   0.0000   0.0000   0.0000   0.0000   0.0000   0.0000   0.0000
     0.0000   0.0000

          k =-0.5000-0.5000 0.0000 ( 65132 PWs)   bands (ev):

   -92.8841 -92.8335 -92.7392 -92.6911 -92.6343 -92.5910 -92.5734 -92.4532
   -56.2377 -56.2182 -56.0957 -56.0846 -56.0785 -56.0715 -56.0370 -56.0078
   -55.9923 -55.9908 -55.9851 -55.9410 -55.9218 -55.8850 -55.8663 -55.8345
   -55.8265 -55.7796 -55.7786 -55.7757 -55.7674 -55.7284 -55.7034 -55.6180
   -31.4437 -31.4314 -31.2857 -31.2299 -31.2001 -31.0476 -31.0423 -30.8341
   -30.0261 -29.9876 -29.9605 -29.8534 -15.1090 -15.0851 -14.9684 -14.9527
   -14.8555 -14.8251 -14.7857 -14.6544 -14.1617 -14.1486 -14.1165 -14.0964
   -14.0787 -14.0529 -14.0384 -14.0261 -14.0070 -14.0008 -13.9847 -13.9090
   -13.9012 -13.8645 -13.8368 -13.7894 -13.7267 -13.6703 -13.5571 -13.5239
   -13.3282 -13.2897 -13.2203 -13.1965 -13.1607 -13.1550 -13.1456 -13.1317
   -13.1251 -12.9959 -12.9817 -12.9548 -12.9436 -12.9059 -12.8798 -12.7944
   -12.7744 -12.7662 -12.7087 -12.5110 -12.4867 -12.3779 -12.3140 -12.3094
   -11.9919 -11.9524 -11.9401 -11.9222 -11.9054 -11.8704 -11.8530 -11.8176
   -11.7571 -11.7375 -11.7319 -11.6820 -11.6789  -2.4005  -2.3281  -2.3211
    -2.2474  -2.2091  -2.1309  -2.0630  -1.9356  -1.8220  -1.7928  -1.7470
    -1.6963  -1.6241  -1.6086  -1.5393  -1.4964  -1.3777  -1.3455  -1.2986
    -1.2736  -1.2091  -1.1601  -1.1431  -1.1299  -1.0726  -1.0336  -1.0122
[...]
     0.6336   0.6208   0.6184   0.6145   0.6099   0.6048   0.5990   0.5263
     0.3527   0.3155   0.2025   0.0769   0.0445   0.0203   0.0050   0.0030
     0.0002   0.0001   0.0000   0.0000   0.0000   0.0000   0.0000   0.0000
     0.0000   0.0000   0.0000   0.0000   0.0000   0.0000   0.0000   0.0000
     0.0000   0.0000   0.0000   0.0000   0.0000   0.0000   0.0000   0.0000
     0.0000   0.0000

          k =-0.5000 0.0000 0.0000 ( 65180 PWs)   bands (ev):

   -92.8841 -92.8335 -92.7392 -92.6911 -92.6343 -92.5910 -92.5734 -92.4532
   -56.2377 -56.2182 -56.0957 -56.0846 -56.0785 -56.0715 -56.0370 -56.0078
   -55.9923 -55.9908 -55.9851 -55.9410 -55.9218 -55.8850 -55.8663 -55.8345
   -55.8265 -55.7797 -55.7786 -55.7757 -55.7674 -55.7284 -55.7034 -55.6180
   -31.4441 -31.4317 -31.2853 -31.2302 -31.1998 -31.0472 -31.0426 -30.8337
   -30.0273 -29.9882 -29.9593 -29.8527 -15.1937 -15.1389 -15.0785 -14.9657
   -14.8671 -14.7223 -14.5742 -14.4247 -14.3105 -14.2932 -14.2868 -14.2234
   -14.1670 -14.1361 -14.0850 -14.0699 -14.0572 -14.0118 -13.9852 -13.8845
   -13.7331 -13.6835 -13.6701 -13.6600 -13.5825 -13.5395 -13.4764 -13.4368
   -13.4129 -13.3983 -13.2247 -13.2138 -13.1977 -13.1846 -13.1696 -13.1187
   -13.0972 -13.0906 -12.9950 -12.9729 -12.9276 -12.8201 -12.8122 -12.8071
   -12.8031 -12.7772 -12.7121 -12.5812 -12.4971 -12.4604 -12.3279 -12.2862
   -11.9919 -11.9594 -11.9375 -11.9311 -11.9167 -11.8985 -11.8573 -11.7942
   -11.7763 -11.7435 -11.6988 -11.6900 -11.6744  -2.7610  -2.7230  -2.5602
    -2.5211  -2.2049  -2.1270  -1.9843  -1.8667  -1.8253  -1.7779  -1.7328
    -1.7097  -1.5852  -1.5420  -1.5240  -1.4428  -1.4084  -1.3894  -1.3611
    -1.3004  -1.2336  -1.2061  -1.1711  -1.0798  -1.0343  -0.9839  -0.9514
    -0.9313  -0.8960  -0.8509  -0.8272  -0.7878  -0.6774  -0.6185  -0.5352
    -0.4768  -0.3228  -0.2792  -0.2360  -0.1746  -0.1329  -0.1165   0.0216
     0.0513   0.0985   0.2600   0.3601   0.4079   0.5092   0.5644   0.6840
     0.6952   0.8285   0.8538   0.9086   0.9483   0.9758   0.9846   1.0334
     1.0546   1.1248   1.1735   1.2194   1.2354   1.5289   1.5393   1.5588
     1.5878   1.6811   1.6985   1.7088   1.7161   1.7514   1.7597   1.7957
     1.8186   1.8420   1.8975   1.9155   1.9670   1.9894   2.0453   2.1581
     2.2510   2.3221   2.3374   2.4183   2.4446   2.4692   2.5396   2.5489
     2.5577   2.5782   2.5925   2.6294   2.6513   2.6590   2.7055   2.7664
     2.7744   2.8200   2.8251   2.8344   2.8359   2.8550   2.8658   2.8764
     2.8842   2.9033   2.9070   2.9278   2.9475   2.9524   3.0815   3.0909
     3.8908   3.9653   4.0244   4.1442   4.6175   4.6987   4.9002   4.9227
     5.3791   5.4047   5.4864   5.5243   5.8601   5.8856   6.4186   6.5997
     6.7308   6.9510   7.1987   7.2591   7.6165   7.6315   7.6911   7.7370
     7.7910   7.9978   8.0723   8.1261   8.2507   8.3689   8.4029   8.4854
     8.6357   8.7502

     occupation numbers 
     1.0000   1.0000   1.0000   1.0000   1.0000   1.0000   1.0000   1.0000
     1.0000   1.0000   1.0000   1.0000   1.0000   1.0000   1.0000   1.0000
     1.0000   1.0000   1.0000   1.0000   1.0000   1.0000   1.0000   1.0000
     1.0000   1.0000   1.0000   1.0000   1.0000   1.0000   1.0000   1.0000
     1.0000   1.0000   1.0000   1.0000   1.0000   1.0000   1.0000   1.0000
     1.0000   1.0000   1.0000   1.0000   1.0000   1.0000   1.0000   1.0000
     1.0000   1.0000   1.0000   1.0000   1.0000   1.0000   1.0000   1.0000
     1.0000   1.0000   1.0000   1.0000   1.0000   1.0000   1.0000   1.0000
     1.0000   1.0000   1.0000   1.0000   1.0000   1.0000   1.0000   1.0000
     1.0000   1.0000   1.0000   1.0000   1.0000   1.0000   1.0000   1.0000
     1.0000   1.0000   1.0000   1.0000   1.0000   1.0000   1.0000   1.0000
     1.0000   1.0000   1.0000   1.0000   1.0000   1.0000   1.0000   1.0000
     1.0000   1.0000   1.0000   1.0000   1.0000   1.0000   1.0000   1.0000
     1.0000   1.0000   1.0000   1.0000   1.0000   1.0000   1.0000   1.0000
     1.0000   1.0000   1.0000   1.0000   1.0000   1.0000   1.0000   1.0000
     1.0000   1.0000   1.0000   1.0000   1.0000   1.0000   1.0000   1.0000
     1.0000   1.0000   1.0000   1.0000   1.0000   1.0000   1.0000   1.0000
     1.0000   1.0000   1.0000   1.0000   1.0000   1.0000   1.0000   1.0000
     1.0000   1.0000   1.0000   1.0000   1.0000   1.0000   1.0000   1.0000
     1.0000   1.0000   1.0000   1.0000   1.0000   1.0000   0.9999   0.9999
     0.9999   0.9997   0.9997   0.9995   0.9994   0.9994   0.9993   0.9991
     0.9990   0.9986   0.9983   0.9979   0.9977   0.9918   0.9914   0.9907
     0.9896   0.9851   0.9841   0.9835   0.9830   0.9807   0.9801   0.9774
     0.9755   0.9734   0.9680   0.9660   0.9598   0.9568   0.9487   0.9285
     0.9077   0.8890   0.8846   0.8595   0.8506   0.8420   0.8154   0.8117
     0.8082   0.7997   0.7937   0.7778   0.7680   0.7645   0.7427   0.7127
     0.7087   0.6850   0.6823   0.6774   0.6766   0.6663   0.6604   0.6547
     0.6504   0.6399   0.6378   0.6262   0.6150   0.6122   0.5372   0.5316
     0.1339   0.1114   0.0957   0.0688   0.0144   0.0105   0.0046   0.0041
     0.0005   0.0004   0.0003   0.0002   0.0000   0.0000   0.0000   0.0000
     0.0000   0.0000   0.0000   0.0000   0.0000   0.0000   0.0000   0.0000
     0.0000   0.0000   0.0000   0.0000   0.0000   0.0000   0.0000   0.0000
     0.0000   0.0000

          k =-0.2500 0.2500 0.0000 ( 65198 PWs)   bands (ev):

   -92.8841 -92.8335 -92.7392 -92.6911 -92.6343 -92.5910 -92.5734 -92.4532
   -56.2377 -56.2182 -56.0957 -56.0846 -56.0785 -56.0715 -56.0370 -56.0078
   -55.9923 -55.9908 -55.9851 -55.9410 -55.9218 -55.8850 -55.8663 -55.8345
   -55.8265 -55.7797 -55.7786 -55.7757 -55.7674 -55.7284 -55.7034 -55.6180
   -31.4460 -31.4295 -31.2859 -31.2302 -31.1996 -31.0475 -31.0422 -30.8338
   -30.0277 -29.9869 -29.9603 -29.8526 -15.1965 -15.1503 -15.0802 -14.9638
   -14.8456 -14.7220 -14.6402 -14.4281 -14.2920 -14.2632 -14.2470 -14.2017
   -14.1774 -14.1531 -14.1278 -14.0898 -14.0132 -14.0008 -13.8470 -13.8220
   -13.7905 -13.7710 -13.6958 -13.6739 -13.6075 -13.5954 -13.4710 -13.4224
   -13.3925 -13.3168 -13.2737 -13.2109 -13.1833 -13.1624 -13.1512 -13.1163
   -13.0971 -13.0368 -13.0083 -12.9603 -12.9421 -12.9329 -12.8979 -12.8635
   -12.8009 -12.7786 -12.6202 -12.6134 -12.5606 -12.4531 -12.2682 -12.2118
   -11.9919 -11.9792 -11.9580 -11.9308 -11.9186 -11.8777 -11.8429 -11.8201
   -11.7982 -11.7759 -11.6908 -11.6460 -11.6366  -2.8456  -2.6390  -2.5178
    -2.4263  -2.3114  -2.2452  -2.0370  -1.8971  -1.8789  -1.8431  -1.7553
    -1.7204  -1.6272  -1.5919  -1.5657  -1.4248  -1.3685  -1.2975  -1.2705
    -1.2087  -1.1909  -1.1502  -1.1218  -1.0814  -1.0178  -0.9697  -0.8999
    -0.8358  -0.8115  -0.7617  -0.7330  -0.6866  -0.6273  -0.5719  -0.5404
    -0.4320  -0.4094  -0.3884  -0.3473  -0.2871  -0.2109  -0.1718  -0.1266
    -0.0640  -0.0333   0.2132   0.3899   0.4225   0.4669   0.5255   0.5812
     0.6295   0.6980   0.7294   1.0108   1.1131   1.1537   1.1870   1.1981
     1.2348   1.2499   1.2962   1.3277   1.3396   1.3653   1.4163   1.4332
     1.4703   1.4975   1.5388   1.6270   1.6425   1.6645   1.6955   1.7268
     1.7664   1.8154   1.9246   2.0314   2.0550   2.1040   2.1239   2.1865
     2.2273   2.2543   2.2791   2.3000   2.4035   2.4410   2.5287   2.5982
     2.6087   2.6419   2.7058   2.7115   2.7273   2.7339   2.7469   2.7611
     2.7687   2.7855   2.7976   2.8069   2.8195   2.8292   2.8391   2.8483
     2.8824   2.8917   2.8975   2.9317   3.2228   3.3037   3.3800   3.4461
     3.4648   3.6767   3.7815   4.1298   4.3366   4.5628   4.8142   5.1296
     5.5017   5.5612   5.6343   5.6563   5.7234   6.1069   6.1401   6.2065
     6.8385   7.1591   7.2079   7.3718   7.4623   7.4867   7.5670   7.7702
     7.8667   7.9342   8.2023   8.2709   8.3255   8.3588   8.4512   8.4825
     8.5328   8.6240

     occupation numbers 
     1.0000   1.0000   1.0000   1.0000   1.0000   1.0000   1.0000   1.0000
     1.0000   1.0000   1.0000   1.0000   1.0000   1.0000   1.0000   1.0000
     1.0000   1.0000   1.0000   1.0000   1.0000   1.0000   1.0000   1.0000
     1.0000   1.0000   1.0000   1.0000   1.0000   1.0000   1.0000   1.0000
     1.0000   1.0000   1.0000   1.0000   1.0000   1.0000   1.0000   1.0000
     1.0000   1.0000   1.0000   1.0000   1.0000   1.0000   1.0000   1.0000
     1.0000   1.0000   1.0000   1.0000   1.0000   1.0000   1.0000   1.0000
     1.0000   1.0000   1.0000   1.0000   1.0000   1.0000   1.0000   1.0000
     1.0000   1.0000   1.0000   1.0000   1.0000   1.0000   1.0000   1.0000
     1.0000   1.0000   1.0000   1.0000   1.0000   1.0000   1.0000   1.0000
     1.0000   1.0000   1.0000   1.0000   1.0000   1.0000   1.0000   1.0000
     1.0000   1.0000   1.0000   1.0000   1.0000   1.0000   1.0000   1.0000
     1.0000   1.0000   1.0000   1.0000   1.0000   1.0000   1.0000   1.0000
     1.0000   1.0000   1.0000   1.0000   1.0000   1.0000   1.0000   1.0000
     1.0000   1.0000   1.0000   1.0000   1.0000   1.0000   1.0000   1.0000
     1.0000   1.0000   1.0000   1.0000   1.0000   1.0000   1.0000   1.0000
     1.0000   1.0000   1.0000   1.0000   1.0000   1.0000   1.0000   1.0000
     1.0000   1.0000   1.0000   1.0000   1.0000   1.0000   1.0000   1.0000
     1.0000   1.0000   1.0000   1.0000   1.0000   1.0000   1.0000   1.0000
     1.0000   1.0000   1.0000   1.0000   1.0000   1.0000   0.9999   0.9999
     0.9999   0.9999   0.9998   0.9992   0.9987   0.9984   0.9982   0.9981
     0.9977   0.9975   0.9970   0.9965   0.9963   0.9959   0.9949   0.9945
     0.9935   0.9928   0.9914   0.9879   0.9871   0.9860   0.9843   0.9824
     0.9796   0.9758   0.9649   0.9508   0.9471   0.9388   0.9352   0.9225
     0.9134   0.9069   0.9006   0.8951   0.8644   0.8519   0.8197   0.7913
     0.7868   0.7722   0.7426   0.7398   0.7321   0.7289   0.7225   0.7154
     0.7115   0.7030   0.6967   0.6919   0.6852   0.6801   0.6749   0.6699
     0.6514   0.6463   0.6430   0.6239   0.4537   0.4065   0.3632   0.3271
     0.3171   0.2146   0.1721   0.0717   0.0383   0.0176   0.0066   0.0016
     0.0002   0.0002   0.0001   0.0001   0.0001   0.0000   0.0000   0.0000
     0.0000   0.0000   0.0000   0.0000   0.0000   0.0000   0.0000   0.0000
     0.0000   0.0000   0.0000   0.0000   0.0000   0.0000   0.0000   0.0000
     0.0000   0.0000

          k =-0.5000 0.2500 0.0000 ( 65138 PWs)   bands (ev):

   -92.8841 -92.8335 -92.7392 -92.6911 -92.6343 -92.5910 -92.5734 -92.4532
   -56.2377 -56.2182 -56.0957 -56.0846 -56.0785 -56.0715 -56.0370 -56.0078
   -55.9923 -55.9908 -55.9851 -55.9410 -55.9218 -55.8850 -55.8663 -55.8345
   -55.8265 -55.7797 -55.7786 -55.7757 -55.7674 -55.7284 -55.7034 -55.6180
   -31.4439 -31.4316 -31.2855 -31.2300 -31.2000 -31.0474 -31.0424 -30.8339
   -30.0267 -29.9879 -29.9599 -29.8531 -15.1605 -15.1127 -15.0354 -14.9336
   -14.8937 -14.7699 -14.6785 -14.5457 -14.2429 -14.2122 -14.1998 -14.1547
   -14.1306 -14.1081 -14.0718 -14.0536 -14.0381 -13.9986 -13.9857 -13.8789
   -13.8136 -13.7649 -13.7561 -13.7201 -13.6419 -13.6269 -13.5139 -13.4659
   -13.3704 -13.3355 -13.2378 -13.1978 -13.1867 -13.1662 -13.1450 -13.1180
   -13.1093 -13.0503 -13.0008 -12.9542 -12.9360 -12.8621 -12.8450 -12.7958
   -12.7888 -12.7751 -12.7102 -12.5433 -12.4923 -12.4204 -12.3216 -12.2943
   -11.9919 -11.9521 -11.9394 -11.9254 -11.9132 -11.8920 -11.8620 -11.7809
   -11.7726 -11.7494 -11.7132 -11.6857 -11.6768  -2.6180  -2.5767  -2.4297
    -2.3876  -2.2247  -2.1457  -2.0085  -1.8723  -1.8128  -1.7865  -1.7487
    -1.7124  -1.6309  -1.5152  -1.4576  -1.4349  -1.4077  -1.3290  -1.3038
    -1.2636  -1.2480  -1.1874  -1.1540  -1.1188  -1.0842  -1.0552  -0.9958
    -0.9685  -0.9275  -0.8902  -0.7850  -0.7610  -0.6591  -0.6105  -0.5739
    -0.5082  -0.4376  -0.4031  -0.3018  -0.2618  -0.1996  -0.1527  -0.1040
    -0.0567  -0.0280   0.0054   0.0531   0.0914   0.4253   0.4774   0.5330
     0.5558   0.8413   0.9077   0.9762   1.0065   1.1762   1.2106   1.2481
     1.2574   1.2756   1.2932   1.3636   1.4117   1.4525   1.4894   1.6015
     1.6469   1.6719   1.6829   1.7152   1.7452   1.7619   1.7719   1.7891
     1.8141   1.8561   1.8729   1.9092   1.9347   1.9674   2.0217   2.1466
     2.2402   2.2696   2.3349   2.3716   2.4353   2.4666   2.4759   2.5184
     2.5453   2.5701   2.5924   2.6073   2.6501   2.6586   2.7059   2.7143
     2.7226   2.7428   2.7614   2.7724   2.7898   2.8020   2.8273   2.8403
     2.8477   2.8577   2.8644   2.8763   3.4130   3.4461   3.5959   3.6136
     3.9002   3.9742   4.0347   4.2275   4.6100   4.7111   4.8885   4.9367
     5.2465   5.2665   5.4884   5.5882   5.6106   5.6604   6.3302   6.4614
     6.5182   6.7132   7.3407   7.6011   7.6658   7.6794   7.7308   7.7805
     7.8458   7.9425   8.1805   8.3424   8.4124   8.4323   8.5032   8.5617
     8.6251   8.7047

     occupation numbers 
     1.0000   1.0000   1.0000   1.0000   1.0000   1.0000   1.0000   1.0000
     1.0000   1.0000   1.0000   1.0000   1.0000   1.0000   1.0000   1.0000
     1.0000   1.0000   1.0000   1.0000   1.0000   1.0000   1.0000   1.0000
     1.0000   1.0000   1.0000   1.0000   1.0000   1.0000   1.0000   1.0000
     1.0000   1.0000   1.0000   1.0000   1.0000   1.0000   1.0000   1.0000
     1.0000   1.0000   1.0000   1.0000   1.0000   1.0000   1.0000   1.0000
     1.0000   1.0000   1.0000   1.0000   1.0000   1.0000   1.0000   1.0000
     1.0000   1.0000   1.0000   1.0000   1.0000   1.0000   1.0000   1.0000
     1.0000   1.0000   1.0000   1.0000   1.0000   1.0000   1.0000   1.0000
     1.0000   1.0000   1.0000   1.0000   1.0000   1.0000   1.0000   1.0000
     1.0000   1.0000   1.0000   1.0000   1.0000   1.0000   1.0000   1.0000
     1.0000   1.0000   1.0000   1.0000   1.0000   1.0000   1.0000   1.0000
     1.0000   1.0000   1.0000   1.0000   1.0000   1.0000   1.0000   1.0000
     1.0000   1.0000   1.0000   1.0000   1.0000   1.0000   1.0000   1.0000
     1.0000   1.0000   1.0000   1.0000   1.0000   1.0000   1.0000   1.0000
     1.0000   1.0000   1.0000   1.0000   1.0000   1.0000   1.0000   1.0000
     1.0000   1.0000   1.0000   1.0000   1.0000   1.0000   1.0000   1.0000
     1.0000   1.0000   1.0000   1.0000   1.0000   1.0000   1.0000   1.0000
     1.0000   1.0000   1.0000   1.0000   1.0000   1.0000   1.0000   1.0000
     1.0000   1.0000   1.0000   1.0000   1.0000   1.0000   1.0000   0.9999
     0.9999   0.9997   0.9996   0.9994   0.9992   0.9983   0.9980   0.9976
     0.9975   0.9972   0.9970   0.9959   0.9950   0.9940   0.9930   0.9890
     0.9869   0.9856   0.9850   0.9831   0.9811   0.9800   0.9792   0.9779
     0.9759   0.9721   0.9705   0.9667   0.9638   0.9597   0.9522   0.9308
     0.9103   0.9030   0.8853   0.8744   0.8538   0.8429   0.8396   0.8237
     0.8131   0.8031   0.7938   0.7874   0.7685   0.7647   0.7425   0.7385
     0.7344   0.7245   0.7152   0.7096   0.7007   0.6944   0.6811   0.6742
     0.6702   0.6648   0.6612   0.6547   0.3450   0.3271   0.2513   0.2430
     0.1309   0.1090   0.0931   0.0539   0.0148   0.0100   0.0048   0.0039
     0.0009   0.0008   0.0003   0.0001   0.0001   0.0001   0.0000   0.0000
     0.0000   0.0000   0.0000   0.0000   0.0000   0.0000   0.0000   0.0000
     0.0000   0.0000   0.0000   0.0000   0.0000   0.0000   0.0000   0.0000
     0.0000   0.0000

     the Fermi energy is     3.1444 ev

!    total energy              =   -4440.30045326 Ry
     estimated scf accuracy    <          7.8E-09 Ry
     smearing contrib. (-TS)   =      -1.20797415 Ry
     internal energy E=F+TS    =   -4439.09247911 Ry

     The total energy is F=E-TS. E is the sum of the following terms:
     one-electron contribution =  -20888.98157858 Ry
     hartree contribution      =   10573.45637798 Ry
     xc contribution           =    -693.24398351 Ry
     ewald contribution        =    6845.86818414 Ry
     one-center paw contrib.   =    -276.19147915 Ry
      -> PAW hartree energy AE =      25.15448590 Ry
      -> PAW hartree energy PS =     -25.03845434 Ry
      -> PAW xc energy AE      =     -16.51634133 Ry
      -> PAW xc energy PS      =       6.87573309 Ry
      -> total E_H with PAW    =   10573.57240954 Ry
      -> total E_XC with PAW   =    -702.88459174 Ry

     convergence has been achieved in  55 iterations

     Writing all to output data dir /bsuhome/zayahcortright/scratch/pwscf.save/
 
     init_run     :      7.82s CPU      8.56s WALL (       1 calls)
     electrons    :    769.56s CPU    807.70s WALL (       1 calls)

     Called by init_run:
     wfcinit      :      6.29s CPU      6.51s WALL (       1 calls)
     wfcinit:atom :      0.04s CPU      0.06s WALL (       5 calls)
     wfcinit:wfcr :      5.97s CPU      6.11s WALL (       5 calls)
     potinit      :      0.19s CPU      0.22s WALL (       1 calls)
     hinit0       :      0.48s CPU      0.70s WALL (       1 calls)

     Called by electrons:
     c_bands      :    606.95s CPU    614.52s WALL (      55 calls)
     sum_band     :    121.74s CPU    138.66s WALL (      55 calls)
     v_of_rho     :      5.98s CPU      6.35s WALL (      56 calls)
     v_h          :      0.52s CPU      0.53s WALL (      56 calls)
     v_xc         :      5.45s CPU      5.82s WALL (      56 calls)
     newd         :     18.02s CPU     30.96s WALL (      56 calls)
     PAW_pot      :      1.83s CPU      1.86s WALL (      56 calls)
     mix_rho      :     14.63s CPU     15.01s WALL (      55 calls)

     Called by c_bands:
     init_us_2    :      7.80s CPU      7.89s WALL (     555 calls)
     init_us_2:cp :      7.79s CPU      7.89s WALL (     555 calls)
     cegterg      :    572.13s CPU    579.34s WALL (     275 calls)

     Called by sum_band:
     sum_band:wei :      0.39s CPU      0.40s WALL (      55 calls)
     sum_band:loo :    101.99s CPU    102.75s WALL (      55 calls)
     sum_band:buf :      1.56s CPU      1.63s WALL (     275 calls)
     sum_band:ini :      3.66s CPU      3.68s WALL (     275 calls)
     sum_band:cal :     21.93s CPU     21.99s WALL (     275 calls)
     sum_band:bec :      0.61s CPU      0.61s WALL (     275 calls)
     addusdens    :     17.56s CPU     33.63s WALL (      55 calls)
                                        0.00s GPU  (      55 calls)
     addusd:skk   :      0.31s CPU      1.06s WALL (     165 calls)
                                        0.00s GPU  (     165 calls)

     Called by *egterg:
     cdiaghg      :     54.90s CPU     55.14s WALL (    1250 calls)
     cegterg:over :     42.09s CPU     42.33s WALL (     975 calls)
     cegterg:upda :     30.00s CPU     30.58s WALL (     975 calls)
     cegterg:last :     61.15s CPU     61.40s WALL (     477 calls)
     cdiaghg:chol :      3.15s CPU      3.18s WALL (    1250 calls)
     cdiaghg:inve :      2.79s CPU      2.81s WALL (    1250 calls)
     cdiaghg:para :      7.27s CPU      7.31s WALL (    2500 calls)
     h_psi        :    323.28s CPU    326.75s WALL (    1255 calls)
     s_psi        :     42.99s CPU     43.15s WALL (    1255 calls)
     g_psi        :      1.13s CPU      1.14s WALL (     975 calls)

     Called by h_psi:
     h_psi:calbec :     48.85s CPU     49.09s WALL (    1255 calls)
     vloc_psi     :    228.49s CPU    230.71s WALL (    1255 calls)
     add_vuspsi   :     42.78s CPU     42.99s WALL (    1255 calls)

     General routines
     calbec       :     70.77s CPU     71.08s WALL (    1530 calls)
     fft          :      4.16s CPU      4.21s WALL (     726 calls)
     ffts         :      5.40s CPU      5.45s WALL (    6045 calls)
     fftw         :    196.57s CPU    198.20s WALL (  367800 calls)
     interpolate  :      0.45s CPU      0.46s WALL (      56 calls)
 
     Parallel routines

     PAW routines
     PAW_pot      :      1.83s CPU      1.86s WALL (      56 calls)
 
     PWSCF        :  12m59.05s CPU  13m41.39s WALL

 
   This run was terminated on:  15: 7:51  21Jun2024            

=------------------------------------------------------------------------------=
   JOB DONE.
=------------------------------------------------------------------------------=
