
     Program PWSCF v.7.2 starts on 22Jun2024 at  1: 4:32 

     This program is part of the open-source Quantum ESPRESSO suite
     for quantum simulation of materials; please cite
         "P. Giannozzi et al., J. Phys.:Condens. Matter 21 395502 (2009);
         "P. Giannozzi et al., J. Phys.:Condens. Matter 29 465901 (2017);
         "P. Giannozzi et al., J. Chem. Phys. 152 154105 (2020);
          URL http://www.quantum-espresso.org", 
     in publications or presentations arising from this work. More details at
     http://www.quantum-espresso.org/quote

     Parallel version (MPI & OpenMP), running on      48 processor cores
     Number of MPI processes:                48
     Threads/MPI process:                     1

     MPI processes distributed on     1 nodes
     60570 MiB available memory on the printing compute node when the environment starts
 
     Reading input from espresso.pwi
Warning: card &CELL ignored
Warning: card / ignored
Warning: card &FCP ignored
Warning: card / ignored
Warning: card &RISM ignored
Warning: card / ignored

     Current dimensions of program PWSCF are:
     Max number of different atomic species (ntypx) = 10
     Max number of k-points (npk) =  40000
     Max angular momentum in pseudopotentials (lmaxx) =  4
     file O.pbe-n-kjpaw_psl.0.1.UPF: wavefunction(s)  2P renormalized
     signal trapping enabled: kill the code with -SIGUSR1 to stop cleanly the simulation 
 
     K-points division:     npool     =       2
     R & G space division:  proc/nbgrp/npool/nimage =      24
     Subspace diagonalization in iterative solution of the eigenvalue problem:
     one sub-group per band group will be used
     scalapack distributed-memory algorithm (size of sub-group:  3*  3 procs)

 
     Parallelization info
     --------------------
     sticks:   dense  smooth     PW     G-vecs:    dense   smooth      PW
     Min         350     175     47                61430    21716    3036
     Max         351     177     48                61449    21727    3041
     Sum        8421    4205   1137              1474595   521381   72913
 
     Using Slab Decomposition
 


     bravais-lattice index     =            0
     lattice parameter (alat)  =      14.8599  a.u.
     unit-cell volume          =    8305.1283 (a.u.)^3
     number of atoms/cell      =           49
     number of atomic types    =            3
     number of electrons       =       430.00
     number of Kohn-Sham states=          258
     kinetic-energy cutoff     =      60.0000  Ry
     charge density cutoff     =     480.0000  Ry
     scf convergence threshold =      1.0E-08
     mixing beta               =       0.1500
     number of iterations used =            8  local-TF  mixing
     Exchange-correlation= SLA  PW   PBE  PBE
                           (   1   4   3   4   0   0   0)

     celldm(1)=  14.859904  celldm(2)=   0.000000  celldm(3)=   0.000000
     celldm(4)=   0.000000  celldm(5)=   0.000000  celldm(6)=   0.000000

     crystal axes: (cart. coord. in units of alat)
               a(1) = (   1.000000   0.000000   0.000000 )  
               a(2) = (   0.000000   1.000000   0.000000 )  
               a(3) = (   0.000000   0.000000   2.531036 )  

     reciprocal axes: (cart. coord. in units 2 pi/alat)
               b(1) = (  1.000000  0.000000  0.000000 )  
               b(2) = (  0.000000  1.000000  0.000000 )  
               b(3) = (  0.000000  0.000000  0.395095 )  


     PseudoPot. # 1 for Sr read from file:
     /bsuhome/zayahcortright/q-e/pseudo/Sr_pbe_v1.uspp.F.UPF
     MD5 check sum: 6b418c05fbe9db5448babca5e47b7a5b
     Pseudo is Ultrasoft + core correction, Zval = 10.0
     Generated by new atomic code, or converted to UPF format
     Using radial grid of  883 points,  6 beta functions with: 
                l(1) =   0
                l(2) =   0
                l(3) =   1
                l(4) =   1
                l(5) =   2
                l(6) =   2
     Q(r) pseudized with  6 coefficients,  rinner =    1.400   1.400   1.400
                                                       1.400   1.400

     PseudoPot. # 2 for O  read from file:
     /bsuhome/zayahcortright/q-e/pseudo/O.pbe-n-kjpaw_psl.0.1.UPF
     MD5 check sum: 0234752ac141de4415c5fc33072bef88
     Pseudo is Projector augmented-wave + core cor, Zval =  6.0
     Generated using "atomic" code by A. Dal Corso  v.5.0.99 svn rev. 10869
     Shape of augmentation charge: BESSEL
     Using radial grid of 1095 points,  4 beta functions with: 
                l(1) =   0
                l(2) =   0
                l(3) =   1
                l(4) =   1
     Q(r) pseudized with 0 coefficients 


     PseudoPot. # 3 for Co read from file:
     /bsuhome/zayahcortright/q-e/pseudo/Co_pbe_v1.2.uspp.F.UPF
     MD5 check sum: 5f91765df6ddd3222702df6e7b74a16d
     Pseudo is Ultrasoft + core correction, Zval = 17.0
     Generated by new atomic code, or converted to UPF format
     Using radial grid of  863 points,  6 beta functions with: 
                l(1) =   0
                l(2) =   0
                l(3) =   1
                l(4) =   1
                l(5) =   2
                l(6) =   2
     Q(r) pseudized with  8 coefficients,  rinner =    1.200   1.200   1.200
                                                       1.200   1.200

     atomic species   valence    mass     pseudopotential
        Sr            10.00    87.62000     Sr( 1.00)
        O              6.00    15.99900     O ( 1.00)
        Co            17.00    58.93319     Co( 1.00)

     No symmetry found


                                    s                        frac. trans.

      isym =  1     identity                                     

 cryst.   s( 1) = (     1          0          0      )
                  (     0          1          0      )
                  (     0          0          1      )

 cart.    s( 1) = (  1.0000000  0.0000000  0.0000000 )
                  (  0.0000000  1.0000000  0.0000000 )
                  (  0.0000000  0.0000000  1.0000000 )


   Cartesian axes

     site n.     atom                  positions (alat units)
         1           Sr  tau(   1) = (   0.2508693   0.7491307   1.7574407  )
         2           O   tau(   2) = (   0.4985141   0.5014859   1.7715967  )
         3           Sr  tau(   3) = (   0.7482398   0.7454518   1.7648669  )
         4           Sr  tau(   4) = (   0.7441748   0.2558252   1.7667843  )
         5           Sr  tau(   5) = (   0.2508693   0.7491307   1.2696799  )
         6           Sr  tau(   6) = (   0.2508693   0.7491307   0.7632319  )
         7           Co  tau(   7) = (   0.4998914   0.5001086   1.0164559  )
         8           Co  tau(   8) = (   0.4936915   0.5063085   1.5135603  )
         9           O   tau(   9) = (   0.4988895   0.7610401   1.0164559  )
        10           O   tau(  10) = (   0.2389599   0.5011105   1.0164559  )
        11           O   tau(  11) = (   0.0070918   0.7374880   1.0164559  )
        12           O   tau(  12) = (   0.0088340   0.7405089   1.5135603  )
        13           O   tau(  13) = (   0.5066944   0.7415376   1.5135603  )
        14           O   tau(  14) = (   0.2584624   0.4933056   1.5135603  )
        15           O   tau(  15) = (   0.4985141   0.5014859   0.7773880  )
        16           O   tau(  16) = (   0.4985141   0.5014859   1.2555238  )
        17           Sr  tau(  17) = (   0.7482398   0.7454518   0.7706582  )
        18           Sr  tau(  18) = (   0.7482398   0.7454518   1.2622536  )
        19           Sr  tau(  19) = (   0.7441748   0.2558252   0.7725755  )
        20           Sr  tau(  20) = (   0.7441748   0.2558252   1.2603363  )
        21           O   tau(  21) = (   0.7322655   0.0078049   1.5135603  )
        22           O   tau(  22) = (   0.7558175   0.4996027   1.5135603  )
        23           O   tau(  23) = (   0.5003973   0.2441825   1.5135603  )
        24           O   tau(  24) = (   0.7527966   0.4978604   1.0164559  )
        25           O   tau(  25) = (   0.5021396   0.2472034   1.0164559  )
        26           O   tau(  26) = (   0.7517679   0.0000000   1.0164559  )
        27           O   tau(  27) = (   0.0114961   0.4948124   1.7455321  )
        28           O   tau(  28) = (   0.0048226   0.0077944   1.7715967  )
        29           Sr  tau(  29) = (   0.2545482   0.2517602   1.7648669  )
        30           O   tau(  30) = (   0.5048017   0.0015068   1.7786929  )
        31           Co  tau(  31) = (   0.0056869   0.5006215   1.0164559  )
        32           Co  tau(  32) = (   0.0065315   0.4997770   1.5135603  )
        33           Co  tau(  33) = (   0.0061999   0.0064171   1.0164559  )
        34           Co  tau(  34) = (   0.0000000   0.0126169   1.5135603  )
        35           O   tau(  35) = (   0.0114961   0.4948124   1.2815885  )
        36           O   tau(  36) = (   0.0114961   0.4948124   0.7513233  )
        37           O   tau(  37) = (   0.0051979   0.2673486   1.0164559  )
        38           O   tau(  38) = (   0.0130029   0.2478461   1.5135603  )
        39           O   tau(  39) = (   0.0048226   0.0077944   0.7773880  )
        40           O   tau(  40) = (   0.0048226   0.0077944   1.2555238  )
        41           Sr  tau(  41) = (   0.2545482   0.2517602   0.7706582  )
        42           Sr  tau(  42) = (   0.2545482   0.2517602   1.2622536  )
        43           Co  tau(  43) = (   0.4989925   0.0073160   1.5135603  )
        44           Co  tau(  44) = (   0.4998370   0.0064714   1.0164559  )
        45           O   tau(  45) = (   0.5048017   0.0015068   0.7844841  )
        46           O   tau(  46) = (   0.5048017   0.0015068   1.2484277  )
        47           O   tau(  47) = (   0.2621260   0.0059111   1.5135603  )
        48           O   tau(  48) = (   0.2591051   0.0041689   1.0164559  )
        49           O   tau(  49) = (   0.8529874   0.4264937   2.1602013  )

   Crystallographic axes

     site n.     atom                  positions (cryst. coord.)
         1           Sr  tau(   1) = (  0.2508693  0.7491307  0.6943562  )
         2           O   tau(   2) = (  0.4985141  0.5014859  0.6999492  )
         3           Sr  tau(   3) = (  0.7482398  0.7454518  0.6972903  )
         4           Sr  tau(   4) = (  0.7441748  0.2558252  0.6980478  )
         5           Sr  tau(   5) = (  0.2508693  0.7491307  0.5016443  )
         6           Sr  tau(   6) = (  0.2508693  0.7491307  0.3015492  )
         7           Co  tau(   7) = (  0.4998914  0.5001086  0.4015968  )
         8           Co  tau(   8) = (  0.4936915  0.5063085  0.5980003  )
         9           O   tau(   9) = (  0.4988895  0.7610401  0.4015968  )
        10           O   tau(  10) = (  0.2389599  0.5011105  0.4015968  )
        11           O   tau(  11) = (  0.0070918  0.7374880  0.4015968  )
        12           O   tau(  12) = (  0.0088340  0.7405089  0.5980003  )
        13           O   tau(  13) = (  0.5066944  0.7415376  0.5980003  )
        14           O   tau(  14) = (  0.2584624  0.4933056  0.5980003  )
        15           O   tau(  15) = (  0.4985141  0.5014859  0.3071422  )
        16           O   tau(  16) = (  0.4985141  0.5014859  0.4960513  )
        17           Sr  tau(  17) = (  0.7482398  0.7454518  0.3044833  )
        18           Sr  tau(  18) = (  0.7482398  0.7454518  0.4987103  )
        19           Sr  tau(  19) = (  0.7441748  0.2558252  0.3052408  )
        20           Sr  tau(  20) = (  0.7441748  0.2558252  0.4979527  )
        21           O   tau(  21) = (  0.7322655  0.0078049  0.5980003  )
        22           O   tau(  22) = (  0.7558175  0.4996027  0.5980003  )
        23           O   tau(  23) = (  0.5003973  0.2441825  0.5980003  )
        24           O   tau(  24) = (  0.7527966  0.4978604  0.4015968  )
        25           O   tau(  25) = (  0.5021396  0.2472034  0.4015968  )
        26           O   tau(  26) = (  0.7517679  0.0000000  0.4015968  )
        27           O   tau(  27) = (  0.0114961  0.4948124  0.6896512  )
        28           O   tau(  28) = (  0.0048226  0.0077944  0.6999492  )
        29           Sr  tau(  29) = (  0.2545482  0.2517602  0.6972903  )
        30           O   tau(  30) = (  0.5048017  0.0015068  0.7027529  )
        31           Co  tau(  31) = (  0.0056869  0.5006215  0.4015968  )
        32           Co  tau(  32) = (  0.0065315  0.4997770  0.5980003  )
        33           Co  tau(  33) = (  0.0061999  0.0064171  0.4015968  )
        34           Co  tau(  34) = (  0.0000000  0.0126169  0.5980003  )
        35           O   tau(  35) = (  0.0114961  0.4948124  0.5063494  )
        36           O   tau(  36) = (  0.0114961  0.4948124  0.2968442  )
        37           O   tau(  37) = (  0.0051979  0.2673486  0.4015968  )
        38           O   tau(  38) = (  0.0130029  0.2478461  0.5980003  )
        39           O   tau(  39) = (  0.0048226  0.0077944  0.3071422  )
        40           O   tau(  40) = (  0.0048226  0.0077944  0.4960513  )
        41           Sr  tau(  41) = (  0.2545482  0.2517602  0.3044833  )
        42           Sr  tau(  42) = (  0.2545482  0.2517602  0.4987103  )
        43           Co  tau(  43) = (  0.4989925  0.0073160  0.5980003  )
        44           Co  tau(  44) = (  0.4998370  0.0064714  0.4015968  )
        45           O   tau(  45) = (  0.5048017  0.0015068  0.3099459  )
        46           O   tau(  46) = (  0.5048017  0.0015068  0.4932477  )
        47           O   tau(  47) = (  0.2621260  0.0059111  0.5980003  )
        48           O   tau(  48) = (  0.2591051  0.0041689  0.4015968  )
        49           O   tau(  49) = (  0.8529874  0.4264937  0.8534850  )

     number of k points=    10  Gaussian smearing, width (Ry)=  0.0700
                       cart. coord. in units 2pi/alat
        k(    1) = (   0.0000000   0.0000000   0.0000000), wk =   0.1250000
        k(    2) = (   0.0000000   0.2500000   0.0000000), wk =   0.2500000
        k(    3) = (   0.0000000  -0.5000000   0.0000000), wk =   0.1250000
        k(    4) = (   0.2500000   0.2500000   0.0000000), wk =   0.2500000
        k(    5) = (   0.2500000  -0.5000000   0.0000000), wk =   0.2500000
        k(    6) = (  -0.5000000  -0.5000000   0.0000000), wk =   0.1250000
        k(    7) = (   0.2500000   0.0000000   0.0000000), wk =   0.2500000
        k(    8) = (  -0.5000000   0.0000000   0.0000000), wk =   0.1250000
        k(    9) = (  -0.2500000   0.2500000   0.0000000), wk =   0.2500000
        k(   10) = (  -0.5000000   0.2500000   0.0000000), wk =   0.2500000

                       cryst. coord.
        k(    1) = (   0.0000000   0.0000000   0.0000000), wk =   0.1250000
        k(    2) = (   0.0000000   0.2500000   0.0000000), wk =   0.2500000
        k(    3) = (   0.0000000  -0.5000000   0.0000000), wk =   0.1250000
        k(    4) = (   0.2500000   0.2500000   0.0000000), wk =   0.2500000
        k(    5) = (   0.2500000  -0.5000000   0.0000000), wk =   0.2500000
        k(    6) = (  -0.5000000  -0.5000000   0.0000000), wk =   0.1250000
        k(    7) = (   0.2500000   0.0000000   0.0000000), wk =   0.2500000
        k(    8) = (  -0.5000000   0.0000000   0.0000000), wk =   0.1250000
        k(    9) = (  -0.2500000   0.2500000   0.0000000), wk =   0.2500000
        k(   10) = (  -0.5000000   0.2500000   0.0000000), wk =   0.2500000

     Dense  grid:  1474595 G-vectors     FFT dimensions: ( 108, 108, 270)

     Smooth grid:   521381 G-vectors     FFT dimensions: (  75,  75, 192)

     Dynamical RAM for                 wfc:      10.69 MB

     Dynamical RAM for     wfc (w. buffer):      64.13 MB

     Dynamical RAM for           str. fact:       2.81 MB

     Dynamical RAM for           local pot:       0.00 MB

     Dynamical RAM for          nlocal pot:      24.53 MB

     Dynamical RAM for                qrad:       5.27 MB

     Dynamical RAM for          rho,v,vnew:       6.02 MB

     Dynamical RAM for               rhoin:       2.01 MB

     Dynamical RAM for            rho*nmix:      15.00 MB

     Dynamical RAM for           G-vectors:       3.68 MB

     Dynamical RAM for          h,s,v(r/c):       1.35 MB

     Dynamical RAM for          <psi|beta>:       2.33 MB

     Dynamical RAM for                 psi:      21.38 MB

     Dynamical RAM for                hpsi:      21.38 MB

     Dynamical RAM for                spsi:      21.38 MB

     Dynamical RAM for      wfcinit/wfcrot:      34.39 MB

     Dynamical RAM for           addusdens:     101.26 MB

     Estimated static dynamical RAM per process >     117.53 MB

     Estimated max dynamical RAM per process >     233.79 MB

     Estimated total dynamical RAM >      10.61 GB

     Check: negative core charge=   -0.000004

     Initial potential from superposition of free atoms

     starting charge     421.5961, renormalised to     430.0000

     negative rho (up, down):  7.826E-01 0.000E+00
     Starting wfcs are  376 randomized atomic wfcs
     Checking if some PAW data can be deallocated... 
       PAW data deallocated on   19 nodes for type:  2

     total cpu time spent up to now is       10.3 secs

     Self-consistent Calculation

     iteration #  1     ecut=    60.00 Ry     beta= 0.15
     Davidson diagonalization with overlap

---- Real-time Memory Report at c_bands before calling an iterative solver
             0 MiB given to the printing process from OS
             0 MiB allocation reported by mallinfo(arena+hblkhd)
         51470 MiB available memory on the node where the printing process lives
------------------
     ethr =  1.00E-02,  avg # of iterations =  2.0

     negative rho (up, down):  7.717E-01 0.000E+00

     total cpu time spent up to now is       26.3 secs

     total energy              =   -4445.23983901 Ry
     estimated scf accuracy    <      54.01102428 Ry

     iteration #  2     ecut=    60.00 Ry     beta= 0.15
     Davidson diagonalization with overlap

---- Real-time Memory Report at c_bands before calling an iterative solver
             0 MiB given to the printing process from OS
             0 MiB allocation reported by mallinfo(arena+hblkhd)
         51839 MiB available memory on the node where the printing process lives
------------------
     ethr =  1.00E-02,  avg # of iterations =  1.0

     negative rho (up, down):  7.591E-01 0.000E+00

     total cpu time spent up to now is       39.0 secs

     total energy              =   -4441.93547603 Ry
     estimated scf accuracy    <      28.43229205 Ry

     iteration #  3     ecut=    60.00 Ry     beta= 0.15
     Davidson diagonalization with overlap

---- Real-time Memory Report at c_bands before calling an iterative solver
             0 MiB given to the printing process from OS
             0 MiB allocation reported by mallinfo(arena+hblkhd)
         51067 MiB available memory on the node where the printing process lives
------------------
     ethr =  6.61E-03,  avg # of iterations =  1.0

     negative rho (up, down):  7.531E-01 0.000E+00

     total cpu time spent up to now is       51.9 secs

     total energy              =   -4442.60427717 Ry
     estimated scf accuracy    <      29.39714576 Ry

     iteration #  4     ecut=    60.00 Ry     beta= 0.15
     Davidson diagonalization with overlap

---- Real-time Memory Report at c_bands before calling an iterative solver
             0 MiB given to the printing process from OS
             0 MiB allocation reported by mallinfo(arena+hblkhd)
         51014 MiB available memory on the node where the printing process lives
------------------
     ethr =  6.61E-03,  avg # of iterations =  1.0

     negative rho (up, down):  7.536E-01 0.000E+00

     total cpu time spent up to now is       64.7 secs

     total energy              =   -4442.67392501 Ry
     estimated scf accuracy    <      27.61723670 Ry

     iteration #  5     ecut=    60.00 Ry     beta= 0.15
     Davidson diagonalization with overlap

---- Real-time Memory Report at c_bands before calling an iterative solver
             0 MiB given to the printing process from OS
             0 MiB allocation reported by mallinfo(arena+hblkhd)
         50998 MiB available memory on the node where the printing process lives
------------------
     ethr =  6.42E-03,  avg # of iterations =  1.0

     negative rho (up, down):  7.388E-01 0.000E+00

     total cpu time spent up to now is       77.3 secs

     total energy              =   -4442.05259159 Ry
     estimated scf accuracy    <      22.39064157 Ry

     iteration #  6     ecut=    60.00 Ry     beta= 0.15
     Davidson diagonalization with overlap

---- Real-time Memory Report at c_bands before calling an iterative solver
             0 MiB given to the printing process from OS
             0 MiB allocation reported by mallinfo(arena+hblkhd)
         50978 MiB available memory on the node where the printing process lives
------------------
     ethr =  5.21E-03,  avg # of iterations =  1.0

     negative rho (up, down):  7.416E-01 0.000E+00

     total cpu time spent up to now is       90.2 secs

     total energy              =   -4443.56272674 Ry
     estimated scf accuracy    <      60.80108149 Ry

     iteration #  7     ecut=    60.00 Ry     beta= 0.15
     Davidson diagonalization with overlap

---- Real-time Memory Report at c_bands before calling an iterative solver
             0 MiB given to the printing process from OS
             0 MiB allocation reported by mallinfo(arena+hblkhd)
         50956 MiB available memory on the node where the printing process lives
------------------
     ethr =  5.21E-03,  avg # of iterations =  1.0

     negative rho (up, down):  7.502E-01 0.000E+00

     total cpu time spent up to now is      102.8 secs

     total energy              =   -4439.12009891 Ry
     estimated scf accuracy    <      55.44514665 Ry

     iteration #  8     ecut=    60.00 Ry     beta= 0.15
     Davidson diagonalization with overlap

---- Real-time Memory Report at c_bands before calling an iterative solver
             0 MiB given to the printing process from OS
             0 MiB allocation reported by mallinfo(arena+hblkhd)
         50948 MiB available memory on the node where the printing process lives
------------------
     ethr =  5.21E-03,  avg # of iterations =  1.0

     negative rho (up, down):  7.479E-01 0.000E+00

     total cpu time spent up to now is      115.4 secs

     total energy              =   -4441.27354476 Ry
     estimated scf accuracy    <       8.21758756 Ry

     iteration #  9     ecut=    60.00 Ry     beta= 0.15
     Davidson diagonalization with overlap

---- Real-time Memory Report at c_bands before calling an iterative solver
             0 MiB given to the printing process from OS
             0 MiB allocation reported by mallinfo(arena+hblkhd)
         50929 MiB available memory on the node where the printing process lives
------------------
     ethr =  1.91E-03,  avg # of iterations =  1.3

     negative rho (up, down):  7.561E-01 0.000E+00

     total cpu time spent up to now is      128.7 secs

     total energy              =   -4441.06487993 Ry
     estimated scf accuracy    <       5.40407610 Ry

     iteration # 10     ecut=    60.00 Ry     beta= 0.15
     Davidson diagonalization with overlap

---- Real-time Memory Report at c_bands before calling an iterative solver
             0 MiB given to the printing process from OS
             0 MiB allocation reported by mallinfo(arena+hblkhd)
         50905 MiB available memory on the node where the printing process lives
------------------
     ethr =  1.26E-03,  avg # of iterations =  2.0

     negative rho (up, down):  7.721E-01 0.000E+00

     total cpu time spent up to now is      143.0 secs

     total energy              =   -4440.31098768 Ry
     estimated scf accuracy    <       8.98411587 Ry

     iteration # 11     ecut=    60.00 Ry     beta= 0.15
     Davidson diagonalization with overlap

---- Real-time Memory Report at c_bands before calling an iterative solver
             0 MiB given to the printing process from OS
             0 MiB allocation reported by mallinfo(arena+hblkhd)
         50899 MiB available memory on the node where the printing process lives
------------------
     ethr =  1.26E-03,  avg # of iterations =  7.0

     negative rho (up, down):  7.744E-01 0.000E+00

     total cpu time spent up to now is      159.7 secs

     total energy              =   -4439.71301285 Ry
     estimated scf accuracy    <      24.68680430 Ry

     iteration # 12     ecut=    60.00 Ry     beta= 0.15
     Davidson diagonalization with overlap

---- Real-time Memory Report at c_bands before calling an iterative solver
             0 MiB given to the printing process from OS
             0 MiB allocation reported by mallinfo(arena+hblkhd)
         50723 MiB available memory on the node where the printing process lives
------------------
     ethr =  1.26E-03,  avg # of iterations =  3.4

     negative rho (up, down):  7.793E-01 0.000E+00

     total cpu time spent up to now is      174.2 secs

     total energy              =   -4440.60363400 Ry
     estimated scf accuracy    <       2.25024954 Ry

     iteration # 13     ecut=    60.00 Ry     beta= 0.15
     Davidson diagonalization with overlap

---- Real-time Memory Report at c_bands before calling an iterative solver
             0 MiB given to the printing process from OS
             0 MiB allocation reported by mallinfo(arena+hblkhd)
         50704 MiB available memory on the node where the printing process lives
------------------
     ethr =  5.23E-04,  avg # of iterations = 11.5

     negative rho (up, down):  7.885E-01 0.000E+00

     total cpu time spent up to now is      193.4 secs

     total energy              =   -4440.45400422 Ry
     estimated scf accuracy    <       2.06852204 Ry

     iteration # 14     ecut=    60.00 Ry     beta= 0.15
     Davidson diagonalization with overlap

---- Real-time Memory Report at c_bands before calling an iterative solver
             0 MiB given to the printing process from OS
             0 MiB allocation reported by mallinfo(arena+hblkhd)
         50521 MiB available memory on the node where the printing process lives
------------------
     ethr =  4.81E-04,  avg # of iterations =  1.2

     negative rho (up, down):  8.039E-01 0.000E+00

     total cpu time spent up to now is      206.4 secs

     total energy              =   -4440.44261606 Ry
     estimated scf accuracy    <       0.85840147 Ry

     iteration # 15     ecut=    60.00 Ry     beta= 0.15
     Davidson diagonalization with overlap

---- Real-time Memory Report at c_bands before calling an iterative solver
             0 MiB given to the printing process from OS
             0 MiB allocation reported by mallinfo(arena+hblkhd)
         50489 MiB available memory on the node where the printing process lives
------------------
     ethr =  2.00E-04,  avg # of iterations =  5.5

     negative rho (up, down):  8.210E-01 0.000E+00

     total cpu time spent up to now is      222.7 secs

     total energy              =   -4440.39559006 Ry
     estimated scf accuracy    <       0.62892772 Ry

     iteration # 16     ecut=    60.00 Ry     beta= 0.15
     Davidson diagonalization with overlap

---- Real-time Memory Report at c_bands before calling an iterative solver
             0 MiB given to the printing process from OS
             0 MiB allocation reported by mallinfo(arena+hblkhd)
         50488 MiB available memory on the node where the printing process lives
------------------
     ethr =  1.46E-04,  avg # of iterations = 10.1

     negative rho (up, down):  8.267E-01 0.000E+00

     total cpu time spent up to now is      241.5 secs

     total energy              =   -4440.34986646 Ry
     estimated scf accuracy    <       0.94396344 Ry

     iteration # 17     ecut=    60.00 Ry     beta= 0.15
     Davidson diagonalization with overlap

---- Real-time Memory Report at c_bands before calling an iterative solver
             0 MiB given to the printing process from OS
             0 MiB allocation reported by mallinfo(arena+hblkhd)
         50429 MiB available memory on the node where the printing process lives
------------------
     ethr =  1.46E-04,  avg # of iterations =  5.1

     negative rho (up, down):  8.233E-01 0.000E+00

     total cpu time spent up to now is      257.4 secs

     total energy              =   -4440.32241276 Ry
     estimated scf accuracy    <       0.68825517 Ry

     iteration # 18     ecut=    60.00 Ry     beta= 0.15
     Davidson diagonalization with overlap

---- Real-time Memory Report at c_bands before calling an iterative solver
             0 MiB given to the printing process from OS
             0 MiB allocation reported by mallinfo(arena+hblkhd)
         50453 MiB available memory on the node where the printing process lives
------------------
     ethr =  1.46E-04,  avg # of iterations =  2.6

     negative rho (up, down):  8.189E-01 0.000E+00

     total cpu time spent up to now is      272.1 secs

     total energy              =   -4440.34324003 Ry
     estimated scf accuracy    <       1.76833958 Ry

     iteration # 19     ecut=    60.00 Ry     beta= 0.15
     Davidson diagonalization with overlap

---- Real-time Memory Report at c_bands before calling an iterative solver
             0 MiB given to the printing process from OS
             0 MiB allocation reported by mallinfo(arena+hblkhd)
         50455 MiB available memory on the node where the printing process lives
------------------
     ethr =  1.46E-04,  avg # of iterations =  1.6

     negative rho (up, down):  8.101E-01 0.000E+00

     total cpu time spent up to now is      286.0 secs

     total energy              =   -4440.34234678 Ry
     estimated scf accuracy    <       0.22289216 Ry

     iteration # 20     ecut=    60.00 Ry     beta= 0.15
     Davidson diagonalization with overlap

---- Real-time Memory Report at c_bands before calling an iterative solver
             0 MiB given to the printing process from OS
             0 MiB allocation reported by mallinfo(arena+hblkhd)
         50452 MiB available memory on the node where the printing process lives
------------------
     c_bands:  1 eigenvalues not converged
     ethr =  5.18E-05,  avg # of iterations =  8.6

     negative rho (up, down):  8.128E-01 0.000E+00

     total cpu time spent up to now is      303.5 secs

     total energy              =   -4440.33027197 Ry
     estimated scf accuracy    <       0.16521011 Ry

     iteration # 21     ecut=    60.00 Ry     beta= 0.15
     Davidson diagonalization with overlap

---- Real-time Memory Report at c_bands before calling an iterative solver
             0 MiB given to the printing process from OS
             0 MiB allocation reported by mallinfo(arena+hblkhd)
         50440 MiB available memory on the node where the printing process lives
------------------
     ethr =  3.84E-05,  avg # of iterations =  8.2

     negative rho (up, down):  8.132E-01 0.000E+00

     total cpu time spent up to now is      321.3 secs

     total energy              =   -4440.31329067 Ry
     estimated scf accuracy    <       0.15293384 Ry

     iteration # 22     ecut=    60.00 Ry     beta= 0.15
     Davidson diagonalization with overlap

---- Real-time Memory Report at c_bands before calling an iterative solver
             0 MiB given to the printing process from OS
             0 MiB allocation reported by mallinfo(arena+hblkhd)
         50470 MiB available memory on the node where the printing process lives
------------------
     c_bands:  2 eigenvalues not converged
     ethr =  3.56E-05,  avg # of iterations = 10.0

     negative rho (up, down):  8.333E-01 0.000E+00

     total cpu time spent up to now is      339.7 secs

     total energy              =   -4440.31297693 Ry
     estimated scf accuracy    <       0.09587144 Ry

     iteration # 23     ecut=    60.00 Ry     beta= 0.15
     Davidson diagonalization with overlap

---- Real-time Memory Report at c_bands before calling an iterative solver
             0 MiB given to the printing process from OS
             0 MiB allocation reported by mallinfo(arena+hblkhd)
         50423 MiB available memory on the node where the printing process lives
------------------
     ethr =  2.23E-05,  avg # of iterations =  8.4

     negative rho (up, down):  8.144E-01 0.000E+00

     total cpu time spent up to now is      357.6 secs

     total energy              =   -4440.31257874 Ry
     estimated scf accuracy    <       0.03182823 Ry

     iteration # 24     ecut=    60.00 Ry     beta= 0.15
     Davidson diagonalization with overlap

---- Real-time Memory Report at c_bands before calling an iterative solver
             0 MiB given to the printing process from OS
             0 MiB allocation reported by mallinfo(arena+hblkhd)
         50469 MiB available memory on the node where the printing process lives
------------------
     ethr =  7.40E-06,  avg # of iterations =  2.0

     negative rho (up, down):  8.020E-01 0.000E+00

     total cpu time spent up to now is      371.9 secs

     total energy              =   -4440.31112824 Ry
     estimated scf accuracy    <       0.03017875 Ry

     iteration # 25     ecut=    60.00 Ry     beta= 0.15
     Davidson diagonalization with overlap

---- Real-time Memory Report at c_bands before calling an iterative solver
             0 MiB given to the printing process from OS
             0 MiB allocation reported by mallinfo(arena+hblkhd)
         50442 MiB available memory on the node where the printing process lives
------------------
     c_bands:  1 eigenvalues not converged
     ethr =  7.02E-06,  avg # of iterations =  4.8

     negative rho (up, down):  7.948E-01 0.000E+00

     total cpu time spent up to now is      387.2 secs

     total energy              =   -4440.31054722 Ry
     estimated scf accuracy    <       0.00979360 Ry

     iteration # 26     ecut=    60.00 Ry     beta= 0.15
     Davidson diagonalization with overlap

---- Real-time Memory Report at c_bands before calling an iterative solver
             0 MiB given to the printing process from OS
             0 MiB allocation reported by mallinfo(arena+hblkhd)
         50448 MiB available memory on the node where the printing process lives
------------------
     c_bands:  1 eigenvalues not converged
     c_bands:  2 eigenvalues not converged
     ethr =  2.28E-06,  avg # of iterations = 10.3

     negative rho (up, down):  7.949E-01 0.000E+00

     total cpu time spent up to now is      405.8 secs

     total energy              =   -4440.30955254 Ry
     estimated scf accuracy    <       0.00630650 Ry

     iteration # 27     ecut=    60.00 Ry     beta= 0.15
     Davidson diagonalization with overlap

---- Real-time Memory Report at c_bands before calling an iterative solver
             0 MiB given to the printing process from OS
             0 MiB allocation reported by mallinfo(arena+hblkhd)
         50400 MiB available memory on the node where the printing process lives
------------------
     c_bands:  2 eigenvalues not converged
     ethr =  1.47E-06,  avg # of iterations =  6.2

     negative rho (up, down):  8.029E-01 0.000E+00

     total cpu time spent up to now is      422.8 secs

     total energy              =   -4440.30947648 Ry
     estimated scf accuracy    <       0.00299385 Ry

     iteration # 28     ecut=    60.00 Ry     beta= 0.15
     Davidson diagonalization with overlap

---- Real-time Memory Report at c_bands before calling an iterative solver
             0 MiB given to the printing process from OS
             0 MiB allocation reported by mallinfo(arena+hblkhd)
         50376 MiB available memory on the node where the printing process lives
------------------
     ethr =  6.96E-07,  avg # of iterations = 11.2

     negative rho (up, down):  7.999E-01 0.000E+00

     total cpu time spent up to now is      443.5 secs

     total energy              =   -4440.30955261 Ry
     estimated scf accuracy    <       0.00117082 Ry

     iteration # 29     ecut=    60.00 Ry     beta= 0.15
     Davidson diagonalization with overlap

---- Real-time Memory Report at c_bands before calling an iterative solver
             0 MiB given to the printing process from OS
             0 MiB allocation reported by mallinfo(arena+hblkhd)
         50230 MiB available memory on the node where the printing process lives
------------------
     ethr =  2.72E-07,  avg # of iterations =  2.0

     negative rho (up, down):  7.963E-01 0.000E+00

     total cpu time spent up to now is      457.8 secs

     total energy              =   -4440.30945748 Ry
     estimated scf accuracy    <       0.00067810 Ry

     iteration # 30     ecut=    60.00 Ry     beta= 0.15
     Davidson diagonalization with overlap

---- Real-time Memory Report at c_bands before calling an iterative solver
             0 MiB given to the printing process from OS
             0 MiB allocation reported by mallinfo(arena+hblkhd)
         50195 MiB available memory on the node where the printing process lives
------------------
     ethr =  1.58E-07,  avg # of iterations =  5.1

     negative rho (up, down):  7.948E-01 0.000E+00

     total cpu time spent up to now is      473.2 secs

     total energy              =   -4440.30943433 Ry
     estimated scf accuracy    <       0.00047576 Ry

     iteration # 31     ecut=    60.00 Ry     beta= 0.15
     Davidson diagonalization with overlap

---- Real-time Memory Report at c_bands before calling an iterative solver
             0 MiB given to the printing process from OS
             0 MiB allocation reported by mallinfo(arena+hblkhd)
         50225 MiB available memory on the node where the printing process lives
------------------
     ethr =  1.11E-07,  avg # of iterations =  2.0

     negative rho (up, down):  7.935E-01 0.000E+00

     total cpu time spent up to now is      487.4 secs

     total energy              =   -4440.30945541 Ry
     estimated scf accuracy    <       0.00015731 Ry

     iteration # 32     ecut=    60.00 Ry     beta= 0.15
     Davidson diagonalization with overlap

---- Real-time Memory Report at c_bands before calling an iterative solver
             0 MiB given to the printing process from OS
             0 MiB allocation reported by mallinfo(arena+hblkhd)
         50275 MiB available memory on the node where the printing process lives
------------------
     ethr =  3.66E-08,  avg # of iterations =  2.2

     negative rho (up, down):  7.930E-01 0.000E+00

     total cpu time spent up to now is      501.7 secs

     total energy              =   -4440.30946546 Ry
     estimated scf accuracy    <       0.00006275 Ry

     iteration # 33     ecut=    60.00 Ry     beta= 0.15
     Davidson diagonalization with overlap

---- Real-time Memory Report at c_bands before calling an iterative solver
             0 MiB given to the printing process from OS
             0 MiB allocation reported by mallinfo(arena+hblkhd)
         50305 MiB available memory on the node where the printing process lives
------------------
     ethr =  1.46E-08,  avg # of iterations =  2.0

     negative rho (up, down):  7.927E-01 0.000E+00

     total cpu time spent up to now is      516.0 secs

     total energy              =   -4440.30946864 Ry
     estimated scf accuracy    <       0.00003112 Ry

     iteration # 34     ecut=    60.00 Ry     beta= 0.15
     Davidson diagonalization with overlap

---- Real-time Memory Report at c_bands before calling an iterative solver
             0 MiB given to the printing process from OS
             0 MiB allocation reported by mallinfo(arena+hblkhd)
         50310 MiB available memory on the node where the printing process lives
------------------
     ethr =  7.24E-09,  avg # of iterations =  2.0

     negative rho (up, down):  7.927E-01 0.000E+00

     total cpu time spent up to now is      530.3 secs

     total energy              =   -4440.30947139 Ry
     estimated scf accuracy    <       0.00001859 Ry

     iteration # 35     ecut=    60.00 Ry     beta= 0.15
     Davidson diagonalization with overlap

---- Real-time Memory Report at c_bands before calling an iterative solver
             0 MiB given to the printing process from OS
             0 MiB allocation reported by mallinfo(arena+hblkhd)
         50322 MiB available memory on the node where the printing process lives
------------------
     ethr =  4.32E-09,  avg # of iterations =  2.0

     negative rho (up, down):  7.925E-01 0.000E+00

     total cpu time spent up to now is      544.6 secs

     total energy              =   -4440.30947415 Ry
     estimated scf accuracy    <       0.00001623 Ry

     iteration # 36     ecut=    60.00 Ry     beta= 0.15
     Davidson diagonalization with overlap

---- Real-time Memory Report at c_bands before calling an iterative solver
             0 MiB given to the printing process from OS
             0 MiB allocation reported by mallinfo(arena+hblkhd)
         50324 MiB available memory on the node where the printing process lives
------------------
     ethr =  3.77E-09,  avg # of iterations =  2.1

     negative rho (up, down):  7.925E-01 0.000E+00

     total cpu time spent up to now is      558.9 secs

     total energy              =   -4440.30947438 Ry
     estimated scf accuracy    <       0.00001000 Ry

     iteration # 37     ecut=    60.00 Ry     beta= 0.15
     Davidson diagonalization with overlap

---- Real-time Memory Report at c_bands before calling an iterative solver
             0 MiB given to the printing process from OS
             0 MiB allocation reported by mallinfo(arena+hblkhd)
         50328 MiB available memory on the node where the printing process lives
------------------
     ethr =  2.33E-09,  avg # of iterations =  2.0

     negative rho (up, down):  7.925E-01 0.000E+00

     total cpu time spent up to now is      573.2 secs

     total energy              =   -4440.30947469 Ry
     estimated scf accuracy    <       0.00000579 Ry

     iteration # 38     ecut=    60.00 Ry     beta= 0.15
     Davidson diagonalization with overlap

---- Real-time Memory Report at c_bands before calling an iterative solver
             0 MiB given to the printing process from OS
             0 MiB allocation reported by mallinfo(arena+hblkhd)
         50338 MiB available memory on the node where the printing process lives
------------------
     ethr =  1.35E-09,  avg # of iterations =  2.0

     negative rho (up, down):  7.927E-01 0.000E+00

     total cpu time spent up to now is      587.4 secs

     total energy              =   -4440.30947500 Ry
     estimated scf accuracy    <       0.00000295 Ry

     iteration # 39     ecut=    60.00 Ry     beta= 0.15
     Davidson diagonalization with overlap

---- Real-time Memory Report at c_bands before calling an iterative solver
             0 MiB given to the printing process from OS
             0 MiB allocation reported by mallinfo(arena+hblkhd)
         50348 MiB available memory on the node where the printing process lives
------------------
     ethr =  6.87E-10,  avg # of iterations =  2.0

     negative rho (up, down):  7.927E-01 0.000E+00

     total cpu time spent up to now is      601.6 secs

     total energy              =   -4440.30947510 Ry
     estimated scf accuracy    <       0.00000212 Ry

     iteration # 40     ecut=    60.00 Ry     beta= 0.15
     Davidson diagonalization with overlap

---- Real-time Memory Report at c_bands before calling an iterative solver
             0 MiB given to the printing process from OS
             0 MiB allocation reported by mallinfo(arena+hblkhd)
         50349 MiB available memory on the node where the printing process lives
------------------
     ethr =  4.94E-10,  avg # of iterations =  2.0

     negative rho (up, down):  7.928E-01 0.000E+00

     total cpu time spent up to now is      615.9 secs

     total energy              =   -4440.30947505 Ry
     estimated scf accuracy    <       0.00000092 Ry

     iteration # 41     ecut=    60.00 Ry     beta= 0.15
     Davidson diagonalization with overlap

---- Real-time Memory Report at c_bands before calling an iterative solver
             0 MiB given to the printing process from OS
             0 MiB allocation reported by mallinfo(arena+hblkhd)
         50350 MiB available memory on the node where the printing process lives
------------------
     ethr =  2.15E-10,  avg # of iterations =  1.9

     negative rho (up, down):  7.928E-01 0.000E+00

     total cpu time spent up to now is      630.2 secs

     total energy              =   -4440.30947494 Ry
     estimated scf accuracy    <       0.00000067 Ry

     iteration # 42     ecut=    60.00 Ry     beta= 0.15
     Davidson diagonalization with overlap

---- Real-time Memory Report at c_bands before calling an iterative solver
             0 MiB given to the printing process from OS
             0 MiB allocation reported by mallinfo(arena+hblkhd)
         50355 MiB available memory on the node where the printing process lives
------------------
     ethr =  1.56E-10,  avg # of iterations =  2.0

     negative rho (up, down):  7.927E-01 0.000E+00

     total cpu time spent up to now is      644.4 secs

     total energy              =   -4440.30947493 Ry
     estimated scf accuracy    <       0.00000036 Ry

     iteration # 43     ecut=    60.00 Ry     beta= 0.15
     Davidson diagonalization with overlap

---- Real-time Memory Report at c_bands before calling an iterative solver
             0 MiB given to the printing process from OS
             0 MiB allocation reported by mallinfo(arena+hblkhd)
         50361 MiB available memory on the node where the printing process lives
------------------
     ethr =  8.38E-11,  avg # of iterations =  2.0

     negative rho (up, down):  7.926E-01 0.000E+00

     total cpu time spent up to now is      658.6 secs

     total energy              =   -4440.30947499 Ry
     estimated scf accuracy    <       0.00000021 Ry

     iteration # 44     ecut=    60.00 Ry     beta= 0.15
     Davidson diagonalization with overlap

---- Real-time Memory Report at c_bands before calling an iterative solver
             0 MiB given to the printing process from OS
             0 MiB allocation reported by mallinfo(arena+hblkhd)
         50365 MiB available memory on the node where the printing process lives
------------------
     ethr =  4.91E-11,  avg # of iterations =  2.6

     negative rho (up, down):  7.926E-01 0.000E+00

     total cpu time spent up to now is      673.3 secs

     total energy              =   -4440.30947500 Ry
     estimated scf accuracy    <       0.00000008 Ry

     iteration # 45     ecut=    60.00 Ry     beta= 0.15
     Davidson diagonalization with overlap

---- Real-time Memory Report at c_bands before calling an iterative solver
             0 MiB given to the printing process from OS
             0 MiB allocation reported by mallinfo(arena+hblkhd)
         50376 MiB available memory on the node where the printing process lives
------------------
     ethr =  1.93E-11,  avg # of iterations =  1.9

     negative rho (up, down):  7.926E-01 0.000E+00

     total cpu time spent up to now is      687.5 secs

     total energy              =   -4440.30947501 Ry
     estimated scf accuracy    <       0.00000004 Ry

     iteration # 46     ecut=    60.00 Ry     beta= 0.15
     Davidson diagonalization with overlap

---- Real-time Memory Report at c_bands before calling an iterative solver
             0 MiB given to the printing process from OS
             0 MiB allocation reported by mallinfo(arena+hblkhd)
         50376 MiB available memory on the node where the printing process lives
------------------
     ethr =  9.56E-12,  avg # of iterations =  1.0

     negative rho (up, down):  7.926E-01 0.000E+00

     total cpu time spent up to now is      700.3 secs

     total energy              =   -4440.30947499 Ry
     estimated scf accuracy    <       0.00000003 Ry

     iteration # 47     ecut=    60.00 Ry     beta= 0.15
     Davidson diagonalization with overlap

---- Real-time Memory Report at c_bands before calling an iterative solver
             0 MiB given to the printing process from OS
             0 MiB allocation reported by mallinfo(arena+hblkhd)
         50371 MiB available memory on the node where the printing process lives
------------------
     ethr =  7.59E-12,  avg # of iterations =  2.7

     negative rho (up, down):  7.926E-01 0.000E+00

     total cpu time spent up to now is      714.9 secs

     total energy              =   -4440.30947497 Ry
     estimated scf accuracy    <       0.00000002 Ry

     iteration # 48     ecut=    60.00 Ry     beta= 0.15
     Davidson diagonalization with overlap

---- Real-time Memory Report at c_bands before calling an iterative solver
             0 MiB given to the printing process from OS
             0 MiB allocation reported by mallinfo(arena+hblkhd)
         50371 MiB available memory on the node where the printing process lives
------------------
     ethr =  5.32E-12,  avg # of iterations =  2.0

     negative rho (up, down):  7.926E-01 0.000E+00

     total cpu time spent up to now is      728.8 secs

     End of self-consistent calculation

          k = 0.0000 0.0000 0.0000 ( 65197 PWs)   bands (ev):

   -92.8977 -92.8492 -92.7525 -92.7057 -92.6483 -92.6047 -92.5868 -92.4665
   -56.2513 -56.2353 -56.1090 -56.0981 -56.0926 -56.0850 -56.0512 -56.0211
   -56.0057 -56.0047 -56.0005 -55.9546 -55.9364 -55.8988 -55.8795 -55.8485
   -55.8410 -55.7928 -55.7921 -55.7894 -55.7810 -55.7417 -55.7169 -55.6316
   -31.4604 -31.4411 -31.2985 -31.2124 -31.1699 -31.0915 -30.9404 -30.8865
   -30.0418 -29.9997 -29.9727 -29.8650 -15.2739 -15.2263 -15.1467 -15.0180
   -14.8147 -14.6968 -14.4088 -14.3871 -14.3607 -14.3120 -14.2640 -14.2466
   -14.2440 -14.2217 -14.2058 -14.1488 -14.1232 -13.9675 -13.7788 -13.7552
   -13.7257 -13.6855 -13.6709 -13.6140 -13.5805 -13.5030 -13.4350 -13.2965
   -13.2893 -13.2822 -13.2585 -13.2400 -13.1859 -13.1819 -13.1645 -13.1598
   -13.1325 -13.1056 -13.0832 -12.9994 -12.9938 -12.9788 -12.9132 -12.8956
   -12.8896 -12.7925 -12.7840 -12.7606 -12.5269 -12.3806 -12.1804 -12.1066
   -12.0551 -11.9962 -11.9815 -11.9701 -11.9474 -11.9297 -11.8663 -11.8486
   -11.8144 -11.7843 -11.6729 -11.5938 -11.5903  -3.1343  -2.9033  -2.6738
    -2.5247  -2.4640  -2.3224  -2.0139  -1.9986  -1.9811  -1.8919  -1.8747
    -1.8064  -1.7898  -1.7497  -1.7064  -1.5243  -1.2967  -1.2656  -1.1247
    -1.1096  -1.0619  -1.0400  -0.9942  -0.9786  -0.9281  -0.8998  -0.8227
    -0.8132  -0.7405  -0.6050  -0.5922  -0.5635  -0.4842  -0.4547  -0.4098
    -0.3829  -0.3197  -0.2633  -0.2175  -0.1942  -0.1206  -0.0568  -0.0125
     0.0134   0.0239   0.2850   0.3016   0.4768   0.5351   0.6011   0.6531
     0.7382   0.7485   0.7657   0.8339   0.8603   0.8935   0.9504   1.0799
     1.1403   1.1622   1.1910   1.2045   1.2613   1.3259   1.4441   1.4628
     1.5213   1.5242   1.5723   1.5909   1.6023   1.6569   1.7237   1.7261
     1.7669   1.7920   1.8372   1.9693   2.0601   2.0968   2.1171   2.2623
     2.2762   2.3168   2.3250   2.4292   2.4648   2.4856   2.5081   2.5264
     2.5607   2.6034   2.6187   2.6360   2.7164   2.7542   2.7582   2.7632
     2.8306   2.8422   2.8597   2.8660   2.8757   2.8887   2.8964   2.9111
     2.9180   2.9274   2.9346   2.9420   2.9621   2.9836   2.9882   3.0007
     3.0256   3.1409   3.2419   3.9227   4.2404   4.5971   4.8204   4.8548
     5.7622   5.8002   5.8220   5.9213   6.1217   6.1662   6.4255   6.4344
     6.9316   6.9879   7.0816   7.1483   7.4972   7.5308   7.5411   7.5702
     7.6840   7.8702   7.9442   8.0131   8.0218   8.1562   8.3728   8.4406
     8.7661   8.9211

     occupation numbers 
     1.0000   1.0000   1.0000   1.0000   1.0000   1.0000   1.0000   1.0000
     1.0000   1.0000   1.0000   1.0000   1.0000   1.0000   1.0000   1.0000
     1.0000   1.0000   1.0000   1.0000   1.0000   1.0000   1.0000   1.0000
     1.0000   1.0000   1.0000   1.0000   1.0000   1.0000   1.0000   1.0000
     1.0000   1.0000   1.0000   1.0000   1.0000   1.0000   1.0000   1.0000
     1.0000   1.0000   1.0000   1.0000   1.0000   1.0000   1.0000   1.0000
     1.0000   1.0000   1.0000   1.0000   1.0000   1.0000   1.0000   1.0000
     1.0000   1.0000   1.0000   1.0000   1.0000   1.0000   1.0000   1.0000
     1.0000   1.0000   1.0000   1.0000   1.0000   1.0000   1.0000   1.0000
     1.0000   1.0000   1.0000   1.0000   1.0000   1.0000   1.0000   1.0000
     1.0000   1.0000   1.0000   1.0000   1.0000   1.0000   1.0000   1.0000
     1.0000   1.0000   1.0000   1.0000   1.0000   1.0000   1.0000   1.0000
     1.0000   1.0000   1.0000   1.0000   1.0000   1.0000   1.0000   1.0000
     1.0000   1.0000   1.0000   1.0000   1.0000   1.0000   1.0000   1.0000
     1.0000   1.0000   1.0000   1.0000   1.0000   1.0000   1.0000   1.0000
     1.0000   1.0000   1.0000   1.0000   1.0000   1.0000   1.0000   1.0000
     1.0000   1.0000   1.0000   1.0000   1.0000   1.0000   1.0000   1.0000
     1.0000   1.0000   1.0000   1.0000   1.0000   1.0000   1.0000   1.0000
     1.0000   1.0000   1.0000   1.0000   1.0000   1.0000   1.0000   1.0000
     1.0000   1.0000   1.0000   1.0000   1.0000   0.9999   0.9999   0.9999
     0.9998   0.9998   0.9998   0.9997   0.9996   0.9996   0.9994   0.9988
     0.9984   0.9983   0.9980   0.9979   0.9973   0.9963   0.9939   0.9934
     0.9916   0.9915   0.9897   0.9889   0.9884   0.9857   0.9817   0.9815
     0.9786   0.9766   0.9726   0.9577   0.9441   0.9377   0.9339   0.9015
     0.8978   0.8867   0.8843   0.8513   0.8387   0.8311   0.8225   0.8153
     0.8014   0.7833   0.7766   0.7688   0.7309   0.7121   0.7100   0.7075
     0.6722   0.6660   0.6565   0.6530   0.6477   0.6405   0.6362   0.6280
     0.6241   0.6188   0.6147   0.6105   0.5990   0.5866   0.5839   0.5767
     0.5621   0.4941   0.4346   0.1199   0.0497   0.0147   0.0061   0.0052
     0.0000   0.0000   0.0000   0.0000   0.0000   0.0000   0.0000   0.0000
     0.0000   0.0000   0.0000   0.0000   0.0000   0.0000   0.0000   0.0000
     0.0000   0.0000   0.0000   0.0000   0.0000   0.0000   0.0000   0.0000
     0.0000   0.0000

          k = 0.0000 0.2500 0.0000 ( 65257 PWs)   bands (ev):

   -92.8977 -92.8492 -92.7525 -92.7057 -92.6483 -92.6047 -92.5868 -92.4665
   -56.2513 -56.2353 -56.1090 -56.0981 -56.0926 -56.0850 -56.0512 -56.0211
   -56.0057 -56.0047 -56.0005 -55.9546 -55.9364 -55.8988 -55.8795 -55.8485
   -55.8410 -55.7928 -55.7921 -55.7894 -55.7810 -55.7417 -55.7169 -55.6316
   -31.4603 -31.4409 -31.2987 -31.2125 -31.1698 -31.0913 -30.9406 -30.8866
   -30.0412 -29.9994 -29.9733 -29.8653 -15.2375 -15.2000 -15.1218 -14.9882
   -14.8600 -14.6846 -14.5552 -14.3752 -14.3357 -14.3171 -14.2863 -14.2311
   -14.2196 -14.2064 -14.1832 -14.1173 -14.0413 -13.9989 -13.8357 -13.8025
   -13.7674 -13.7292 -13.6684 -13.6392 -13.5750 -13.5287 -13.4889 -13.3990
   -13.3365 -13.3291 -13.2917 -13.2739 -13.1749 -13.1549 -13.1417 -13.1166
   -13.0852 -13.0515 -13.0198 -13.0002 -12.9826 -12.9733 -12.8878 -12.8151
   -12.7849 -12.7656 -12.7501 -12.6708 -12.5882 -12.4317 -12.2360 -12.1710
   -12.0207 -11.9963 -11.9783 -11.9494 -11.9219 -11.9055 -11.8580 -11.8466
   -11.8237 -11.7900 -11.6871 -11.6354 -11.6250  -2.9988  -2.7790  -2.6408
    -2.4584  -2.4149  -2.2524  -2.0290  -1.9491  -1.9359  -1.8720  -1.7734
    -1.7576  -1.7245  -1.6960  -1.6520  -1.4553  -1.3251  -1.3140  -1.2366
    -1.2276  -1.1245  -1.0950  -1.0334  -1.0068  -0.9708  -0.9049  -0.8770
    -0.8455  -0.8137  -0.7970  -0.7648  -0.6902  -0.6411  -0.5606  -0.4537
    -0.4244  -0.3823  -0.2788  -0.2353  -0.1753  -0.1274  -0.0691  -0.0581
    -0.0304   0.0295   0.3336   0.4205   0.4584   0.5404   0.5879   0.6108
     0.7181   0.7367   0.8377   0.8612   0.8852   0.9987   1.0990   1.1172
     1.1446   1.1650   1.1834   1.2428   1.2719   1.3008   1.3456   1.3850
     1.4193   1.5107   1.5455   1.5724   1.6263   1.6811   1.7256   1.7496
     1.7695   1.7840   1.8888   2.0085   2.0820   2.1002   2.1675   2.2145
     2.2582   2.2645   2.3248   2.3609   2.4464   2.4791   2.5042   2.5602
     2.6050   2.6370   2.6736   2.6949   2.7280   2.7517   2.7659   2.7757
     2.7800   2.7887   2.8198   2.8214   2.8387   2.8494   2.8535   2.8775
     2.8853   2.8962   2.9135   2.9241   2.9297   2.9651   2.9811   3.0405
     3.4148   3.4580   3.6887   4.1136   4.2373   4.5391   4.8713   4.9820
     5.5029   5.6408   5.7986   5.9006   5.9472   6.0536   6.0806   6.5386
     7.0190   7.1097   7.2198   7.2388   7.3352   7.3953   7.5360   7.7054
     7.7432   7.9575   8.0593   8.2301   8.2804   8.3132   8.3720   8.3902
     8.5055   8.8077

     occupation numbers 
     1.0000   1.0000   1.0000   1.0000   1.0000   1.0000   1.0000   1.0000
     1.0000   1.0000   1.0000   1.0000   1.0000   1.0000   1.0000   1.0000
     1.0000   1.0000   1.0000   1.0000   1.0000   1.0000   1.0000   1.0000
     1.0000   1.0000   1.0000   1.0000   1.0000   1.0000   1.0000   1.0000
     1.0000   1.0000   1.0000   1.0000   1.0000   1.0000   1.0000   1.0000
     1.0000   1.0000   1.0000   1.0000   1.0000   1.0000   1.0000   1.0000
     1.0000   1.0000   1.0000   1.0000   1.0000   1.0000   1.0000   1.0000
     1.0000   1.0000   1.0000   1.0000   1.0000   1.0000   1.0000   1.0000
     1.0000   1.0000   1.0000   1.0000   1.0000   1.0000   1.0000   1.0000
     1.0000   1.0000   1.0000   1.0000   1.0000   1.0000   1.0000   1.0000
     1.0000   1.0000   1.0000   1.0000   1.0000   1.0000   1.0000   1.0000
     1.0000   1.0000   1.0000   1.0000   1.0000   1.0000   1.0000   1.0000
     1.0000   1.0000   1.0000   1.0000   1.0000   1.0000   1.0000   1.0000
     1.0000   1.0000   1.0000   1.0000   1.0000   1.0000   1.0000   1.0000
     1.0000   1.0000   1.0000   1.0000   1.0000   1.0000   1.0000   1.0000
     1.0000   1.0000   1.0000   1.0000   1.0000   1.0000   1.0000   1.0000
     1.0000   1.0000   1.0000   1.0000   1.0000   1.0000   1.0000   1.0000
     1.0000   1.0000   1.0000   1.0000   1.0000   1.0000   1.0000   1.0000
     1.0000   1.0000   1.0000   1.0000   1.0000   1.0000   1.0000   1.0000
     1.0000   1.0000   1.0000   1.0000   1.0000   0.9999   0.9999   0.9999
     0.9998   0.9998   0.9997   0.9996   0.9996   0.9992   0.9987   0.9986
     0.9984   0.9982   0.9981   0.9975   0.9971   0.9967   0.9960   0.9952
     0.9945   0.9919   0.9907   0.9897   0.9873   0.9843   0.9816   0.9799
     0.9784   0.9773   0.9674   0.9522   0.9403   0.9371   0.9237   0.9132
     0.9025   0.9009   0.8844   0.8736   0.8453   0.8335   0.8240   0.8017
     0.7826   0.7684   0.7515   0.7414   0.7252   0.7134   0.7061   0.7011
     0.6989   0.6944   0.6780   0.6771   0.6679   0.6621   0.6598   0.6467
     0.6423   0.6363   0.6266   0.6206   0.6175   0.5972   0.5880   0.5534
     0.3367   0.3136   0.2038   0.0723   0.0502   0.0183   0.0049   0.0030
     0.0002   0.0001   0.0000   0.0000   0.0000   0.0000   0.0000   0.0000
     0.0000   0.0000   0.0000   0.0000   0.0000   0.0000   0.0000   0.0000
     0.0000   0.0000   0.0000   0.0000   0.0000   0.0000   0.0000   0.0000
     0.0000   0.0000

          k = 0.0000-0.5000 0.0000 ( 65180 PWs)   bands (ev):

   -92.8977 -92.8492 -92.7525 -92.7057 -92.6483 -92.6047 -92.5868 -92.4665
   -56.2513 -56.2353 -56.1090 -56.0981 -56.0926 -56.0850 -56.0512 -56.0211
   -56.0057 -56.0047 -56.0005 -55.9546 -55.9364 -55.8988 -55.8795 -55.8485
   -55.8410 -55.7928 -55.7921 -55.7894 -55.7810 -55.7417 -55.7169 -55.6316
   -31.4601 -31.4408 -31.2989 -31.2127 -31.1697 -31.0911 -30.9408 -30.8867
   -30.0405 -29.9991 -29.9740 -29.8656 -15.2007 -15.1527 -15.0967 -14.9673
   -14.8846 -14.7503 -14.5840 -14.4699 -14.3488 -14.2656 -14.2317 -14.2206
   -14.1724 -14.1604 -14.1088 -14.0795 -14.0645 -14.0292 -13.9770 -13.9322
   -13.7744 -13.7150 -13.6686 -13.6470 -13.5518 -13.5464 -13.4787 -13.4650
   -13.4370 -13.3994 -13.2926 -13.2748 -13.1546 -13.1514 -13.1385 -13.1115
   -13.0659 -13.0521 -13.0027 -12.9715 -12.8907 -12.8796 -12.8368 -12.8011
   -12.7876 -12.7647 -12.6989 -12.6067 -12.5065 -12.4693 -12.3344 -12.2838
   -11.9967 -11.9753 -11.9717 -11.9443 -11.9078 -11.8730 -11.8617 -11.8202
   -11.8162 -11.7720 -11.7086 -11.6959 -11.6821  -2.7835  -2.7259  -2.5759
    -2.5044  -2.2183  -2.1374  -2.0097  -1.8750  -1.8293  -1.8166  -1.7392
    -1.7069  -1.6241  -1.5892  -1.5087  -1.4717  -1.4351  -1.4073  -1.3452
    -1.3096  -1.2625  -1.2258  -1.1941  -1.1617  -1.0507  -1.0074  -0.9685
    -0.9628  -0.8788  -0.8503  -0.8281  -0.7796  -0.6887  -0.6177  -0.5243
    -0.4806  -0.3882  -0.3608  -0.2229  -0.1593  -0.1459  -0.0993   0.0229
     0.0896   0.1984   0.2699   0.2828   0.4043   0.4765   0.5623   0.6857
     0.7894   0.8230   0.8648   0.8803   0.9100   0.9250   0.9586   0.9756
     0.9937   1.0983   1.1597   1.1950   1.2211   1.4980   1.5140   1.5369
     1.6282   1.6489   1.6854   1.7031   1.7206   1.7493   1.7534   1.7730
     1.8150   1.8442   1.8764   1.8769   1.9079   1.9603   2.0546   2.0926
     2.2524   2.4079   2.4169   2.4394   2.4699   2.4764   2.4873   2.5368
     2.5496   2.5631   2.6028   2.6053   2.6255   2.6412   2.7061   2.7280
     2.7904   2.7943   2.8207   2.8247   2.8361   2.8397   2.8450   2.8513
     2.8540   2.8698   2.8828   2.8890   2.9511   2.9531   2.9705   3.0271
     3.9366   3.9555   4.0049   4.0872   4.5474   4.7233   4.8907   5.0051
     5.2711   5.3551   5.4798   5.5872   5.8524   5.8604   6.3931   6.6616
     6.7786   6.8879   7.1291   7.3036   7.5635   7.6464   7.7437   7.7689
     7.8277   7.9730   8.1227   8.1797   8.2957   8.3351   8.4204   8.5101
     8.6761   8.7273

     occupation numbers 
     1.0000   1.0000   1.0000   1.0000   1.0000   1.0000   1.0000   1.0000
     1.0000   1.0000   1.0000   1.0000   1.0000   1.0000   1.0000   1.0000
     1.0000   1.0000   1.0000   1.0000   1.0000   1.0000   1.0000   1.0000
     1.0000   1.0000   1.0000   1.0000   1.0000   1.0000   1.0000   1.0000
     1.0000   1.0000   1.0000   1.0000   1.0000   1.0000   1.0000   1.0000
     1.0000   1.0000   1.0000   1.0000   1.0000   1.0000   1.0000   1.0000
     1.0000   1.0000   1.0000   1.0000   1.0000   1.0000   1.0000   1.0000
     1.0000   1.0000   1.0000   1.0000   1.0000   1.0000   1.0000   1.0000
     1.0000   1.0000   1.0000   1.0000   1.0000   1.0000   1.0000   1.0000
     1.0000   1.0000   1.0000   1.0000   1.0000   1.0000   1.0000   1.0000
     1.0000   1.0000   1.0000   1.0000   1.0000   1.0000   1.0000   1.0000
     1.0000   1.0000   1.0000   1.0000   1.0000   1.0000   1.0000   1.0000
     1.0000   1.0000   1.0000   1.0000   1.0000   1.0000   1.0000   1.0000
     1.0000   1.0000   1.0000   1.0000   1.0000   1.0000   1.0000   1.0000
     1.0000   1.0000   1.0000   1.0000   1.0000   1.0000   1.0000   1.0000
     1.0000   1.0000   1.0000   1.0000   1.0000   1.0000   1.0000   1.0000
     1.0000   1.0000   1.0000   1.0000   1.0000   1.0000   1.0000   1.0000
     1.0000   1.0000   1.0000   1.0000   1.0000   1.0000   1.0000   1.0000
     1.0000   1.0000   1.0000   1.0000   1.0000   1.0000   1.0000   1.0000
     1.0000   1.0000   1.0000   1.0000   1.0000   1.0000   0.9999   0.9999
     0.9997   0.9997   0.9996   0.9996   0.9995   0.9995   0.9994   0.9993
     0.9992   0.9987   0.9983   0.9980   0.9977   0.9923   0.9918   0.9910
     0.9872   0.9861   0.9841   0.9830   0.9819   0.9799   0.9796   0.9781
     0.9747   0.9720   0.9688   0.9687   0.9653   0.9589   0.9450   0.9384
     0.9040   0.8585   0.8555   0.8478   0.8369   0.8345   0.8304   0.8112
     0.8060   0.8004   0.7835   0.7825   0.7735   0.7665   0.7360   0.7252
     0.6935   0.6914   0.6775   0.6753   0.6693   0.6673   0.6645   0.6610
     0.6596   0.6509   0.6437   0.6403   0.6053   0.6041   0.5942   0.5613
     0.1158   0.1104   0.0972   0.0778   0.0177   0.0090   0.0045   0.0027
     0.0007   0.0005   0.0002   0.0001   0.0000   0.0000   0.0000   0.0000
     0.0000   0.0000   0.0000   0.0000   0.0000   0.0000   0.0000   0.0000
     0.0000   0.0000   0.0000   0.0000   0.0000   0.0000   0.0000   0.0000
     0.0000   0.0000

          k = 0.2500 0.2500 0.0000 ( 65198 PWs)   bands (ev):

   -92.8977 -92.8492 -92.7525 -92.7057 -92.6483 -92.6047 -92.5868 -92.4665
   -56.2513 -56.2353 -56.1090 -56.0981 -56.0926 -56.0850 -56.0512 -56.0211
   -56.0057 -56.0047 -56.0005 -55.9546 -55.9364 -55.8988 -55.8795 -55.8485
   -55.8410 -55.7928 -55.7921 -55.7894 -55.7810 -55.7417 -55.7169 -55.6316
   -31.4586 -31.4426 -31.2983 -31.2129 -31.1694 -31.0917 -30.9400 -30.8872
   -30.0402 -30.0004 -29.9729 -29.8657 -15.2085 -15.1659 -15.0936 -14.9779
   -14.8516 -14.7281 -14.6607 -14.4475 -14.2980 -14.2834 -14.2458 -14.2187
   -14.1937 -14.1655 -14.1287 -14.0805 -14.0291 -14.0115 -13.8504 -13.8364
   -13.8056 -13.7879 -13.7102 -13.6973 -13.6127 -13.5930 -13.4601 -13.4287
   -13.4075 -13.3251 -13.2843 -13.2330 -13.2018 -13.1597 -13.1319 -13.1181
   -13.0983 -13.0287 -12.9830 -12.9481 -12.9281 -12.8997 -12.8936 -12.8518
   -12.8320 -12.7826 -12.6366 -12.6304 -12.5555 -12.4607 -12.2745 -12.2148
   -11.9973 -11.9920 -11.9619 -11.9502 -11.9429 -11.8813 -11.8459 -11.8398
   -11.8042 -11.7954 -11.7041 -11.6637 -11.6463  -2.8603  -2.6532  -2.5347
    -2.4384  -2.3201  -2.2558  -2.0535  -1.9133  -1.8948  -1.8599  -1.7679
    -1.7352  -1.6400  -1.6121  -1.5612  -1.4318  -1.3831  -1.3077  -1.2647
    -1.2187  -1.1966  -1.1736  -1.1294  -1.1157  -1.0242  -0.9738  -0.9018
    -0.8562  -0.8270  -0.7804  -0.7640  -0.7006  -0.6511  -0.5837  -0.5581
    -0.4634  -0.4186  -0.3858  -0.3513  -0.2963  -0.2110  -0.1845  -0.1504
    -0.0779  -0.0454   0.2218   0.3746   0.4034   0.4681   0.5080   0.5703
     0.6109   0.6841   0.7190   0.9903   1.0509   1.1241   1.1480   1.2050
     1.2274   1.2650   1.3031   1.3186   1.3461   1.3962   1.4027   1.4208
     1.4663   1.5009   1.5407   1.6072   1.6428   1.6551   1.6877   1.7188
     1.7766   1.7977   1.9261   1.9892   2.0239   2.0411   2.1166   2.1768
     2.2045   2.2395   2.2689   2.2770   2.3908   2.4247   2.5195   2.5474
     2.6015   2.6337   2.6834   2.7023   2.7058   2.7233   2.7395   2.7530
     2.7640   2.7685   2.7824   2.7951   2.8119   2.8240   2.8317   2.8428
     2.8687   2.8768   2.8852   2.9165   3.2160   3.3089   3.3625   3.4297
     3.4478   3.6754   3.7599   4.1201   4.3272   4.5451   4.7944   5.1212
     5.4893   5.5514   5.6082   5.6464   5.7089   6.0828   6.1478   6.2168
     6.8279   7.1753   7.2382   7.3853   7.4424   7.4727   7.5813   7.7491
     7.9020   8.0179   8.1941   8.3020   8.3149   8.3968   8.4560   8.5094
     8.5393   8.5919

     occupation numbers 
     1.0000   1.0000   1.0000   1.0000   1.0000   1.0000   1.0000   1.0000
     1.0000   1.0000   1.0000   1.0000   1.0000   1.0000   1.0000   1.0000
     1.0000   1.0000   1.0000   1.0000   1.0000   1.0000   1.0000   1.0000
     1.0000   1.0000   1.0000   1.0000   1.0000   1.0000   1.0000   1.0000
     1.0000   1.0000   1.0000   1.0000   1.0000   1.0000   1.0000   1.0000
     1.0000   1.0000   1.0000   1.0000   1.0000   1.0000   1.0000   1.0000
     1.0000   1.0000   1.0000   1.0000   1.0000   1.0000   1.0000   1.0000
     1.0000   1.0000   1.0000   1.0000   1.0000   1.0000   1.0000   1.0000
     1.0000   1.0000   1.0000   1.0000   1.0000   1.0000   1.0000   1.0000
     1.0000   1.0000   1.0000   1.0000   1.0000   1.0000   1.0000   1.0000
     1.0000   1.0000   1.0000   1.0000   1.0000   1.0000   1.0000   1.0000
     1.0000   1.0000   1.0000   1.0000   1.0000   1.0000   1.0000   1.0000
     1.0000   1.0000   1.0000   1.0000   1.0000   1.0000   1.0000   1.0000
     1.0000   1.0000   1.0000   1.0000   1.0000   1.0000   1.0000   1.0000
     1.0000   1.0000   1.0000   1.0000   1.0000   1.0000   1.0000   1.0000
     1.0000   1.0000   1.0000   1.0000   1.0000   1.0000   1.0000   1.0000
     1.0000   1.0000   1.0000   1.0000   1.0000   1.0000   1.0000   1.0000
     1.0000   1.0000   1.0000   1.0000   1.0000   1.0000   1.0000   1.0000
     1.0000   1.0000   1.0000   1.0000   1.0000   1.0000   1.0000   1.0000
     1.0000   1.0000   1.0000   1.0000   1.0000   1.0000   1.0000   0.9999
     0.9999   0.9999   0.9998   0.9993   0.9990   0.9986   0.9984   0.9979
     0.9976   0.9972   0.9967   0.9964   0.9960   0.9950   0.9949   0.9944
     0.9933   0.9923   0.9909   0.9882   0.9864   0.9858   0.9839   0.9820
     0.9778   0.9761   0.9632   0.9550   0.9499   0.9472   0.9340   0.9217
     0.9155   0.9072   0.8997   0.8976   0.8641   0.8529   0.8181   0.8069
     0.7841   0.7698   0.7468   0.7378   0.7361   0.7275   0.7195   0.7127
     0.7071   0.7048   0.6976   0.6910   0.6821   0.6757   0.6716   0.6656
     0.6515   0.6470   0.6424   0.6249   0.4498   0.3958   0.3655   0.3286
     0.3190   0.2094   0.1752   0.0709   0.0378   0.0179   0.0068   0.0016
     0.0002   0.0002   0.0001   0.0001   0.0001   0.0000   0.0000   0.0000
     0.0000   0.0000   0.0000   0.0000   0.0000   0.0000   0.0000   0.0000
     0.0000   0.0000   0.0000   0.0000   0.0000   0.0000   0.0000   0.0000
     0.0000   0.0000

          k = 0.2500-0.5000 0.0000 ( 65138 PWs)   bands (ev):

   -92.8977 -92.8492 -92.7525 -92.7057 -92.6483 -92.6047 -92.5868 -92.4665
   -56.2513 -56.2353 -56.1090 -56.0981 -56.0926 -56.0850 -56.0512 -56.0211
   -56.0057 -56.0047 -56.0005 -55.9546 -55.9364 -55.8988 -55.8795 -55.8485
   -55.8410 -55.7928 -55.7921 -55.7894 -55.7810 -55.7417 -55.7169 -55.6316
   -31.4584 -31.4425 -31.2985 -31.2131 -31.1693 -31.0915 -30.9402 -30.8873
   -30.0395 -30.0001 -29.9736 -29.8661 -15.1701 -15.1259 -15.0540 -14.9394
   -14.9054 -14.7909 -14.6888 -14.5661 -14.2631 -14.2045 -14.1831 -14.1566
   -14.1424 -14.1321 -14.0920 -14.0686 -14.0431 -14.0075 -13.9755 -13.9182
   -13.8551 -13.8064 -13.7291 -13.7220 -13.6539 -13.5961 -13.5141 -13.4838
   -13.3907 -13.3250 -13.3034 -13.2182 -13.1727 -13.1563 -13.1273 -13.1132
   -13.0958 -13.0256 -13.0060 -12.9509 -12.8905 -12.8407 -12.8370 -12.8236
   -12.8100 -12.7851 -12.7054 -12.5610 -12.5039 -12.4236 -12.3270 -12.2938
   -11.9966 -11.9686 -11.9564 -11.9456 -11.9180 -11.8871 -11.8580 -11.8174
   -11.7904 -11.7682 -11.7220 -11.6968 -11.6863  -2.6408  -2.5774  -2.4496
    -2.3729  -2.2388  -2.1571  -2.0341  -1.8854  -1.8272  -1.8073  -1.7467
    -1.7337  -1.6346  -1.5688  -1.4849  -1.4317  -1.4224  -1.3620  -1.3165
    -1.2844  -1.2353  -1.1980  -1.1633  -1.1255  -1.1098  -1.0676  -1.0379
    -0.9923  -0.9635  -0.8964  -0.7903  -0.7553  -0.6738  -0.6072  -0.5509
    -0.5145  -0.4988  -0.4303  -0.2813  -0.2693  -0.1494  -0.1354  -0.1255
    -0.0822  -0.0411  -0.0108   0.0218   0.0842   0.3828   0.4727   0.5298
     0.5794   0.8602   0.8714   0.9615   0.9892   1.1488   1.1882   1.2238
     1.2484   1.2583   1.2815   1.3477   1.4000   1.4334   1.5053   1.6142
     1.6433   1.6612   1.6686   1.7077   1.7182   1.7321   1.7728   1.7822
     1.8026   1.8373   1.8486   1.8697   1.9045   1.9609   2.0087   2.0891
     2.2172   2.3606   2.3786   2.3966   2.4224   2.4502   2.4747   2.4957
     2.5112   2.5286   2.5592   2.5959   2.6297   2.6390   2.6868   2.7046
     2.7141   2.7209   2.7394   2.7526   2.7729   2.7799   2.8272   2.8312
     2.8404   2.8467   2.8572   2.8663   3.3857   3.4155   3.5478   3.6040
     3.9395   3.9990   4.0109   4.1370   4.5664   4.7434   4.9096   4.9622
     5.1200   5.2985   5.4964   5.5348   5.6164   5.6638   6.3296   6.4421
     6.4967   6.7678   7.3563   7.5735   7.6564   7.7068   7.7633   7.7901
     7.8956   7.9609   8.2808   8.3543   8.3778   8.3926   8.5401   8.5779
     8.6258   8.6527

     occupation numbers 
     1.0000   1.0000   1.0000   1.0000   1.0000   1.0000   1.0000   1.0000
     1.0000   1.0000   1.0000   1.0000   1.0000   1.0000   1.0000   1.0000
     1.0000   1.0000   1.0000   1.0000   1.0000   1.0000   1.0000   1.0000
     1.0000   1.0000   1.0000   1.0000   1.0000   1.0000   1.0000   1.0000
     1.0000   1.0000   1.0000   1.0000   1.0000   1.0000   1.0000   1.0000
     1.0000   1.0000   1.0000   1.0000   1.0000   1.0000   1.0000   1.0000
     1.0000   1.0000   1.0000   1.0000   1.0000   1.0000   1.0000   1.0000
     1.0000   1.0000   1.0000   1.0000   1.0000   1.0000   1.0000   1.0000
     1.0000   1.0000   1.0000   1.0000   1.0000   1.0000   1.0000   1.0000
     1.0000   1.0000   1.0000   1.0000   1.0000   1.0000   1.0000   1.0000
     1.0000   1.0000   1.0000   1.0000   1.0000   1.0000   1.0000   1.0000
     1.0000   1.0000   1.0000   1.0000   1.0000   1.0000   1.0000   1.0000
     1.0000   1.0000   1.0000   1.0000   1.0000   1.0000   1.0000   1.0000
     1.0000   1.0000   1.0000   1.0000   1.0000   1.0000   1.0000   1.0000
     1.0000   1.0000   1.0000   1.0000   1.0000   1.0000   1.0000   1.0000
     1.0000   1.0000   1.0000   1.0000   1.0000   1.0000   1.0000   1.0000
     1.0000   1.0000   1.0000   1.0000   1.0000   1.0000   1.0000   1.0000
     1.0000   1.0000   1.0000   1.0000   1.0000   1.0000   1.0000   1.0000
     1.0000   1.0000   1.0000   1.0000   1.0000   1.0000   1.0000   1.0000
     1.0000   1.0000   1.0000   1.0000   1.0000   1.0000   1.0000   0.9999
     0.9999   0.9996   0.9996   0.9994   0.9993   0.9984   0.9980   0.9977
     0.9974   0.9973   0.9970   0.9960   0.9949   0.9941   0.9921   0.9878
     0.9864   0.9855   0.9851   0.9827   0.9820   0.9811   0.9781   0.9774
     0.9757   0.9726   0.9716   0.9695   0.9657   0.9588   0.9522   0.9391
     0.9126   0.8737   0.8680   0.8622   0.8536   0.8440   0.8351   0.8272
     0.8213   0.8144   0.8021   0.7865   0.7717   0.7674   0.7452   0.7367
     0.7320   0.7287   0.7195   0.7129   0.7025   0.6989   0.6740   0.6719
     0.6669   0.6635   0.6578   0.6528   0.3526   0.3363   0.2680   0.2412
     0.1150   0.0987   0.0957   0.0676   0.0165   0.0083   0.0041   0.0033
     0.0016   0.0006   0.0002   0.0002   0.0001   0.0001   0.0000   0.0000
     0.0000   0.0000   0.0000   0.0000   0.0000   0.0000   0.0000   0.0000
     0.0000   0.0000   0.0000   0.0000   0.0000   0.0000   0.0000   0.0000
     0.0000   0.0000

          k =-0.5000-0.5000 0.0000 ( 65132 PWs)   bands (ev):

   -92.8977 -92.8492 -92.7525 -92.7057 -92.6483 -92.6047 -92.5868 -92.4665
   -56.2513 -56.2353 -56.1090 -56.0981 -56.0926 -56.0850 -56.0512 -56.0211
   -56.0057 -56.0047 -56.0005 -55.9546 -55.9364 -55.8988 -55.8795 -55.8485
   -55.8410 -55.7928 -55.7921 -55.7894 -55.7810 -55.7417 -55.7169 -55.6316
   -31.4562 -31.4447 -31.2981 -31.2135 -31.1689 -31.0919 -30.9396 -30.8879
   -30.0385 -30.0012 -29.9732 -29.8665 -15.1236 -15.0987 -14.9818 -14.9668
   -14.8650 -14.8393 -14.7935 -14.6645 -14.1745 -14.1599 -14.1299 -14.1076
   -14.0921 -14.0655 -14.0519 -14.0391 -14.0154 -14.0125 -13.9936 -13.9205
   -13.9142 -13.8665 -13.8481 -13.8078 -13.7401 -13.6521 -13.5483 -13.5230
   -13.3418 -13.3005 -13.2326 -13.2091 -13.1726 -13.1680 -13.1585 -13.1404
   -13.0735 -13.0327 -12.9505 -12.9457 -12.8980 -12.8935 -12.8517 -12.8062
   -12.7861 -12.7814 -12.7213 -12.5256 -12.5000 -12.3744 -12.3236 -12.3087
   -11.9966 -11.9655 -11.9526 -11.9347 -11.9179 -11.8827 -11.8665 -11.8296
   -11.7707 -11.7503 -11.7449 -11.6947 -11.6920  -2.4138  -2.3415  -2.3335
    -2.2609  -2.2226  -2.1442  -2.0762  -1.9489  -1.8356  -1.8061  -1.7621
    -1.7097  -1.6370  -1.6211  -1.5524  -1.5091  -1.3901  -1.3589  -1.3108
    -1.2869  -1.2222  -1.1731  -1.1556  -1.1428  -1.0858  -1.0469  -1.0243
    -0.9158  -0.8602  -0.8136  -0.7630  -0.7316  -0.7142  -0.6834  -0.6433
    -0.6013  -0.5961  -0.5122  -0.4438  -0.4037  -0.3717  -0.3024  -0.2326
    -0.2303  -0.1671  -0.1373  -0.1264  -0.1071   0.3594   0.3991   0.4797
     0.4918   0.8832   0.8976   0.9347   0.9691   1.2373   1.2557   1.2624
     1.3060   1.4270   1.5185   1.5479   1.5841   1.6207   1.6314   1.6404
     1.6723   1.6913   1.7111   1.7123   1.7568   1.7615   1.7897   1.8118
     1.8268   1.8429   1.8806   1.9047   1.9200   1.9488   1.9843   2.0424
     2.1094   2.3739   2.4032   2.4213   2.4417   2.4547   2.4745   2.4854
     2.5066   2.5153   2.5337   2.5481   2.5589   2.5702   2.5952   2.6304
     2.6352   2.6392   2.6615   2.6718   2.6975   2.7096   2.7137   2.7262
     2.8284   2.8389   2.8522   2.8667   3.8183   3.8640   3.8667   3.9125
     4.1240   4.1992   4.2230   4.4637   4.5864   4.6685   4.8021   4.9087
     4.9192   5.0155   5.1503   5.2833   5.8023   5.8337   5.8832   6.0098
     6.7070   6.9260   6.9849   7.5244   7.8253   7.8400   7.9190   8.0634
     8.1484   8.1897   8.2113   8.3302   8.4461   8.4793   8.4950   8.5145
     8.5470   8.5746

     occupation numbers 
     1.0000   1.0000   1.0000   1.0000   1.0000   1.0000   1.0000   1.0000
     1.0000   1.0000   1.0000   1.0000   1.0000   1.0000   1.0000   1.0000
     1.0000   1.0000   1.0000   1.0000   1.0000   1.0000   1.0000   1.0000
     1.0000   1.0000   1.0000   1.0000   1.0000   1.0000   1.0000   1.0000
     1.0000   1.0000   1.0000   1.0000   1.0000   1.0000   1.0000   1.0000
     1.0000   1.0000   1.0000   1.0000   1.0000   1.0000   1.0000   1.0000
     1.0000   1.0000   1.0000   1.0000   1.0000   1.0000   1.0000   1.0000
     1.0000   1.0000   1.0000   1.0000   1.0000   1.0000   1.0000   1.0000
     1.0000   1.0000   1.0000   1.0000   1.0000   1.0000   1.0000   1.0000
     1.0000   1.0000   1.0000   1.0000   1.0000   1.0000   1.0000   1.0000
     1.0000   1.0000   1.0000   1.0000   1.0000   1.0000   1.0000   1.0000
     1.0000   1.0000   1.0000   1.0000   1.0000   1.0000   1.0000   1.0000
     1.0000   1.0000   1.0000   1.0000   1.0000   1.0000   1.0000   1.0000
     1.0000   1.0000   1.0000   1.0000   1.0000   1.0000   1.0000   1.0000
     1.0000   1.0000   1.0000   1.0000   1.0000   1.0000   1.0000   1.0000
     1.0000   1.0000   1.0000   1.0000   1.0000   1.0000   1.0000   1.0000
     1.0000   1.0000   1.0000   1.0000   1.0000   1.0000   1.0000   1.0000
     1.0000   1.0000   1.0000   1.0000   1.0000   1.0000   1.0000   1.0000
     1.0000   1.0000   1.0000   1.0000   1.0000   1.0000   1.0000   1.0000
     1.0000   1.0000   1.0000   1.0000   1.0000   1.0000   1.0000   1.0000
     1.0000   0.9996   0.9995   0.9994   0.9993   0.9975   0.9973   0.9972
     0.9966   0.9943   0.9917   0.9906   0.9892   0.9875   0.9870   0.9866
     0.9848   0.9837   0.9825   0.9824   0.9794   0.9790   0.9768   0.9749
     0.9736   0.9721   0.9683   0.9657   0.9639   0.9604   0.9557   0.9470
     0.9354   0.8695   0.8601   0.8540   0.8470   0.8423   0.8352   0.8311
     0.8231   0.8197   0.8124   0.8066   0.8022   0.7975   0.7869   0.7713
     0.7692   0.7674   0.7571   0.7523   0.7401   0.7342   0.7323   0.7261
     0.6734   0.6678   0.6605   0.6526   0.1537   0.1382   0.1373   0.1229
     0.0702   0.0564   0.0524   0.0239   0.0153   0.0112   0.0065   0.0041
     0.0040   0.0026   0.0014   0.0007   0.0000   0.0000   0.0000   0.0000
     0.0000   0.0000   0.0000   0.0000   0.0000   0.0000   0.0000   0.0000
     0.0000   0.0000   0.0000   0.0000   0.0000   0.0000   0.0000   0.0000
     0.0000   0.0000

          k = 0.2500 0.0000 0.0000 ( 65257 PWs)   bands (ev):

   -92.8977 -92.8492 -92.7525 -92.7057 -92.6483 -92.6047 -92.5868 -92.4665
   -56.2513 -56.2353 -56.1090 -56.0981 -56.0926 -56.0850 -56.0512 -56.0211
   -56.0057 -56.0047 -56.0005 -55.9546 -55.9364 -55.8988 -55.8795 -55.8485
   -55.8410 -55.7928 -55.7921 -55.7894 -55.7810 -55.7417 -55.7169 -55.6316
   -31.4587 -31.4428 -31.2981 -31.2128 -31.1695 -31.0919 -30.9398 -30.8871
   -30.0408 -30.0007 -29.9723 -29.8654 -15.2412 -15.1958 -15.1272 -14.9815
   -14.8664 -14.6770 -14.5442 -14.3634 -14.3480 -14.3162 -14.2819 -14.2600
   -14.2267 -14.2070 -14.1815 -14.1266 -14.0295 -13.9956 -13.8486 -13.7757
   -13.7622 -13.6924 -13.6807 -13.6654 -13.5867 -13.5310 -13.4936 -13.3913
   -13.3420 -13.3266 -13.2437 -13.2270 -13.2091 -13.1915 -13.1661 -13.1456
   -13.1154 -13.0331 -13.0040 -12.9578 -12.9514 -12.9206 -12.8887 -12.8856
   -12.8740 -12.7840 -12.6978 -12.6285 -12.5904 -12.4327 -12.2376 -12.1755
   -12.0201 -11.9962 -11.9679 -11.9510 -11.9382 -11.9112 -11.8604 -11.8372
   -11.8288 -11.7773 -11.6891 -11.6338 -11.6279  -2.9984  -2.7781  -2.6475
[...]
     0.6332   0.6209   0.6185   0.6142   0.6098   0.6047   0.5989   0.5253
     0.3523   0.3165   0.2023   0.0761   0.0445   0.0204   0.0049   0.0029
     0.0002   0.0001   0.0000   0.0000   0.0000   0.0000   0.0000   0.0000
     0.0000   0.0000   0.0000   0.0000   0.0000   0.0000   0.0000   0.0000
     0.0000   0.0000   0.0000   0.0000   0.0000   0.0000   0.0000   0.0000
     0.0000   0.0000

          k =-0.5000 0.0000 0.0000 ( 65180 PWs)   bands (ev):

   -92.8977 -92.8492 -92.7525 -92.7057 -92.6483 -92.6047 -92.5868 -92.4665
   -56.2513 -56.2353 -56.1090 -56.0981 -56.0926 -56.0850 -56.0512 -56.0211
   -56.0057 -56.0047 -56.0005 -55.9546 -55.9364 -55.8988 -55.8795 -55.8485
   -55.8410 -55.7928 -55.7921 -55.7894 -55.7810 -55.7417 -55.7169 -55.6316
   -31.4566 -31.4450 -31.2977 -31.2132 -31.1691 -31.0923 -30.9392 -30.8877
   -30.0397 -30.0018 -29.9719 -29.8658 -15.2070 -15.1536 -15.0924 -14.9739
   -14.8806 -14.7347 -14.5903 -14.4276 -14.3237 -14.3031 -14.2996 -14.2353
   -14.1799 -14.1500 -14.0982 -14.0778 -14.0679 -14.0230 -13.9845 -13.8897
   -13.7463 -13.6991 -13.6838 -13.6744 -13.5744 -13.5528 -13.4847 -13.4493
   -13.4259 -13.3974 -13.2373 -13.2244 -13.1988 -13.1904 -13.1385 -13.1233
   -13.1036 -13.0909 -12.9447 -12.9062 -12.8836 -12.8769 -12.8652 -12.8249
   -12.8155 -12.7839 -12.7252 -12.5531 -12.5104 -12.4076 -12.3497 -12.3187
   -11.9963 -11.9718 -11.9504 -11.9434 -11.9303 -11.9117 -11.8704 -11.8070
   -11.7883 -11.7548 -11.7123 -11.7035 -11.6876  -2.7741  -2.7360  -2.5736
    -2.5340  -2.2181  -2.1414  -1.9983  -1.8795  -1.8390  -1.7922  -1.7469
    -1.7230  -1.5980  -1.5550  -1.5373  -1.4564  -1.4207  -1.4032  -1.3741
    -1.3121  -1.2465  -1.2195  -1.1828  -1.0896  -1.0471  -0.9973  -0.9641
    -0.9441  -0.9089  -0.8632  -0.8392  -0.7991  -0.6913  -0.6303  -0.5494
    -0.4909  -0.3298  -0.2934  -0.2484  -0.1889  -0.1395  -0.1309   0.0129
     0.0406   0.0828   0.2471   0.3474   0.3973   0.4953   0.5568   0.6715
     0.6838   0.8182   0.8419   0.8958   0.9341   0.9628   0.9731   1.0228
     1.0412   1.1133   1.1617   1.2061   1.2242   1.5174   1.5315   1.5525
     1.5761   1.6718   1.6860   1.7006   1.7078   1.7410   1.7499   1.7856
     1.8057   1.8340   1.8844   1.9052   1.9560   1.9787   2.0329   2.1450
     2.2434   2.3105   2.3264   2.4036   2.4312   2.4551   2.5297   2.5376
     2.5412   2.5504   2.5775   2.6077   2.6356   2.6454   2.6900   2.7551
     2.7623   2.8062   2.8125   2.8202   2.8229   2.8427   2.8521   2.8628
     2.8701   2.8903   2.8932   2.9157   2.9343   2.9395   3.0691   3.0761
     3.8757   3.9503   4.0152   4.1363   4.6038   4.6881   4.8822   4.9134
     5.3641   5.3943   5.4735   5.5146   5.8476   5.8672   6.3783   6.6928
     6.7239   6.9403   7.1913   7.2472   7.6112   7.6503   7.6725   7.7459
     7.7896   8.0222   8.1156   8.1486   8.3207   8.3570   8.4456   8.4710
     8.6247   8.7872

     occupation numbers 
     1.0000   1.0000   1.0000   1.0000   1.0000   1.0000   1.0000   1.0000
     1.0000   1.0000   1.0000   1.0000   1.0000   1.0000   1.0000   1.0000
     1.0000   1.0000   1.0000   1.0000   1.0000   1.0000   1.0000   1.0000
     1.0000   1.0000   1.0000   1.0000   1.0000   1.0000   1.0000   1.0000
     1.0000   1.0000   1.0000   1.0000   1.0000   1.0000   1.0000   1.0000
     1.0000   1.0000   1.0000   1.0000   1.0000   1.0000   1.0000   1.0000
     1.0000   1.0000   1.0000   1.0000   1.0000   1.0000   1.0000   1.0000
     1.0000   1.0000   1.0000   1.0000   1.0000   1.0000   1.0000   1.0000
     1.0000   1.0000   1.0000   1.0000   1.0000   1.0000   1.0000   1.0000
     1.0000   1.0000   1.0000   1.0000   1.0000   1.0000   1.0000   1.0000
     1.0000   1.0000   1.0000   1.0000   1.0000   1.0000   1.0000   1.0000
     1.0000   1.0000   1.0000   1.0000   1.0000   1.0000   1.0000   1.0000
     1.0000   1.0000   1.0000   1.0000   1.0000   1.0000   1.0000   1.0000
     1.0000   1.0000   1.0000   1.0000   1.0000   1.0000   1.0000   1.0000
     1.0000   1.0000   1.0000   1.0000   1.0000   1.0000   1.0000   1.0000
     1.0000   1.0000   1.0000   1.0000   1.0000   1.0000   1.0000   1.0000
     1.0000   1.0000   1.0000   1.0000   1.0000   1.0000   1.0000   1.0000
     1.0000   1.0000   1.0000   1.0000   1.0000   1.0000   1.0000   1.0000
     1.0000   1.0000   1.0000   1.0000   1.0000   1.0000   1.0000   1.0000
     1.0000   1.0000   1.0000   1.0000   1.0000   1.0000   0.9999   0.9999
     0.9999   0.9997   0.9997   0.9995   0.9994   0.9994   0.9993   0.9991
     0.9990   0.9986   0.9983   0.9979   0.9977   0.9917   0.9912   0.9905
     0.9895   0.9849   0.9840   0.9832   0.9827   0.9805   0.9799   0.9771
     0.9755   0.9729   0.9679   0.9656   0.9595   0.9565   0.9485   0.9284
     0.9062   0.8884   0.8839   0.8600   0.8506   0.8422   0.8140   0.8109
     0.8094   0.8057   0.7944   0.7814   0.7690   0.7645   0.7437   0.7116
     0.7080   0.6852   0.6819   0.6778   0.6763   0.6657   0.6606   0.6548
     0.6507   0.6396   0.6380   0.6254   0.6149   0.6119   0.5366   0.5325
     0.1344   0.1119   0.0946   0.0677   0.0144   0.0104   0.0047   0.0041
     0.0005   0.0004   0.0003   0.0002   0.0000   0.0000   0.0000   0.0000
     0.0000   0.0000   0.0000   0.0000   0.0000   0.0000   0.0000   0.0000
     0.0000   0.0000   0.0000   0.0000   0.0000   0.0000   0.0000   0.0000
     0.0000   0.0000

          k =-0.2500 0.2500 0.0000 ( 65198 PWs)   bands (ev):

   -92.8977 -92.8492 -92.7525 -92.7057 -92.6483 -92.6047 -92.5868 -92.4665
   -56.2513 -56.2353 -56.1090 -56.0981 -56.0926 -56.0850 -56.0512 -56.0211
   -56.0057 -56.0047 -56.0005 -55.9546 -55.9364 -55.8988 -55.8795 -55.8485
   -55.8410 -55.7928 -55.7921 -55.7894 -55.7810 -55.7417 -55.7169 -55.6316
   -31.4586 -31.4426 -31.2983 -31.2129 -31.1694 -31.0917 -30.9400 -30.8872
   -30.0402 -30.0004 -29.9729 -29.8657 -15.2098 -15.1647 -15.0924 -14.9764
   -14.8570 -14.7339 -14.6522 -14.4381 -14.3040 -14.2761 -14.2586 -14.2139
   -14.1894 -14.1644 -14.1387 -14.0899 -14.0237 -14.0118 -13.8596 -13.8334
   -13.8014 -13.7830 -13.7115 -13.6867 -13.6205 -13.5916 -13.4650 -13.4200
   -13.4018 -13.3294 -13.2856 -13.2236 -13.1914 -13.1678 -13.1314 -13.1185
   -13.1076 -13.0339 -12.9818 -12.9554 -12.9481 -12.8925 -12.8749 -12.8562
   -12.8357 -12.7794 -12.6501 -12.6264 -12.5339 -12.4664 -12.2654 -12.2257
   -11.9970 -11.9914 -11.9707 -11.9438 -11.9313 -11.8906 -11.8558 -11.8331
   -11.8105 -11.7884 -11.7038 -11.6592 -11.6496  -2.8586  -2.6521  -2.5306
    -2.4399  -2.3244  -2.2586  -2.0510  -1.9104  -1.8923  -1.8580  -1.7685
    -1.7341  -1.6398  -1.6049  -1.5788  -1.4377  -1.3808  -1.3109  -1.2839
    -1.2217  -1.2032  -1.1628  -1.1345  -1.0941  -1.0305  -0.9815  -0.9127
    -0.8481  -0.8230  -0.7745  -0.7455  -0.6984  -0.6400  -0.5858  -0.5539
    -0.4448  -0.4216  -0.4027  -0.3608  -0.2989  -0.2168  -0.1838  -0.1398
    -0.0732  -0.0475   0.2013   0.3781   0.4107   0.4562   0.5160   0.5682
     0.6176   0.6871   0.7185   0.9986   1.1006   1.1421   1.1743   1.1852
     1.2224   1.2377   1.2839   1.3162   1.3275   1.3531   1.4049   1.4213
     1.4584   1.4838   1.5270   1.6233   1.6318   1.6555   1.6872   1.7182
     1.7585   1.8058   1.9146   2.0218   2.0436   2.0915   2.1119   2.1745
     2.2153   2.2423   2.2690   2.2886   2.3900   2.4254   2.5137   2.5540
     2.5992   2.6337   2.6913   2.6987   2.7138   2.7209   2.7338   2.7466
     2.7564   2.7733   2.7848   2.7939   2.8059   2.8152   2.8248   2.8356
     2.8685   2.8786   2.8847   2.9185   3.2094   3.2906   3.3646   3.4332
     3.4575   3.6605   3.7684   4.1194   4.3243   4.5470   4.8038   5.1214
     5.4909   5.5486   5.6122   5.6420   5.7097   6.0982   6.1311   6.2174
     6.8290   7.1449   7.2695   7.3894   7.4540   7.4763   7.5576   7.7596
     7.8771   8.0674   8.1932   8.2644   8.3166   8.3820   8.4611   8.4835
     8.5423   8.6448

     occupation numbers 
     1.0000   1.0000   1.0000   1.0000   1.0000   1.0000   1.0000   1.0000
     1.0000   1.0000   1.0000   1.0000   1.0000   1.0000   1.0000   1.0000
     1.0000   1.0000   1.0000   1.0000   1.0000   1.0000   1.0000   1.0000
     1.0000   1.0000   1.0000   1.0000   1.0000   1.0000   1.0000   1.0000
     1.0000   1.0000   1.0000   1.0000   1.0000   1.0000   1.0000   1.0000
     1.0000   1.0000   1.0000   1.0000   1.0000   1.0000   1.0000   1.0000
     1.0000   1.0000   1.0000   1.0000   1.0000   1.0000   1.0000   1.0000
     1.0000   1.0000   1.0000   1.0000   1.0000   1.0000   1.0000   1.0000
     1.0000   1.0000   1.0000   1.0000   1.0000   1.0000   1.0000   1.0000
     1.0000   1.0000   1.0000   1.0000   1.0000   1.0000   1.0000   1.0000
     1.0000   1.0000   1.0000   1.0000   1.0000   1.0000   1.0000   1.0000
     1.0000   1.0000   1.0000   1.0000   1.0000   1.0000   1.0000   1.0000
     1.0000   1.0000   1.0000   1.0000   1.0000   1.0000   1.0000   1.0000
     1.0000   1.0000   1.0000   1.0000   1.0000   1.0000   1.0000   1.0000
     1.0000   1.0000   1.0000   1.0000   1.0000   1.0000   1.0000   1.0000
     1.0000   1.0000   1.0000   1.0000   1.0000   1.0000   1.0000   1.0000
     1.0000   1.0000   1.0000   1.0000   1.0000   1.0000   1.0000   1.0000
     1.0000   1.0000   1.0000   1.0000   1.0000   1.0000   1.0000   1.0000
     1.0000   1.0000   1.0000   1.0000   1.0000   1.0000   1.0000   1.0000
     1.0000   1.0000   1.0000   1.0000   1.0000   1.0000   0.9999   0.9999
     0.9999   0.9999   0.9998   0.9992   0.9987   0.9984   0.9982   0.9981
     0.9977   0.9975   0.9970   0.9965   0.9963   0.9959   0.9948   0.9944
     0.9935   0.9928   0.9914   0.9874   0.9870   0.9858   0.9840   0.9820
     0.9792   0.9755   0.9646   0.9502   0.9468   0.9386   0.9349   0.9222
     0.9130   0.9065   0.8997   0.8945   0.8644   0.8526   0.8203   0.8042
     0.7851   0.7698   0.7431   0.7395   0.7322   0.7287   0.7223   0.7159
     0.7109   0.7023   0.6964   0.6916   0.6853   0.6804   0.6753   0.6695
     0.6516   0.6461   0.6427   0.6238   0.4536   0.4063   0.3643   0.3268
     0.3139   0.2159   0.1719   0.0711   0.0382   0.0178   0.0065   0.0016
     0.0002   0.0002   0.0001   0.0001   0.0001   0.0000   0.0000   0.0000
     0.0000   0.0000   0.0000   0.0000   0.0000   0.0000   0.0000   0.0000
     0.0000   0.0000   0.0000   0.0000   0.0000   0.0000   0.0000   0.0000
     0.0000   0.0000

          k =-0.5000 0.2500 0.0000 ( 65138 PWs)   bands (ev):

   -92.8977 -92.8492 -92.7525 -92.7057 -92.6483 -92.6047 -92.5868 -92.4665
   -56.2513 -56.2353 -56.1090 -56.0981 -56.0926 -56.0850 -56.0512 -56.0211
   -56.0057 -56.0047 -56.0005 -55.9546 -55.9364 -55.8988 -55.8795 -55.8485
   -55.8410 -55.7928 -55.7921 -55.7894 -55.7810 -55.7417 -55.7169 -55.6316
   -31.4564 -31.4448 -31.2979 -31.2133 -31.1690 -31.0921 -30.9394 -30.8878
   -30.0391 -30.0015 -29.9725 -29.8661 -15.1740 -15.1272 -15.0495 -14.9438
   -14.9045 -14.7827 -14.6926 -14.5525 -14.2553 -14.2246 -14.2118 -14.1687
   -14.1423 -14.1210 -14.0849 -14.0612 -14.0486 -14.0108 -13.9872 -13.8845
   -13.8264 -13.7776 -13.7689 -13.7373 -13.6547 -13.6142 -13.5161 -13.4613
   -13.3836 -13.3477 -13.2493 -13.2104 -13.1995 -13.1695 -13.1352 -13.1227
   -13.0890 -13.0648 -12.9563 -12.9232 -12.8928 -12.8780 -12.8648 -12.8082
   -12.7987 -12.7858 -12.7231 -12.5392 -12.5056 -12.3913 -12.3371 -12.3135
   -11.9965 -11.9646 -11.9523 -11.9382 -11.9256 -11.9051 -11.8751 -11.7930
   -11.7856 -11.7614 -11.7266 -11.6990 -11.6898  -2.6310  -2.5898  -2.4431
    -2.4004  -2.2377  -2.1601  -2.0224  -1.8849  -1.8270  -1.8004  -1.7629
    -1.7257  -1.6441  -1.5280  -1.4707  -1.4475  -1.4206  -1.3430  -1.3161
    -1.2763  -1.2607  -1.2005  -1.1664  -1.1316  -1.0971  -1.0680  -1.0087
    -0.9803  -0.9385  -0.9025  -0.7980  -0.7727  -0.6730  -0.6213  -0.5882
    -0.5238  -0.4502  -0.4134  -0.3148  -0.2700  -0.2122  -0.1599  -0.1213
    -0.0673  -0.0403  -0.0073   0.0395   0.0801   0.4120   0.4729   0.5269
     0.5388   0.8318   0.8950   0.9658   0.9928   1.1638   1.1980   1.2359
     1.2443   1.2628   1.2810   1.3503   1.4001   1.4416   1.4751   1.5969
     1.6392   1.6602   1.6711   1.7073   1.7354   1.7521   1.7615   1.7793
     1.8053   1.8468   1.8606   1.8978   1.9241   1.9570   2.0087   2.1347
     2.2291   2.2587   2.3244   2.3582   2.4213   2.4515   2.4623   2.5058
     2.5350   2.5435   2.5642   2.5974   2.6346   2.6452   2.6900   2.7000
     2.7108   2.7321   2.7481   2.7591   2.7752   2.7912   2.8145   2.8262
     2.8350   2.8426   2.8509   2.8634   3.3974   3.4375   3.5815   3.6007
     3.8844   3.9646   4.0216   4.2177   4.5962   4.7006   4.8708   4.9275
     5.2301   5.2534   5.4791   5.5740   5.6009   5.6426   6.3236   6.4500
     6.4829   6.8029   7.3194   7.5918   7.6619   7.7188   7.7532   7.8004
     7.8715   7.9530   8.2618   8.3471   8.4076   8.4349   8.4908   8.5512
     8.6233   8.6926

     occupation numbers 
     1.0000   1.0000   1.0000   1.0000   1.0000   1.0000   1.0000   1.0000
     1.0000   1.0000   1.0000   1.0000   1.0000   1.0000   1.0000   1.0000
     1.0000   1.0000   1.0000   1.0000   1.0000   1.0000   1.0000   1.0000
     1.0000   1.0000   1.0000   1.0000   1.0000   1.0000   1.0000   1.0000
     1.0000   1.0000   1.0000   1.0000   1.0000   1.0000   1.0000   1.0000
     1.0000   1.0000   1.0000   1.0000   1.0000   1.0000   1.0000   1.0000
     1.0000   1.0000   1.0000   1.0000   1.0000   1.0000   1.0000   1.0000
     1.0000   1.0000   1.0000   1.0000   1.0000   1.0000   1.0000   1.0000
     1.0000   1.0000   1.0000   1.0000   1.0000   1.0000   1.0000   1.0000
     1.0000   1.0000   1.0000   1.0000   1.0000   1.0000   1.0000   1.0000
     1.0000   1.0000   1.0000   1.0000   1.0000   1.0000   1.0000   1.0000
     1.0000   1.0000   1.0000   1.0000   1.0000   1.0000   1.0000   1.0000
     1.0000   1.0000   1.0000   1.0000   1.0000   1.0000   1.0000   1.0000
     1.0000   1.0000   1.0000   1.0000   1.0000   1.0000   1.0000   1.0000
     1.0000   1.0000   1.0000   1.0000   1.0000   1.0000   1.0000   1.0000
     1.0000   1.0000   1.0000   1.0000   1.0000   1.0000   1.0000   1.0000
     1.0000   1.0000   1.0000   1.0000   1.0000   1.0000   1.0000   1.0000
     1.0000   1.0000   1.0000   1.0000   1.0000   1.0000   1.0000   1.0000
     1.0000   1.0000   1.0000   1.0000   1.0000   1.0000   1.0000   1.0000
     1.0000   1.0000   1.0000   1.0000   1.0000   1.0000   1.0000   0.9999
     0.9999   0.9997   0.9996   0.9993   0.9993   0.9983   0.9979   0.9976
     0.9975   0.9972   0.9970   0.9959   0.9949   0.9939   0.9930   0.9886
     0.9866   0.9855   0.9849   0.9827   0.9809   0.9797   0.9790   0.9776
     0.9755   0.9717   0.9704   0.9665   0.9634   0.9594   0.9522   0.9305
     0.9097   0.9024   0.8845   0.8744   0.8540   0.8435   0.8396   0.8234
     0.8119   0.8085   0.8000   0.7859   0.7694   0.7646   0.7437   0.7389
     0.7337   0.7232   0.7152   0.7096   0.7014   0.6930   0.6808   0.6746
     0.6699   0.6657   0.6612   0.6544   0.3462   0.3245   0.2517   0.2427
     0.1316   0.1079   0.0930   0.0533   0.0148   0.0099   0.0049   0.0038
     0.0009   0.0008   0.0002   0.0001   0.0001   0.0001   0.0000   0.0000
     0.0000   0.0000   0.0000   0.0000   0.0000   0.0000   0.0000   0.0000
     0.0000   0.0000   0.0000   0.0000   0.0000   0.0000   0.0000   0.0000
     0.0000   0.0000

     the Fermi energy is     3.1310 ev

!    total energy              =   -4440.30947498 Ry
     estimated scf accuracy    <          8.9E-09 Ry
     smearing contrib. (-TS)   =      -1.20813432 Ry
     internal energy E=F+TS    =   -4439.10134066 Ry

     The total energy is F=E-TS. E is the sum of the following terms:
     one-electron contribution =  -20888.94249469 Ry
     hartree contribution      =   10573.27878633 Ry
     xc contribution           =    -693.24786583 Ry
     ewald contribution        =    6846.00121752 Ry
     one-center paw contrib.   =    -276.19098399 Ry
      -> PAW hartree energy AE =      25.13256260 Ry
      -> PAW hartree energy PS =     -25.01676492 Ry
      -> PAW xc energy AE      =     -16.51320280 Ry
      -> PAW xc energy PS      =       6.87245154 Ry
      -> total E_H with PAW    =   10573.39458400 Ry
      -> total E_XC with PAW   =    -702.88861709 Ry

     convergence has been achieved in  48 iterations

     Writing all to output data dir /bsuhome/zayahcortright/scratch/pwscf.save/
 
     init_run     :      8.56s CPU      9.55s WALL (       1 calls)
     electrons    :    685.19s CPU    719.26s WALL (       1 calls)

     Called by init_run:
     wfcinit      :      6.29s CPU      6.69s WALL (       1 calls)
     wfcinit:atom :      0.04s CPU      0.06s WALL (       5 calls)
     wfcinit:wfcr :      5.97s CPU      6.28s WALL (       5 calls)
     potinit      :      0.18s CPU      0.20s WALL (       1 calls)
     hinit0       :      0.37s CPU      0.72s WALL (       1 calls)

     Called by electrons:
     c_bands      :    542.18s CPU    549.04s WALL (      48 calls)
     sum_band     :    107.25s CPU    122.01s WALL (      48 calls)
     v_of_rho     :      5.17s CPU      5.59s WALL (      49 calls)
     v_h          :      0.46s CPU      0.46s WALL (      49 calls)
     v_xc         :      4.71s CPU      5.12s WALL (      49 calls)
     newd         :     15.94s CPU     27.02s WALL (      49 calls)
     PAW_pot      :      1.53s CPU      1.58s WALL (      49 calls)
     mix_rho      :     12.80s CPU     13.15s WALL (      48 calls)

     Called by c_bands:
     init_us_2    :      6.89s CPU      6.97s WALL (     485 calls)
     init_us_2:cp :      6.88s CPU      6.97s WALL (     485 calls)
     cegterg      :    508.67s CPU    515.19s WALL (     240 calls)

     Called by sum_band:
     sum_band:wei :      0.34s CPU      0.35s WALL (      48 calls)
     sum_band:loo :     90.37s CPU     91.08s WALL (      48 calls)
     sum_band:buf :      1.52s CPU      1.60s WALL (     240 calls)
     sum_band:ini :      3.23s CPU      3.24s WALL (     240 calls)
     sum_band:cal :     19.32s CPU     19.38s WALL (     240 calls)
     sum_band:bec :      0.53s CPU      0.54s WALL (     240 calls)
     addusdens    :     15.35s CPU     29.33s WALL (      48 calls)
                                        0.00s GPU  (      48 calls)
     addusd:skk   :      0.30s CPU      0.93s WALL (     144 calls)
                                        0.00s GPU  (     144 calls)

     Called by *egterg:
     cdiaghg      :     49.52s CPU     49.72s WALL (    1136 calls)
     cegterg:over :     36.45s CPU     36.61s WALL (     896 calls)
     cegterg:upda :     26.53s CPU     27.03s WALL (     896 calls)
     cegterg:last :     57.22s CPU     57.48s WALL (     432 calls)
     cdiaghg:chol :      2.91s CPU      2.93s WALL (    1136 calls)
     cdiaghg:inve :      2.69s CPU      2.70s WALL (    1136 calls)
     cdiaghg:para :      6.23s CPU      6.27s WALL (    2272 calls)
     h_psi        :    285.88s CPU    289.13s WALL (    1141 calls)
     s_psi        :     37.93s CPU     38.05s WALL (    1141 calls)
     g_psi        :      1.07s CPU      1.07s WALL (     896 calls)

     Called by h_psi:
     h_psi:calbec :     43.47s CPU     43.77s WALL (    1141 calls)
     vloc_psi     :    201.70s CPU    203.74s WALL (    1141 calls)
     add_vuspsi   :     37.91s CPU     38.14s WALL (    1141 calls)

     General routines
     calbec       :     62.78s CPU     63.14s WALL (    1381 calls)
     fft          :      3.45s CPU      3.50s WALL (     635 calls)
     ffts         :      4.56s CPU      4.60s WALL (    5172 calls)
     fftw         :    169.35s CPU    170.75s WALL (  321468 calls)
     interpolate  :      0.39s CPU      0.40s WALL (      49 calls)
 
     Parallel routines

     PAW routines
     PAW_pot      :      1.53s CPU      1.58s WALL (      49 calls)
 
     PWSCF        :  11m35.61s CPU  12m15.42s WALL

 
   This run was terminated on:   1:16:47  22Jun2024            

=------------------------------------------------------------------------------=
   JOB DONE.
=------------------------------------------------------------------------------=
