
     Program PWSCF v.7.2 starts on 18Jun2024 at 22:23:56 

     This program is part of the open-source Quantum ESPRESSO suite
     for quantum simulation of materials; please cite
         "P. Giannozzi et al., J. Phys.:Condens. Matter 21 395502 (2009);
         "P. Giannozzi et al., J. Phys.:Condens. Matter 29 465901 (2017);
         "P. Giannozzi et al., J. Chem. Phys. 152 154105 (2020);
          URL http://www.quantum-espresso.org", 
     in publications or presentations arising from this work. More details at
     http://www.quantum-espresso.org/quote

     Parallel version (MPI & OpenMP), running on      48 processor cores
     Number of MPI processes:                48
     Threads/MPI process:                     1

     MPI processes distributed on     1 nodes
     16425 MiB available memory on the printing compute node when the environment starts
 
     Reading input from espresso.pwi
Warning: card &CELL ignored
Warning: card / ignored
Warning: card &FCP ignored
Warning: card / ignored
Warning: card &RISM ignored
Warning: card / ignored

     Current dimensions of program PWSCF are:
     Max number of different atomic species (ntypx) = 10
     Max number of k-points (npk) =  40000
     Max angular momentum in pseudopotentials (lmaxx) =  4
     file O.pbe-n-kjpaw_psl.0.1.UPF: wavefunction(s)  2P renormalized
     signal trapping enabled: kill the code with -SIGUSR1 to stop cleanly the simulation 
 
     K-points division:     npool     =       2
     R & G space division:  proc/nbgrp/npool/nimage =      24
     Subspace diagonalization in iterative solution of the eigenvalue problem:
     one sub-group per band group will be used
     scalapack distributed-memory algorithm (size of sub-group:  3*  3 procs)

 
     Parallelization info
     --------------------
     sticks:   dense  smooth     PW     G-vecs:    dense   smooth      PW
     Min         350     175     47                61430    21716    3036
     Max         351     177     48                61449    21727    3041
     Sum        8421    4205   1137              1474595   521381   72913
 
     Using Slab Decomposition
 


     bravais-lattice index     =            0
     lattice parameter (alat)  =      14.8599  a.u.
     unit-cell volume          =    8305.1283 (a.u.)^3
     number of atoms/cell      =           51
     number of atomic types    =            4
     number of electrons       =       437.00
     number of Kohn-Sham states=          263
     kinetic-energy cutoff     =      60.0000  Ry
     charge density cutoff     =     480.0000  Ry
     scf convergence threshold =      1.0E-08
     mixing beta               =       0.1500
     number of iterations used =            8  local-TF  mixing
     Exchange-correlation= PBE
                           (   1   4   3   4   0   0   0)

     celldm(1)=  14.859904  celldm(2)=   0.000000  celldm(3)=   0.000000
     celldm(4)=   0.000000  celldm(5)=   0.000000  celldm(6)=   0.000000

     crystal axes: (cart. coord. in units of alat)
               a(1) = (   1.000000   0.000000   0.000000 )  
               a(2) = (   0.000000   1.000000   0.000000 )  
               a(3) = (   0.000000   0.000000   2.531036 )  

     reciprocal axes: (cart. coord. in units 2 pi/alat)
               b(1) = (  1.000000  0.000000  0.000000 )  
               b(2) = (  0.000000  1.000000  0.000000 )  
               b(3) = (  0.000000  0.000000  0.395095 )  


     PseudoPot. # 1 for Sr read from file:
     /bsuhome/zayahcortright/q-e/pseudo/Sr_pbe_v1.uspp.F.UPF
     MD5 check sum: 6b418c05fbe9db5448babca5e47b7a5b
     Pseudo is Ultrasoft + core correction, Zval = 10.0
     Generated by new atomic code, or converted to UPF format
     Using radial grid of  883 points,  6 beta functions with: 
                l(1) =   0
                l(2) =   0
                l(3) =   1
                l(4) =   1
                l(5) =   2
                l(6) =   2
     Q(r) pseudized with  6 coefficients,  rinner =    1.400   1.400   1.400
                                                       1.400   1.400

     PseudoPot. # 2 for O  read from file:
     /bsuhome/zayahcortright/q-e/pseudo/O.pbe-n-kjpaw_psl.0.1.UPF
     MD5 check sum: 0234752ac141de4415c5fc33072bef88
     Pseudo is Projector augmented-wave + core cor, Zval =  6.0
     Generated using "atomic" code by A. Dal Corso  v.5.0.99 svn rev. 10869
     Shape of augmentation charge: BESSEL
     Using radial grid of 1095 points,  4 beta functions with: 
                l(1) =   0
                l(2) =   0
                l(3) =   1
                l(4) =   1
     Q(r) pseudized with 0 coefficients 


     PseudoPot. # 3 for Co read from file:
     /bsuhome/zayahcortright/q-e/pseudo/Co_pbe_v1.2.uspp.F.UPF
     MD5 check sum: 5f91765df6ddd3222702df6e7b74a16d
     Pseudo is Ultrasoft + core correction, Zval = 17.0
     Generated by new atomic code, or converted to UPF format
     Using radial grid of  863 points,  6 beta functions with: 
                l(1) =   0
                l(2) =   0
                l(3) =   1
                l(4) =   1
                l(5) =   2
                l(6) =   2
     Q(r) pseudized with  8 coefficients,  rinner =    1.200   1.200   1.200
                                                       1.200   1.200

     PseudoPot. # 4 for H  read from file:
     /bsuhome/zayahcortright/q-e/pseudo/H.pbe-rrkjus_psl.1.0.0.UPF
     MD5 check sum: f52b6d4d1c606e5624b1dc7b2218f220
     Pseudo is Ultrasoft, Zval =  1.0
     Generated using "atomic" code by A. Dal Corso  v.5.1
     Using radial grid of  929 points,  2 beta functions with: 
                l(1) =   0
                l(2) =   0
     Q(r) pseudized with 0 coefficients 


     atomic species   valence    mass     pseudopotential
        Sr            10.00    87.62000     Sr( 1.00)
        O              6.00    15.99900     O ( 1.00)
        Co            17.00    58.93319     Co( 1.00)
        H              1.00     1.00800     H ( 1.00)

     No symmetry found


                                    s                        frac. trans.

      isym =  1     identity                                     

 cryst.   s( 1) = (     1          0          0      )
                  (     0          1          0      )
                  (     0          0          1      )

 cart.    s( 1) = (  1.0000000  0.0000000  0.0000000 )
                  (  0.0000000  1.0000000  0.0000000 )
                  (  0.0000000  0.0000000  1.0000000 )


   Cartesian axes

     site n.     atom                  positions (alat units)
         1           Sr  tau(   1) = (   0.2508693   0.7491307   1.7574407  )
         2           O   tau(   2) = (   0.4985141   0.5014859   1.7715967  )
         3           Sr  tau(   3) = (   0.7482398   0.7454518   1.7648669  )
         4           Sr  tau(   4) = (   0.7441748   0.2558252   1.7667843  )
         5           Sr  tau(   5) = (   0.2508693   0.7491307   1.2696799  )
         6           Sr  tau(   6) = (   0.2508693   0.7491307   0.7632319  )
         7           Co  tau(   7) = (   0.4998914   0.5001086   1.0164559  )
         8           Co  tau(   8) = (   0.4936915   0.5063085   1.5135603  )
         9           O   tau(   9) = (   0.4988895   0.7610401   1.0164559  )
        10           O   tau(  10) = (   0.2389599   0.5011105   1.0164559  )
        11           O   tau(  11) = (   0.0070918   0.7374880   1.0164559  )
        12           O   tau(  12) = (   0.0088340   0.7405089   1.5135603  )
        13           O   tau(  13) = (   0.5066944   0.7415376   1.5135603  )
        14           O   tau(  14) = (   0.2584624   0.4933056   1.5135603  )
        15           O   tau(  15) = (   0.4985141   0.5014859   0.7773880  )
        16           O   tau(  16) = (   0.4985141   0.5014859   1.2555238  )
        17           Sr  tau(  17) = (   0.7482398   0.7454518   0.7706582  )
        18           Sr  tau(  18) = (   0.7482398   0.7454518   1.2622536  )
        19           Sr  tau(  19) = (   0.7441748   0.2558252   0.7725755  )
        20           Sr  tau(  20) = (   0.7441748   0.2558252   1.2603363  )
        21           O   tau(  21) = (   0.7322655   0.0078049   1.5135603  )
        22           O   tau(  22) = (   0.7558175   0.4996027   1.5135603  )
        23           O   tau(  23) = (   0.5003973   0.2441825   1.5135603  )
        24           O   tau(  24) = (   0.7527966   0.4978604   1.0164559  )
        25           O   tau(  25) = (   0.5021396   0.2472034   1.0164559  )
        26           O   tau(  26) = (   0.7517679   0.0000000   1.0164559  )
        27           O   tau(  27) = (   0.0114961   0.4948124   1.7455321  )
        28           O   tau(  28) = (   0.0048226   0.0077944   1.7715967  )
        29           Sr  tau(  29) = (   0.2545482   0.2517602   1.7648669  )
        30           O   tau(  30) = (   0.5048017   0.0015068   1.7786929  )
        31           Co  tau(  31) = (   0.0056869   0.5006215   1.0164559  )
        32           Co  tau(  32) = (   0.0065315   0.4997770   1.5135603  )
        33           Co  tau(  33) = (   0.0061999   0.0064171   1.0164559  )
        34           Co  tau(  34) = (   0.0000000   0.0126169   1.5135603  )
        35           O   tau(  35) = (   0.0114961   0.4948124   1.2815885  )
        36           O   tau(  36) = (   0.0114961   0.4948124   0.7513233  )
        37           O   tau(  37) = (   0.0051979   0.2673486   1.0164559  )
        38           O   tau(  38) = (   0.0130029   0.2478461   1.5135603  )
        39           O   tau(  39) = (   0.0048226   0.0077944   0.7773880  )
        40           O   tau(  40) = (   0.0048226   0.0077944   1.2555238  )
        41           Sr  tau(  41) = (   0.2545482   0.2517602   0.7706582  )
        42           Sr  tau(  42) = (   0.2545482   0.2517602   1.2622536  )
        43           Co  tau(  43) = (   0.4989925   0.0073160   1.5135603  )
        44           Co  tau(  44) = (   0.4998370   0.0064714   1.0164559  )
        45           O   tau(  45) = (   0.5048017   0.0015068   0.7844841  )
        46           O   tau(  46) = (   0.5048017   0.0015068   1.2484277  )
        47           O   tau(  47) = (   0.2621260   0.0059111   1.5135603  )
        48           O   tau(  48) = (   0.2591051   0.0041689   1.0164559  )
        49           O   tau(  49) = (   0.2843291   0.7108228   2.1602013  )
        50           O   tau(  50) = (   0.2843291   0.7108228   2.3186489  )
        51           H   tau(  51) = (   0.2843291   0.7108228   2.4431567  )

   Crystallographic axes

     site n.     atom                  positions (cryst. coord.)
         1           Sr  tau(   1) = (  0.2508693  0.7491307  0.6943562  )
         2           O   tau(   2) = (  0.4985141  0.5014859  0.6999492  )
         3           Sr  tau(   3) = (  0.7482398  0.7454518  0.6972903  )
         4           Sr  tau(   4) = (  0.7441748  0.2558252  0.6980478  )
         5           Sr  tau(   5) = (  0.2508693  0.7491307  0.5016443  )
         6           Sr  tau(   6) = (  0.2508693  0.7491307  0.3015492  )
         7           Co  tau(   7) = (  0.4998914  0.5001086  0.4015968  )
         8           Co  tau(   8) = (  0.4936915  0.5063085  0.5980003  )
         9           O   tau(   9) = (  0.4988895  0.7610401  0.4015968  )
        10           O   tau(  10) = (  0.2389599  0.5011105  0.4015968  )
        11           O   tau(  11) = (  0.0070918  0.7374880  0.4015968  )
        12           O   tau(  12) = (  0.0088340  0.7405089  0.5980003  )
        13           O   tau(  13) = (  0.5066944  0.7415376  0.5980003  )
        14           O   tau(  14) = (  0.2584624  0.4933056  0.5980003  )
        15           O   tau(  15) = (  0.4985141  0.5014859  0.3071422  )
        16           O   tau(  16) = (  0.4985141  0.5014859  0.4960513  )
        17           Sr  tau(  17) = (  0.7482398  0.7454518  0.3044833  )
        18           Sr  tau(  18) = (  0.7482398  0.7454518  0.4987103  )
        19           Sr  tau(  19) = (  0.7441748  0.2558252  0.3052408  )
        20           Sr  tau(  20) = (  0.7441748  0.2558252  0.4979527  )
        21           O   tau(  21) = (  0.7322655  0.0078049  0.5980003  )
        22           O   tau(  22) = (  0.7558175  0.4996027  0.5980003  )
        23           O   tau(  23) = (  0.5003973  0.2441825  0.5980003  )
        24           O   tau(  24) = (  0.7527966  0.4978604  0.4015968  )
        25           O   tau(  25) = (  0.5021396  0.2472034  0.4015968  )
        26           O   tau(  26) = (  0.7517679  0.0000000  0.4015968  )
        27           O   tau(  27) = (  0.0114961  0.4948124  0.6896512  )
        28           O   tau(  28) = (  0.0048226  0.0077944  0.6999492  )
        29           Sr  tau(  29) = (  0.2545482  0.2517602  0.6972903  )
        30           O   tau(  30) = (  0.5048017  0.0015068  0.7027529  )
        31           Co  tau(  31) = (  0.0056869  0.5006215  0.4015968  )
        32           Co  tau(  32) = (  0.0065315  0.4997770  0.5980003  )
        33           Co  tau(  33) = (  0.0061999  0.0064171  0.4015968  )
        34           Co  tau(  34) = (  0.0000000  0.0126169  0.5980003  )
        35           O   tau(  35) = (  0.0114961  0.4948124  0.5063494  )
        36           O   tau(  36) = (  0.0114961  0.4948124  0.2968442  )
        37           O   tau(  37) = (  0.0051979  0.2673486  0.4015968  )
        38           O   tau(  38) = (  0.0130029  0.2478461  0.5980003  )
        39           O   tau(  39) = (  0.0048226  0.0077944  0.3071422  )
        40           O   tau(  40) = (  0.0048226  0.0077944  0.4960513  )
        41           Sr  tau(  41) = (  0.2545482  0.2517602  0.3044833  )
        42           Sr  tau(  42) = (  0.2545482  0.2517602  0.4987103  )
        43           Co  tau(  43) = (  0.4989925  0.0073160  0.5980003  )
        44           Co  tau(  44) = (  0.4998370  0.0064714  0.4015968  )
        45           O   tau(  45) = (  0.5048017  0.0015068  0.3099459  )
        46           O   tau(  46) = (  0.5048017  0.0015068  0.4932477  )
        47           O   tau(  47) = (  0.2621260  0.0059111  0.5980003  )
        48           O   tau(  48) = (  0.2591051  0.0041689  0.4015968  )
        49           O   tau(  49) = (  0.2843291  0.7108228  0.8534850  )
        50           O   tau(  50) = (  0.2843291  0.7108228  0.9160869  )
        51           H   tau(  51) = (  0.2843291  0.7108228  0.9652793  )

     number of k points=    10  Gaussian smearing, width (Ry)=  0.0700
                       cart. coord. in units 2pi/alat
        k(    1) = (   0.0000000   0.0000000   0.0000000), wk =   0.1250000
        k(    2) = (   0.0000000   0.2500000   0.0000000), wk =   0.2500000
        k(    3) = (   0.0000000  -0.5000000   0.0000000), wk =   0.1250000
        k(    4) = (   0.2500000   0.2500000   0.0000000), wk =   0.2500000
        k(    5) = (   0.2500000  -0.5000000   0.0000000), wk =   0.2500000
        k(    6) = (  -0.5000000  -0.5000000   0.0000000), wk =   0.1250000
        k(    7) = (   0.2500000   0.0000000   0.0000000), wk =   0.2500000
        k(    8) = (  -0.5000000   0.0000000   0.0000000), wk =   0.1250000
        k(    9) = (  -0.2500000   0.2500000   0.0000000), wk =   0.2500000
        k(   10) = (  -0.5000000   0.2500000   0.0000000), wk =   0.2500000

                       cryst. coord.
        k(    1) = (   0.0000000   0.0000000   0.0000000), wk =   0.1250000
        k(    2) = (   0.0000000   0.2500000   0.0000000), wk =   0.2500000
        k(    3) = (   0.0000000  -0.5000000   0.0000000), wk =   0.1250000
        k(    4) = (   0.2500000   0.2500000   0.0000000), wk =   0.2500000
        k(    5) = (   0.2500000  -0.5000000   0.0000000), wk =   0.2500000
        k(    6) = (  -0.5000000  -0.5000000   0.0000000), wk =   0.1250000
        k(    7) = (   0.2500000   0.0000000   0.0000000), wk =   0.2500000
        k(    8) = (  -0.5000000   0.0000000   0.0000000), wk =   0.1250000
        k(    9) = (  -0.2500000   0.2500000   0.0000000), wk =   0.2500000
        k(   10) = (  -0.5000000   0.2500000   0.0000000), wk =   0.2500000

     Dense  grid:  1474595 G-vectors     FFT dimensions: ( 108, 108, 270)

     Smooth grid:   521381 G-vectors     FFT dimensions: (  75,  75, 192)

     Dynamical RAM for                 wfc:      10.90 MB

     Dynamical RAM for     wfc (w. buffer):      65.37 MB

     Dynamical RAM for           str. fact:       3.75 MB

     Dynamical RAM for           local pot:       0.00 MB

     Dynamical RAM for          nlocal pot:      24.94 MB

     Dynamical RAM for                qrad:       7.03 MB

     Dynamical RAM for          rho,v,vnew:       6.02 MB

     Dynamical RAM for               rhoin:       2.01 MB

     Dynamical RAM for            rho*nmix:      15.00 MB

     Dynamical RAM for           G-vectors:       3.68 MB

     Dynamical RAM for          h,s,v(r/c):       1.40 MB

     Dynamical RAM for          <psi|beta>:       2.42 MB

     Dynamical RAM for                 psi:      21.79 MB

     Dynamical RAM for                hpsi:      21.79 MB

     Dynamical RAM for                spsi:      21.79 MB

     Dynamical RAM for      wfcinit/wfcrot:      34.89 MB

     Dynamical RAM for           addusdens:     101.73 MB

     Estimated static dynamical RAM per process >     122.82 MB

     Estimated max dynamical RAM per process >     239.55 MB

     Estimated total dynamical RAM >      10.88 GB

     Check: negative core charge=   -0.000004

     Initial potential from superposition of free atoms

     starting charge     428.5961, renormalised to     437.0000

     negative rho (up, down):  7.813E-01 0.000E+00
     Starting wfcs are  381 randomized atomic wfcs
     Checking if some PAW data can be deallocated... 
       PAW data deallocated on   18 nodes for type:  2

     total cpu time spent up to now is        9.8 secs

     Self-consistent Calculation

     iteration #  1     ecut=    60.00 Ry     beta= 0.15
     Davidson diagonalization with overlap

---- Real-time Memory Report at c_bands before calling an iterative solver
             0 MiB given to the printing process from OS
             0 MiB allocation reported by mallinfo(arena+hblkhd)
          6905 MiB available memory on the node where the printing process lives
------------------
     ethr =  1.00E-02,  avg # of iterations =  2.0

     negative rho (up, down):  7.715E-01 0.000E+00

     total cpu time spent up to now is       25.9 secs

     total energy              =   -4489.28802882 Ry
     estimated scf accuracy    <      49.70384323 Ry

     iteration #  2     ecut=    60.00 Ry     beta= 0.15
     Davidson diagonalization with overlap

---- Real-time Memory Report at c_bands before calling an iterative solver
             0 MiB given to the printing process from OS
             0 MiB allocation reported by mallinfo(arena+hblkhd)
          7187 MiB available memory on the node where the printing process lives
------------------
     ethr =  1.00E-02,  avg # of iterations =  1.0

     negative rho (up, down):  7.613E-01 0.000E+00

     total cpu time spent up to now is       38.9 secs

     total energy              =   -4486.80715200 Ry
     estimated scf accuracy    <      35.27914818 Ry

     iteration #  3     ecut=    60.00 Ry     beta= 0.15
     Davidson diagonalization with overlap

---- Real-time Memory Report at c_bands before calling an iterative solver
             0 MiB given to the printing process from OS
             0 MiB allocation reported by mallinfo(arena+hblkhd)
          6385 MiB available memory on the node where the printing process lives
------------------
     ethr =  8.07E-03,  avg # of iterations =  1.0

     negative rho (up, down):  7.563E-01 0.000E+00

     total cpu time spent up to now is       52.4 secs

     total energy              =   -4486.76267714 Ry
     estimated scf accuracy    <      35.21806639 Ry

     iteration #  4     ecut=    60.00 Ry     beta= 0.15
     Davidson diagonalization with overlap

---- Real-time Memory Report at c_bands before calling an iterative solver
             0 MiB given to the printing process from OS
             0 MiB allocation reported by mallinfo(arena+hblkhd)
          6365 MiB available memory on the node where the printing process lives
------------------
     ethr =  8.06E-03,  avg # of iterations =  1.0

     negative rho (up, down):  7.575E-01 0.000E+00

     total cpu time spent up to now is       65.8 secs

     total energy              =   -4486.61527974 Ry
     estimated scf accuracy    <      34.26098270 Ry

     iteration #  5     ecut=    60.00 Ry     beta= 0.15
     Davidson diagonalization with overlap

---- Real-time Memory Report at c_bands before calling an iterative solver
             0 MiB given to the printing process from OS
             0 MiB allocation reported by mallinfo(arena+hblkhd)
          6348 MiB available memory on the node where the printing process lives
------------------
     ethr =  7.84E-03,  avg # of iterations =  1.0

     negative rho (up, down):  7.336E-01 0.000E+00

     total cpu time spent up to now is       79.0 secs

     total energy              =   -4482.62468237 Ry
     estimated scf accuracy    <      22.95728466 Ry

     iteration #  6     ecut=    60.00 Ry     beta= 0.15
     Davidson diagonalization with overlap

---- Real-time Memory Report at c_bands before calling an iterative solver
             0 MiB given to the printing process from OS
             0 MiB allocation reported by mallinfo(arena+hblkhd)
          6327 MiB available memory on the node where the printing process lives
------------------
     ethr =  5.25E-03,  avg # of iterations =  2.0

     negative rho (up, down):  7.482E-01 0.000E+00

     total cpu time spent up to now is       93.7 secs

     total energy              =   -4483.82873912 Ry
     estimated scf accuracy    <      39.64238371 Ry

     iteration #  7     ecut=    60.00 Ry     beta= 0.15
     Davidson diagonalization with overlap

---- Real-time Memory Report at c_bands before calling an iterative solver
             0 MiB given to the printing process from OS
             0 MiB allocation reported by mallinfo(arena+hblkhd)
          6305 MiB available memory on the node where the printing process lives
------------------
     ethr =  5.25E-03,  avg # of iterations =  1.0

     negative rho (up, down):  7.536E-01 0.000E+00

     total cpu time spent up to now is      106.8 secs

     total energy              =   -4483.46340866 Ry
     estimated scf accuracy    <      39.96349107 Ry

     iteration #  8     ecut=    60.00 Ry     beta= 0.15
     Davidson diagonalization with overlap

---- Real-time Memory Report at c_bands before calling an iterative solver
             0 MiB given to the printing process from OS
             0 MiB allocation reported by mallinfo(arena+hblkhd)
          6289 MiB available memory on the node where the printing process lives
------------------
     ethr =  5.25E-03,  avg # of iterations =  1.0

     negative rho (up, down):  7.509E-01 0.000E+00

     total cpu time spent up to now is      119.9 secs

     total energy              =   -4483.85473448 Ry
     estimated scf accuracy    <       6.18139516 Ry

     iteration #  9     ecut=    60.00 Ry     beta= 0.15
     Davidson diagonalization with overlap

---- Real-time Memory Report at c_bands before calling an iterative solver
             0 MiB given to the printing process from OS
             0 MiB allocation reported by mallinfo(arena+hblkhd)
          6269 MiB available memory on the node where the printing process lives
------------------
     ethr =  1.41E-03,  avg # of iterations =  3.4

     negative rho (up, down):  7.649E-01 0.000E+00

     total cpu time spent up to now is      135.5 secs

     total energy              =   -4483.75236708 Ry
     estimated scf accuracy    <       3.58836704 Ry

     iteration # 10     ecut=    60.00 Ry     beta= 0.15
     Davidson diagonalization with overlap

---- Real-time Memory Report at c_bands before calling an iterative solver
             0 MiB given to the printing process from OS
             0 MiB allocation reported by mallinfo(arena+hblkhd)
          6240 MiB available memory on the node where the printing process lives
------------------
     ethr =  8.21E-04,  avg # of iterations = 11.4

     negative rho (up, down):  7.858E-01 0.000E+00

     total cpu time spent up to now is      155.2 secs

     total energy              =   -4483.53060450 Ry
     estimated scf accuracy    <       4.62010637 Ry

     iteration # 11     ecut=    60.00 Ry     beta= 0.15
     Davidson diagonalization with overlap

---- Real-time Memory Report at c_bands before calling an iterative solver
             0 MiB given to the printing process from OS
             0 MiB allocation reported by mallinfo(arena+hblkhd)
          5901 MiB available memory on the node where the printing process lives
------------------
     ethr =  8.21E-04,  avg # of iterations =  6.1

     negative rho (up, down):  7.899E-01 0.000E+00

     total cpu time spent up to now is      172.2 secs

     total energy              =   -4483.23147673 Ry
     estimated scf accuracy    <       4.33293495 Ry

     iteration # 12     ecut=    60.00 Ry     beta= 0.15
     Davidson diagonalization with overlap

---- Real-time Memory Report at c_bands before calling an iterative solver
             0 MiB given to the printing process from OS
             0 MiB allocation reported by mallinfo(arena+hblkhd)
          5861 MiB available memory on the node where the printing process lives
------------------
     ethr =  8.21E-04,  avg # of iterations =  7.1

     negative rho (up, down):  8.007E-01 0.000E+00

     total cpu time spent up to now is      190.0 secs

     total energy              =   -4483.20541971 Ry
     estimated scf accuracy    <       2.19241952 Ry

     iteration # 13     ecut=    60.00 Ry     beta= 0.15
     Davidson diagonalization with overlap

---- Real-time Memory Report at c_bands before calling an iterative solver
             0 MiB given to the printing process from OS
             0 MiB allocation reported by mallinfo(arena+hblkhd)
          5810 MiB available memory on the node where the printing process lives
------------------
     ethr =  5.02E-04,  avg # of iterations =  3.3

     negative rho (up, down):  8.009E-01 0.000E+00

     total cpu time spent up to now is      205.5 secs

     total energy              =   -4483.27212831 Ry
     estimated scf accuracy    <       1.25692383 Ry

     iteration # 14     ecut=    60.00 Ry     beta= 0.15
     Davidson diagonalization with overlap

---- Real-time Memory Report at c_bands before calling an iterative solver
             0 MiB given to the printing process from OS
             0 MiB allocation reported by mallinfo(arena+hblkhd)
          5812 MiB available memory on the node where the printing process lives
------------------
     ethr =  2.88E-04,  avg # of iterations =  6.2

     negative rho (up, down):  8.118E-01 0.000E+00

     total cpu time spent up to now is      222.6 secs

     total energy              =   -4483.13921084 Ry
     estimated scf accuracy    <       0.83444758 Ry

     iteration # 15     ecut=    60.00 Ry     beta= 0.15
     Davidson diagonalization with overlap

---- Real-time Memory Report at c_bands before calling an iterative solver
             0 MiB given to the printing process from OS
             0 MiB allocation reported by mallinfo(arena+hblkhd)
          5797 MiB available memory on the node where the printing process lives
------------------
     ethr =  1.91E-04,  avg # of iterations =  4.0

     negative rho (up, down):  8.157E-01 0.000E+00

     total cpu time spent up to now is      238.6 secs

     total energy              =   -4483.14860327 Ry
     estimated scf accuracy    <       2.06793688 Ry

     iteration # 16     ecut=    60.00 Ry     beta= 0.15
     Davidson diagonalization with overlap

---- Real-time Memory Report at c_bands before calling an iterative solver
             0 MiB given to the printing process from OS
             0 MiB allocation reported by mallinfo(arena+hblkhd)
          5708 MiB available memory on the node where the printing process lives
------------------
     ethr =  1.91E-04,  avg # of iterations =  4.2

     negative rho (up, down):  8.135E-01 0.000E+00

     total cpu time spent up to now is      255.1 secs

     total energy              =   -4483.12941655 Ry
     estimated scf accuracy    <       0.99560797 Ry

     iteration # 17     ecut=    60.00 Ry     beta= 0.15
     Davidson diagonalization with overlap

---- Real-time Memory Report at c_bands before calling an iterative solver
             0 MiB given to the printing process from OS
             0 MiB allocation reported by mallinfo(arena+hblkhd)
          5719 MiB available memory on the node where the printing process lives
------------------
     ethr =  1.91E-04,  avg # of iterations =  3.8

     negative rho (up, down):  8.177E-01 0.000E+00

     total cpu time spent up to now is      271.2 secs

     total energy              =   -4483.07309805 Ry
     estimated scf accuracy    <       0.43995366 Ry

     iteration # 18     ecut=    60.00 Ry     beta= 0.15
     Davidson diagonalization with overlap

---- Real-time Memory Report at c_bands before calling an iterative solver
             0 MiB given to the printing process from OS
             0 MiB allocation reported by mallinfo(arena+hblkhd)
          5720 MiB available memory on the node where the printing process lives
------------------
     ethr =  1.01E-04,  avg # of iterations = 11.0

     negative rho (up, down):  8.189E-01 0.000E+00

     total cpu time spent up to now is      290.8 secs

     total energy              =   -4483.04488178 Ry
     estimated scf accuracy    <       0.72103938 Ry

     iteration # 19     ecut=    60.00 Ry     beta= 0.15
     Davidson diagonalization with overlap

---- Real-time Memory Report at c_bands before calling an iterative solver
             0 MiB given to the printing process from OS
             0 MiB allocation reported by mallinfo(arena+hblkhd)
          5706 MiB available memory on the node where the printing process lives
------------------
     c_bands:  2 eigenvalues not converged
     ethr =  1.01E-04,  avg # of iterations =  9.8

     negative rho (up, down):  8.241E-01 0.000E+00

     total cpu time spent up to now is      309.7 secs

     total energy              =   -4483.03514544 Ry
     estimated scf accuracy    <       0.38126736 Ry

     iteration # 20     ecut=    60.00 Ry     beta= 0.15
     Davidson diagonalization with overlap

---- Real-time Memory Report at c_bands before calling an iterative solver
             0 MiB given to the printing process from OS
             0 MiB allocation reported by mallinfo(arena+hblkhd)
          5724 MiB available memory on the node where the printing process lives
------------------
     ethr =  8.72E-05,  avg # of iterations =  3.0

     negative rho (up, down):  8.246E-01 0.000E+00

     total cpu time spent up to now is      325.4 secs

     total energy              =   -4483.00478128 Ry
     estimated scf accuracy    <       0.50471177 Ry

     iteration # 21     ecut=    60.00 Ry     beta= 0.15
     Davidson diagonalization with overlap

---- Real-time Memory Report at c_bands before calling an iterative solver
             0 MiB given to the printing process from OS
             0 MiB allocation reported by mallinfo(arena+hblkhd)
          5750 MiB available memory on the node where the printing process lives
------------------
     c_bands:  1 eigenvalues not converged
     ethr =  8.72E-05,  avg # of iterations =  9.7

     negative rho (up, down):  8.390E-01 0.000E+00

     total cpu time spent up to now is      344.8 secs

     total energy              =   -4482.98072594 Ry
     estimated scf accuracy    <       0.28251248 Ry

     iteration # 22     ecut=    60.00 Ry     beta= 0.15
     Davidson diagonalization with overlap

---- Real-time Memory Report at c_bands before calling an iterative solver
             0 MiB given to the printing process from OS
             0 MiB allocation reported by mallinfo(arena+hblkhd)
          5725 MiB available memory on the node where the printing process lives
------------------
     ethr =  6.46E-05,  avg # of iterations =  8.7

     negative rho (up, down):  8.460E-01 0.000E+00

     total cpu time spent up to now is      364.0 secs

     total energy              =   -4482.98374385 Ry
     estimated scf accuracy    <       0.05285880 Ry

     iteration # 23     ecut=    60.00 Ry     beta= 0.15
     Davidson diagonalization with overlap

---- Real-time Memory Report at c_bands before calling an iterative solver
             0 MiB given to the printing process from OS
             0 MiB allocation reported by mallinfo(arena+hblkhd)
          5669 MiB available memory on the node where the printing process lives
------------------
     ethr =  1.21E-05,  avg # of iterations = 11.3

     negative rho (up, down):  8.341E-01 0.000E+00

     total cpu time spent up to now is      384.0 secs

     total energy              =   -4482.97859561 Ry
     estimated scf accuracy    <       0.03332555 Ry

     iteration # 24     ecut=    60.00 Ry     beta= 0.15
     Davidson diagonalization with overlap

---- Real-time Memory Report at c_bands before calling an iterative solver
             0 MiB given to the printing process from OS
             0 MiB allocation reported by mallinfo(arena+hblkhd)
          5527 MiB available memory on the node where the printing process lives
------------------
     ethr =  7.63E-06,  avg # of iterations = 10.8

     negative rho (up, down):  8.243E-01 0.000E+00

     total cpu time spent up to now is      403.3 secs

     total energy              =   -4482.97859624 Ry
     estimated scf accuracy    <       0.01604463 Ry

     iteration # 25     ecut=    60.00 Ry     beta= 0.15
     Davidson diagonalization with overlap

---- Real-time Memory Report at c_bands before calling an iterative solver
             0 MiB given to the printing process from OS
             0 MiB allocation reported by mallinfo(arena+hblkhd)
          5479 MiB available memory on the node where the printing process lives
------------------
     ethr =  3.67E-06,  avg # of iterations =  4.0

     negative rho (up, down):  8.189E-01 0.000E+00

     total cpu time spent up to now is      419.3 secs

     total energy              =   -4482.97741514 Ry
     estimated scf accuracy    <       0.01047098 Ry

     iteration # 26     ecut=    60.00 Ry     beta= 0.15
     Davidson diagonalization with overlap

---- Real-time Memory Report at c_bands before calling an iterative solver
             0 MiB given to the printing process from OS
             0 MiB allocation reported by mallinfo(arena+hblkhd)
          5494 MiB available memory on the node where the printing process lives
------------------
     c_bands:  1 eigenvalues not converged
     ethr =  2.40E-06,  avg # of iterations =  8.1

     negative rho (up, down):  7.974E-01 0.000E+00

     total cpu time spent up to now is      437.5 secs

     total energy              =   -4482.97647508 Ry
     estimated scf accuracy    <       0.00610340 Ry

     iteration # 27     ecut=    60.00 Ry     beta= 0.15
     Davidson diagonalization with overlap

---- Real-time Memory Report at c_bands before calling an iterative solver
             0 MiB given to the printing process from OS
             0 MiB allocation reported by mallinfo(arena+hblkhd)
          5463 MiB available memory on the node where the printing process lives
------------------
     ethr =  1.40E-06,  avg # of iterations =  9.0

     negative rho (up, down):  7.963E-01 0.000E+00

     total cpu time spent up to now is      456.5 secs

     total energy              =   -4482.97647494 Ry
     estimated scf accuracy    <       0.00402733 Ry

     iteration # 28     ecut=    60.00 Ry     beta= 0.15
     Davidson diagonalization with overlap

---- Real-time Memory Report at c_bands before calling an iterative solver
             0 MiB given to the printing process from OS
             0 MiB allocation reported by mallinfo(arena+hblkhd)
          5452 MiB available memory on the node where the printing process lives
------------------
     ethr =  9.22E-07,  avg # of iterations =  3.7

     negative rho (up, down):  7.933E-01 0.000E+00

     total cpu time spent up to now is      472.2 secs

     total energy              =   -4482.97631874 Ry
     estimated scf accuracy    <       0.00240685 Ry

     iteration # 29     ecut=    60.00 Ry     beta= 0.15
     Davidson diagonalization with overlap

---- Real-time Memory Report at c_bands before calling an iterative solver
             0 MiB given to the printing process from OS
             0 MiB allocation reported by mallinfo(arena+hblkhd)
          5475 MiB available memory on the node where the printing process lives
------------------
     ethr =  5.51E-07,  avg # of iterations =  7.6

     negative rho (up, down):  7.922E-01 0.000E+00

     total cpu time spent up to now is      489.8 secs

     total energy              =   -4482.97617216 Ry
     estimated scf accuracy    <       0.00158864 Ry

     iteration # 30     ecut=    60.00 Ry     beta= 0.15
     Davidson diagonalization with overlap

---- Real-time Memory Report at c_bands before calling an iterative solver
             0 MiB given to the printing process from OS
             0 MiB allocation reported by mallinfo(arena+hblkhd)
          5516 MiB available memory on the node where the printing process lives
------------------
     ethr =  3.64E-07,  avg # of iterations =  6.6

     negative rho (up, down):  7.921E-01 0.000E+00

     total cpu time spent up to now is      506.9 secs

     total energy              =   -4482.97608676 Ry
     estimated scf accuracy    <       0.00086109 Ry

     iteration # 31     ecut=    60.00 Ry     beta= 0.15
     Davidson diagonalization with overlap

---- Real-time Memory Report at c_bands before calling an iterative solver
             0 MiB given to the printing process from OS
             0 MiB allocation reported by mallinfo(arena+hblkhd)
          5521 MiB available memory on the node where the printing process lives
------------------
     ethr =  1.97E-07,  avg # of iterations =  3.6

     negative rho (up, down):  7.925E-01 0.000E+00

     total cpu time spent up to now is      522.6 secs

     total energy              =   -4482.97607226 Ry
     estimated scf accuracy    <       0.00036847 Ry

     iteration # 32     ecut=    60.00 Ry     beta= 0.15
     Davidson diagonalization with overlap

---- Real-time Memory Report at c_bands before calling an iterative solver
             0 MiB given to the printing process from OS
             0 MiB allocation reported by mallinfo(arena+hblkhd)
          5538 MiB available memory on the node where the printing process lives
------------------
     ethr =  8.43E-08,  avg # of iterations =  3.7

     negative rho (up, down):  7.926E-01 0.000E+00

     total cpu time spent up to now is      538.3 secs

     total energy              =   -4482.97608592 Ry
     estimated scf accuracy    <       0.00014278 Ry

     iteration # 33     ecut=    60.00 Ry     beta= 0.15
     Davidson diagonalization with overlap

---- Real-time Memory Report at c_bands before calling an iterative solver
             0 MiB given to the printing process from OS
             0 MiB allocation reported by mallinfo(arena+hblkhd)
          5543 MiB available memory on the node where the printing process lives
------------------
     ethr =  3.27E-08,  avg # of iterations =  3.6

     negative rho (up, down):  7.925E-01 0.000E+00

     total cpu time spent up to now is      553.8 secs

     total energy              =   -4482.97609555 Ry
     estimated scf accuracy    <       0.00007428 Ry

     iteration # 34     ecut=    60.00 Ry     beta= 0.15
     Davidson diagonalization with overlap

---- Real-time Memory Report at c_bands before calling an iterative solver
             0 MiB given to the printing process from OS
             0 MiB allocation reported by mallinfo(arena+hblkhd)
          5546 MiB available memory on the node where the printing process lives
------------------
     ethr =  1.70E-08,  avg # of iterations =  2.0

     negative rho (up, down):  7.923E-01 0.000E+00

     total cpu time spent up to now is      568.6 secs

     total energy              =   -4482.97611306 Ry
     estimated scf accuracy    <       0.00004515 Ry

     iteration # 35     ecut=    60.00 Ry     beta= 0.15
     Davidson diagonalization with overlap

---- Real-time Memory Report at c_bands before calling an iterative solver
             0 MiB given to the printing process from OS
             0 MiB allocation reported by mallinfo(arena+hblkhd)
          5552 MiB available memory on the node where the printing process lives
------------------
     ethr =  1.03E-08,  avg # of iterations =  3.6

     negative rho (up, down):  7.922E-01 0.000E+00

     total cpu time spent up to now is      584.2 secs

     total energy              =   -4482.97611949 Ry
     estimated scf accuracy    <       0.00002605 Ry

     iteration # 36     ecut=    60.00 Ry     beta= 0.15
     Davidson diagonalization with overlap

---- Real-time Memory Report at c_bands before calling an iterative solver
             0 MiB given to the printing process from OS
             0 MiB allocation reported by mallinfo(arena+hblkhd)
          5551 MiB available memory on the node where the printing process lives
------------------
     ethr =  5.96E-09,  avg # of iterations =  2.5

     negative rho (up, down):  7.923E-01 0.000E+00

     total cpu time spent up to now is      599.1 secs

     total energy              =   -4482.97612345 Ry
     estimated scf accuracy    <       0.00002085 Ry

     iteration # 37     ecut=    60.00 Ry     beta= 0.15
     Davidson diagonalization with overlap

---- Real-time Memory Report at c_bands before calling an iterative solver
             0 MiB given to the printing process from OS
             0 MiB allocation reported by mallinfo(arena+hblkhd)
          5553 MiB available memory on the node where the printing process lives
------------------
     ethr =  4.77E-09,  avg # of iterations =  3.9

     negative rho (up, down):  7.924E-01 0.000E+00

     total cpu time spent up to now is      615.0 secs

     total energy              =   -4482.97612467 Ry
     estimated scf accuracy    <       0.00001549 Ry

     iteration # 38     ecut=    60.00 Ry     beta= 0.15
     Davidson diagonalization with overlap

---- Real-time Memory Report at c_bands before calling an iterative solver
             0 MiB given to the printing process from OS
             0 MiB allocation reported by mallinfo(arena+hblkhd)
          5559 MiB available memory on the node where the printing process lives
------------------
     ethr =  3.54E-09,  avg # of iterations =  5.6

     negative rho (up, down):  7.925E-01 0.000E+00

     total cpu time spent up to now is      631.5 secs

     total energy              =   -4482.97612440 Ry
     estimated scf accuracy    <       0.00001010 Ry

     iteration # 39     ecut=    60.00 Ry     beta= 0.15
     Davidson diagonalization with overlap

---- Real-time Memory Report at c_bands before calling an iterative solver
             0 MiB given to the printing process from OS
             0 MiB allocation reported by mallinfo(arena+hblkhd)
          5556 MiB available memory on the node where the printing process lives
------------------
     ethr =  2.31E-09,  avg # of iterations =  3.8

     negative rho (up, down):  7.924E-01 0.000E+00

     total cpu time spent up to now is      647.2 secs

     total energy              =   -4482.97612436 Ry
     estimated scf accuracy    <       0.00001083 Ry

     iteration # 40     ecut=    60.00 Ry     beta= 0.15
     Davidson diagonalization with overlap

---- Real-time Memory Report at c_bands before calling an iterative solver
             0 MiB given to the printing process from OS
             0 MiB allocation reported by mallinfo(arena+hblkhd)
          5549 MiB available memory on the node where the printing process lives
------------------
     ethr =  2.31E-09,  avg # of iterations =  3.8

     negative rho (up, down):  7.924E-01 0.000E+00

     total cpu time spent up to now is      662.8 secs

     total energy              =   -4482.97612492 Ry
     estimated scf accuracy    <       0.00000808 Ry

     iteration # 41     ecut=    60.00 Ry     beta= 0.15
     Davidson diagonalization with overlap

---- Real-time Memory Report at c_bands before calling an iterative solver
             0 MiB given to the printing process from OS
             0 MiB allocation reported by mallinfo(arena+hblkhd)
          5548 MiB available memory on the node where the printing process lives
------------------
     ethr =  1.85E-09,  avg # of iterations =  3.0

     negative rho (up, down):  7.923E-01 0.000E+00

     total cpu time spent up to now is      678.5 secs

     total energy              =   -4482.97612644 Ry
     estimated scf accuracy    <       0.00000565 Ry

     iteration # 42     ecut=    60.00 Ry     beta= 0.15
     Davidson diagonalization with overlap

---- Real-time Memory Report at c_bands before calling an iterative solver
             0 MiB given to the printing process from OS
             0 MiB allocation reported by mallinfo(arena+hblkhd)
          5551 MiB available memory on the node where the printing process lives
------------------
     ethr =  1.29E-09,  avg # of iterations =  4.2

     negative rho (up, down):  7.922E-01 0.000E+00

     total cpu time spent up to now is      694.5 secs

     total energy              =   -4482.97612678 Ry
     estimated scf accuracy    <       0.00000523 Ry

     iteration # 43     ecut=    60.00 Ry     beta= 0.15
     Davidson diagonalization with overlap

---- Real-time Memory Report at c_bands before calling an iterative solver
             0 MiB given to the printing process from OS
             0 MiB allocation reported by mallinfo(arena+hblkhd)
          5553 MiB available memory on the node where the printing process lives
------------------
     ethr =  1.20E-09,  avg # of iterations =  3.5

     negative rho (up, down):  7.922E-01 0.000E+00

     total cpu time spent up to now is      710.0 secs

     total energy              =   -4482.97612683 Ry
     estimated scf accuracy    <       0.00000416 Ry

     iteration # 44     ecut=    60.00 Ry     beta= 0.15
     Davidson diagonalization with overlap

---- Real-time Memory Report at c_bands before calling an iterative solver
             0 MiB given to the printing process from OS
             0 MiB allocation reported by mallinfo(arena+hblkhd)
          5549 MiB available memory on the node where the printing process lives
------------------
     ethr =  9.51E-10,  avg # of iterations =  2.3

     negative rho (up, down):  7.923E-01 0.000E+00

     total cpu time spent up to now is      725.1 secs

     total energy              =   -4482.97612682 Ry
     estimated scf accuracy    <       0.00000361 Ry

     iteration # 45     ecut=    60.00 Ry     beta= 0.15
     Davidson diagonalization with overlap

---- Real-time Memory Report at c_bands before calling an iterative solver
             0 MiB given to the printing process from OS
             0 MiB allocation reported by mallinfo(arena+hblkhd)
          5552 MiB available memory on the node where the printing process lives
------------------
     ethr =  8.27E-10,  avg # of iterations =  3.1

     negative rho (up, down):  7.922E-01 0.000E+00

     total cpu time spent up to now is      740.4 secs

     total energy              =   -4482.97612656 Ry
     estimated scf accuracy    <       0.00000281 Ry

     iteration # 46     ecut=    60.00 Ry     beta= 0.15
     Davidson diagonalization with overlap

---- Real-time Memory Report at c_bands before calling an iterative solver
             0 MiB given to the printing process from OS
             0 MiB allocation reported by mallinfo(arena+hblkhd)
          5555 MiB available memory on the node where the printing process lives
------------------
     ethr =  6.43E-10,  avg # of iterations =  3.8

     negative rho (up, down):  7.922E-01 0.000E+00

     total cpu time spent up to now is      756.1 secs

     total energy              =   -4482.97612616 Ry
     estimated scf accuracy    <       0.00000155 Ry

     iteration # 47     ecut=    60.00 Ry     beta= 0.15
     Davidson diagonalization with overlap

---- Real-time Memory Report at c_bands before calling an iterative solver
             0 MiB given to the printing process from OS
             0 MiB allocation reported by mallinfo(arena+hblkhd)
          5585 MiB available memory on the node where the printing process lives
------------------
     ethr =  3.54E-10,  avg # of iterations =  4.3

     negative rho (up, down):  7.923E-01 0.000E+00

     total cpu time spent up to now is      772.3 secs

     total energy              =   -4482.97612651 Ry
     estimated scf accuracy    <       0.00000057 Ry

     iteration # 48     ecut=    60.00 Ry     beta= 0.15
     Davidson diagonalization with overlap

---- Real-time Memory Report at c_bands before calling an iterative solver
             0 MiB given to the printing process from OS
             0 MiB allocation reported by mallinfo(arena+hblkhd)
          5568 MiB available memory on the node where the printing process lives
------------------
     ethr =  1.29E-10,  avg # of iterations =  4.2

     negative rho (up, down):  7.923E-01 0.000E+00

     total cpu time spent up to now is      788.3 secs

     total energy              =   -4482.97612662 Ry
     estimated scf accuracy    <       0.00000037 Ry

     iteration # 49     ecut=    60.00 Ry     beta= 0.15
     Davidson diagonalization with overlap

---- Real-time Memory Report at c_bands before calling an iterative solver
             0 MiB given to the printing process from OS
             0 MiB allocation reported by mallinfo(arena+hblkhd)
          5571 MiB available memory on the node where the printing process lives
------------------
     ethr =  8.48E-11,  avg # of iterations =  2.8

     negative rho (up, down):  7.923E-01 0.000E+00

     total cpu time spent up to now is      803.7 secs

     total energy              =   -4482.97612683 Ry
     estimated scf accuracy    <       0.00000017 Ry

     iteration # 50     ecut=    60.00 Ry     beta= 0.15
     Davidson diagonalization with overlap

---- Real-time Memory Report at c_bands before calling an iterative solver
             0 MiB given to the printing process from OS
             0 MiB allocation reported by mallinfo(arena+hblkhd)
          5578 MiB available memory on the node where the printing process lives
------------------
     ethr =  3.88E-11,  avg # of iterations =  5.5

     negative rho (up, down):  7.923E-01 0.000E+00

     total cpu time spent up to now is      821.2 secs

     total energy              =   -4482.97612685 Ry
     estimated scf accuracy    <       0.00000007 Ry

     iteration # 51     ecut=    60.00 Ry     beta= 0.15
     Davidson diagonalization with overlap

---- Real-time Memory Report at c_bands before calling an iterative solver
             0 MiB given to the printing process from OS
             0 MiB allocation reported by mallinfo(arena+hblkhd)
          5554 MiB available memory on the node where the printing process lives
------------------
     ethr =  1.67E-11,  avg # of iterations =  4.4

     negative rho (up, down):  7.923E-01 0.000E+00

     total cpu time spent up to now is      837.3 secs

     total energy              =   -4482.97612685 Ry
     estimated scf accuracy    <       0.00000003 Ry

     iteration # 52     ecut=    60.00 Ry     beta= 0.15
     Davidson diagonalization with overlap

---- Real-time Memory Report at c_bands before calling an iterative solver
             0 MiB given to the printing process from OS
             0 MiB allocation reported by mallinfo(arena+hblkhd)
          5557 MiB available memory on the node where the printing process lives
------------------
     ethr =  7.74E-12,  avg # of iterations =  3.5

     negative rho (up, down):  7.923E-01 0.000E+00

     total cpu time spent up to now is      853.0 secs

     total energy              =   -4482.97612686 Ry
     estimated scf accuracy    <       0.00000002 Ry

     iteration # 53     ecut=    60.00 Ry     beta= 0.15
     Davidson diagonalization with overlap

---- Real-time Memory Report at c_bands before calling an iterative solver
             0 MiB given to the printing process from OS
             0 MiB allocation reported by mallinfo(arena+hblkhd)
          5589 MiB available memory on the node where the printing process lives
------------------
     ethr =  4.83E-12,  avg # of iterations =  2.3

     negative rho (up, down):  7.923E-01 0.000E+00

     total cpu time spent up to now is      868.1 secs

     total energy              =   -4482.97612686 Ry
     estimated scf accuracy    <       0.00000002 Ry

     iteration # 54     ecut=    60.00 Ry     beta= 0.15
     Davidson diagonalization with overlap

---- Real-time Memory Report at c_bands before calling an iterative solver
             0 MiB given to the printing process from OS
             0 MiB allocation reported by mallinfo(arena+hblkhd)
          5574 MiB available memory on the node where the printing process lives
------------------
     ethr =  3.89E-12,  avg # of iterations =  3.4

     negative rho (up, down):  7.923E-01 0.000E+00

     total cpu time spent up to now is      883.7 secs

     total energy              =   -4482.97612688 Ry
     estimated scf accuracy    <       0.00000001 Ry

     iteration # 55     ecut=    60.00 Ry     beta= 0.15
     Davidson diagonalization with overlap

---- Real-time Memory Report at c_bands before calling an iterative solver
             0 MiB given to the printing process from OS
             0 MiB allocation reported by mallinfo(arena+hblkhd)
          5566 MiB available memory on the node where the printing process lives
------------------
     ethr =  2.71E-12,  avg # of iterations =  4.4

     negative rho (up, down):  7.923E-01 0.000E+00

     total cpu time spent up to now is      899.5 secs

     End of self-consistent calculation

          k = 0.0000 0.0000 0.0000 ( 65197 PWs)   bands (ev):

   -92.3470 -92.2927 -92.2009 -92.1519 -92.0950 -92.0533 -92.0359 -91.9120
   -55.7001 -55.6791 -55.5587 -55.5481 -55.5401 -55.5348 -55.4976 -55.4705
   -55.4540 -55.4524 -55.4439 -55.4027 -55.3830 -55.3469 -55.3268 -55.2946
   -55.2874 -55.2421 -55.2393 -55.2391 -55.2306 -55.1863 -55.1667 -55.0790
   -30.9334 -30.9141 -30.8102 -30.7738 -30.7558 -30.6868 -30.4962 -30.4095
   -29.4977 -29.4543 -29.4298 -29.3201 -22.2580 -14.7317 -14.6929 -14.6096
   -14.4791 -14.2945 -14.1704 -13.8712 -13.8574 -13.8217 -13.7919 -13.7803
   -13.7406 -13.7311 -13.7136 -13.6985 -13.6694 -13.6474 -13.5809 -13.4334
   -13.2619 -13.2220 -13.1894 -13.1633 -13.1437 -13.0982 -13.0590 -12.9803
   -12.9079 -12.8251 -12.8149 -12.7661 -12.7537 -12.7311 -12.7161 -12.7054
   -12.6689 -12.6511 -12.6318 -12.6203 -12.6050 -12.5813 -12.5741 -12.5564
   -12.4874 -12.4634 -12.4516 -12.3427 -12.3049 -12.2855 -11.9987 -11.8539
   -11.7177 -11.6447 -11.5117 -11.4369 -11.4262 -11.4037 -11.3864 -11.3221
   -11.3051 -11.2700 -11.2416 -11.1301 -11.0496 -11.0460  -5.9742  -3.1571
    -3.1554  -2.5921  -2.3587  -2.1292  -1.9831  -1.9190  -1.7762  -1.4699
    -1.4557  -1.4348  -1.3524  -1.3335  -1.2657  -1.2501  -1.2076  -1.1636
    -0.9822  -0.7599  -0.7297  -0.5801  -0.5664  -0.5212  -0.5047  -0.4601
    -0.4440  -0.3834  -0.3572  -0.2878  -0.2767  -0.1962  -0.0698  -0.0553
    -0.0263   0.0563   0.0648   0.0734   0.1403   0.2209   0.2533   0.3126
     0.3368   0.3939   0.4702   0.5294   0.5463   0.5587   0.8125   0.8302
     0.9980   1.0697   1.1333   1.1717   1.2659   1.2814   1.2945   1.3685
     1.3958   1.4316   1.4894   1.6241   1.6775   1.6986   1.7146   1.7265
     1.7960   1.8736   1.9677   1.9817   2.0420   2.0615   2.0990   2.1194
     2.1262   2.1824   2.2355   2.2433   2.2729   2.3089   2.3728   2.5012
     2.5847   2.6315   2.6396   2.7941   2.8075   2.8567   2.8654   2.9636
     3.0052   3.0245   3.0444   3.0481   3.0511   3.0688   3.1447   3.2552
     3.2891   3.3026   3.3096   3.3762   3.3800   3.4043   3.4132   3.4208
     3.4307   3.4392   3.4523   3.4581   3.4708   3.4803   3.4882   3.5085
     3.5293   3.5346   3.5465   3.5668   3.6876   3.7361   4.4137   4.7443
     4.7840   5.1323   5.3826   5.4631   5.7081   6.2712   6.3142   6.3415
     6.6114   6.6381   6.6666   6.7148   6.9904   7.1425   7.1864   7.3126
     7.6415   7.7240   7.8111   7.9096   7.9257   7.9303   7.9686   8.0383
     8.3227   8.3563   8.3693   8.4121   8.5347   8.5981   8.6943

     occupation numbers 
     1.0000   1.0000   1.0000   1.0000   1.0000   1.0000   1.0000   1.0000
     1.0000   1.0000   1.0000   1.0000   1.0000   1.0000   1.0000   1.0000
     1.0000   1.0000   1.0000   1.0000   1.0000   1.0000   1.0000   1.0000
     1.0000   1.0000   1.0000   1.0000   1.0000   1.0000   1.0000   1.0000
     1.0000   1.0000   1.0000   1.0000   1.0000   1.0000   1.0000   1.0000
     1.0000   1.0000   1.0000   1.0000   1.0000   1.0000   1.0000   1.0000
     1.0000   1.0000   1.0000   1.0000   1.0000   1.0000   1.0000   1.0000
     1.0000   1.0000   1.0000   1.0000   1.0000   1.0000   1.0000   1.0000
     1.0000   1.0000   1.0000   1.0000   1.0000   1.0000   1.0000   1.0000
     1.0000   1.0000   1.0000   1.0000   1.0000   1.0000   1.0000   1.0000
     1.0000   1.0000   1.0000   1.0000   1.0000   1.0000   1.0000   1.0000
     1.0000   1.0000   1.0000   1.0000   1.0000   1.0000   1.0000   1.0000
     1.0000   1.0000   1.0000   1.0000   1.0000   1.0000   1.0000   1.0000
     1.0000   1.0000   1.0000   1.0000   1.0000   1.0000   1.0000   1.0000
     1.0000   1.0000   1.0000   1.0000   1.0000   1.0000   1.0000   1.0000
     1.0000   1.0000   1.0000   1.0000   1.0000   1.0000   1.0000   1.0000
     1.0000   1.0000   1.0000   1.0000   1.0000   1.0000   1.0000   1.0000
     1.0000   1.0000   1.0000   1.0000   1.0000   1.0000   1.0000   1.0000
     1.0000   1.0000   1.0000   1.0000   1.0000   1.0000   1.0000   1.0000
     1.0000   1.0000   1.0000   1.0000   1.0000   1.0000   1.0000   1.0000
     1.0000   0.9999   0.9999   0.9999   0.9998   0.9998   0.9998   0.9997
     0.9997   0.9996   0.9994   0.9989   0.9985   0.9984   0.9982   0.9981
     0.9974   0.9963   0.9945   0.9941   0.9925   0.9919   0.9905   0.9897
     0.9895   0.9869   0.9840   0.9835   0.9816   0.9791   0.9738   0.9599
     0.9480   0.9401   0.9387   0.9057   0.9023   0.8891   0.8866   0.8561
     0.8416   0.8346   0.8271   0.8257   0.8246   0.8177   0.7864   0.7356
     0.7189   0.7121   0.7086   0.6738   0.6717   0.6586   0.6537   0.6495
     0.6441   0.6393   0.6321   0.6288   0.6217   0.6163   0.6118   0.6002
     0.5882   0.5852   0.5782   0.5664   0.4951   0.4665   0.1378   0.0569
     0.0505   0.0155   0.0057   0.0040   0.0013   0.0001   0.0000   0.0000
     0.0000   0.0000   0.0000   0.0000   0.0000   0.0000   0.0000   0.0000
     0.0000   0.0000   0.0000   0.0000   0.0000   0.0000   0.0000   0.0000
     0.0000   0.0000   0.0000   0.0000   0.0000   0.0000   0.0000

          k = 0.0000 0.2500 0.0000 ( 65257 PWs)   bands (ev):

   -92.3470 -92.2927 -92.2009 -92.1519 -92.0950 -92.0533 -92.0359 -91.9120
   -55.7001 -55.6791 -55.5587 -55.5481 -55.5401 -55.5348 -55.4976 -55.4705
   -55.4540 -55.4524 -55.4439 -55.4027 -55.3830 -55.3469 -55.3268 -55.2946
   -55.2874 -55.2421 -55.2393 -55.2391 -55.2306 -55.1863 -55.1667 -55.0790
   -30.9332 -30.9140 -30.8096 -30.7740 -30.7564 -30.6869 -30.4959 -30.4098
   -29.4971 -29.4540 -29.4304 -29.3204 -22.2580 -14.6948 -14.6669 -14.5847
   -14.4498 -14.3325 -14.1611 -14.0175 -13.8380 -13.8076 -13.7921 -13.7852
   -13.7574 -13.6994 -13.6931 -13.6783 -13.6604 -13.6254 -13.5010 -13.4632
   -13.3022 -13.2852 -13.2318 -13.1977 -13.1553 -13.1129 -13.0771 -12.9993
   -12.9669 -12.9375 -12.8743 -12.8061 -12.7962 -12.7636 -12.7454 -12.6828
   -12.6397 -12.6127 -12.5906 -12.5618 -12.5386 -12.5299 -12.5213 -12.4807
   -12.4642 -12.4536 -12.4344 -12.3246 -12.2179 -12.1569 -12.0600 -11.9051
   -11.7750 -11.7127 -11.4772 -11.4337 -11.4065 -11.3784 -11.3617 -11.3140
   -11.3028 -11.2806 -11.2457 -11.1444 -11.0913 -11.0806  -5.9742  -3.1571
    -3.1556  -2.4568  -2.2343  -2.0971  -1.9149  -1.8714  -1.7071  -1.4895
    -1.4026  -1.3895  -1.3333  -1.2305  -1.2152  -1.1818  -1.1557  -1.1120
    -0.9136  -0.7852  -0.7728  -0.6978  -0.6858  -0.5815  -0.5512  -0.4967
    -0.4714  -0.4278  -0.3655  -0.3399  -0.3065  -0.2770  -0.2601  -0.2253
    -0.1541  -0.1006  -0.0407   0.0714   0.0902   0.1315   0.2544   0.2886
     0.3444   0.3979   0.4488   0.4745   0.5063   0.5644   0.8612   0.9488
     0.9812   1.0659   1.1064   1.1293   1.2557   1.2739   1.3672   1.3941
     1.4247   1.5388   1.6261   1.6533   1.6767   1.6916   1.7223   1.7839
     1.8089   1.8365   1.8855   1.9152   1.9450   2.0255   2.0581   2.0919
     2.1468   2.2003   2.2329   2.2613   2.2928   2.3164   2.4071   2.5418
     2.6093   2.6246   2.7088   2.7518   2.7910   2.7967   2.8618   2.9051
     2.9821   3.0208   3.0313   3.0461   3.0522   3.2163   3.2377   3.2701
     3.2914   3.3088   3.3178   3.3257   3.3336   3.3638   3.3657   3.3822
     3.3873   3.3988   3.4155   3.4264   3.4364   3.4590   3.4700   3.4747
     3.5101   3.5270   3.5868   3.9450   3.9649   4.2265   4.5972   4.7435
     4.8936   5.0776   5.4030   5.5091   5.8340   5.9146   6.1518   6.2958
     6.3282   6.4484   6.5182   6.7471   6.8934   7.0456   7.2382   7.5462
     7.6180   7.7081   7.7898   7.8802   7.8968   7.9538   8.0955   8.2219
     8.3444   8.3974   8.5209   8.5968   8.6308   8.6743   8.9180

     occupation numbers 
     1.0000   1.0000   1.0000   1.0000   1.0000   1.0000   1.0000   1.0000
     1.0000   1.0000   1.0000   1.0000   1.0000   1.0000   1.0000   1.0000
     1.0000   1.0000   1.0000   1.0000   1.0000   1.0000   1.0000   1.0000
     1.0000   1.0000   1.0000   1.0000   1.0000   1.0000   1.0000   1.0000
     1.0000   1.0000   1.0000   1.0000   1.0000   1.0000   1.0000   1.0000
     1.0000   1.0000   1.0000   1.0000   1.0000   1.0000   1.0000   1.0000
     1.0000   1.0000   1.0000   1.0000   1.0000   1.0000   1.0000   1.0000
     1.0000   1.0000   1.0000   1.0000   1.0000   1.0000   1.0000   1.0000
     1.0000   1.0000   1.0000   1.0000   1.0000   1.0000   1.0000   1.0000
     1.0000   1.0000   1.0000   1.0000   1.0000   1.0000   1.0000   1.0000
     1.0000   1.0000   1.0000   1.0000   1.0000   1.0000   1.0000   1.0000
     1.0000   1.0000   1.0000   1.0000   1.0000   1.0000   1.0000   1.0000
     1.0000   1.0000   1.0000   1.0000   1.0000   1.0000   1.0000   1.0000
     1.0000   1.0000   1.0000   1.0000   1.0000   1.0000   1.0000   1.0000
     1.0000   1.0000   1.0000   1.0000   1.0000   1.0000   1.0000   1.0000
     1.0000   1.0000   1.0000   1.0000   1.0000   1.0000   1.0000   1.0000
     1.0000   1.0000   1.0000   1.0000   1.0000   1.0000   1.0000   1.0000
     1.0000   1.0000   1.0000   1.0000   1.0000   1.0000   1.0000   1.0000
     1.0000   1.0000   1.0000   1.0000   1.0000   1.0000   1.0000   1.0000
     1.0000   1.0000   1.0000   1.0000   1.0000   1.0000   1.0000   1.0000
     1.0000   0.9999   0.9999   0.9999   0.9998   0.9998   0.9997   0.9997
     0.9996   0.9993   0.9989   0.9987   0.9985   0.9984   0.9982   0.9976
     0.9973   0.9969   0.9961   0.9956   0.9950   0.9930   0.9920   0.9908
     0.9886   0.9860   0.9841   0.9824   0.9803   0.9785   0.9706   0.9544
     0.9440   0.9414   0.9253   0.9158   0.9064   0.9050   0.8876   0.8749
     0.8498   0.8360   0.8321   0.8265   0.8242   0.7542   0.7441   0.7284
     0.7178   0.7090   0.7044   0.7003   0.6962   0.6803   0.6794   0.6705
     0.6678   0.6615   0.6525   0.6464   0.6409   0.6283   0.6221   0.6194
     0.5992   0.5895   0.5547   0.3467   0.3358   0.2083   0.0865   0.0570
     0.0357   0.0189   0.0052   0.0033   0.0007   0.0005   0.0001   0.0001
     0.0000   0.0000   0.0000   0.0000   0.0000   0.0000   0.0000   0.0000
     0.0000   0.0000   0.0000   0.0000   0.0000   0.0000   0.0000   0.0000
     0.0000   0.0000   0.0000   0.0000   0.0000   0.0000   0.0000

          k = 0.0000-0.5000 0.0000 ( 65180 PWs)   bands (ev):

   -92.3470 -92.2927 -92.2009 -92.1519 -92.0950 -92.0533 -92.0359 -91.9120
   -55.7001 -55.6791 -55.5587 -55.5481 -55.5401 -55.5348 -55.4976 -55.4705
   -55.4540 -55.4524 -55.4439 -55.4027 -55.3830 -55.3469 -55.3268 -55.2946
   -55.2874 -55.2421 -55.2393 -55.2391 -55.2306 -55.1863 -55.1667 -55.0790
   -30.9330 -30.9139 -30.8090 -30.7742 -30.7569 -30.6870 -30.4955 -30.4102
   -29.4965 -29.4537 -29.4311 -29.3207 -22.2580 -14.6617 -14.6129 -14.5624
   -14.4343 -14.3492 -14.2096 -14.0676 -13.9377 -13.8081 -13.7909 -13.7502
   -13.7003 -13.6891 -13.6428 -13.6234 -13.5794 -13.5593 -13.5346 -13.4968
   -13.4648 -13.4339 -13.2352 -13.1788 -13.1645 -13.1088 -13.0885 -13.0133
   -13.0055 -12.9493 -12.9403 -12.8751 -12.7857 -12.7630 -12.7358 -12.7256
   -12.6272 -12.6125 -12.5857 -12.5376 -12.5294 -12.5188 -12.4787 -12.4600
   -12.4181 -12.3613 -12.3221 -12.3074 -12.1711 -12.0815 -11.9804 -11.9382
   -11.8868 -11.8560 -11.4306 -11.4287 -11.4017 -11.3644 -11.3301 -11.3192
   -11.2756 -11.2717 -11.2269 -11.1662 -11.1521 -11.1376  -5.9742  -3.1571
    -3.1557  -2.2419  -2.1829  -2.0310  -1.9586  -1.6783  -1.5957  -1.4671
    -1.3288  -1.2929  -1.2728  -1.1945  -1.1624  -1.0819  -1.0461  -0.9697
    -0.9288  -0.8889  -0.8621  -0.8074  -0.7696  -0.7206  -0.6864  -0.6532
    -0.6178  -0.5088  -0.4633  -0.4309  -0.4298  -0.3431  -0.3106  -0.2874
    -0.2418  -0.1556  -0.0863  -0.0020   0.0233   0.1321   0.1680   0.3199
     0.3482   0.3824   0.4227   0.5419   0.6078   0.7422   0.8083   0.8153
     0.9453   0.9873   1.0697   1.2249   1.3266   1.3596   1.3963   1.4019
     1.4365   1.4587   1.4956   1.5128   1.5227   1.6331   1.6899   1.7180
     1.7433   2.0048   2.0363   2.0582   2.1438   2.1698   2.2101   2.2258
     2.2584   2.2700   2.2715   2.3058   2.3510   2.3720   2.3982   2.4148
     2.4442   2.4992   2.5805   2.6112   2.7829   2.9534   2.9625   2.9757
     3.0114   3.0208   3.0333   3.0389   3.0472   3.0834   3.0961   3.1503
     3.1707   3.2475   3.2589   3.3291   3.3343   3.3604   3.3633   3.3813
     3.3842   3.3876   3.3938   3.3966   3.4088   3.4288   3.4305   3.4951
     3.5010   3.5166   3.5712   4.4627   4.4738   4.5282   4.5787   4.9703
     5.0881   5.2331   5.3538   5.5188   5.6781   5.7923   5.8890   6.0214
     6.2216   6.3652   6.3888   6.4265   7.0187   7.0776   7.1535   7.3843
     7.5719   7.6040   7.7921   8.0321   8.0604   8.1957   8.2268   8.3992
     8.4715   8.5459   8.6288   8.7334   8.7765   8.8502   8.9872

     occupation numbers 
     1.0000   1.0000   1.0000   1.0000   1.0000   1.0000   1.0000   1.0000
     1.0000   1.0000   1.0000   1.0000   1.0000   1.0000   1.0000   1.0000
     1.0000   1.0000   1.0000   1.0000   1.0000   1.0000   1.0000   1.0000
     1.0000   1.0000   1.0000   1.0000   1.0000   1.0000   1.0000   1.0000
     1.0000   1.0000   1.0000   1.0000   1.0000   1.0000   1.0000   1.0000
     1.0000   1.0000   1.0000   1.0000   1.0000   1.0000   1.0000   1.0000
     1.0000   1.0000   1.0000   1.0000   1.0000   1.0000   1.0000   1.0000
     1.0000   1.0000   1.0000   1.0000   1.0000   1.0000   1.0000   1.0000
     1.0000   1.0000   1.0000   1.0000   1.0000   1.0000   1.0000   1.0000
     1.0000   1.0000   1.0000   1.0000   1.0000   1.0000   1.0000   1.0000
     1.0000   1.0000   1.0000   1.0000   1.0000   1.0000   1.0000   1.0000
     1.0000   1.0000   1.0000   1.0000   1.0000   1.0000   1.0000   1.0000
     1.0000   1.0000   1.0000   1.0000   1.0000   1.0000   1.0000   1.0000
     1.0000   1.0000   1.0000   1.0000   1.0000   1.0000   1.0000   1.0000
     1.0000   1.0000   1.0000   1.0000   1.0000   1.0000   1.0000   1.0000
     1.0000   1.0000   1.0000   1.0000   1.0000   1.0000   1.0000   1.0000
     1.0000   1.0000   1.0000   1.0000   1.0000   1.0000   1.0000   1.0000
     1.0000   1.0000   1.0000   1.0000   1.0000   1.0000   1.0000   1.0000
     1.0000   1.0000   1.0000   1.0000   1.0000   1.0000   1.0000   1.0000
     1.0000   1.0000   1.0000   1.0000   1.0000   1.0000   1.0000   1.0000
     1.0000   1.0000   0.9999   0.9999   0.9998   0.9997   0.9997   0.9996
     0.9996   0.9995   0.9994   0.9994   0.9993   0.9988   0.9984   0.9982
     0.9980   0.9936   0.9927   0.9920   0.9887   0.9875   0.9854   0.9846
     0.9826   0.9818   0.9817   0.9793   0.9757   0.9739   0.9714   0.9698
     0.9667   0.9602   0.9486   0.9437   0.9085   0.8595   0.8565   0.8520
     0.8394   0.8360   0.8313   0.8292   0.8261   0.8120   0.8068   0.7840
     0.7750   0.7394   0.7338   0.6985   0.6958   0.6822   0.6806   0.6710
     0.6694   0.6676   0.6643   0.6627   0.6561   0.6451   0.6442   0.6079
     0.6045   0.5955   0.5638   0.1224   0.1191   0.1038   0.0909   0.0276
     0.0182   0.0105   0.0065   0.0032   0.0015   0.0009   0.0005   0.0003
     0.0001   0.0000   0.0000   0.0000   0.0000   0.0000   0.0000   0.0000
     0.0000   0.0000   0.0000   0.0000   0.0000   0.0000   0.0000   0.0000
     0.0000   0.0000   0.0000   0.0000   0.0000   0.0000   0.0000

          k = 0.2500 0.2500 0.0000 ( 65198 PWs)   bands (ev):

   -92.3470 -92.2927 -92.2009 -92.1519 -92.0950 -92.0533 -92.0359 -91.9120
   -55.7001 -55.6791 -55.5587 -55.5481 -55.5401 -55.5348 -55.4976 -55.4704
   -55.4540 -55.4524 -55.4439 -55.4027 -55.3830 -55.3469 -55.3268 -55.2946
   -55.2874 -55.2421 -55.2393 -55.2391 -55.2306 -55.1863 -55.1667 -55.0789
   -30.9315 -30.9157 -30.8095 -30.7736 -30.7562 -30.6873 -30.4960 -30.4099
   -29.4961 -29.4550 -29.4300 -29.3208 -22.2580 -14.6666 -14.6311 -14.5570
   -14.4394 -14.3249 -14.2003 -14.1228 -13.9215 -13.7912 -13.7616 -13.7502
   -13.7150 -13.6849 -13.6620 -13.6400 -13.6039 -13.5910 -13.4939 -13.4776
   -13.3183 -13.3037 -13.2738 -13.2540 -13.2130 -13.1650 -13.1182 -13.0817
   -12.9927 -12.9631 -12.8875 -12.8003 -12.7671 -12.7530 -12.7123 -12.6816
   -12.6713 -12.6208 -12.6046 -12.5947 -12.5640 -12.5448 -12.4677 -12.4230
   -12.4000 -12.3824 -12.3703 -12.3181 -12.1611 -12.1086 -12.0987 -11.9343
   -11.8102 -11.7512 -11.4494 -11.4174 -11.4068 -11.3998 -11.3370 -11.3028
   -11.2959 -11.2600 -11.2529 -11.1609 -11.1196 -11.1019  -5.9742  -3.1573
    -3.1555  -2.3187  -2.1086  -1.9914  -1.8976  -1.7756  -1.7103  -1.5146
    -1.3678  -1.3478  -1.3200  -1.2252  -1.1917  -1.0981  -1.0712  -1.0210
    -0.8889  -0.8412  -0.7689  -0.7232  -0.6800  -0.6553  -0.6303  -0.5889
    -0.5723  -0.4826  -0.4329  -0.3695  -0.3207  -0.2911  -0.2388  -0.2274
    -0.1647  -0.1134  -0.0593  -0.0244   0.0596   0.1143   0.1417   0.1829
     0.2362   0.3069   0.3454   0.3694   0.4389   0.4740   0.7547   0.9014
     0.9394   0.9936   1.0344   1.0777   1.1401   1.2059   1.2403   1.5149
     1.5871   1.6610   1.6871   1.7311   1.7661   1.8023   1.8390   1.8560
     1.8848   1.9235   1.9336   1.9513   1.9914   2.0307   2.0722   2.1226
     2.1598   2.1741   2.1985   2.2387   2.2889   2.3152   2.4482   2.5187
     2.5584   2.5853   2.6410   2.7114   2.7427   2.7806   2.8049   2.8142
     2.9254   2.9644   3.0372   3.0449   3.0583   3.2273   3.2444   3.2510
     3.2666   3.2806   3.2938   3.3069   3.3141   3.3240   3.3378   3.3494
     3.3686   3.3743   3.3860   3.4060   3.4204   3.4304   3.4612   3.7629
     3.8538   3.8917   3.9605   3.9698   4.1977   4.3046   4.6342   4.7920
     4.9662   5.1232   5.3218   5.5603   5.9029   5.9558   6.0054   6.1167
     6.1936   6.2355   6.3458   6.4153   6.9129   6.9967   7.1110   7.2409
     7.6946   7.7856   7.8596   7.9316   8.0169   8.1403   8.2315   8.3163
     8.3917   8.4732   8.5603   8.7030   8.7229   8.7698   8.8402

     occupation numbers 
     1.0000   1.0000   1.0000   1.0000   1.0000   1.0000   1.0000   1.0000
     1.0000   1.0000   1.0000   1.0000   1.0000   1.0000   1.0000   1.0000
     1.0000   1.0000   1.0000   1.0000   1.0000   1.0000   1.0000   1.0000
     1.0000   1.0000   1.0000   1.0000   1.0000   1.0000   1.0000   1.0000
     1.0000   1.0000   1.0000   1.0000   1.0000   1.0000   1.0000   1.0000
     1.0000   1.0000   1.0000   1.0000   1.0000   1.0000   1.0000   1.0000
     1.0000   1.0000   1.0000   1.0000   1.0000   1.0000   1.0000   1.0000
     1.0000   1.0000   1.0000   1.0000   1.0000   1.0000   1.0000   1.0000
     1.0000   1.0000   1.0000   1.0000   1.0000   1.0000   1.0000   1.0000
     1.0000   1.0000   1.0000   1.0000   1.0000   1.0000   1.0000   1.0000
     1.0000   1.0000   1.0000   1.0000   1.0000   1.0000   1.0000   1.0000
     1.0000   1.0000   1.0000   1.0000   1.0000   1.0000   1.0000   1.0000
     1.0000   1.0000   1.0000   1.0000   1.0000   1.0000   1.0000   1.0000
     1.0000   1.0000   1.0000   1.0000   1.0000   1.0000   1.0000   1.0000
     1.0000   1.0000   1.0000   1.0000   1.0000   1.0000   1.0000   1.0000
     1.0000   1.0000   1.0000   1.0000   1.0000   1.0000   1.0000   1.0000
     1.0000   1.0000   1.0000   1.0000   1.0000   1.0000   1.0000   1.0000
     1.0000   1.0000   1.0000   1.0000   1.0000   1.0000   1.0000   1.0000
     1.0000   1.0000   1.0000   1.0000   1.0000   1.0000   1.0000   1.0000
     1.0000   1.0000   1.0000   1.0000   1.0000   1.0000   1.0000   1.0000
     1.0000   1.0000   1.0000   0.9999   0.9999   0.9999   0.9999   0.9993
     0.9991   0.9986   0.9985   0.9981   0.9978   0.9973   0.9969   0.9966
     0.9961   0.9954   0.9952   0.9949   0.9939   0.9928   0.9915   0.9896
     0.9880   0.9873   0.9861   0.9838   0.9805   0.9786   0.9662   0.9576
     0.9520   0.9479   0.9385   0.9247   0.9179   0.9090   0.9029   0.9006
     0.8686   0.8558   0.8299   0.8270   0.8218   0.7490   0.7408   0.7377
     0.7301   0.7232   0.7166   0.7099   0.7063   0.7012   0.6940   0.6879
     0.6778   0.6747   0.6685   0.6576   0.6497   0.6442   0.6271   0.4507
     0.3978   0.3763   0.3382   0.3331   0.2208   0.1766   0.0781   0.0493
     0.0280   0.0160   0.0074   0.0026   0.0005   0.0004   0.0003   0.0001
     0.0001   0.0001   0.0000   0.0000   0.0000   0.0000   0.0000   0.0000
     0.0000   0.0000   0.0000   0.0000   0.0000   0.0000   0.0000   0.0000
     0.0000   0.0000   0.0000   0.0000   0.0000   0.0000   0.0000

          k = 0.2500-0.5000 0.0000 ( 65138 PWs)   bands (ev):

   -92.3470 -92.2927 -92.2009 -92.1519 -92.0950 -92.0533 -92.0359 -91.9120
   -55.7001 -55.6791 -55.5587 -55.5481 -55.5401 -55.5348 -55.4976 -55.4704
   -55.4540 -55.4524 -55.4439 -55.4027 -55.3830 -55.3469 -55.3268 -55.2946
   -55.2874 -55.2421 -55.2393 -55.2391 -55.2306 -55.1863 -55.1667 -55.0789
   -30.9313 -30.9156 -30.8090 -30.7738 -30.7568 -30.6874 -30.4956 -30.4103
   -29.4955 -29.4547 -29.4307 -29.3212 -22.2580 -14.6312 -14.5859 -14.5191
   -14.4029 -14.3735 -14.2505 -14.1686 -14.0353 -13.7905 -13.7257 -13.6790
   -13.6470 -13.6281 -13.6117 -13.5954 -13.5637 -13.5475 -13.5140 -13.4731
   -13.4518 -13.4224 -13.3187 -13.2703 -13.2308 -13.1914 -13.1426 -13.1213
   -13.0500 -13.0162 -12.8627 -12.7989 -12.7834 -12.7267 -12.7109 -12.6830
   -12.6453 -12.6270 -12.6000 -12.5695 -12.5361 -12.5250 -12.4698 -12.4479
   -12.4320 -12.3256 -12.3109 -12.2800 -12.1777 -12.0691 -11.9780 -11.9241
   -11.8754 -11.8526 -11.4247 -11.4129 -11.4021 -11.3752 -11.3433 -11.3156
   -11.2735 -11.2464 -11.2237 -11.1791 -11.1531 -11.1415  -5.9742  -3.1573
    -3.1557  -2.1003  -2.0352  -1.9050  -1.8276  -1.6989  -1.6160  -1.4915
    -1.3404  -1.2876  -1.2648  -1.2019  -1.1888  -1.0928  -1.0247  -0.9392
    -0.8916  -0.8820  -0.8177  -0.7771  -0.7412  -0.6941  -0.6566  -0.6217
    -0.5817  -0.5716  -0.5250  -0.4967  -0.4555  -0.4248  -0.3572  -0.2570
    -0.2194  -0.1401  -0.0754  -0.0276   0.0148   0.0369   0.0895   0.2496
     0.2575   0.3606   0.3969   0.4070   0.4520   0.4853   0.5196   0.5528
     0.6252   0.8887   0.9867   1.0348   1.1021   1.3761   1.3977   1.4895
     1.5126   1.6839   1.7155   1.7580   1.7829   1.7996   1.8202   1.8799
     1.9250   1.9626   2.0337   2.1276   2.1632   2.1853   2.1962   2.2334
     2.2491   2.2527   2.2960   2.3108   2.3300   2.3541   2.3783   2.4067
     2.4361   2.4977   2.5359   2.6129   2.7524   2.9067   2.9206   2.9402
     2.9652   2.9907   3.0185   3.0355   3.0382   3.0484   3.0598   3.0791
     3.1767   3.2260   3.2454   3.2478   3.2641   3.2844   3.2982   3.3169
     3.3249   3.3556   3.3669   3.3829   3.3910   3.3988   3.4109   3.9201
     3.9386   4.0944   4.1451   4.4703   4.5231   4.5326   4.6489   5.0303
     5.1138   5.2650   5.3920   5.4876   5.6451   5.7252   5.8430   5.9263
     6.0737   6.1007   6.3100   6.4731   6.5943   6.6290   7.1433   7.3264
     7.5232   7.7117   7.9517   8.0673   8.1725   8.2135   8.3481   8.4315
     8.5440   8.6261   8.6838   8.7706   8.8845   8.9060   8.9450

     occupation numbers 
     1.0000   1.0000   1.0000   1.0000   1.0000   1.0000   1.0000   1.0000
     1.0000   1.0000   1.0000   1.0000   1.0000   1.0000   1.0000   1.0000
     1.0000   1.0000   1.0000   1.0000   1.0000   1.0000   1.0000   1.0000
     1.0000   1.0000   1.0000   1.0000   1.0000   1.0000   1.0000   1.0000
     1.0000   1.0000   1.0000   1.0000   1.0000   1.0000   1.0000   1.0000
     1.0000   1.0000   1.0000   1.0000   1.0000   1.0000   1.0000   1.0000
     1.0000   1.0000   1.0000   1.0000   1.0000   1.0000   1.0000   1.0000
     1.0000   1.0000   1.0000   1.0000   1.0000   1.0000   1.0000   1.0000
     1.0000   1.0000   1.0000   1.0000   1.0000   1.0000   1.0000   1.0000
     1.0000   1.0000   1.0000   1.0000   1.0000   1.0000   1.0000   1.0000
     1.0000   1.0000   1.0000   1.0000   1.0000   1.0000   1.0000   1.0000
     1.0000   1.0000   1.0000   1.0000   1.0000   1.0000   1.0000   1.0000
     1.0000   1.0000   1.0000   1.0000   1.0000   1.0000   1.0000   1.0000
     1.0000   1.0000   1.0000   1.0000   1.0000   1.0000   1.0000   1.0000
     1.0000   1.0000   1.0000   1.0000   1.0000   1.0000   1.0000   1.0000
     1.0000   1.0000   1.0000   1.0000   1.0000   1.0000   1.0000   1.0000
     1.0000   1.0000   1.0000   1.0000   1.0000   1.0000   1.0000   1.0000
     1.0000   1.0000   1.0000   1.0000   1.0000   1.0000   1.0000   1.0000
     1.0000   1.0000   1.0000   1.0000   1.0000   1.0000   1.0000   1.0000
     1.0000   1.0000   1.0000   1.0000   1.0000   1.0000   1.0000   1.0000
     1.0000   1.0000   1.0000   1.0000   0.9999   0.9997   0.9996   0.9994
     0.9994   0.9985   0.9982   0.9978   0.9976   0.9974   0.9971   0.9962
     0.9954   0.9946   0.9927   0.9894   0.9878   0.9867   0.9862   0.9841
     0.9832   0.9829   0.9800   0.9789   0.9775   0.9755   0.9733   0.9706
     0.9676   0.9604   0.9552   0.9434   0.9157   0.8744   0.8701   0.8638
     0.8556   0.8468   0.8368   0.8305   0.8295   0.8256   0.8212   0.8136
     0.7723   0.7496   0.7404   0.7392   0.7313   0.7213   0.7143   0.7048
     0.7007   0.6847   0.6787   0.6701   0.6658   0.6616   0.6550   0.3604
     0.3502   0.2689   0.2446   0.1201   0.1051   0.1026   0.0750   0.0224
     0.0166   0.0093   0.0055   0.0036   0.0018   0.0012   0.0007   0.0004
     0.0002   0.0002   0.0000   0.0000   0.0000   0.0000   0.0000   0.0000
     0.0000   0.0000   0.0000   0.0000   0.0000   0.0000   0.0000   0.0000
     0.0000   0.0000   0.0000   0.0000   0.0000   0.0000   0.0000

          k =-0.5000-0.5000 0.0000 ( 65132 PWs)   bands (ev):

   -92.3470 -92.2927 -92.2009 -92.1519 -92.0950 -92.0533 -92.0359 -91.9120
   -55.7001 -55.6791 -55.5587 -55.5481 -55.5401 -55.5348 -55.4976 -55.4704
   -55.4540 -55.4524 -55.4439 -55.4027 -55.3830 -55.3469 -55.3268 -55.2946
[...]
     0.0000   0.0000   0.0000   0.0000   0.0000   0.0000   0.0000   0.0000
     0.0000   0.0000   0.0000   0.0000   0.0000   0.0000   0.0000

          k =-0.5000 0.0000 0.0000 ( 65180 PWs)   bands (ev):

   -92.3470 -92.2927 -92.2009 -92.1519 -92.0950 -92.0533 -92.0359 -91.9120
   -55.7001 -55.6791 -55.5587 -55.5481 -55.5401 -55.5348 -55.4976 -55.4704
   -55.4540 -55.4524 -55.4439 -55.4027 -55.3830 -55.3469 -55.3268 -55.2946
   -55.2874 -55.2421 -55.2393 -55.2391 -55.2306 -55.1863 -55.1667 -55.0789
   -30.9294 -30.9181 -30.8100 -30.7730 -30.7556 -30.6875 -30.4965 -30.4096
   -29.4957 -29.4564 -29.4290 -29.3209 -22.2580 -14.6659 -14.6157 -14.5538
   -14.4508 -14.3402 -14.1978 -14.0536 -13.9221 -13.7941 -13.7838 -13.7801
   -13.7586 -13.6985 -13.6464 -13.6120 -13.5651 -13.5630 -13.5481 -13.4927
   -13.4885 -13.3845 -13.2066 -13.1853 -13.1469 -13.1390 -13.0952 -13.0177
   -12.9912 -12.9256 -12.9120 -12.9019 -12.8081 -12.7109 -12.7059 -12.6940
   -12.6772 -12.6679 -12.6210 -12.6104 -12.5946 -12.5741 -12.4543 -12.3489
   -12.3102 -12.2962 -12.2917 -12.2860 -12.1971 -12.1700 -12.0392 -11.9844
   -11.8577 -11.8133 -11.4282 -11.4070 -11.4002 -11.3852 -11.3673 -11.3257
   -11.2635 -11.2464 -11.2142 -11.1678 -11.1584 -11.1429  -5.9742  -3.1575
    -3.1554  -2.2319  -2.1932  -2.0286  -1.9897  -1.6776  -1.6025  -1.4528
    -1.3354  -1.2967  -1.2514  -1.2024  -1.1769  -1.0553  -1.0100  -0.9959
    -0.9128  -0.8777  -0.8635  -0.8303  -0.7743  -0.7044  -0.6748  -0.6490
    -0.5538  -0.5042  -0.4551  -0.4235  -0.4020  -0.3731  -0.3249  -0.3001
    -0.2613  -0.1670  -0.0959  -0.0313   0.0305   0.1911   0.2256   0.2924
     0.3172   0.3829   0.4015   0.5326   0.5693   0.6046   0.7906   0.8887
     0.9354   1.0023   1.0738   1.2025   1.2156   1.3479   1.3781   1.4313
     1.4523   1.4959   1.5094   1.5531   1.5812   1.6461   1.6893   1.7370
     1.7450   2.0430   2.0511   2.0683   2.0810   2.2034   2.2097   2.2172
     2.2338   2.2624   2.2750   2.3118   2.3417   2.3597   2.4276   2.4324
     2.4892   2.5033   2.5680   2.6657   2.7724   2.8499   2.8651   2.9472
     2.9786   3.0045   3.0371   3.0393   3.0765   3.0838   3.0910   3.1188
     3.1859   3.2316   3.2750   3.3055   3.3498   3.3548   3.3560   3.3685
     3.3820   3.3948   3.4098   3.4117   3.4330   3.4385   3.4610   3.4813
     3.4859   3.6142   3.6184   4.4013   4.4625   4.5257   4.6413   4.9627
     5.1256   5.2550   5.3144   5.4407   5.6761   5.8670   5.9218   5.9826
     6.1594   6.3766   6.3841   6.5041   6.9713   7.0704   7.1677   7.4514
     7.5193   7.6779   7.6965   7.9220   8.0818   8.1878   8.2967   8.3416
     8.4538   8.6405   8.6762   8.7292   8.8179   8.8568   8.9559

     occupation numbers 
     1.0000   1.0000   1.0000   1.0000   1.0000   1.0000   1.0000   1.0000
     1.0000   1.0000   1.0000   1.0000   1.0000   1.0000   1.0000   1.0000
     1.0000   1.0000   1.0000   1.0000   1.0000   1.0000   1.0000   1.0000
     1.0000   1.0000   1.0000   1.0000   1.0000   1.0000   1.0000   1.0000
     1.0000   1.0000   1.0000   1.0000   1.0000   1.0000   1.0000   1.0000
     1.0000   1.0000   1.0000   1.0000   1.0000   1.0000   1.0000   1.0000
     1.0000   1.0000   1.0000   1.0000   1.0000   1.0000   1.0000   1.0000
     1.0000   1.0000   1.0000   1.0000   1.0000   1.0000   1.0000   1.0000
     1.0000   1.0000   1.0000   1.0000   1.0000   1.0000   1.0000   1.0000
     1.0000   1.0000   1.0000   1.0000   1.0000   1.0000   1.0000   1.0000
     1.0000   1.0000   1.0000   1.0000   1.0000   1.0000   1.0000   1.0000
     1.0000   1.0000   1.0000   1.0000   1.0000   1.0000   1.0000   1.0000
     1.0000   1.0000   1.0000   1.0000   1.0000   1.0000   1.0000   1.0000
     1.0000   1.0000   1.0000   1.0000   1.0000   1.0000   1.0000   1.0000
     1.0000   1.0000   1.0000   1.0000   1.0000   1.0000   1.0000   1.0000
     1.0000   1.0000   1.0000   1.0000   1.0000   1.0000   1.0000   1.0000
     1.0000   1.0000   1.0000   1.0000   1.0000   1.0000   1.0000   1.0000
     1.0000   1.0000   1.0000   1.0000   1.0000   1.0000   1.0000   1.0000
     1.0000   1.0000   1.0000   1.0000   1.0000   1.0000   1.0000   1.0000
     1.0000   1.0000   1.0000   1.0000   1.0000   1.0000   1.0000   1.0000
     1.0000   1.0000   0.9999   0.9999   0.9999   0.9997   0.9997   0.9996
     0.9995   0.9994   0.9994   0.9992   0.9991   0.9987   0.9984   0.9980
     0.9980   0.9924   0.9922   0.9916   0.9912   0.9858   0.9855   0.9850
     0.9841   0.9823   0.9815   0.9789   0.9765   0.9750   0.9685   0.9680
     0.9614   0.9596   0.9506   0.9339   0.9110   0.8910   0.8867   0.8615
     0.8510   0.8419   0.8299   0.8291   0.8147   0.8118   0.8089   0.7974
     0.7682   0.7470   0.7259   0.7106   0.6877   0.6851   0.6845   0.6779
     0.6706   0.6637   0.6555   0.6545   0.6428   0.6398   0.6272   0.6157
     0.6131   0.5386   0.5361   0.1419   0.1225   0.1044   0.0766   0.0284
     0.0159   0.0097   0.0076   0.0045   0.0015   0.0006   0.0004   0.0003
     0.0001   0.0000   0.0000   0.0000   0.0000   0.0000   0.0000   0.0000
     0.0000   0.0000   0.0000   0.0000   0.0000   0.0000   0.0000   0.0000
     0.0000   0.0000   0.0000   0.0000   0.0000   0.0000   0.0000

          k =-0.2500 0.2500 0.0000 ( 65198 PWs)   bands (ev):

   -92.3470 -92.2927 -92.2009 -92.1519 -92.0950 -92.0533 -92.0359 -91.9120
   -55.7001 -55.6791 -55.5587 -55.5481 -55.5401 -55.5348 -55.4976 -55.4704
   -55.4540 -55.4524 -55.4439 -55.4027 -55.3830 -55.3469 -55.3268 -55.2946
   -55.2874 -55.2421 -55.2393 -55.2391 -55.2306 -55.1863 -55.1667 -55.0789
   -30.9315 -30.9157 -30.8095 -30.7736 -30.7562 -30.6873 -30.4960 -30.4099
   -29.4961 -29.4550 -29.4300 -29.3208 -22.2580 -14.6680 -14.6300 -14.5553
   -14.4375 -14.3316 -14.2038 -14.1150 -13.9134 -13.7913 -13.7687 -13.7385
   -13.7310 -13.6789 -13.6579 -13.6403 -13.6232 -13.5860 -13.4910 -13.4786
   -13.3270 -13.2995 -13.2710 -13.2514 -13.2153 -13.1511 -13.1119 -13.0915
   -13.0018 -12.9601 -12.8808 -12.8035 -12.7678 -12.7493 -12.7009 -12.6829
   -12.6571 -12.6353 -12.6006 -12.5902 -12.5769 -12.5523 -12.4670 -12.4269
   -12.4186 -12.3913 -12.3480 -12.3181 -12.1840 -12.0982 -12.0714 -11.9401
   -11.8011 -11.7629 -11.4486 -11.4267 -11.4000 -11.3877 -11.3467 -11.3126
   -11.2888 -11.2679 -11.2449 -11.1606 -11.1149 -11.1051  -5.9742  -3.1573
    -3.1555  -2.3170  -2.1076  -1.9870  -1.8995  -1.7798  -1.7129  -1.5123
    -1.3645  -1.3455  -1.3180  -1.2257  -1.1906  -1.0977  -1.0645  -1.0387
    -0.8944  -0.8393  -0.7725  -0.7433  -0.6831  -0.6607  -0.6204  -0.5914
    -0.5513  -0.4893  -0.4419  -0.3814  -0.3118  -0.2872  -0.2345  -0.2067
    -0.1614  -0.1042  -0.0621  -0.0184   0.0788   0.1148   0.1214   0.1698
     0.2344   0.3066   0.3470   0.3752   0.4431   0.4713   0.7358   0.9028
     0.9487   0.9843   1.0406   1.0784   1.1413   1.2094   1.2407   1.5225
     1.6379   1.6769   1.7089   1.7157   1.7601   1.7766   1.8206   1.8518
     1.8675   1.8935   1.9341   1.9465   1.9916   2.0084   2.0528   2.1381
     2.1488   2.1714   2.2019   2.2374   2.2715   2.3201   2.4380   2.5507
     2.5814   2.6231   2.6449   2.7092   2.7550   2.7825   2.8050   2.8259
     2.9269   2.9631   3.0329   3.0437   3.0624   3.2345   3.2424   3.2560
     3.2663   3.2765   3.2908   3.2967   3.3141   3.3220   3.3385   3.3480
     3.3611   3.3701   3.3754   3.4085   3.4201   3.4293   3.4628   3.7559
     3.8366   3.8951   3.9576   3.9848   4.1817   4.3130   4.6345   4.7912
     4.9651   5.1229   5.3311   5.5584   5.9312   5.9603   5.9755   6.1188
     6.1887   6.2424   6.3533   6.3963   6.9176   7.0210   7.1020   7.2218
     7.7019   7.7687   7.8937   7.9349   7.9804   8.1696   8.2110   8.3270
     8.3923   8.4589   8.5862   8.6922   8.7352   8.7584   8.8276

     occupation numbers 
     1.0000   1.0000   1.0000   1.0000   1.0000   1.0000   1.0000   1.0000
     1.0000   1.0000   1.0000   1.0000   1.0000   1.0000   1.0000   1.0000
     1.0000   1.0000   1.0000   1.0000   1.0000   1.0000   1.0000   1.0000
     1.0000   1.0000   1.0000   1.0000   1.0000   1.0000   1.0000   1.0000
     1.0000   1.0000   1.0000   1.0000   1.0000   1.0000   1.0000   1.0000
     1.0000   1.0000   1.0000   1.0000   1.0000   1.0000   1.0000   1.0000
     1.0000   1.0000   1.0000   1.0000   1.0000   1.0000   1.0000   1.0000
     1.0000   1.0000   1.0000   1.0000   1.0000   1.0000   1.0000   1.0000
     1.0000   1.0000   1.0000   1.0000   1.0000   1.0000   1.0000   1.0000
     1.0000   1.0000   1.0000   1.0000   1.0000   1.0000   1.0000   1.0000
     1.0000   1.0000   1.0000   1.0000   1.0000   1.0000   1.0000   1.0000
     1.0000   1.0000   1.0000   1.0000   1.0000   1.0000   1.0000   1.0000
     1.0000   1.0000   1.0000   1.0000   1.0000   1.0000   1.0000   1.0000
     1.0000   1.0000   1.0000   1.0000   1.0000   1.0000   1.0000   1.0000
     1.0000   1.0000   1.0000   1.0000   1.0000   1.0000   1.0000   1.0000
     1.0000   1.0000   1.0000   1.0000   1.0000   1.0000   1.0000   1.0000
     1.0000   1.0000   1.0000   1.0000   1.0000   1.0000   1.0000   1.0000
     1.0000   1.0000   1.0000   1.0000   1.0000   1.0000   1.0000   1.0000
     1.0000   1.0000   1.0000   1.0000   1.0000   1.0000   1.0000   1.0000
     1.0000   1.0000   1.0000   1.0000   1.0000   1.0000   1.0000   1.0000
     1.0000   1.0000   1.0000   0.9999   0.9999   0.9999   0.9999   0.9993
     0.9988   0.9985   0.9983   0.9982   0.9978   0.9976   0.9971   0.9967
     0.9964   0.9960   0.9952   0.9950   0.9939   0.9935   0.9921   0.9890
     0.9885   0.9874   0.9859   0.9839   0.9817   0.9782   0.9674   0.9531
     0.9485   0.9416   0.9377   0.9252   0.9151   0.9085   0.9029   0.8975
     0.8681   0.8563   0.8315   0.8274   0.8202   0.7456   0.7418   0.7352
     0.7302   0.7252   0.7181   0.7151   0.7063   0.7022   0.6936   0.6887
     0.6818   0.6770   0.6742   0.6563   0.6499   0.6448   0.6261   0.4548
     0.4078   0.3744   0.3398   0.3251   0.2279   0.1734   0.0781   0.0494
     0.0281   0.0160   0.0071   0.0026   0.0004   0.0004   0.0003   0.0001
     0.0001   0.0001   0.0000   0.0000   0.0000   0.0000   0.0000   0.0000
     0.0000   0.0000   0.0000   0.0000   0.0000   0.0000   0.0000   0.0000
     0.0000   0.0000   0.0000   0.0000   0.0000   0.0000   0.0000

          k =-0.5000 0.2500 0.0000 ( 65138 PWs)   bands (ev):

   -92.3470 -92.2927 -92.2009 -92.1519 -92.0950 -92.0533 -92.0359 -91.9120
   -55.7001 -55.6791 -55.5587 -55.5481 -55.5401 -55.5348 -55.4976 -55.4704
   -55.4540 -55.4524 -55.4439 -55.4027 -55.3830 -55.3469 -55.3268 -55.2946
   -55.2874 -55.2421 -55.2393 -55.2391 -55.2306 -55.1863 -55.1667 -55.0789
   -30.9293 -30.9180 -30.8095 -30.7732 -30.7561 -30.6877 -30.4961 -30.4100
   -29.4951 -29.4561 -29.4296 -29.3212 -22.2580 -14.6332 -14.5893 -14.5108
   -14.4156 -14.3713 -14.2438 -14.1580 -14.0340 -13.7908 -13.7193 -13.6894
   -13.6761 -13.6312 -13.6140 -13.5860 -13.5520 -13.5480 -13.5240 -13.4892
   -13.4724 -13.3728 -13.2909 -13.2457 -13.2403 -13.2286 -13.1524 -13.1238
   -13.0398 -13.0018 -12.8564 -12.8212 -12.7554 -12.7275 -12.6887 -12.6751
   -12.6688 -12.6347 -12.6178 -12.5988 -12.5905 -12.5553 -12.4610 -12.3949
   -12.3727 -12.3174 -12.2784 -12.2702 -12.1953 -12.1044 -11.9800 -11.9763
   -11.8562 -11.8276 -11.4212 -11.4084 -11.3941 -11.3826 -11.3610 -11.3307
   -11.2510 -11.2423 -11.2192 -11.1823 -11.1540 -11.1454  -5.9742  -3.1575
    -3.1555  -2.0900  -2.0477  -1.8984  -1.8566  -1.6971  -1.6212  -1.4771
    -1.3419  -1.2851  -1.2583  -1.2185  -1.1795  -1.0994  -0.9848  -0.9280
    -0.9050  -0.8796  -0.8037  -0.7740  -0.7362  -0.7179  -0.6568  -0.6302
    -0.5886  -0.5538  -0.5251  -0.4683  -0.4417  -0.4003  -0.3662  -0.2620
    -0.2351  -0.1501  -0.0893  -0.0553   0.0005   0.0861   0.1175   0.2215
     0.2549   0.3116   0.3608   0.3864   0.4654   0.4895   0.5207   0.5809
     0.6193   0.9217   0.9869   1.0370   1.0541   1.3579   1.4126   1.4891
     1.5158   1.6948   1.7318   1.7690   1.7844   1.8023   1.8200   1.8897
     1.9301   1.9701   1.9968   2.1155   2.1530   2.1829   2.1943   2.2297
     2.2595   2.2734   2.2855   2.3091   2.3313   2.3735   2.3996   2.4293
     2.4525   2.4799   2.5447   2.6609   2.7663   2.7961   2.8640   2.9051
     2.9633   3.0007   3.0092   3.0339   3.0398   3.0538   3.0821   3.1045
     3.1857   3.2279   3.2423   3.2484   3.2691   3.2923   3.3048   3.3199
     3.3321   3.3517   3.3650   3.3765   3.3839   3.3934   3.4049   3.9268
     3.9694   4.1247   4.1467   4.4117   4.4874   4.5344   4.7349   5.0287
     5.1290   5.2591   5.3514   5.4393   5.7136   5.7605   5.8155   5.9064
     6.0575   6.1128   6.2691   6.5205   6.5947   6.6704   7.1045   7.2466
     7.5908   7.7312   7.9708   8.0580   8.1837   8.1983   8.3210   8.3697
     8.5585   8.6092   8.7157   8.8208   8.8722   8.9080   8.9442

     occupation numbers 
     1.0000   1.0000   1.0000   1.0000   1.0000   1.0000   1.0000   1.0000
     1.0000   1.0000   1.0000   1.0000   1.0000   1.0000   1.0000   1.0000
     1.0000   1.0000   1.0000   1.0000   1.0000   1.0000   1.0000   1.0000
     1.0000   1.0000   1.0000   1.0000   1.0000   1.0000   1.0000   1.0000
     1.0000   1.0000   1.0000   1.0000   1.0000   1.0000   1.0000   1.0000
     1.0000   1.0000   1.0000   1.0000   1.0000   1.0000   1.0000   1.0000
     1.0000   1.0000   1.0000   1.0000   1.0000   1.0000   1.0000   1.0000
     1.0000   1.0000   1.0000   1.0000   1.0000   1.0000   1.0000   1.0000
     1.0000   1.0000   1.0000   1.0000   1.0000   1.0000   1.0000   1.0000
     1.0000   1.0000   1.0000   1.0000   1.0000   1.0000   1.0000   1.0000
     1.0000   1.0000   1.0000   1.0000   1.0000   1.0000   1.0000   1.0000
     1.0000   1.0000   1.0000   1.0000   1.0000   1.0000   1.0000   1.0000
     1.0000   1.0000   1.0000   1.0000   1.0000   1.0000   1.0000   1.0000
     1.0000   1.0000   1.0000   1.0000   1.0000   1.0000   1.0000   1.0000
     1.0000   1.0000   1.0000   1.0000   1.0000   1.0000   1.0000   1.0000
     1.0000   1.0000   1.0000   1.0000   1.0000   1.0000   1.0000   1.0000
     1.0000   1.0000   1.0000   1.0000   1.0000   1.0000   1.0000   1.0000
     1.0000   1.0000   1.0000   1.0000   1.0000   1.0000   1.0000   1.0000
     1.0000   1.0000   1.0000   1.0000   1.0000   1.0000   1.0000   1.0000
     1.0000   1.0000   1.0000   1.0000   1.0000   1.0000   1.0000   1.0000
     1.0000   1.0000   1.0000   1.0000   1.0000   0.9997   0.9996   0.9994
     0.9993   0.9984   0.9981   0.9977   0.9976   0.9973   0.9971   0.9961
     0.9953   0.9944   0.9938   0.9899   0.9883   0.9869   0.9863   0.9843
     0.9825   0.9816   0.9808   0.9791   0.9773   0.9738   0.9713   0.9683
     0.9658   0.9626   0.9540   0.9348   0.9124   0.9052   0.8870   0.8749
     0.8562   0.8432   0.8402   0.8311   0.8289   0.8236   0.8124   0.8033
     0.7683   0.7487   0.7419   0.7389   0.7288   0.7173   0.7110   0.7033
     0.6970   0.6867   0.6797   0.6736   0.6696   0.6645   0.6583   0.3567
     0.3334   0.2542   0.2439   0.1384   0.1151   0.1021   0.0585   0.0226
     0.0157   0.0095   0.0065   0.0045   0.0013   0.0010   0.0008   0.0005
     0.0002   0.0002   0.0001   0.0000   0.0000   0.0000   0.0000   0.0000
     0.0000   0.0000   0.0000   0.0000   0.0000   0.0000   0.0000   0.0000
     0.0000   0.0000   0.0000   0.0000   0.0000   0.0000   0.0000

     the Fermi energy is     3.6794 ev

!    total energy              =   -4482.97612688 Ry
     estimated scf accuracy    <          7.1E-09 Ry
     smearing contrib. (-TS)   =      -1.17257678 Ry
     internal energy E=F+TS    =   -4481.80355010 Ry

     The total energy is F=E-TS. E is the sum of the following terms:
     one-electron contribution =  -20252.50218029 Ry
     hartree contribution      =   10265.79355942 Ry
     xc contribution           =    -701.58719605 Ry
     ewald contribution        =    6492.14560119 Ry
     one-center paw contrib.   =    -285.65333437 Ry
      -> PAW hartree energy AE =      25.16169662 Ry
      -> PAW hartree energy PS =     -25.04564296 Ry
      -> PAW xc energy AE      =     -16.51725375 Ry
      -> PAW xc energy PS      =       6.87672904 Ry
      -> total E_H with PAW    =   10265.90961309 Ry
      -> total E_XC with PAW   =    -711.22772077 Ry

     convergence has been achieved in  55 iterations

     Writing all to output data dir /bsuhome/zayahcortright/scratch/pwscf.save/
 
     init_run     :      8.33s CPU      8.85s WALL (       1 calls)
     electrons    :    839.25s CPU    889.99s WALL (       1 calls)

     Called by init_run:
     wfcinit      :      6.42s CPU      6.63s WALL (       1 calls)
     wfcinit:atom :      0.05s CPU      0.08s WALL (       5 calls)
     wfcinit:wfcr :      6.10s CPU      6.23s WALL (       5 calls)
     potinit      :      0.20s CPU      0.22s WALL (       1 calls)
     hinit0       :      0.57s CPU      0.71s WALL (       1 calls)

     Called by electrons:
     c_bands      :    671.46s CPU    680.35s WALL (      55 calls)
     sum_band     :    125.97s CPU    150.39s WALL (      55 calls)
     v_of_rho     :      6.08s CPU      6.47s WALL (      56 calls)
     v_h          :      0.55s CPU      0.55s WALL (      56 calls)
     v_xc         :      5.53s CPU      5.92s WALL (      56 calls)
     newd         :     19.40s CPU     35.87s WALL (      56 calls)
     PAW_pot      :      1.87s CPU      1.90s WALL (      56 calls)
     mix_rho      :     14.06s CPU     14.52s WALL (      55 calls)

     Called by c_bands:
     init_us_2    :      8.31s CPU      8.36s WALL (     555 calls)
     init_us_2:cp :      8.30s CPU      8.36s WALL (     555 calls)
     cegterg      :    631.86s CPU    640.44s WALL (     275 calls)

     Called by sum_band:
     sum_band:wei :      0.39s CPU      0.39s WALL (      55 calls)
     sum_band:loo :    106.07s CPU    106.89s WALL (      55 calls)
     sum_band:buf :      1.69s CPU      1.76s WALL (     275 calls)
     sum_band:ini :      3.83s CPU      3.84s WALL (     275 calls)
     sum_band:cal :     22.64s CPU     22.71s WALL (     275 calls)
     sum_band:bec :      0.64s CPU      0.66s WALL (     275 calls)
     addusdens    :     17.51s CPU     41.07s WALL (      55 calls)
                                        0.00s GPU  (      55 calls)
     addusd:skk   :      0.33s CPU      1.08s WALL (     220 calls)
                                        0.00s GPU  (     220 calls)

     Called by *egterg:
     cdiaghg      :     68.20s CPU     68.48s WALL (    1555 calls)
     cegterg:over :     45.82s CPU     46.01s WALL (    1280 calls)
     cegterg:upda :     34.32s CPU     34.94s WALL (    1280 calls)
     cegterg:last :     74.13s CPU     74.43s WALL (     515 calls)
     cdiaghg:chol :      4.09s CPU      4.11s WALL (    1555 calls)
     cdiaghg:inve :      4.11s CPU      4.13s WALL (    1555 calls)
     cdiaghg:para :      8.69s CPU      8.75s WALL (    3110 calls)
     h_psi        :    341.49s CPU    345.08s WALL (    1560 calls)
     s_psi        :     49.03s CPU     49.19s WALL (    1560 calls)
     g_psi        :      1.25s CPU      1.26s WALL (    1280 calls)

     Called by h_psi:
     h_psi:calbec :     52.77s CPU     53.00s WALL (    1560 calls)
     vloc_psi     :    238.01s CPU    240.35s WALL (    1560 calls)
     add_vuspsi   :     47.22s CPU     47.44s WALL (    1560 calls)

     General routines
     calbec       :     75.40s CPU     75.70s WALL (    1835 calls)
     fft          :      3.84s CPU      3.89s WALL (     726 calls)
     ffts         :      5.10s CPU      5.15s WALL (    5805 calls)
     fftw         :    199.96s CPU    201.57s WALL (  377349 calls)
     interpolate  :      0.46s CPU      0.47s WALL (      56 calls)
 
     Parallel routines

     PAW routines
     PAW_pot      :      1.87s CPU      1.90s WALL (      56 calls)
 
     PWSCF        :  14m 9.60s CPU  15m 5.42s WALL

 
   This run was terminated on:  22:39: 1  18Jun2024            

=------------------------------------------------------------------------------=
   JOB DONE.
=------------------------------------------------------------------------------=
