
     Program PWSCF v.7.2 starts on 21Jun2024 at 20:15: 4 

     This program is part of the open-source Quantum ESPRESSO suite
     for quantum simulation of materials; please cite
         "P. Giannozzi et al., J. Phys.:Condens. Matter 21 395502 (2009);
         "P. Giannozzi et al., J. Phys.:Condens. Matter 29 465901 (2017);
         "P. Giannozzi et al., J. Chem. Phys. 152 154105 (2020);
          URL http://www.quantum-espresso.org", 
     in publications or presentations arising from this work. More details at
     http://www.quantum-espresso.org/quote

     Parallel version (MPI & OpenMP), running on      48 processor cores
     Number of MPI processes:                48
     Threads/MPI process:                     1

     MPI processes distributed on     1 nodes
     180150 MiB available memory on the printing compute node when the environment starts
 
     Reading input from espresso.pwi
Warning: card &CELL ignored
Warning: card / ignored
Warning: card &FCP ignored
Warning: card / ignored
Warning: card &RISM ignored
Warning: card / ignored

     Current dimensions of program PWSCF are:
     Max number of different atomic species (ntypx) = 10
     Max number of k-points (npk) =  40000
     Max angular momentum in pseudopotentials (lmaxx) =  4
     file O.pbe-n-kjpaw_psl.0.1.UPF: wavefunction(s)  2P renormalized
     signal trapping enabled: kill the code with -SIGUSR1 to stop cleanly the simulation 
 
     K-points division:     npool     =       2
     R & G space division:  proc/nbgrp/npool/nimage =      24
     Subspace diagonalization in iterative solution of the eigenvalue problem:
     one sub-group per band group will be used
     scalapack distributed-memory algorithm (size of sub-group:  3*  3 procs)

 
     Parallelization info
     --------------------
     sticks:   dense  smooth     PW     G-vecs:    dense   smooth      PW
     Min         350     175     47                61430    21716    3036
     Max         351     177     48                61449    21727    3041
     Sum        8421    4205   1137              1474595   521381   72913
 
     Using Slab Decomposition
 


     bravais-lattice index     =            0
     lattice parameter (alat)  =      14.8599  a.u.
     unit-cell volume          =    8305.1283 (a.u.)^3
     number of atoms/cell      =           49
     number of atomic types    =            4
     number of electrons       =       425.00
     number of Kohn-Sham states=          256
     kinetic-energy cutoff     =      60.0000  Ry
     charge density cutoff     =     480.0000  Ry
     scf convergence threshold =      1.0E-08
     mixing beta               =       0.1500
     number of iterations used =            8  local-TF  mixing
     Exchange-correlation= PBE
                           (   1   4   3   4   0   0   0)

     celldm(1)=  14.859904  celldm(2)=   0.000000  celldm(3)=   0.000000
     celldm(4)=   0.000000  celldm(5)=   0.000000  celldm(6)=   0.000000

     crystal axes: (cart. coord. in units of alat)
               a(1) = (   1.000000   0.000000   0.000000 )  
               a(2) = (   0.000000   1.000000   0.000000 )  
               a(3) = (   0.000000   0.000000   2.531036 )  

     reciprocal axes: (cart. coord. in units 2 pi/alat)
               b(1) = (  1.000000  0.000000  0.000000 )  
               b(2) = (  0.000000  1.000000  0.000000 )  
               b(3) = (  0.000000  0.000000  0.395095 )  


     PseudoPot. # 1 for Sr read from file:
     /bsuhome/zayahcortright/q-e/pseudo/Sr_pbe_v1.uspp.F.UPF
     MD5 check sum: 6b418c05fbe9db5448babca5e47b7a5b
     Pseudo is Ultrasoft + core correction, Zval = 10.0
     Generated by new atomic code, or converted to UPF format
     Using radial grid of  883 points,  6 beta functions with: 
                l(1) =   0
                l(2) =   0
                l(3) =   1
                l(4) =   1
                l(5) =   2
                l(6) =   2
     Q(r) pseudized with  6 coefficients,  rinner =    1.400   1.400   1.400
                                                       1.400   1.400

     PseudoPot. # 2 for O  read from file:
     /bsuhome/zayahcortright/q-e/pseudo/O.pbe-n-kjpaw_psl.0.1.UPF
     MD5 check sum: 0234752ac141de4415c5fc33072bef88
     Pseudo is Projector augmented-wave + core cor, Zval =  6.0
     Generated using "atomic" code by A. Dal Corso  v.5.0.99 svn rev. 10869
     Shape of augmentation charge: BESSEL
     Using radial grid of 1095 points,  4 beta functions with: 
                l(1) =   0
                l(2) =   0
                l(3) =   1
                l(4) =   1
     Q(r) pseudized with 0 coefficients 


     PseudoPot. # 3 for Co read from file:
     /bsuhome/zayahcortright/q-e/pseudo/Co_pbe_v1.2.uspp.F.UPF
     MD5 check sum: 5f91765df6ddd3222702df6e7b74a16d
     Pseudo is Ultrasoft + core correction, Zval = 17.0
     Generated by new atomic code, or converted to UPF format
     Using radial grid of  863 points,  6 beta functions with: 
                l(1) =   0
                l(2) =   0
                l(3) =   1
                l(4) =   1
                l(5) =   2
                l(6) =   2
     Q(r) pseudized with  8 coefficients,  rinner =    1.200   1.200   1.200
                                                       1.200   1.200

     PseudoPot. # 4 for H  read from file:
     /bsuhome/zayahcortright/q-e/pseudo/H.pbe-rrkjus_psl.1.0.0.UPF
     MD5 check sum: f52b6d4d1c606e5624b1dc7b2218f220
     Pseudo is Ultrasoft, Zval =  1.0
     Generated using "atomic" code by A. Dal Corso  v.5.1
     Using radial grid of  929 points,  2 beta functions with: 
                l(1) =   0
                l(2) =   0
     Q(r) pseudized with 0 coefficients 


     atomic species   valence    mass     pseudopotential
        Sr            10.00    87.62000     Sr( 1.00)
        O              6.00    15.99900     O ( 1.00)
        Co            17.00    58.93319     Co( 1.00)
        H              1.00     1.00800     H ( 1.00)

     No symmetry found


                                    s                        frac. trans.

      isym =  1     identity                                     

 cryst.   s( 1) = (     1          0          0      )
                  (     0          1          0      )
                  (     0          0          1      )

 cart.    s( 1) = (  1.0000000  0.0000000  0.0000000 )
                  (  0.0000000  1.0000000  0.0000000 )
                  (  0.0000000  0.0000000  1.0000000 )


   Cartesian axes

     site n.     atom                  positions (alat units)
         1           Sr  tau(   1) = (   0.2508693   0.7491307   1.7574407  )
         2           O   tau(   2) = (   0.4985141   0.5014859   1.7715967  )
         3           Sr  tau(   3) = (   0.7482398   0.7454518   1.7648669  )
         4           Sr  tau(   4) = (   0.7441748   0.2558252   1.7667843  )
         5           Sr  tau(   5) = (   0.2508693   0.7491307   1.2696799  )
         6           Sr  tau(   6) = (   0.2508693   0.7491307   0.7632319  )
         7           Co  tau(   7) = (   0.4998914   0.5001086   1.0164559  )
         8           Co  tau(   8) = (   0.4936915   0.5063085   1.5135603  )
         9           O   tau(   9) = (   0.4988895   0.7610401   1.0164559  )
        10           O   tau(  10) = (   0.2389599   0.5011105   1.0164559  )
        11           O   tau(  11) = (   0.0070918   0.7374880   1.0164559  )
        12           O   tau(  12) = (   0.0088340   0.7405089   1.5135603  )
        13           O   tau(  13) = (   0.5066944   0.7415376   1.5135603  )
        14           O   tau(  14) = (   0.2584624   0.4933056   1.5135603  )
        15           O   tau(  15) = (   0.4985141   0.5014859   0.7773880  )
        16           O   tau(  16) = (   0.4985141   0.5014859   1.2555238  )
        17           Sr  tau(  17) = (   0.7482398   0.7454518   0.7706582  )
        18           Sr  tau(  18) = (   0.7482398   0.7454518   1.2622536  )
        19           Sr  tau(  19) = (   0.7441748   0.2558252   0.7725755  )
        20           Sr  tau(  20) = (   0.7441748   0.2558252   1.2603363  )
        21           O   tau(  21) = (   0.7322655   0.0078049   1.5135603  )
        22           O   tau(  22) = (   0.7558175   0.4996027   1.5135603  )
        23           O   tau(  23) = (   0.5003973   0.2441825   1.5135603  )
        24           O   tau(  24) = (   0.7527966   0.4978604   1.0164559  )
        25           O   tau(  25) = (   0.5021396   0.2472034   1.0164559  )
        26           O   tau(  26) = (   0.7517679   0.0000000   1.0164559  )
        27           O   tau(  27) = (   0.0114961   0.4948124   1.7455321  )
        28           O   tau(  28) = (   0.0048226   0.0077944   1.7715967  )
        29           Sr  tau(  29) = (   0.2545482   0.2517602   1.7648669  )
        30           O   tau(  30) = (   0.5048017   0.0015068   1.7786929  )
        31           Co  tau(  31) = (   0.0056869   0.5006215   1.0164559  )
        32           Co  tau(  32) = (   0.0065315   0.4997770   1.5135603  )
        33           Co  tau(  33) = (   0.0061999   0.0064171   1.0164559  )
        34           Co  tau(  34) = (   0.0000000   0.0126169   1.5135603  )
        35           O   tau(  35) = (   0.0114961   0.4948124   1.2815885  )
        36           O   tau(  36) = (   0.0114961   0.4948124   0.7513233  )
        37           O   tau(  37) = (   0.0051979   0.2673486   1.0164559  )
        38           O   tau(  38) = (   0.0130029   0.2478461   1.5135603  )
        39           O   tau(  39) = (   0.0048226   0.0077944   0.7773880  )
        40           O   tau(  40) = (   0.0048226   0.0077944   1.2555238  )
        41           Sr  tau(  41) = (   0.2545482   0.2517602   0.7706582  )
        42           Sr  tau(  42) = (   0.2545482   0.2517602   1.2622536  )
        43           Co  tau(  43) = (   0.4989925   0.0073160   1.5135603  )
        44           Co  tau(  44) = (   0.4998370   0.0064714   1.0164559  )
        45           O   tau(  45) = (   0.5048017   0.0015068   0.7844841  )
        46           O   tau(  46) = (   0.5048017   0.0015068   1.2484277  )
        47           O   tau(  47) = (   0.2621260   0.0059111   1.5135603  )
        48           O   tau(  48) = (   0.2591051   0.0041689   1.0164559  )
        49           H   tau(  49) = (   0.7108228   0.1421646   2.1602013  )

   Crystallographic axes

     site n.     atom                  positions (cryst. coord.)
         1           Sr  tau(   1) = (  0.2508693  0.7491307  0.6943562  )
         2           O   tau(   2) = (  0.4985141  0.5014859  0.6999492  )
         3           Sr  tau(   3) = (  0.7482398  0.7454518  0.6972903  )
         4           Sr  tau(   4) = (  0.7441748  0.2558252  0.6980478  )
         5           Sr  tau(   5) = (  0.2508693  0.7491307  0.5016443  )
         6           Sr  tau(   6) = (  0.2508693  0.7491307  0.3015492  )
         7           Co  tau(   7) = (  0.4998914  0.5001086  0.4015968  )
         8           Co  tau(   8) = (  0.4936915  0.5063085  0.5980003  )
         9           O   tau(   9) = (  0.4988895  0.7610401  0.4015968  )
        10           O   tau(  10) = (  0.2389599  0.5011105  0.4015968  )
        11           O   tau(  11) = (  0.0070918  0.7374880  0.4015968  )
        12           O   tau(  12) = (  0.0088340  0.7405089  0.5980003  )
        13           O   tau(  13) = (  0.5066944  0.7415376  0.5980003  )
        14           O   tau(  14) = (  0.2584624  0.4933056  0.5980003  )
        15           O   tau(  15) = (  0.4985141  0.5014859  0.3071422  )
        16           O   tau(  16) = (  0.4985141  0.5014859  0.4960513  )
        17           Sr  tau(  17) = (  0.7482398  0.7454518  0.3044833  )
        18           Sr  tau(  18) = (  0.7482398  0.7454518  0.4987103  )
        19           Sr  tau(  19) = (  0.7441748  0.2558252  0.3052408  )
        20           Sr  tau(  20) = (  0.7441748  0.2558252  0.4979527  )
        21           O   tau(  21) = (  0.7322655  0.0078049  0.5980003  )
        22           O   tau(  22) = (  0.7558175  0.4996027  0.5980003  )
        23           O   tau(  23) = (  0.5003973  0.2441825  0.5980003  )
        24           O   tau(  24) = (  0.7527966  0.4978604  0.4015968  )
        25           O   tau(  25) = (  0.5021396  0.2472034  0.4015968  )
        26           O   tau(  26) = (  0.7517679  0.0000000  0.4015968  )
        27           O   tau(  27) = (  0.0114961  0.4948124  0.6896512  )
        28           O   tau(  28) = (  0.0048226  0.0077944  0.6999492  )
        29           Sr  tau(  29) = (  0.2545482  0.2517602  0.6972903  )
        30           O   tau(  30) = (  0.5048017  0.0015068  0.7027529  )
        31           Co  tau(  31) = (  0.0056869  0.5006215  0.4015968  )
        32           Co  tau(  32) = (  0.0065315  0.4997770  0.5980003  )
        33           Co  tau(  33) = (  0.0061999  0.0064171  0.4015968  )
        34           Co  tau(  34) = (  0.0000000  0.0126169  0.5980003  )
        35           O   tau(  35) = (  0.0114961  0.4948124  0.5063494  )
        36           O   tau(  36) = (  0.0114961  0.4948124  0.2968442  )
        37           O   tau(  37) = (  0.0051979  0.2673486  0.4015968  )
        38           O   tau(  38) = (  0.0130029  0.2478461  0.5980003  )
        39           O   tau(  39) = (  0.0048226  0.0077944  0.3071422  )
        40           O   tau(  40) = (  0.0048226  0.0077944  0.4960513  )
        41           Sr  tau(  41) = (  0.2545482  0.2517602  0.3044833  )
        42           Sr  tau(  42) = (  0.2545482  0.2517602  0.4987103  )
        43           Co  tau(  43) = (  0.4989925  0.0073160  0.5980003  )
        44           Co  tau(  44) = (  0.4998370  0.0064714  0.4015968  )
        45           O   tau(  45) = (  0.5048017  0.0015068  0.3099459  )
        46           O   tau(  46) = (  0.5048017  0.0015068  0.4932477  )
        47           O   tau(  47) = (  0.2621260  0.0059111  0.5980003  )
        48           O   tau(  48) = (  0.2591051  0.0041689  0.4015968  )
        49           H   tau(  49) = (  0.7108228  0.1421646  0.8534850  )

     number of k points=    10  Gaussian smearing, width (Ry)=  0.0700
                       cart. coord. in units 2pi/alat
        k(    1) = (   0.0000000   0.0000000   0.0000000), wk =   0.1250000
        k(    2) = (   0.0000000   0.2500000   0.0000000), wk =   0.2500000
        k(    3) = (   0.0000000  -0.5000000   0.0000000), wk =   0.1250000
        k(    4) = (   0.2500000   0.2500000   0.0000000), wk =   0.2500000
        k(    5) = (   0.2500000  -0.5000000   0.0000000), wk =   0.2500000
        k(    6) = (  -0.5000000  -0.5000000   0.0000000), wk =   0.1250000
        k(    7) = (   0.2500000   0.0000000   0.0000000), wk =   0.2500000
        k(    8) = (  -0.5000000   0.0000000   0.0000000), wk =   0.1250000
        k(    9) = (  -0.2500000   0.2500000   0.0000000), wk =   0.2500000
        k(   10) = (  -0.5000000   0.2500000   0.0000000), wk =   0.2500000

                       cryst. coord.
        k(    1) = (   0.0000000   0.0000000   0.0000000), wk =   0.1250000
        k(    2) = (   0.0000000   0.2500000   0.0000000), wk =   0.2500000
        k(    3) = (   0.0000000  -0.5000000   0.0000000), wk =   0.1250000
        k(    4) = (   0.2500000   0.2500000   0.0000000), wk =   0.2500000
        k(    5) = (   0.2500000  -0.5000000   0.0000000), wk =   0.2500000
        k(    6) = (  -0.5000000  -0.5000000   0.0000000), wk =   0.1250000
        k(    7) = (   0.2500000   0.0000000   0.0000000), wk =   0.2500000
        k(    8) = (  -0.5000000   0.0000000   0.0000000), wk =   0.1250000
        k(    9) = (  -0.2500000   0.2500000   0.0000000), wk =   0.2500000
        k(   10) = (  -0.5000000   0.2500000   0.0000000), wk =   0.2500000

     Dense  grid:  1474595 G-vectors     FFT dimensions: ( 108, 108, 270)

     Smooth grid:   521381 G-vectors     FFT dimensions: (  75,  75, 192)

     Dynamical RAM for                 wfc:      10.61 MB

     Dynamical RAM for     wfc (w. buffer):      63.63 MB

     Dynamical RAM for           str. fact:       3.75 MB

     Dynamical RAM for           local pot:       0.00 MB

     Dynamical RAM for          nlocal pot:      24.28 MB

     Dynamical RAM for                qrad:       7.03 MB

     Dynamical RAM for          rho,v,vnew:       6.02 MB

     Dynamical RAM for               rhoin:       2.01 MB

     Dynamical RAM for            rho*nmix:      15.00 MB

     Dynamical RAM for           G-vectors:       3.68 MB

     Dynamical RAM for          h,s,v(r/c):       1.32 MB

     Dynamical RAM for          <psi|beta>:       2.29 MB

     Dynamical RAM for                 psi:      21.21 MB

     Dynamical RAM for                hpsi:      21.21 MB

     Dynamical RAM for                spsi:      21.21 MB

     Dynamical RAM for      wfcinit/wfcrot:      34.09 MB

     Dynamical RAM for           addusdens:     100.79 MB

     Estimated static dynamical RAM per process >     120.42 MB

     Estimated max dynamical RAM per process >     236.21 MB

     Estimated total dynamical RAM >      10.72 GB

     Check: negative core charge=   -0.000004

     Initial potential from superposition of free atoms

     starting charge     416.5961, renormalised to     425.0000

     negative rho (up, down):  7.826E-01 0.000E+00
     Starting wfcs are  373 randomized atomic wfcs
     Checking if some PAW data can be deallocated... 
       PAW data deallocated on   20 nodes for type:  2

     total cpu time spent up to now is        9.5 secs

     Self-consistent Calculation

     iteration #  1     ecut=    60.00 Ry     beta= 0.15
     Davidson diagonalization with overlap

---- Real-time Memory Report at c_bands before calling an iterative solver
             0 MiB given to the printing process from OS
             0 MiB allocation reported by mallinfo(arena+hblkhd)
        170484 MiB available memory on the node where the printing process lives
------------------
     ethr =  1.00E-02,  avg # of iterations =  2.0

     negative rho (up, down):  7.716E-01 0.000E+00

     total cpu time spent up to now is       24.0 secs

     total energy              =   -4404.71325990 Ry
     estimated scf accuracy    <      42.19402130 Ry

     iteration #  2     ecut=    60.00 Ry     beta= 0.15
     Davidson diagonalization with overlap

---- Real-time Memory Report at c_bands before calling an iterative solver
             0 MiB given to the printing process from OS
             0 MiB allocation reported by mallinfo(arena+hblkhd)
        170701 MiB available memory on the node where the printing process lives
------------------
     ethr =  9.93E-03,  avg # of iterations =  1.0

     negative rho (up, down):  7.531E-01 0.000E+00

     total cpu time spent up to now is       36.4 secs

     total energy              =   -4400.03792213 Ry
     estimated scf accuracy    <      26.51775990 Ry

     iteration #  3     ecut=    60.00 Ry     beta= 0.15
     Davidson diagonalization with overlap

---- Real-time Memory Report at c_bands before calling an iterative solver
             0 MiB given to the printing process from OS
             0 MiB allocation reported by mallinfo(arena+hblkhd)
        169960 MiB available memory on the node where the printing process lives
------------------
     ethr =  6.24E-03,  avg # of iterations =  2.0

     negative rho (up, down):  7.544E-01 0.000E+00

     total cpu time spent up to now is       49.9 secs

     total energy              =   -4402.38163544 Ry
     estimated scf accuracy    <      49.10283274 Ry

     iteration #  4     ecut=    60.00 Ry     beta= 0.15
     Davidson diagonalization with overlap

---- Real-time Memory Report at c_bands before calling an iterative solver
             0 MiB given to the printing process from OS
             0 MiB allocation reported by mallinfo(arena+hblkhd)
        169826 MiB available memory on the node where the printing process lives
------------------
     ethr =  6.24E-03,  avg # of iterations =  1.0

     negative rho (up, down):  7.410E-01 0.000E+00

     total cpu time spent up to now is       62.4 secs

     total energy              =   -4401.64029380 Ry
     estimated scf accuracy    <      29.42724048 Ry

     iteration #  5     ecut=    60.00 Ry     beta= 0.15
     Davidson diagonalization with overlap

---- Real-time Memory Report at c_bands before calling an iterative solver
             0 MiB given to the printing process from OS
             0 MiB allocation reported by mallinfo(arena+hblkhd)
        169810 MiB available memory on the node where the printing process lives
------------------
     ethr =  6.24E-03,  avg # of iterations =  1.0

     negative rho (up, down):  7.473E-01 0.000E+00

     total cpu time spent up to now is       74.7 secs

     total energy              =   -4399.78296646 Ry
     estimated scf accuracy    <      44.06615889 Ry

     iteration #  6     ecut=    60.00 Ry     beta= 0.15
     Davidson diagonalization with overlap

---- Real-time Memory Report at c_bands before calling an iterative solver
             0 MiB given to the printing process from OS
             0 MiB allocation reported by mallinfo(arena+hblkhd)
        169788 MiB available memory on the node where the printing process lives
------------------
     ethr =  6.24E-03,  avg # of iterations =  1.0

     negative rho (up, down):  7.424E-01 0.000E+00

     total cpu time spent up to now is       86.8 secs

     total energy              =   -4400.65526541 Ry
     estimated scf accuracy    <      12.00299759 Ry

     iteration #  7     ecut=    60.00 Ry     beta= 0.15
     Davidson diagonalization with overlap

---- Real-time Memory Report at c_bands before calling an iterative solver
             0 MiB given to the printing process from OS
             0 MiB allocation reported by mallinfo(arena+hblkhd)
        169772 MiB available memory on the node where the printing process lives
------------------
     ethr =  2.82E-03,  avg # of iterations =  1.1

     negative rho (up, down):  7.445E-01 0.000E+00

     total cpu time spent up to now is       98.9 secs

     total energy              =   -4400.82482823 Ry
     estimated scf accuracy    <       4.00571216 Ry

     iteration #  8     ecut=    60.00 Ry     beta= 0.15
     Davidson diagonalization with overlap

---- Real-time Memory Report at c_bands before calling an iterative solver
             0 MiB given to the printing process from OS
             0 MiB allocation reported by mallinfo(arena+hblkhd)
        169748 MiB available memory on the node where the printing process lives
------------------
     ethr =  9.43E-04,  avg # of iterations =  1.9

     negative rho (up, down):  7.539E-01 0.000E+00

     total cpu time spent up to now is      111.3 secs

     total energy              =   -4400.31786975 Ry
     estimated scf accuracy    <       3.31065491 Ry

     iteration #  9     ecut=    60.00 Ry     beta= 0.15
     Davidson diagonalization with overlap

---- Real-time Memory Report at c_bands before calling an iterative solver
             0 MiB given to the printing process from OS
             0 MiB allocation reported by mallinfo(arena+hblkhd)
        169733 MiB available memory on the node where the printing process lives
------------------
     ethr =  7.79E-04,  avg # of iterations =  4.5

     negative rho (up, down):  7.754E-01 0.000E+00

     total cpu time spent up to now is      126.2 secs

     total energy              =   -4399.74673701 Ry
     estimated scf accuracy    <      44.87894987 Ry

     iteration # 10     ecut=    60.00 Ry     beta= 0.15
     Davidson diagonalization with overlap

---- Real-time Memory Report at c_bands before calling an iterative solver
             0 MiB given to the printing process from OS
             0 MiB allocation reported by mallinfo(arena+hblkhd)
        169610 MiB available memory on the node where the printing process lives
------------------
     ethr =  7.79E-04,  avg # of iterations = 10.0

     negative rho (up, down):  7.775E-01 0.000E+00

     total cpu time spent up to now is      144.4 secs

     total energy              =   -4399.86906686 Ry
     estimated scf accuracy    <      11.63160882 Ry

     iteration # 11     ecut=    60.00 Ry     beta= 0.15
     Davidson diagonalization with overlap

---- Real-time Memory Report at c_bands before calling an iterative solver
             0 MiB given to the printing process from OS
             0 MiB allocation reported by mallinfo(arena+hblkhd)
        169250 MiB available memory on the node where the printing process lives
------------------
     ethr =  7.79E-04,  avg # of iterations =  1.0

     negative rho (up, down):  7.810E-01 0.000E+00

     total cpu time spent up to now is      156.1 secs

     total energy              =   -4400.12110694 Ry
     estimated scf accuracy    <       1.56982422 Ry

     iteration # 12     ecut=    60.00 Ry     beta= 0.15
     Davidson diagonalization with overlap

---- Real-time Memory Report at c_bands before calling an iterative solver
             0 MiB given to the printing process from OS
             0 MiB allocation reported by mallinfo(arena+hblkhd)
        169262 MiB available memory on the node where the printing process lives
------------------
     ethr =  3.69E-04,  avg # of iterations =  1.1

     negative rho (up, down):  7.886E-01 0.000E+00

     total cpu time spent up to now is      168.0 secs

     total energy              =   -4400.11087205 Ry
     estimated scf accuracy    <       0.82054807 Ry

     iteration # 13     ecut=    60.00 Ry     beta= 0.15
     Davidson diagonalization with overlap

---- Real-time Memory Report at c_bands before calling an iterative solver
             0 MiB given to the printing process from OS
             0 MiB allocation reported by mallinfo(arena+hblkhd)
        169284 MiB available memory on the node where the printing process lives
------------------
     ethr =  1.93E-04,  avg # of iterations =  3.7

     negative rho (up, down):  7.988E-01 0.000E+00

     total cpu time spent up to now is      182.5 secs

     total energy              =   -4400.11244950 Ry
     estimated scf accuracy    <       1.81427052 Ry

     iteration # 14     ecut=    60.00 Ry     beta= 0.15
     Davidson diagonalization with overlap

---- Real-time Memory Report at c_bands before calling an iterative solver
             0 MiB given to the printing process from OS
             0 MiB allocation reported by mallinfo(arena+hblkhd)
        169254 MiB available memory on the node where the printing process lives
------------------
     ethr =  1.93E-04,  avg # of iterations =  3.4

     negative rho (up, down):  8.033E-01 0.000E+00

     total cpu time spent up to now is      196.1 secs

     total energy              =   -4400.01877738 Ry
     estimated scf accuracy    <       1.93920138 Ry

     iteration # 15     ecut=    60.00 Ry     beta= 0.15
     Davidson diagonalization with overlap

---- Real-time Memory Report at c_bands before calling an iterative solver
             0 MiB given to the printing process from OS
             0 MiB allocation reported by mallinfo(arena+hblkhd)
        169252 MiB available memory on the node where the printing process lives
------------------
     ethr =  1.93E-04,  avg # of iterations =  3.8

     negative rho (up, down):  8.077E-01 0.000E+00

     total cpu time spent up to now is      209.8 secs

     total energy              =   -4400.05210443 Ry
     estimated scf accuracy    <       0.38476117 Ry

     iteration # 16     ecut=    60.00 Ry     beta= 0.15
     Davidson diagonalization with overlap

---- Real-time Memory Report at c_bands before calling an iterative solver
             0 MiB given to the printing process from OS
             0 MiB allocation reported by mallinfo(arena+hblkhd)
        169248 MiB available memory on the node where the printing process lives
------------------
     ethr =  9.05E-05,  avg # of iterations = 10.1

     negative rho (up, down):  8.123E-01 0.000E+00

     total cpu time spent up to now is      226.7 secs

     total energy              =   -4400.03046371 Ry
     estimated scf accuracy    <       0.31751584 Ry

     iteration # 17     ecut=    60.00 Ry     beta= 0.15
     Davidson diagonalization with overlap

---- Real-time Memory Report at c_bands before calling an iterative solver
             0 MiB given to the printing process from OS
             0 MiB allocation reported by mallinfo(arena+hblkhd)
        169239 MiB available memory on the node where the printing process lives
------------------
     ethr =  7.47E-05,  avg # of iterations =  3.5

     negative rho (up, down):  8.183E-01 0.000E+00

     total cpu time spent up to now is      240.5 secs

     total energy              =   -4399.95609137 Ry
     estimated scf accuracy    <       0.27192963 Ry

     iteration # 18     ecut=    60.00 Ry     beta= 0.15
     Davidson diagonalization with overlap

---- Real-time Memory Report at c_bands before calling an iterative solver
             0 MiB given to the printing process from OS
             0 MiB allocation reported by mallinfo(arena+hblkhd)
        169223 MiB available memory on the node where the printing process lives
------------------
     c_bands:  2 eigenvalues not converged
     ethr =  6.40E-05,  avg # of iterations = 13.0

     negative rho (up, down):  8.200E-01 0.000E+00

     total cpu time spent up to now is      259.1 secs

     total energy              =   -4399.94823233 Ry
     estimated scf accuracy    <       0.32570253 Ry

     iteration # 19     ecut=    60.00 Ry     beta= 0.15
     Davidson diagonalization with overlap

---- Real-time Memory Report at c_bands before calling an iterative solver
             0 MiB given to the printing process from OS
             0 MiB allocation reported by mallinfo(arena+hblkhd)
        169155 MiB available memory on the node where the printing process lives
------------------
     ethr =  6.40E-05,  avg # of iterations =  2.6

     negative rho (up, down):  8.197E-01 0.000E+00

     total cpu time spent up to now is      272.3 secs

     total energy              =   -4399.95068289 Ry
     estimated scf accuracy    <       0.11650252 Ry

     iteration # 20     ecut=    60.00 Ry     beta= 0.15
     Davidson diagonalization with overlap

---- Real-time Memory Report at c_bands before calling an iterative solver
             0 MiB given to the printing process from OS
             0 MiB allocation reported by mallinfo(arena+hblkhd)
        169160 MiB available memory on the node where the printing process lives
------------------
     ethr =  2.74E-05,  avg # of iterations =  6.0

     negative rho (up, down):  8.185E-01 0.000E+00

     total cpu time spent up to now is      287.6 secs

     total energy              =   -4399.93863320 Ry
     estimated scf accuracy    <       0.09374552 Ry

     iteration # 21     ecut=    60.00 Ry     beta= 0.15
     Davidson diagonalization with overlap

---- Real-time Memory Report at c_bands before calling an iterative solver
             0 MiB given to the printing process from OS
             0 MiB allocation reported by mallinfo(arena+hblkhd)
        169159 MiB available memory on the node where the printing process lives
------------------
     ethr =  2.21E-05,  avg # of iterations =  6.9

     negative rho (up, down):  8.134E-01 0.000E+00

     total cpu time spent up to now is      303.3 secs

     total energy              =   -4399.92524129 Ry
     estimated scf accuracy    <       0.06541244 Ry

     iteration # 22     ecut=    60.00 Ry     beta= 0.15
     Davidson diagonalization with overlap

---- Real-time Memory Report at c_bands before calling an iterative solver
             0 MiB given to the printing process from OS
             0 MiB allocation reported by mallinfo(arena+hblkhd)
        169162 MiB available memory on the node where the printing process lives
------------------
     c_bands:  1 eigenvalues not converged
     ethr =  1.54E-05,  avg # of iterations = 12.5

     negative rho (up, down):  8.054E-01 0.000E+00

     total cpu time spent up to now is      322.2 secs

     total energy              =   -4399.92483663 Ry
     estimated scf accuracy    <       0.02913696 Ry

     iteration # 23     ecut=    60.00 Ry     beta= 0.15
     Davidson diagonalization with overlap

---- Real-time Memory Report at c_bands before calling an iterative solver
             0 MiB given to the printing process from OS
             0 MiB allocation reported by mallinfo(arena+hblkhd)
        169125 MiB available memory on the node where the printing process lives
------------------
     c_bands:  1 eigenvalues not converged
     ethr =  6.86E-06,  avg # of iterations =  8.4

     negative rho (up, down):  7.996E-01 0.000E+00

     total cpu time spent up to now is      337.4 secs

     total energy              =   -4399.92273236 Ry
     estimated scf accuracy    <       0.01943827 Ry

     iteration # 24     ecut=    60.00 Ry     beta= 0.15
     Davidson diagonalization with overlap

---- Real-time Memory Report at c_bands before calling an iterative solver
             0 MiB given to the printing process from OS
             0 MiB allocation reported by mallinfo(arena+hblkhd)
        169106 MiB available memory on the node where the printing process lives
------------------
     ethr =  4.57E-06,  avg # of iterations =  9.4

     negative rho (up, down):  7.971E-01 0.000E+00

     total cpu time spent up to now is      354.6 secs

     total energy              =   -4399.92269230 Ry
     estimated scf accuracy    <       0.01119301 Ry

     iteration # 25     ecut=    60.00 Ry     beta= 0.15
     Davidson diagonalization with overlap

---- Real-time Memory Report at c_bands before calling an iterative solver
             0 MiB given to the printing process from OS
             0 MiB allocation reported by mallinfo(arena+hblkhd)
        169062 MiB available memory on the node where the printing process lives
------------------
     ethr =  2.63E-06,  avg # of iterations =  2.2

     negative rho (up, down):  7.962E-01 0.000E+00

     total cpu time spent up to now is      368.0 secs

     total energy              =   -4399.92210256 Ry
     estimated scf accuracy    <       0.00869464 Ry

     iteration # 26     ecut=    60.00 Ry     beta= 0.15
     Davidson diagonalization with overlap

---- Real-time Memory Report at c_bands before calling an iterative solver
             0 MiB given to the printing process from OS
             0 MiB allocation reported by mallinfo(arena+hblkhd)
        169077 MiB available memory on the node where the printing process lives
------------------
     ethr =  2.05E-06,  avg # of iterations =  6.1

     negative rho (up, down):  7.950E-01 0.000E+00

     total cpu time spent up to now is      383.2 secs

     total energy              =   -4399.92181637 Ry
     estimated scf accuracy    <       0.00539713 Ry

     iteration # 27     ecut=    60.00 Ry     beta= 0.15
     Davidson diagonalization with overlap

---- Real-time Memory Report at c_bands before calling an iterative solver
             0 MiB given to the printing process from OS
             0 MiB allocation reported by mallinfo(arena+hblkhd)
        169081 MiB available memory on the node where the printing process lives
------------------
     ethr =  1.27E-06,  avg # of iterations =  4.3

     negative rho (up, down):  7.959E-01 0.000E+00

     total cpu time spent up to now is      397.8 secs

     total energy              =   -4399.92176113 Ry
     estimated scf accuracy    <       0.00300203 Ry

     iteration # 28     ecut=    60.00 Ry     beta= 0.15
     Davidson diagonalization with overlap

---- Real-time Memory Report at c_bands before calling an iterative solver
             0 MiB given to the printing process from OS
             0 MiB allocation reported by mallinfo(arena+hblkhd)
        169062 MiB available memory on the node where the printing process lives
------------------
     ethr =  7.06E-07,  avg # of iterations =  4.1

     negative rho (up, down):  7.935E-01 0.000E+00

     total cpu time spent up to now is      412.4 secs

     total energy              =   -4399.92148263 Ry
     estimated scf accuracy    <       0.00171553 Ry

     iteration # 29     ecut=    60.00 Ry     beta= 0.15
     Davidson diagonalization with overlap

---- Real-time Memory Report at c_bands before calling an iterative solver
             0 MiB given to the printing process from OS
             0 MiB allocation reported by mallinfo(arena+hblkhd)
        169068 MiB available memory on the node where the printing process lives
------------------
     c_bands:  1 eigenvalues not converged
     ethr =  4.04E-07,  avg # of iterations =  9.9

     negative rho (up, down):  7.943E-01 0.000E+00

     total cpu time spent up to now is      430.1 secs

     total energy              =   -4399.92146273 Ry
     estimated scf accuracy    <       0.00065445 Ry

     iteration # 30     ecut=    60.00 Ry     beta= 0.15
     Davidson diagonalization with overlap

---- Real-time Memory Report at c_bands before calling an iterative solver
             0 MiB given to the printing process from OS
             0 MiB allocation reported by mallinfo(arena+hblkhd)
        169054 MiB available memory on the node where the printing process lives
------------------
     c_bands:  1 eigenvalues not converged
     ethr =  1.54E-07,  avg # of iterations =  8.1

     negative rho (up, down):  7.943E-01 0.000E+00

     total cpu time spent up to now is      447.0 secs

     total energy              =   -4399.92144613 Ry
     estimated scf accuracy    <       0.00025890 Ry

     iteration # 31     ecut=    60.00 Ry     beta= 0.15
     Davidson diagonalization with overlap

---- Real-time Memory Report at c_bands before calling an iterative solver
             0 MiB given to the printing process from OS
             0 MiB allocation reported by mallinfo(arena+hblkhd)
        169084 MiB available memory on the node where the printing process lives
------------------
     ethr =  6.09E-08,  avg # of iterations =  2.2

     negative rho (up, down):  7.936E-01 0.000E+00

     total cpu time spent up to now is      461.3 secs

     total energy              =   -4399.92145585 Ry
     estimated scf accuracy    <       0.00011846 Ry

     iteration # 32     ecut=    60.00 Ry     beta= 0.15
     Davidson diagonalization with overlap

---- Real-time Memory Report at c_bands before calling an iterative solver
             0 MiB given to the printing process from OS
             0 MiB allocation reported by mallinfo(arena+hblkhd)
        169090 MiB available memory on the node where the printing process lives
------------------
     ethr =  2.79E-08,  avg # of iterations =  2.1

     negative rho (up, down):  7.932E-01 0.000E+00

     total cpu time spent up to now is      474.6 secs

     total energy              =   -4399.92145955 Ry
     estimated scf accuracy    <       0.00007784 Ry

     iteration # 33     ecut=    60.00 Ry     beta= 0.15
     Davidson diagonalization with overlap

---- Real-time Memory Report at c_bands before calling an iterative solver
             0 MiB given to the printing process from OS
             0 MiB allocation reported by mallinfo(arena+hblkhd)
        169098 MiB available memory on the node where the printing process lives
------------------
     ethr =  1.83E-08,  avg # of iterations =  2.1

     negative rho (up, down):  7.927E-01 0.000E+00

     total cpu time spent up to now is      488.0 secs

     total energy              =   -4399.92146718 Ry
     estimated scf accuracy    <       0.00005740 Ry

     iteration # 34     ecut=    60.00 Ry     beta= 0.15
     Davidson diagonalization with overlap

---- Real-time Memory Report at c_bands before calling an iterative solver
             0 MiB given to the printing process from OS
             0 MiB allocation reported by mallinfo(arena+hblkhd)
        169103 MiB available memory on the node where the printing process lives
------------------
     ethr =  1.35E-08,  avg # of iterations =  3.0

     negative rho (up, down):  7.926E-01 0.000E+00

     total cpu time spent up to now is      501.6 secs

     total energy              =   -4399.92146961 Ry
     estimated scf accuracy    <       0.00002509 Ry

     iteration # 35     ecut=    60.00 Ry     beta= 0.15
     Davidson diagonalization with overlap

---- Real-time Memory Report at c_bands before calling an iterative solver
             0 MiB given to the printing process from OS
             0 MiB allocation reported by mallinfo(arena+hblkhd)
        169092 MiB available memory on the node where the printing process lives
------------------
     ethr =  5.90E-09,  avg # of iterations =  3.1

     negative rho (up, down):  7.925E-01 0.000E+00

     total cpu time spent up to now is      515.5 secs

     total energy              =   -4399.92147240 Ry
     estimated scf accuracy    <       0.00001717 Ry

     iteration # 36     ecut=    60.00 Ry     beta= 0.15
     Davidson diagonalization with overlap

---- Real-time Memory Report at c_bands before calling an iterative solver
             0 MiB given to the printing process from OS
             0 MiB allocation reported by mallinfo(arena+hblkhd)
        169095 MiB available memory on the node where the printing process lives
------------------
     ethr =  4.04E-09,  avg # of iterations =  1.8

     negative rho (up, down):  7.925E-01 0.000E+00

     total cpu time spent up to now is      528.6 secs

     total energy              =   -4399.92147483 Ry
     estimated scf accuracy    <       0.00000801 Ry

     iteration # 37     ecut=    60.00 Ry     beta= 0.15
     Davidson diagonalization with overlap

---- Real-time Memory Report at c_bands before calling an iterative solver
             0 MiB given to the printing process from OS
             0 MiB allocation reported by mallinfo(arena+hblkhd)
        169090 MiB available memory on the node where the printing process lives
------------------
     ethr =  1.88E-09,  avg # of iterations =  2.9

     negative rho (up, down):  7.924E-01 0.000E+00

     total cpu time spent up to now is      542.5 secs

     total energy              =   -4399.92147505 Ry
     estimated scf accuracy    <       0.00000351 Ry

     iteration # 38     ecut=    60.00 Ry     beta= 0.15
     Davidson diagonalization with overlap

---- Real-time Memory Report at c_bands before calling an iterative solver
             0 MiB given to the printing process from OS
             0 MiB allocation reported by mallinfo(arena+hblkhd)
        169086 MiB available memory on the node where the printing process lives
------------------
     ethr =  8.25E-10,  avg # of iterations =  2.4

     negative rho (up, down):  7.924E-01 0.000E+00

     total cpu time spent up to now is      556.0 secs

     total energy              =   -4399.92147491 Ry
     estimated scf accuracy    <       0.00000167 Ry

     iteration # 39     ecut=    60.00 Ry     beta= 0.15
     Davidson diagonalization with overlap

---- Real-time Memory Report at c_bands before calling an iterative solver
             0 MiB given to the printing process from OS
             0 MiB allocation reported by mallinfo(arena+hblkhd)
        169089 MiB available memory on the node where the printing process lives
------------------
     ethr =  3.93E-10,  avg # of iterations =  2.6

     negative rho (up, down):  7.924E-01 0.000E+00

     total cpu time spent up to now is      569.7 secs

     total energy              =   -4399.92147475 Ry
     estimated scf accuracy    <       0.00000118 Ry

     iteration # 40     ecut=    60.00 Ry     beta= 0.15
     Davidson diagonalization with overlap

---- Real-time Memory Report at c_bands before calling an iterative solver
             0 MiB given to the printing process from OS
             0 MiB allocation reported by mallinfo(arena+hblkhd)
        169092 MiB available memory on the node where the printing process lives
------------------
     ethr =  2.77E-10,  avg # of iterations =  2.1

     negative rho (up, down):  7.924E-01 0.000E+00

     total cpu time spent up to now is      582.9 secs

     total energy              =   -4399.92147478 Ry
     estimated scf accuracy    <       0.00000091 Ry

     iteration # 41     ecut=    60.00 Ry     beta= 0.15
     Davidson diagonalization with overlap

---- Real-time Memory Report at c_bands before calling an iterative solver
             0 MiB given to the printing process from OS
             0 MiB allocation reported by mallinfo(arena+hblkhd)
        169092 MiB available memory on the node where the printing process lives
------------------
     ethr =  2.15E-10,  avg # of iterations =  1.7

     negative rho (up, down):  7.924E-01 0.000E+00

     total cpu time spent up to now is      596.1 secs

     total energy              =   -4399.92147501 Ry
     estimated scf accuracy    <       0.00000065 Ry

     iteration # 42     ecut=    60.00 Ry     beta= 0.15
     Davidson diagonalization with overlap

---- Real-time Memory Report at c_bands before calling an iterative solver
             0 MiB given to the printing process from OS
             0 MiB allocation reported by mallinfo(arena+hblkhd)
        169089 MiB available memory on the node where the printing process lives
------------------
     ethr =  1.52E-10,  avg # of iterations =  2.4

     negative rho (up, down):  7.924E-01 0.000E+00

     total cpu time spent up to now is      609.6 secs

     total energy              =   -4399.92147510 Ry
     estimated scf accuracy    <       0.00000025 Ry

     iteration # 43     ecut=    60.00 Ry     beta= 0.15
     Davidson diagonalization with overlap

---- Real-time Memory Report at c_bands before calling an iterative solver
             0 MiB given to the printing process from OS
             0 MiB allocation reported by mallinfo(arena+hblkhd)
        169093 MiB available memory on the node where the printing process lives
------------------
     ethr =  5.92E-11,  avg # of iterations =  2.9

     negative rho (up, down):  7.924E-01 0.000E+00

     total cpu time spent up to now is      623.6 secs

     total energy              =   -4399.92147518 Ry
     estimated scf accuracy    <       0.00000012 Ry

     iteration # 44     ecut=    60.00 Ry     beta= 0.15
     Davidson diagonalization with overlap

---- Real-time Memory Report at c_bands before calling an iterative solver
             0 MiB given to the printing process from OS
             0 MiB allocation reported by mallinfo(arena+hblkhd)
        169095 MiB available memory on the node where the printing process lives
------------------
     ethr =  2.87E-11,  avg # of iterations =  3.3

     negative rho (up, down):  7.924E-01 0.000E+00

     total cpu time spent up to now is      637.6 secs

     total energy              =   -4399.92147519 Ry
     estimated scf accuracy    <       0.00000008 Ry

     iteration # 45     ecut=    60.00 Ry     beta= 0.15
     Davidson diagonalization with overlap

---- Real-time Memory Report at c_bands before calling an iterative solver
             0 MiB given to the printing process from OS
             0 MiB allocation reported by mallinfo(arena+hblkhd)
        169094 MiB available memory on the node where the printing process lives
------------------
     ethr =  1.84E-11,  avg # of iterations =  2.8

     negative rho (up, down):  7.924E-01 0.000E+00

     total cpu time spent up to now is      651.3 secs

     total energy              =   -4399.92147520 Ry
     estimated scf accuracy    <       0.00000004 Ry

     iteration # 46     ecut=    60.00 Ry     beta= 0.15
     Davidson diagonalization with overlap

---- Real-time Memory Report at c_bands before calling an iterative solver
             0 MiB given to the printing process from OS
             0 MiB allocation reported by mallinfo(arena+hblkhd)
        169093 MiB available memory on the node where the printing process lives
------------------
     ethr =  9.60E-12,  avg # of iterations =  3.2

     negative rho (up, down):  7.924E-01 0.000E+00

     total cpu time spent up to now is      666.4 secs

     total energy              =   -4399.92147520 Ry
     estimated scf accuracy    <       0.00000001 Ry

     iteration # 47     ecut=    60.00 Ry     beta= 0.15
     Davidson diagonalization with overlap

---- Real-time Memory Report at c_bands before calling an iterative solver
             0 MiB given to the printing process from OS
             0 MiB allocation reported by mallinfo(arena+hblkhd)
        169089 MiB available memory on the node where the printing process lives
------------------
     ethr =  3.16E-12,  avg # of iterations =  2.3

     negative rho (up, down):  7.924E-01 0.000E+00

     total cpu time spent up to now is      679.7 secs

     End of self-consistent calculation

          k = 0.0000 0.0000 0.0000 ( 65197 PWs)   bands (ev):

   -92.7304 -92.6764 -92.5841 -92.5367 -92.4780 -92.4368 -92.4193 -92.2976
   -56.0839 -56.0631 -55.9415 -55.9310 -55.9235 -55.9179 -55.8807 -55.8533
   -55.8379 -55.8363 -55.8274 -55.7853 -55.7684 -55.7292 -55.7104 -55.6782
   -55.6714 -55.6250 -55.6234 -55.6220 -55.6135 -55.5724 -55.5497 -55.4644
   -31.3061 -31.2870 -31.1442 -31.1295 -31.0581 -30.9887 -30.8395 -30.7534
   -29.8779 -29.8359 -29.8085 -29.7004 -15.1107 -15.0702 -14.9863 -14.8566
   -14.6653 -14.5433 -14.2480 -14.2318 -14.2006 -14.1526 -14.1097 -14.0975
   -14.0870 -14.0698 -14.0543 -13.9996 -13.9606 -13.8085 -13.6332 -13.5969
   -13.5657 -13.5366 -13.5191 -13.4631 -13.4303 -13.3504 -13.2790 -13.1552
   -13.1386 -13.1343 -13.1127 -13.1034 -13.0845 -13.0400 -13.0257 -13.0182
   -12.9806 -12.9523 -12.9360 -12.9264 -12.9054 -12.8826 -12.7994 -12.7900
   -12.7832 -12.6896 -12.6487 -12.6334 -12.3708 -12.2251 -12.0535 -11.9863
   -11.8916 -11.8176 -11.8061 -11.7839 -11.7663 -11.7024 -11.6846 -11.6508
   -11.6206 -11.5093 -11.4297 -11.4262  -2.9716  -2.7389  -2.5095  -2.3629
    -2.2995  -2.1572  -1.8503  -1.8362  -1.8161  -1.7328  -1.7128  -1.6448
    -1.6288  -1.5872  -1.5433  -1.3615  -1.1383  -1.1083  -0.9602  -0.9459
    -0.9015  -0.8803  -0.8365  -0.8207  -0.7640  -0.7366  -0.6642  -0.6524
    -0.5763  -0.4445  -0.4316  -0.4037  -0.3220  -0.3111  -0.2993  -0.2307
    -0.1587  -0.1122  -0.0626  -0.0339   0.0266   0.1018   0.1508   0.1730
     0.1820   0.4393   0.4558   0.6275   0.6943   0.7608   0.8021   0.8950
     0.9074   0.9239   0.9926   1.0192   1.0540   1.1120   1.2440   1.3009
     1.3216   1.3418   1.3552   1.4203   1.4921   1.5953   1.6088   1.6728
     1.6865   1.7282   1.7466   1.7522   1.8113   1.8641   1.8760   1.9106
     1.9497   1.9962   2.1268   2.2114   2.2544   2.2737   2.4224   2.4391
     2.4812   2.4838   2.5894   2.6281   2.6522   2.6714   2.6860   2.7411
     2.7901   2.8788   2.9096   2.9225   2.9281   2.9968   2.9993   3.0241
     3.0321   3.0399   3.0544   3.0595   3.0723   3.0777   3.0921   3.0998
     3.1069   3.1272   3.1484   3.1537   3.1657   3.2023   3.3067   3.4024
     4.0801   4.4008   4.7432   4.8516   5.0082   5.8179   5.9136   5.9645
     5.9823   6.2851   6.3320   6.4682   6.4772   6.7425   6.9901   7.0791
     7.1906   7.2880   7.4260   7.5989   7.6381   7.6631   7.6847   7.9236
     7.9459   8.0944   8.1236   8.1843   8.3952   8.5967   8.8150   8.8641

     occupation numbers 
     1.0000   1.0000   1.0000   1.0000   1.0000   1.0000   1.0000   1.0000
     1.0000   1.0000   1.0000   1.0000   1.0000   1.0000   1.0000   1.0000
     1.0000   1.0000   1.0000   1.0000   1.0000   1.0000   1.0000   1.0000
     1.0000   1.0000   1.0000   1.0000   1.0000   1.0000   1.0000   1.0000
     1.0000   1.0000   1.0000   1.0000   1.0000   1.0000   1.0000   1.0000
     1.0000   1.0000   1.0000   1.0000   1.0000   1.0000   1.0000   1.0000
     1.0000   1.0000   1.0000   1.0000   1.0000   1.0000   1.0000   1.0000
     1.0000   1.0000   1.0000   1.0000   1.0000   1.0000   1.0000   1.0000
     1.0000   1.0000   1.0000   1.0000   1.0000   1.0000   1.0000   1.0000
     1.0000   1.0000   1.0000   1.0000   1.0000   1.0000   1.0000   1.0000
     1.0000   1.0000   1.0000   1.0000   1.0000   1.0000   1.0000   1.0000
     1.0000   1.0000   1.0000   1.0000   1.0000   1.0000   1.0000   1.0000
     1.0000   1.0000   1.0000   1.0000   1.0000   1.0000   1.0000   1.0000
     1.0000   1.0000   1.0000   1.0000   1.0000   1.0000   1.0000   1.0000
     1.0000   1.0000   1.0000   1.0000   1.0000   1.0000   1.0000   1.0000
     1.0000   1.0000   1.0000   1.0000   1.0000   1.0000   1.0000   1.0000
     1.0000   1.0000   1.0000   1.0000   1.0000   1.0000   1.0000   1.0000
     1.0000   1.0000   1.0000   1.0000   1.0000   1.0000   1.0000   1.0000
     1.0000   1.0000   1.0000   1.0000   1.0000   1.0000   1.0000   1.0000
     1.0000   1.0000   1.0000   1.0000   0.9999   0.9999   0.9999   0.9998
     0.9998   0.9998   0.9997   0.9996   0.9996   0.9994   0.9989   0.9985
     0.9983   0.9982   0.9980   0.9973   0.9963   0.9943   0.9939   0.9921
     0.9916   0.9901   0.9894   0.9891   0.9863   0.9833   0.9826   0.9803
     0.9773   0.9733   0.9589   0.9466   0.9393   0.9358   0.9031   0.8988
     0.8872   0.8865   0.8535   0.8399   0.8310   0.8237   0.8181   0.7956
     0.7744   0.7329   0.7177   0.7112   0.7083   0.6723   0.6710   0.6576
     0.6532   0.6489   0.6409   0.6381   0.6309   0.6279   0.6198   0.6154
     0.6114   0.5998   0.5876   0.5845   0.5775   0.5562   0.4945   0.4381
     0.1226   0.0507   0.0159   0.0105   0.0055   0.0001   0.0001   0.0000
     0.0000   0.0000   0.0000   0.0000   0.0000   0.0000   0.0000   0.0000
     0.0000   0.0000   0.0000   0.0000   0.0000   0.0000   0.0000   0.0000
     0.0000   0.0000   0.0000   0.0000   0.0000   0.0000   0.0000   0.0000

          k = 0.0000 0.2500 0.0000 ( 65257 PWs)   bands (ev):

   -92.7304 -92.6764 -92.5841 -92.5367 -92.4780 -92.4368 -92.4193 -92.2976
   -56.0839 -56.0631 -55.9415 -55.9310 -55.9235 -55.9179 -55.8807 -55.8533
   -55.8379 -55.8363 -55.8274 -55.7853 -55.7684 -55.7292 -55.7104 -55.6782
   -55.6714 -55.6250 -55.6234 -55.6220 -55.6135 -55.5724 -55.5497 -55.4644
   -31.3059 -31.2869 -31.1444 -31.1294 -31.0582 -30.9885 -30.8397 -30.7534
   -29.8773 -29.8356 -29.8091 -29.7008 -15.0739 -15.0441 -14.9611 -14.8273
   -14.7067 -14.5328 -14.3943 -14.2144 -14.1826 -14.1600 -14.1276 -14.0754
   -14.0628 -14.0518 -14.0356 -13.9762 -13.8797 -13.8403 -13.6766 -13.6572
   -13.6077 -13.5714 -13.5295 -13.4821 -13.4353 -13.3716 -13.3359 -13.2602
   -13.2100 -13.1760 -13.1380 -13.1272 -13.0997 -13.0134 -12.9890 -12.9622
   -12.9438 -12.9252 -12.9120 -12.8989 -12.8887 -12.8264 -12.7874 -12.7003
   -12.6619 -12.6468 -12.6309 -12.5542 -12.4321 -12.2763 -12.1078 -12.0498
   -11.8571 -11.8145 -11.7859 -11.7580 -11.7417 -11.6944 -11.6827 -11.6599
   -11.6265 -11.5235 -11.4713 -11.4608  -2.8363  -2.6146  -2.4772  -2.2952
    -2.2515  -2.0876  -1.8690  -1.7836  -1.7706  -1.7140  -1.6106  -1.5947
    -1.5614  -1.5343  -1.4906  -1.2925  -1.1644  -1.1527  -1.0763  -1.0664
    -0.9618  -0.9310  -0.8728  -0.8481  -0.8074  -0.7445  -0.7180  -0.6856
    -0.6530  -0.6359  -0.6039  -0.5295  -0.4792  -0.4164  -0.3020  -0.2849
    -0.2402  -0.1207  -0.0862  -0.0237   0.0254   0.0866   0.1001   0.1309
     0.1894   0.4874   0.5755   0.6065   0.6945   0.7419   0.7615   0.8798
     0.8981   0.9951   1.0193   1.0462   1.1606   1.2521   1.2775   1.2999
     1.3176   1.3446   1.4048   1.4320   1.4602   1.5075   1.5422   1.5721
     1.6538   1.6863   1.7265   1.7765   1.8326   1.8785   1.9005   1.9238
     1.9457   2.0338   2.1633   2.2351   2.2546   2.3298   2.3773   2.4163
     2.4255   2.4861   2.5252   2.6062   2.6453   2.6626   2.7603   2.8349
     2.8648   2.8918   2.9124   2.9305   2.9375   2.9452   2.9564   2.9837
     2.9859   3.0058   3.0093   3.0211   3.0381   3.0490   3.0578   3.0796
     3.0895   3.0942   3.1293   3.1462   3.2070   3.5797   3.6189   3.8495
     4.2670   4.4006   4.6785   5.0055   5.0358   5.6136   5.7531   5.9121
     5.9626   6.0636   6.0886   6.1601   6.5840   6.8953   6.9405   7.0937
     7.3122   7.4582   7.4749   7.4930   7.6226   7.7149   7.7904   8.0244
     8.0659   8.1053   8.1767   8.3129   8.3873   8.5871   8.7186   8.9256

     occupation numbers 
     1.0000   1.0000   1.0000   1.0000   1.0000   1.0000   1.0000   1.0000
     1.0000   1.0000   1.0000   1.0000   1.0000   1.0000   1.0000   1.0000
     1.0000   1.0000   1.0000   1.0000   1.0000   1.0000   1.0000   1.0000
     1.0000   1.0000   1.0000   1.0000   1.0000   1.0000   1.0000   1.0000
     1.0000   1.0000   1.0000   1.0000   1.0000   1.0000   1.0000   1.0000
     1.0000   1.0000   1.0000   1.0000   1.0000   1.0000   1.0000   1.0000
     1.0000   1.0000   1.0000   1.0000   1.0000   1.0000   1.0000   1.0000
     1.0000   1.0000   1.0000   1.0000   1.0000   1.0000   1.0000   1.0000
     1.0000   1.0000   1.0000   1.0000   1.0000   1.0000   1.0000   1.0000
     1.0000   1.0000   1.0000   1.0000   1.0000   1.0000   1.0000   1.0000
     1.0000   1.0000   1.0000   1.0000   1.0000   1.0000   1.0000   1.0000
     1.0000   1.0000   1.0000   1.0000   1.0000   1.0000   1.0000   1.0000
     1.0000   1.0000   1.0000   1.0000   1.0000   1.0000   1.0000   1.0000
     1.0000   1.0000   1.0000   1.0000   1.0000   1.0000   1.0000   1.0000
     1.0000   1.0000   1.0000   1.0000   1.0000   1.0000   1.0000   1.0000
     1.0000   1.0000   1.0000   1.0000   1.0000   1.0000   1.0000   1.0000
     1.0000   1.0000   1.0000   1.0000   1.0000   1.0000   1.0000   1.0000
     1.0000   1.0000   1.0000   1.0000   1.0000   1.0000   1.0000   1.0000
     1.0000   1.0000   1.0000   1.0000   1.0000   1.0000   1.0000   1.0000
     1.0000   1.0000   1.0000   1.0000   0.9999   0.9999   0.9999   0.9998
     0.9998   0.9997   0.9996   0.9996   0.9992   0.9988   0.9986   0.9985
     0.9984   0.9981   0.9975   0.9972   0.9968   0.9961   0.9954   0.9948
     0.9927   0.9916   0.9902   0.9880   0.9852   0.9824   0.9810   0.9793
     0.9776   0.9697   0.9539   0.9427   0.9392   0.9246   0.9141   0.9046
     0.9023   0.8858   0.8742   0.8476   0.8336   0.8271   0.7874   0.7539
     0.7397   0.7265   0.7163   0.7071   0.7035   0.6995   0.6937   0.6793
     0.6782   0.6675   0.6656   0.6592   0.6499   0.6439   0.6390   0.6268
     0.6212   0.6186   0.5986   0.5889   0.5534   0.3375   0.3166   0.2062
     0.0750   0.0507   0.0201   0.0056   0.0049   0.0003   0.0001   0.0001
     0.0000   0.0000   0.0000   0.0000   0.0000   0.0000   0.0000   0.0000
     0.0000   0.0000   0.0000   0.0000   0.0000   0.0000   0.0000   0.0000
     0.0000   0.0000   0.0000   0.0000   0.0000   0.0000   0.0000   0.0000

          k = 0.0000-0.5000 0.0000 ( 65180 PWs)   bands (ev):

   -92.7304 -92.6764 -92.5841 -92.5367 -92.4780 -92.4368 -92.4193 -92.2976
   -56.0839 -56.0631 -55.9415 -55.9310 -55.9235 -55.9179 -55.8807 -55.8533
   -55.8379 -55.8363 -55.8274 -55.7853 -55.7684 -55.7292 -55.7104 -55.6782
   -55.6714 -55.6250 -55.6234 -55.6220 -55.6135 -55.5724 -55.5497 -55.4644
   -31.3057 -31.2867 -31.1446 -31.1293 -31.0584 -30.9882 -30.8400 -30.7535
   -29.8767 -29.8353 -29.8098 -29.7011 -15.0402 -14.9919 -14.9373 -14.8121
   -14.7239 -14.5910 -14.4310 -14.3177 -14.1864 -14.1109 -14.0717 -14.0665
   -14.0179 -14.0007 -13.9479 -13.9327 -13.9055 -13.8738 -13.8439 -13.7842
   -13.6122 -13.5546 -13.5367 -13.4855 -13.4232 -13.3876 -13.3366 -13.3116
   -13.2972 -13.2458 -13.1393 -13.1285 -13.0971 -12.9978 -12.9848 -12.9649
   -12.9569 -12.9191 -12.9090 -12.8892 -12.7822 -12.7341 -12.6966 -12.6798
   -12.6541 -12.6366 -12.5430 -12.5027 -12.3559 -12.3514 -12.2054 -12.1546
   -11.8115 -11.8087 -11.7807 -11.7435 -11.7091 -11.6979 -11.6568 -11.6526
   -11.6087 -11.5447 -11.5317 -11.5177  -2.6218  -2.5621  -2.4116  -2.3394
    -2.0585  -1.9741  -1.8467  -1.7098  -1.6732  -1.6529  -1.5745  -1.5438
    -1.4601  -1.4256  -1.3485  -1.3084  -1.2703  -1.2431  -1.1860  -1.1466
    -1.1025  -1.0656  -1.0312  -0.9990  -0.8873  -0.8432  -0.8084  -0.8060
    -0.7209  -0.6895  -0.6667  -0.6167  -0.5332  -0.4595  -0.3779  -0.3511
    -0.2410  -0.1986  -0.0589  -0.0261   0.0055   0.0605   0.1839   0.2357
     0.3625   0.4311   0.4380   0.5657   0.6119   0.7203   0.8448   0.9527
     0.9834   1.0231   1.0268   1.0666   1.0829   1.1196   1.1359   1.1484
     1.2564   1.3193   1.3451   1.3681   1.6328   1.6659   1.6867   1.7849
     1.8065   1.8389   1.8541   1.8815   1.8988   1.9079   1.9376   1.9716
     2.0021   2.0294   2.0386   2.0689   2.1223   2.2052   2.2359   2.4187
     2.5722   2.5821   2.5978   2.6285   2.6396   2.6497   2.6990   2.7154
     2.7688   2.7807   2.7933   2.8685   2.8826   2.9488   2.9663   2.9815
     2.9817   3.0011   3.0081   3.0134   3.0140   3.0177   3.0327   3.0482
     3.0600   3.1151   3.1203   3.1356   3.1896   4.0987   4.1399   4.1504
     4.2227   4.7094   4.8738   5.0046   5.1258   5.3930   5.4419   5.5671
     5.6835   5.9787   6.0200   6.0368   6.7654   6.8373   6.9389   7.2030
     7.3178   7.3530   7.4380   7.4515   7.7284   7.8125   7.8832   7.9225
     8.1156   8.2742   8.4420   8.5045   8.6397   8.7417   8.7970   8.8369

     occupation numbers 
     1.0000   1.0000   1.0000   1.0000   1.0000   1.0000   1.0000   1.0000
     1.0000   1.0000   1.0000   1.0000   1.0000   1.0000   1.0000   1.0000
     1.0000   1.0000   1.0000   1.0000   1.0000   1.0000   1.0000   1.0000
     1.0000   1.0000   1.0000   1.0000   1.0000   1.0000   1.0000   1.0000
     1.0000   1.0000   1.0000   1.0000   1.0000   1.0000   1.0000   1.0000
     1.0000   1.0000   1.0000   1.0000   1.0000   1.0000   1.0000   1.0000
     1.0000   1.0000   1.0000   1.0000   1.0000   1.0000   1.0000   1.0000
     1.0000   1.0000   1.0000   1.0000   1.0000   1.0000   1.0000   1.0000
     1.0000   1.0000   1.0000   1.0000   1.0000   1.0000   1.0000   1.0000
     1.0000   1.0000   1.0000   1.0000   1.0000   1.0000   1.0000   1.0000
     1.0000   1.0000   1.0000   1.0000   1.0000   1.0000   1.0000   1.0000
     1.0000   1.0000   1.0000   1.0000   1.0000   1.0000   1.0000   1.0000
     1.0000   1.0000   1.0000   1.0000   1.0000   1.0000   1.0000   1.0000
     1.0000   1.0000   1.0000   1.0000   1.0000   1.0000   1.0000   1.0000
     1.0000   1.0000   1.0000   1.0000   1.0000   1.0000   1.0000   1.0000
     1.0000   1.0000   1.0000   1.0000   1.0000   1.0000   1.0000   1.0000
     1.0000   1.0000   1.0000   1.0000   1.0000   1.0000   1.0000   1.0000
     1.0000   1.0000   1.0000   1.0000   1.0000   1.0000   1.0000   1.0000
     1.0000   1.0000   1.0000   1.0000   1.0000   1.0000   1.0000   1.0000
     1.0000   1.0000   1.0000   1.0000   1.0000   0.9999   0.9999   0.9998
     0.9997   0.9996   0.9996   0.9995   0.9995   0.9994   0.9993   0.9993
     0.9988   0.9983   0.9981   0.9979   0.9933   0.9923   0.9916   0.9876
     0.9866   0.9848   0.9840   0.9822   0.9811   0.9805   0.9783   0.9755
     0.9728   0.9701   0.9692   0.9659   0.9595   0.9476   0.9425   0.9040
     0.8592   0.8559   0.8506   0.8397   0.8357   0.8319   0.8129   0.8063
     0.7837   0.7785   0.7729   0.7379   0.7310   0.6977   0.6885   0.6805
     0.6804   0.6700   0.6663   0.6634   0.6631   0.6611   0.6529   0.6443
     0.6378   0.6067   0.6038   0.5950   0.5636   0.1171   0.1055   0.1027
     0.0847   0.0180   0.0096   0.0056   0.0033   0.0009   0.0007   0.0004
     0.0002   0.0000   0.0000   0.0000   0.0000   0.0000   0.0000   0.0000
     0.0000   0.0000   0.0000   0.0000   0.0000   0.0000   0.0000   0.0000
     0.0000   0.0000   0.0000   0.0000   0.0000   0.0000   0.0000   0.0000

          k = 0.2500 0.2500 0.0000 ( 65198 PWs)   bands (ev):

   -92.7304 -92.6764 -92.5841 -92.5367 -92.4780 -92.4368 -92.4193 -92.2976
   -56.0839 -56.0631 -55.9415 -55.9310 -55.9235 -55.9179 -55.8807 -55.8533
   -55.8379 -55.8363 -55.8274 -55.7853 -55.7684 -55.7292 -55.7104 -55.6782
   -55.6714 -55.6250 -55.6234 -55.6220 -55.6135 -55.5724 -55.5497 -55.4644
   -31.3041 -31.2886 -31.1440 -31.1292 -31.0586 -30.9887 -30.8394 -30.7538
   -29.8763 -29.8366 -29.8087 -29.7012 -15.0455 -15.0096 -14.9330 -14.8169
   -14.6981 -14.5737 -14.4994 -14.2937 -14.1379 -14.1259 -14.0879 -14.0619
   -14.0355 -14.0124 -13.9821 -13.9380 -13.8695 -13.8538 -13.6914 -13.6777
   -13.6488 -13.6291 -13.5850 -13.5392 -13.4658 -13.4543 -13.3324 -13.2911
   -13.2563 -13.1714 -13.1307 -13.0881 -13.0640 -13.0474 -13.0006 -12.9755
   -12.9486 -12.9340 -12.8938 -12.8576 -12.7914 -12.7700 -12.7447 -12.7414
   -12.7200 -12.6549 -12.5084 -12.4806 -12.4437 -12.3055 -12.1468 -12.0908
   -11.8293 -11.7981 -11.7867 -11.7791 -11.7178 -11.6822 -11.6760 -11.6405
   -11.6317 -11.5403 -11.4996 -11.4821  -2.6981  -2.4888  -2.3712  -2.2771
    -2.1559  -2.0909  -1.8939  -1.7486  -1.7291  -1.7007  -1.6057  -1.5715
    -1.4772  -1.4504  -1.3996  -1.2685  -1.2206  -1.1477  -1.1029  -1.0590
    -1.0347  -1.0102  -0.9667  -0.9525  -0.8620  -0.8117  -0.7472  -0.6983
    -0.6675  -0.6167  -0.6030  -0.5408  -0.4917  -0.4361  -0.4008  -0.3162
    -0.2616  -0.2338  -0.1939  -0.1390  -0.0626  -0.0275  -0.0035   0.0737
     0.1087   0.3790   0.5259   0.5622   0.6178   0.6619   0.7214   0.7722
     0.8363   0.8695   1.1422   1.2100   1.2830   1.3096   1.3564   1.3891
     1.4236   1.4612   1.4784   1.5064   1.5510   1.5595   1.5742   1.6170
     1.6580   1.6984   1.7541   1.7976   1.8014   1.8403   1.8713   1.9277
     1.9542   2.0771   2.1445   2.1798   2.2054   2.2694   2.3384   2.3669
     2.4023   2.4276   2.4393   2.5490   2.5872   2.6753   2.7719   2.8498
     2.8639   2.8709   2.8886   2.9018   2.9147   2.9267   2.9334   2.9452
     2.9577   2.9707   2.9888   2.9964   3.0064   3.0276   3.0401   3.0499
     3.0813   3.3820   3.4770   3.5164   3.5852   3.6285   3.8265   3.9248
     4.2738   4.4892   4.6880   4.9469   5.1552   5.6196   5.6675   5.7197
     5.8083   5.8669   6.0286   6.1412   6.2077   6.7655   6.8824   7.0663
     7.2154   7.5323   7.5806   7.6881   7.8119   7.8527   7.9763   8.1203
     8.1439   8.2399   8.3028   8.3616   8.4248   8.4661   8.5806   8.8127

     occupation numbers 
     1.0000   1.0000   1.0000   1.0000   1.0000   1.0000   1.0000   1.0000
     1.0000   1.0000   1.0000   1.0000   1.0000   1.0000   1.0000   1.0000
     1.0000   1.0000   1.0000   1.0000   1.0000   1.0000   1.0000   1.0000
     1.0000   1.0000   1.0000   1.0000   1.0000   1.0000   1.0000   1.0000
     1.0000   1.0000   1.0000   1.0000   1.0000   1.0000   1.0000   1.0000
     1.0000   1.0000   1.0000   1.0000   1.0000   1.0000   1.0000   1.0000
     1.0000   1.0000   1.0000   1.0000   1.0000   1.0000   1.0000   1.0000
     1.0000   1.0000   1.0000   1.0000   1.0000   1.0000   1.0000   1.0000
     1.0000   1.0000   1.0000   1.0000   1.0000   1.0000   1.0000   1.0000
     1.0000   1.0000   1.0000   1.0000   1.0000   1.0000   1.0000   1.0000
     1.0000   1.0000   1.0000   1.0000   1.0000   1.0000   1.0000   1.0000
     1.0000   1.0000   1.0000   1.0000   1.0000   1.0000   1.0000   1.0000
     1.0000   1.0000   1.0000   1.0000   1.0000   1.0000   1.0000   1.0000
     1.0000   1.0000   1.0000   1.0000   1.0000   1.0000   1.0000   1.0000
     1.0000   1.0000   1.0000   1.0000   1.0000   1.0000   1.0000   1.0000
     1.0000   1.0000   1.0000   1.0000   1.0000   1.0000   1.0000   1.0000
     1.0000   1.0000   1.0000   1.0000   1.0000   1.0000   1.0000   1.0000
     1.0000   1.0000   1.0000   1.0000   1.0000   1.0000   1.0000   1.0000
     1.0000   1.0000   1.0000   1.0000   1.0000   1.0000   1.0000   1.0000
     1.0000   1.0000   1.0000   1.0000   1.0000   1.0000   0.9999   0.9999
     0.9999   0.9998   0.9993   0.9990   0.9986   0.9984   0.9980   0.9977
     0.9973   0.9968   0.9965   0.9961   0.9952   0.9951   0.9947   0.9937
     0.9925   0.9912   0.9890   0.9870   0.9868   0.9848   0.9829   0.9790
     0.9770   0.9650   0.9566   0.9515   0.9476   0.9366   0.9228   0.9165
     0.9081   0.9018   0.8987   0.8668   0.8542   0.8222   0.7824   0.7469
     0.7401   0.7367   0.7281   0.7216   0.7151   0.7090   0.7056   0.6995
     0.6930   0.6862   0.6766   0.6726   0.6672   0.6557   0.6488   0.6434
     0.6258   0.4500   0.3949   0.3725   0.3346   0.3115   0.2160   0.1758
     0.0736   0.0384   0.0195   0.0072   0.0029   0.0003   0.0002   0.0002
     0.0001   0.0001   0.0000   0.0000   0.0000   0.0000   0.0000   0.0000
     0.0000   0.0000   0.0000   0.0000   0.0000   0.0000   0.0000   0.0000
     0.0000   0.0000   0.0000   0.0000   0.0000   0.0000   0.0000   0.0000

          k = 0.2500-0.5000 0.0000 ( 65138 PWs)   bands (ev):

   -92.7304 -92.6764 -92.5841 -92.5367 -92.4780 -92.4368 -92.4193 -92.2976
   -56.0839 -56.0631 -55.9415 -55.9310 -55.9235 -55.9179 -55.8807 -55.8533
   -55.8379 -55.8363 -55.8274 -55.7853 -55.7684 -55.7292 -55.7104 -55.6782
   -55.6714 -55.6250 -55.6234 -55.6220 -55.6135 -55.5724 -55.5497 -55.4644
   -31.3040 -31.2885 -31.1442 -31.1291 -31.0588 -30.9885 -30.8396 -30.7539
   -29.8757 -29.8363 -29.8094 -29.7015 -15.0099 -14.9651 -14.8947 -14.7826
   -14.7461 -14.6305 -14.5344 -14.4124 -14.1016 -14.0487 -14.0243 -14.0003
   -13.9865 -13.9719 -13.9323 -13.9206 -13.8888 -13.8492 -13.8308 -13.7756
   -13.6949 -13.6464 -13.5996 -13.5671 -13.4985 -13.4769 -13.3769 -13.3455
   -13.2356 -13.1703 -13.1515 -13.0725 -13.0551 -13.0179 -13.0012 -12.9720
   -12.9414 -12.9309 -12.9142 -12.8698 -12.7910 -12.7282 -12.7069 -12.6840
   -12.6578 -12.6449 -12.5495 -12.4525 -12.3490 -12.3071 -12.1999 -12.1648
   -11.8050 -11.7931 -11.7818 -11.7542 -11.7236 -11.6943 -11.6542 -11.6266
   -11.6047 -11.5581 -11.5326 -11.5220  -2.4802  -2.4138  -2.2855  -2.2081
    -2.0790  -1.9943  -1.8711  -1.7212  -1.6677  -1.6456  -1.5828  -1.5693
    -1.4706  -1.4053  -1.3203  -1.2704  -1.2616  -1.1981  -1.1560  -1.1208
    -1.0733  -1.0366  -1.0014  -0.9615  -0.9479  -0.9048  -0.8760  -0.8343
    -0.8030  -0.7364  -0.6354  -0.5935  -0.5167  -0.4517  -0.4033  -0.3595
    -0.3391  -0.2860  -0.1233  -0.1138  -0.0137   0.0257   0.0358   0.0778
     0.1103   0.1505   0.1776   0.2455   0.5179   0.6088   0.6871   0.7409
     1.0030   1.0279   1.1140   1.1425   1.3076   1.3394   1.3833   1.4067
     1.4213   1.4417   1.5031   1.5497   1.5851   1.6659   1.7569   1.7987
     1.8160   1.8261   1.8647   1.8776   1.8821   1.9273   1.9395   1.9601
     1.9884   2.0092   2.0310   2.0635   2.1216   2.1598   2.2392   2.3792
     2.5258   2.5402   2.5593   2.5878   2.6110   2.6347   2.6623   2.6728
     2.6920   2.7890   2.8013   2.8462   2.8659   2.8752   2.8843   2.9037
     2.9186   2.9400   2.9450   2.9759   2.9882   3.0031   3.0113   3.0207
     3.0319   3.5573   3.5696   3.7134   3.7645   4.1093   4.1542   4.1738
     4.2834   4.7285   4.8958   5.0381   5.1003   5.2769   5.4093   5.5776
     5.6081   5.7396   5.7670   6.1244   6.3796   6.4758   6.6898   6.9792
     7.4792   7.5166   7.6815   7.7899   7.8546   7.9076   8.0171   8.2147
     8.2950   8.4055   8.4642   8.5120   8.5245   8.6401   8.6902   8.7431

     occupation numbers 
     1.0000   1.0000   1.0000   1.0000   1.0000   1.0000   1.0000   1.0000
     1.0000   1.0000   1.0000   1.0000   1.0000   1.0000   1.0000   1.0000
     1.0000   1.0000   1.0000   1.0000   1.0000   1.0000   1.0000   1.0000
     1.0000   1.0000   1.0000   1.0000   1.0000   1.0000   1.0000   1.0000
     1.0000   1.0000   1.0000   1.0000   1.0000   1.0000   1.0000   1.0000
     1.0000   1.0000   1.0000   1.0000   1.0000   1.0000   1.0000   1.0000
     1.0000   1.0000   1.0000   1.0000   1.0000   1.0000   1.0000   1.0000
     1.0000   1.0000   1.0000   1.0000   1.0000   1.0000   1.0000   1.0000
     1.0000   1.0000   1.0000   1.0000   1.0000   1.0000   1.0000   1.0000
     1.0000   1.0000   1.0000   1.0000   1.0000   1.0000   1.0000   1.0000
     1.0000   1.0000   1.0000   1.0000   1.0000   1.0000   1.0000   1.0000
     1.0000   1.0000   1.0000   1.0000   1.0000   1.0000   1.0000   1.0000
     1.0000   1.0000   1.0000   1.0000   1.0000   1.0000   1.0000   1.0000
     1.0000   1.0000   1.0000   1.0000   1.0000   1.0000   1.0000   1.0000
     1.0000   1.0000   1.0000   1.0000   1.0000   1.0000   1.0000   1.0000
     1.0000   1.0000   1.0000   1.0000   1.0000   1.0000   1.0000   1.0000
     1.0000   1.0000   1.0000   1.0000   1.0000   1.0000   1.0000   1.0000
     1.0000   1.0000   1.0000   1.0000   1.0000   1.0000   1.0000   1.0000
     1.0000   1.0000   1.0000   1.0000   1.0000   1.0000   1.0000   1.0000
     1.0000   1.0000   1.0000   1.0000   1.0000   1.0000   0.9999   0.9999
     0.9997   0.9996   0.9994   0.9993   0.9984   0.9982   0.9978   0.9975
     0.9973   0.9971   0.9961   0.9953   0.9945   0.9923   0.9889   0.9870
     0.9861   0.9855   0.9833   0.9825   0.9822   0.9791   0.9781   0.9765
     0.9740   0.9721   0.9700   0.9665   0.9596   0.9544   0.9420   0.9136
     0.8741   0.8696   0.8635   0.8540   0.8460   0.8375   0.8272   0.8232
     0.8157   0.7749   0.7693   0.7486   0.7392   0.7347   0.7302   0.7206
     0.7131   0.7022   0.6996   0.6835   0.6769   0.6690   0.6645   0.6594
     0.6533   0.3498   0.3431   0.2684   0.2440   0.1140   0.1017   0.0966
     0.0716   0.0168   0.0088   0.0049   0.0037   0.0016   0.0009   0.0004
     0.0003   0.0001   0.0001   0.0000   0.0000   0.0000   0.0000   0.0000
     0.0000   0.0000   0.0000   0.0000   0.0000   0.0000   0.0000   0.0000
     0.0000   0.0000   0.0000   0.0000   0.0000   0.0000   0.0000   0.0000

          k =-0.5000-0.5000 0.0000 ( 65132 PWs)   bands (ev):

   -92.7304 -92.6764 -92.5841 -92.5367 -92.4780 -92.4368 -92.4193 -92.2976
   -56.0839 -56.0631 -55.9415 -55.9310 -55.9235 -55.9179 -55.8807 -55.8533
   -55.8379 -55.8363 -55.8274 -55.7853 -55.7684 -55.7292 -55.7104 -55.6782
   -55.6714 -55.6250 -55.6234 -55.6220 -55.6135 -55.5724 -55.5497 -55.4644
   -31.3017 -31.2907 -31.1438 -31.1289 -31.0592 -30.9887 -30.8392 -30.7543
   -29.8746 -29.8374 -29.8090 -29.7019 -14.9644 -14.9375 -14.8211 -14.8077
   -14.7083 -14.6779 -14.6394 -14.5102 -14.0138 -14.0030 -13.9697 -13.9485
   -13.9308 -13.9164 -13.8903 -13.8799 -13.8589 -13.8557 -13.8407 -13.7615
   -13.7555 -13.7174 -13.6951 -13.6909 -13.5879 -13.5487 -13.4152 -13.3858
   -13.1874 -13.1483 -13.0770 -13.0537 -13.0323 -13.0160 -13.0129 -13.0032
   -12.9842 -12.9291 -12.8686 -12.8544 -12.8027 -12.7691 -12.7445 -12.6653
   -12.6315 -12.6255 -12.5657 -12.4149 -12.3454 -12.2545 -12.2034 -12.1763
   -11.8016 -11.7889 -11.7711 -11.7543 -11.7194 -11.7032 -11.6660 -11.6069
   -11.5865 -11.5808 -11.5305 -11.5277  -2.2565  -2.1806  -2.1692  -2.0977
    -2.0596  -1.9810  -1.9131  -1.7874  -1.6713  -1.6414  -1.6029  -1.5449
    -1.4730  -1.4571  -1.3879  -1.3445  -1.2276  -1.2000  -1.1503  -1.1216
    -1.0574  -1.0119  -0.9927  -0.9814  -0.9272  -0.8823  -0.8673  -0.7541
    -0.6981  -0.6510  -0.6007  -0.5734  -0.5633  -0.5262  -0.4829  -0.4502
    -0.4363  -0.3522  -0.2854  -0.2395  -0.2143  -0.1405  -0.0849  -0.0667
    -0.0125   0.0074   0.0250   0.0345   0.4879   0.5296   0.6374   0.6522
     1.0343   1.0486   1.0816   1.1171   1.3920   1.4119   1.4180   1.4541
     1.5877   1.6806   1.7090   1.7447   1.7671   1.7915   1.7982   1.8298
     1.8403   1.8607   1.8636   1.9167   1.9202   1.9500   1.9746   1.9829
     2.0007   2.0381   2.0625   2.0741   2.1073   2.1336   2.2025   2.2691
     2.5331   2.5700   2.5858   2.6076   2.6132   2.6453   2.6505   2.6691
     2.6797   2.6994   2.7187   2.7312   2.7876   2.8008   2.8045   2.8237
     2.8355   2.8481   2.8713   2.8752   2.8965   2.9853   2.9885   3.0173
     3.0264   3.9771   4.0009   4.0416   4.0645   4.2905   4.3626   4.3892
     4.6304   4.7517   4.8345   4.9647   5.0517   5.0633   5.1765   5.2803
     5.3603   5.8401   5.8682   5.9478   6.0196   6.4072   6.5134   6.6155
     7.8036   7.8804   7.9012   7.9295   7.9489   7.9539   8.0004   8.0662
     8.2462   8.4417   8.4919   8.5688   8.5908   8.6218   8.6359   8.6822

     occupation numbers 
     1.0000   1.0000   1.0000   1.0000   1.0000   1.0000   1.0000   1.0000
     1.0000   1.0000   1.0000   1.0000   1.0000   1.0000   1.0000   1.0000
     1.0000   1.0000   1.0000   1.0000   1.0000   1.0000   1.0000   1.0000
     1.0000   1.0000   1.0000   1.0000   1.0000   1.0000   1.0000   1.0000
     1.0000   1.0000   1.0000   1.0000   1.0000   1.0000   1.0000   1.0000
     1.0000   1.0000   1.0000   1.0000   1.0000   1.0000   1.0000   1.0000
     1.0000   1.0000   1.0000   1.0000   1.0000   1.0000   1.0000   1.0000
     1.0000   1.0000   1.0000   1.0000   1.0000   1.0000   1.0000   1.0000
     1.0000   1.0000   1.0000   1.0000   1.0000   1.0000   1.0000   1.0000
     1.0000   1.0000   1.0000   1.0000   1.0000   1.0000   1.0000   1.0000
     1.0000   1.0000   1.0000   1.0000   1.0000   1.0000   1.0000   1.0000
     1.0000   1.0000   1.0000   1.0000   1.0000   1.0000   1.0000   1.0000
     1.0000   1.0000   1.0000   1.0000   1.0000   1.0000   1.0000   1.0000
     1.0000   1.0000   1.0000   1.0000   1.0000   1.0000   1.0000   1.0000
     1.0000   1.0000   1.0000   1.0000   1.0000   1.0000   1.0000   1.0000
     1.0000   1.0000   1.0000   1.0000   1.0000   1.0000   1.0000   1.0000
     1.0000   1.0000   1.0000   1.0000   1.0000   1.0000   1.0000   1.0000
     1.0000   1.0000   1.0000   1.0000   1.0000   1.0000   1.0000   1.0000
     1.0000   1.0000   1.0000   1.0000   1.0000   1.0000   1.0000   1.0000
     1.0000   1.0000   1.0000   1.0000   1.0000   1.0000   1.0000   1.0000
     0.9996   0.9996   0.9995   0.9994   0.9977   0.9974   0.9974   0.9969
     0.9944   0.9918   0.9908   0.9894   0.9885   0.9873   0.9870   0.9853
     0.9848   0.9836   0.9834   0.9798   0.9796   0.9773   0.9753   0.9745
     0.9729   0.9693   0.9667   0.9654   0.9614   0.9580   0.9480   0.9366
     0.8718   0.8600   0.8547   0.8471   0.8452   0.8336   0.8316   0.8246
     0.8205   0.8127   0.8049   0.7998   0.7755   0.7696   0.7679   0.7591
     0.7536   0.7477   0.7366   0.7347   0.7242   0.6785   0.6768   0.6613
     0.6563   0.1564   0.1481   0.1346   0.1274   0.0702   0.0569   0.0525
     0.0239   0.0154   0.0112   0.0066   0.0046   0.0044   0.0026   0.0016
     0.0011   0.0001   0.0001   0.0000   0.0000   0.0000   0.0000   0.0000
     0.0000   0.0000   0.0000   0.0000   0.0000   0.0000   0.0000   0.0000
     0.0000   0.0000   0.0000   0.0000   0.0000   0.0000   0.0000   0.0000

          k = 0.2500 0.0000 0.0000 ( 65257 PWs)   bands (ev):

   -92.7304 -92.6764 -92.5841 -92.5367 -92.4780 -92.4368 -92.4193 -92.2976
   -56.0839 -56.0631 -55.9415 -55.9310 -55.9235 -55.9179 -55.8807 -55.8533
   -55.8379 -55.8363 -55.8274 -55.7853 -55.7684 -55.7292 -55.7104 -55.6782
   -55.6714 -55.6250 -55.6234 -55.6220 -55.6135 -55.5724 -55.5497 -55.4644
   -31.3043 -31.2887 -31.1438 -31.1293 -31.0585 -30.9889 -30.8392 -30.7537
   -29.8769 -29.8369 -29.8081 -29.7008 -15.0776 -15.0403 -14.9665 -14.8200
   -14.7139 -14.5230 -14.3834 -14.2076 -14.1885 -14.1577 -14.1276 -14.1040
   -14.0699 -14.0537 -14.0356 -13.9823 -13.8688 -13.8377 -13.6882 -13.6185
   -13.6135 -13.5522 -13.5213 -13.5107 -13.4504 -13.3741 -13.3409 -13.2594
   -13.2004 -13.1871 -13.1059 -13.0885 -13.0712 -13.0537 -13.0335 -12.9990
   -12.9656 -12.9428 -12.8600 -12.8479 -12.8369 -12.8000 -12.7835 -12.7802
   -12.7715 -12.6670 -12.5680 -12.5053 -12.4342 -12.2773 -12.1089 -12.0554
   -11.8565 -11.8039 -11.7873 -11.7746 -11.7477 -11.6965 -11.6735 -11.6650
   -11.6136 -11.5254 -11.4697 -11.4637  -2.8358  -2.6137  -2.4838  -2.3113
    -2.2477  -2.0775  -1.8704  -1.7930  -1.7486  -1.7146  -1.6133  -1.5993
    -1.5644  -1.5452  -1.4763  -1.2958  -1.1879  -1.1461  -1.0499  -1.0389
    -0.9589  -0.9327  -0.8827  -0.8413  -0.7886  -0.7607  -0.7107  -0.6836
    -0.6644  -0.6092  -0.5954  -0.5046  -0.4955  -0.4321  -0.3361  -0.2855
    -0.1619  -0.1465  -0.0895  -0.0433   0.0128   0.0351   0.0756   0.1409
     0.1851   0.4643   0.5975   0.6301   0.7146   0.7441   0.7808   0.7985
[...]
     0.7443   0.7304   0.7181   0.7148   0.7043   0.6988   0.6917   0.6804
     0.6773   0.6633   0.6576   0.6537   0.6463   0.6351   0.6218   0.6194
     0.6144   0.6107   0.6054   0.5996   0.5247   0.3519   0.3225   0.2047
     0.0793   0.0452   0.0219   0.0056   0.0048   0.0003   0.0001   0.0001
     0.0000   0.0000   0.0000   0.0000   0.0000   0.0000   0.0000   0.0000
     0.0000   0.0000   0.0000   0.0000   0.0000   0.0000   0.0000   0.0000
     0.0000   0.0000   0.0000   0.0000   0.0000   0.0000   0.0000   0.0000

          k =-0.5000 0.0000 0.0000 ( 65180 PWs)   bands (ev):

   -92.7304 -92.6764 -92.5841 -92.5367 -92.4780 -92.4368 -92.4193 -92.2976
   -56.0839 -56.0631 -55.9415 -55.9310 -55.9235 -55.9179 -55.8807 -55.8533
   -55.8379 -55.8363 -55.8274 -55.7853 -55.7684 -55.7292 -55.7104 -55.6782
   -55.6714 -55.6250 -55.6234 -55.6220 -55.6135 -55.5724 -55.5497 -55.4644
   -31.3021 -31.2910 -31.1434 -31.1290 -31.0589 -30.9891 -30.8388 -30.7541
   -29.8758 -29.8380 -29.8077 -29.7013 -15.0448 -14.9954 -14.9327 -14.8190
   -14.7192 -14.5740 -14.4345 -14.2785 -14.1621 -14.1522 -14.1373 -14.0828
   -14.0217 -13.9905 -13.9436 -13.9307 -13.9127 -13.8667 -13.8400 -13.7417
   -13.5839 -13.5641 -13.5245 -13.5163 -13.4515 -13.3936 -13.3488 -13.2959
   -13.2727 -13.2565 -13.0914 -13.0823 -13.0668 -13.0429 -13.0263 -13.0055
   -12.9711 -12.9491 -12.8488 -12.8206 -12.7821 -12.7725 -12.7632 -12.6684
   -12.6619 -12.6587 -12.5693 -12.4372 -12.3555 -12.2797 -12.2273 -12.1907
   -11.8080 -11.7870 -11.7797 -11.7665 -11.7483 -11.7069 -11.6429 -11.6246
   -11.5912 -11.5484 -11.5393 -11.5233  -2.6117  -2.5728  -2.4092  -2.3696
    -2.0570  -1.9823  -1.8339  -1.7153  -1.6769  -1.6314  -1.5836  -1.5579
    -1.4344  -1.3903  -1.3755  -1.2931  -1.2568  -1.2433  -1.2101  -1.1522
    -1.0844  -1.0552  -1.0254  -0.9293  -0.8840  -0.8360  -0.8025  -0.7810
    -0.7511  -0.7026  -0.6777  -0.6390  -0.5443  -0.4683  -0.4060  -0.3425
    -0.1756  -0.1412  -0.0851  -0.0554   0.0127   0.0231   0.1646   0.1938
     0.2359   0.4110   0.5098   0.5589   0.6378   0.7116   0.8306   0.8423
     0.9775   1.0013   1.0544   1.0812   1.1192   1.1331   1.1778   1.2011
     1.2678   1.3178   1.3641   1.3723   1.6692   1.6785   1.6983   1.7162
     1.8265   1.8386   1.8557   1.8651   1.8944   1.9020   1.9430   1.9674
     1.9935   2.0481   2.0615   2.1146   2.1366   2.1904   2.2993   2.4025
     2.4733   2.4877   2.5597   2.5971   2.6263   2.6931   2.6995   2.7088
     2.7372   2.7680   2.8078   2.8608   2.9033   2.9294   2.9708   2.9753
     2.9755   2.9917   3.0019   3.0141   3.0281   3.0314   3.0570   3.0642
     3.0805   3.1000   3.1055   3.2369   3.2404   4.0390   4.0913   4.1578
     4.3157   4.7623   4.8344   5.0088   5.0323   5.4671   5.4948   5.5653
     5.6290   5.9847   6.0063   6.0857   6.6498   6.7838   6.9887   7.2648
     7.3041   7.3225   7.4127   7.5644   7.7295   7.7524   7.8634   7.9159
     8.1415   8.2467   8.4811   8.5515   8.5977   8.7384   8.8062   8.8760

     occupation numbers 
     1.0000   1.0000   1.0000   1.0000   1.0000   1.0000   1.0000   1.0000
     1.0000   1.0000   1.0000   1.0000   1.0000   1.0000   1.0000   1.0000
     1.0000   1.0000   1.0000   1.0000   1.0000   1.0000   1.0000   1.0000
     1.0000   1.0000   1.0000   1.0000   1.0000   1.0000   1.0000   1.0000
     1.0000   1.0000   1.0000   1.0000   1.0000   1.0000   1.0000   1.0000
     1.0000   1.0000   1.0000   1.0000   1.0000   1.0000   1.0000   1.0000
     1.0000   1.0000   1.0000   1.0000   1.0000   1.0000   1.0000   1.0000
     1.0000   1.0000   1.0000   1.0000   1.0000   1.0000   1.0000   1.0000
     1.0000   1.0000   1.0000   1.0000   1.0000   1.0000   1.0000   1.0000
     1.0000   1.0000   1.0000   1.0000   1.0000   1.0000   1.0000   1.0000
     1.0000   1.0000   1.0000   1.0000   1.0000   1.0000   1.0000   1.0000
     1.0000   1.0000   1.0000   1.0000   1.0000   1.0000   1.0000   1.0000
     1.0000   1.0000   1.0000   1.0000   1.0000   1.0000   1.0000   1.0000
     1.0000   1.0000   1.0000   1.0000   1.0000   1.0000   1.0000   1.0000
     1.0000   1.0000   1.0000   1.0000   1.0000   1.0000   1.0000   1.0000
     1.0000   1.0000   1.0000   1.0000   1.0000   1.0000   1.0000   1.0000
     1.0000   1.0000   1.0000   1.0000   1.0000   1.0000   1.0000   1.0000
     1.0000   1.0000   1.0000   1.0000   1.0000   1.0000   1.0000   1.0000
     1.0000   1.0000   1.0000   1.0000   1.0000   1.0000   1.0000   1.0000
     1.0000   1.0000   1.0000   1.0000   1.0000   0.9999   0.9999   0.9999
     0.9997   0.9997   0.9996   0.9995   0.9994   0.9993   0.9992   0.9991
     0.9987   0.9984   0.9980   0.9979   0.9922   0.9919   0.9912   0.9906
     0.9855   0.9849   0.9839   0.9833   0.9814   0.9809   0.9778   0.9759
     0.9736   0.9682   0.9668   0.9605   0.9576   0.9499   0.9309   0.9081
     0.8895   0.8854   0.8633   0.8508   0.8405   0.8153   0.8127   0.8089
     0.7973   0.7841   0.7664   0.7416   0.7208   0.7077   0.6862   0.6838
     0.6837   0.6751   0.6696   0.6630   0.6554   0.6536   0.6394   0.6355
     0.6263   0.6153   0.6122   0.5358   0.5337   0.1354   0.1192   0.1007
     0.0653   0.0148   0.0112   0.0055   0.0050   0.0006   0.0006   0.0004
     0.0003   0.0000   0.0000   0.0000   0.0000   0.0000   0.0000   0.0000
     0.0000   0.0000   0.0000   0.0000   0.0000   0.0000   0.0000   0.0000
     0.0000   0.0000   0.0000   0.0000   0.0000   0.0000   0.0000   0.0000

          k =-0.2500 0.2500 0.0000 ( 65198 PWs)   bands (ev):

   -92.7304 -92.6764 -92.5841 -92.5367 -92.4780 -92.4368 -92.4193 -92.2976
   -56.0839 -56.0631 -55.9415 -55.9310 -55.9235 -55.9179 -55.8807 -55.8533
   -55.8379 -55.8363 -55.8274 -55.7853 -55.7684 -55.7292 -55.7104 -55.6782
   -55.6714 -55.6250 -55.6234 -55.6220 -55.6135 -55.5724 -55.5497 -55.4644
   -31.3041 -31.2886 -31.1440 -31.1292 -31.0586 -30.9887 -30.8394 -30.7538
   -29.8763 -29.8366 -29.8087 -29.7012 -15.0469 -15.0083 -14.9319 -14.8149
   -14.7041 -14.5786 -14.4910 -14.2853 -14.1444 -14.1162 -14.1026 -14.0560
   -14.0320 -14.0095 -13.9959 -13.9436 -13.8651 -13.8544 -13.7012 -13.6738
   -13.6471 -13.6248 -13.5855 -13.5264 -13.4672 -13.4621 -13.3299 -13.2875
   -13.2510 -13.1754 -13.1326 -13.0725 -13.0649 -13.0312 -13.0118 -12.9739
   -12.9556 -12.9444 -12.8951 -12.8610 -12.8005 -12.7877 -12.7402 -12.7309
   -12.7200 -12.6529 -12.5377 -12.4703 -12.4060 -12.3112 -12.1337 -12.1087
   -11.8285 -11.8070 -11.7800 -11.7674 -11.7273 -11.6920 -11.6695 -11.6468
   -11.6246 -11.5401 -11.4950 -11.4854  -2.6964  -2.4877  -2.3669  -2.2790
    -2.1602  -2.0936  -1.8916  -1.7453  -1.7268  -1.6988  -1.6062  -1.5703
    -1.4769  -1.4433  -1.4175  -1.2740  -1.2183  -1.1513  -1.1227  -1.0622
    -1.0399  -0.9998  -0.9711  -0.9311  -0.8686  -0.8199  -0.7595  -0.6891
    -0.6632  -0.6124  -0.5838  -0.5374  -0.4818  -0.4390  -0.3951  -0.2968
    -0.2626  -0.2520  -0.2072  -0.1405  -0.0657  -0.0247   0.0040   0.0770
     0.1065   0.3602   0.5275   0.5705   0.6084   0.6680   0.7202   0.7773
     0.8393   0.8697   1.1500   1.2599   1.3004   1.3335   1.3386   1.3823
     1.3991   1.4427   1.4749   1.4896   1.5149   1.5582   1.5735   1.6177
     1.6335   1.6805   1.7701   1.7854   1.8018   1.8432   1.8687   1.9092
     1.9616   2.0663   2.1741   2.2030   2.2498   2.2694   2.3373   2.3787
     2.4033   2.4268   2.4512   2.5508   2.5848   2.6750   2.7732   2.8549
     2.8630   2.8776   2.8859   2.8973   2.9115   2.9171   2.9355   2.9454
     2.9583   2.9671   2.9801   2.9897   2.9972   3.0298   3.0405   3.0501
     3.0825   3.3752   3.4579   3.5196   3.6049   3.6222   3.8118   3.9335
     4.2713   4.4891   4.6865   4.9596   5.1550   5.6203   5.6649   5.7269
     5.8042   5.8681   6.0204   6.1580   6.1900   6.7699   6.8827   7.0709
     7.2137   7.5459   7.5892   7.6489   7.8305   7.8671   7.9687   8.1172
     8.1501   8.1988   8.2987   8.3235   8.4256   8.4812   8.6728   8.8124

     occupation numbers 
     1.0000   1.0000   1.0000   1.0000   1.0000   1.0000   1.0000   1.0000
     1.0000   1.0000   1.0000   1.0000   1.0000   1.0000   1.0000   1.0000
     1.0000   1.0000   1.0000   1.0000   1.0000   1.0000   1.0000   1.0000
     1.0000   1.0000   1.0000   1.0000   1.0000   1.0000   1.0000   1.0000
     1.0000   1.0000   1.0000   1.0000   1.0000   1.0000   1.0000   1.0000
     1.0000   1.0000   1.0000   1.0000   1.0000   1.0000   1.0000   1.0000
     1.0000   1.0000   1.0000   1.0000   1.0000   1.0000   1.0000   1.0000
     1.0000   1.0000   1.0000   1.0000   1.0000   1.0000   1.0000   1.0000
     1.0000   1.0000   1.0000   1.0000   1.0000   1.0000   1.0000   1.0000
     1.0000   1.0000   1.0000   1.0000   1.0000   1.0000   1.0000   1.0000
     1.0000   1.0000   1.0000   1.0000   1.0000   1.0000   1.0000   1.0000
     1.0000   1.0000   1.0000   1.0000   1.0000   1.0000   1.0000   1.0000
     1.0000   1.0000   1.0000   1.0000   1.0000   1.0000   1.0000   1.0000
     1.0000   1.0000   1.0000   1.0000   1.0000   1.0000   1.0000   1.0000
     1.0000   1.0000   1.0000   1.0000   1.0000   1.0000   1.0000   1.0000
     1.0000   1.0000   1.0000   1.0000   1.0000   1.0000   1.0000   1.0000
     1.0000   1.0000   1.0000   1.0000   1.0000   1.0000   1.0000   1.0000
     1.0000   1.0000   1.0000   1.0000   1.0000   1.0000   1.0000   1.0000
     1.0000   1.0000   1.0000   1.0000   1.0000   1.0000   1.0000   1.0000
     1.0000   1.0000   1.0000   1.0000   1.0000   1.0000   0.9999   0.9999
     0.9999   0.9998   0.9993   0.9988   0.9985   0.9982   0.9982   0.9978
     0.9976   0.9971   0.9966   0.9964   0.9959   0.9951   0.9948   0.9937
     0.9933   0.9918   0.9883   0.9876   0.9868   0.9846   0.9831   0.9804
     0.9764   0.9662   0.9523   0.9479   0.9401   0.9366   0.9230   0.9138
     0.9079   0.9020   0.8955   0.8662   0.8550   0.8223   0.7819   0.7445
     0.7406   0.7335   0.7294   0.7238   0.7167   0.7139   0.7045   0.6994
     0.6927   0.6881   0.6812   0.6761   0.6721   0.6545   0.6486   0.6433
     0.6252   0.4541   0.4059   0.3708   0.3240   0.3148   0.2225   0.1725
     0.0741   0.0384   0.0196   0.0068   0.0029   0.0003   0.0002   0.0002
     0.0001   0.0001   0.0000   0.0000   0.0000   0.0000   0.0000   0.0000
     0.0000   0.0000   0.0000   0.0000   0.0000   0.0000   0.0000   0.0000
     0.0000   0.0000   0.0000   0.0000   0.0000   0.0000   0.0000   0.0000

          k =-0.5000 0.2500 0.0000 ( 65138 PWs)   bands (ev):

   -92.7304 -92.6764 -92.5841 -92.5367 -92.4780 -92.4368 -92.4193 -92.2976
   -56.0839 -56.0631 -55.9415 -55.9310 -55.9235 -55.9179 -55.8807 -55.8533
   -55.8379 -55.8363 -55.8274 -55.7853 -55.7684 -55.7292 -55.7104 -55.6782
   -55.6714 -55.6250 -55.6234 -55.6220 -55.6135 -55.5724 -55.5497 -55.4644
   -31.3019 -31.2909 -31.1436 -31.1290 -31.0590 -30.9889 -30.8390 -30.7542
   -29.8752 -29.8377 -29.8083 -29.7016 -15.0123 -14.9686 -14.8900 -14.7871
   -14.7452 -14.6214 -14.5366 -14.4004 -14.0953 -14.0659 -14.0542 -14.0105
   -13.9882 -13.9616 -13.9286 -13.9165 -13.8929 -13.8525 -13.8395 -13.7338
   -13.6661 -13.6211 -13.6165 -13.6043 -13.5023 -13.4966 -13.3824 -13.3213
   -13.2292 -13.1927 -13.0975 -13.0625 -13.0489 -13.0430 -13.0078 -12.9763
   -12.9688 -12.9621 -12.8669 -12.8359 -12.7860 -12.7713 -12.7557 -12.6617
   -12.6474 -12.6427 -12.5674 -12.4262 -12.3508 -12.2675 -12.2151 -12.1839
   -11.8009 -11.7886 -11.7746 -11.7620 -11.7418 -11.7116 -11.6294 -11.6217
   -11.5977 -11.5626 -11.5349 -11.5255  -2.4694  -2.4273  -2.2789  -2.2363
    -2.0760  -2.0010  -1.8581  -1.7212  -1.6660  -1.6383  -1.5997  -1.5604
    -1.4798  -1.3643  -1.3074  -1.2838  -1.2590  -1.1838  -1.1528  -1.1158
    -1.0973  -1.0372  -1.0078  -0.9691  -0.9339  -0.9050  -0.8474  -0.8193
    -0.7771  -0.7436  -0.6400  -0.6125  -0.5267  -0.4608  -0.4330  -0.3766
    -0.2894  -0.2549  -0.1567  -0.1158  -0.0597  -0.0071   0.0111   0.0908
     0.1176   0.1495   0.2019   0.2415   0.5497   0.6113   0.6847   0.6982
     0.9865   1.0414   1.1181   1.1401   1.3203   1.3565   1.3936   1.4054
     1.4240   1.4420   1.5102   1.5554   1.5961   1.6218   1.7490   1.7815
     1.8132   1.8248   1.8680   1.8880   1.9026   1.9176   1.9378   1.9604
     2.0079   2.0222   2.0565   2.0817   2.1113   2.1693   2.2895   2.3906
     2.4178   2.4876   2.5238   2.5775   2.6225   2.6290   2.6659   2.6981
     2.7210   2.7740   2.8078   2.8558   2.8642   2.8746   2.8900   2.9142
     2.9240   2.9382   2.9568   2.9730   2.9866   2.9954   3.0036   3.0140
     3.0267   3.5545   3.6075   3.7442   3.7683   4.0451   4.1160   4.1664
     4.3903   4.7566   4.8520   5.0061   5.0585   5.3737   5.4046   5.5669
     5.6131   5.7229   5.7517   6.1793   6.3774   6.4777   6.5598   7.0690
     7.4561   7.5480   7.6968   7.7743   7.8418   7.8667   8.0020   8.2409
     8.3223   8.3841   8.4420   8.5328   8.5478   8.6384   8.6767   8.7355

     occupation numbers 
     1.0000   1.0000   1.0000   1.0000   1.0000   1.0000   1.0000   1.0000
     1.0000   1.0000   1.0000   1.0000   1.0000   1.0000   1.0000   1.0000
     1.0000   1.0000   1.0000   1.0000   1.0000   1.0000   1.0000   1.0000
     1.0000   1.0000   1.0000   1.0000   1.0000   1.0000   1.0000   1.0000
     1.0000   1.0000   1.0000   1.0000   1.0000   1.0000   1.0000   1.0000
     1.0000   1.0000   1.0000   1.0000   1.0000   1.0000   1.0000   1.0000
     1.0000   1.0000   1.0000   1.0000   1.0000   1.0000   1.0000   1.0000
     1.0000   1.0000   1.0000   1.0000   1.0000   1.0000   1.0000   1.0000
     1.0000   1.0000   1.0000   1.0000   1.0000   1.0000   1.0000   1.0000
     1.0000   1.0000   1.0000   1.0000   1.0000   1.0000   1.0000   1.0000
     1.0000   1.0000   1.0000   1.0000   1.0000   1.0000   1.0000   1.0000
     1.0000   1.0000   1.0000   1.0000   1.0000   1.0000   1.0000   1.0000
     1.0000   1.0000   1.0000   1.0000   1.0000   1.0000   1.0000   1.0000
     1.0000   1.0000   1.0000   1.0000   1.0000   1.0000   1.0000   1.0000
     1.0000   1.0000   1.0000   1.0000   1.0000   1.0000   1.0000   1.0000
     1.0000   1.0000   1.0000   1.0000   1.0000   1.0000   1.0000   1.0000
     1.0000   1.0000   1.0000   1.0000   1.0000   1.0000   1.0000   1.0000
     1.0000   1.0000   1.0000   1.0000   1.0000   1.0000   1.0000   1.0000
     1.0000   1.0000   1.0000   1.0000   1.0000   1.0000   1.0000   1.0000
     1.0000   1.0000   1.0000   1.0000   1.0000   1.0000   0.9999   0.9999
     0.9997   0.9996   0.9994   0.9993   0.9983   0.9980   0.9977   0.9975
     0.9973   0.9971   0.9960   0.9952   0.9942   0.9936   0.9893   0.9878
     0.9862   0.9856   0.9831   0.9818   0.9808   0.9798   0.9783   0.9764
     0.9722   0.9709   0.9673   0.9645   0.9609   0.9531   0.9328   0.9109
     0.9042   0.8854   0.8747   0.8575   0.8419   0.8395   0.8258   0.8133
     0.8040   0.7815   0.7664   0.7440   0.7400   0.7350   0.7274   0.7153
     0.7104   0.7031   0.6935   0.6850   0.6778   0.6731   0.6687   0.6631
     0.6562   0.3514   0.3226   0.2535   0.2422   0.1335   0.1121   0.0985
     0.0523   0.0151   0.0105   0.0056   0.0045   0.0010   0.0009   0.0004
     0.0003   0.0002   0.0001   0.0000   0.0000   0.0000   0.0000   0.0000
     0.0000   0.0000   0.0000   0.0000   0.0000   0.0000   0.0000   0.0000
     0.0000   0.0000   0.0000   0.0000   0.0000   0.0000   0.0000   0.0000

     the Fermi energy is     3.2974 ev

!    total energy              =   -4399.92147519 Ry
     estimated scf accuracy    <          6.8E-09 Ry
     smearing contrib. (-TS)   =      -1.14669431 Ry
     internal energy E=F+TS    =   -4398.77478088 Ry

     The total energy is F=E-TS. E is the sum of the following terms:
     one-electron contribution =  -21252.63840101 Ry
     hartree contribution      =   10754.02918258 Ry
     xc contribution           =    -686.73286803 Ry
     ewald contribution        =    7053.21246258 Ry
     one-center paw contrib.   =    -266.64515700 Ry
      -> PAW hartree energy AE =      25.16515092 Ry
      -> PAW hartree energy PS =     -25.04903122 Ry
      -> PAW xc energy AE      =     -16.51780028 Ry
      -> PAW xc energy PS      =       6.87728272 Ry
      -> total E_H with PAW    =   10754.14530228 Ry
      -> total E_XC with PAW   =    -696.37338560 Ry

     convergence has been achieved in  47 iterations

     Writing all to output data dir /bsuhome/zayahcortright/scratch/pwscf.save/
 
     init_run     :      8.28s CPU      8.68s WALL (       1 calls)
     electrons    :    658.40s CPU    670.37s WALL (       1 calls)

     Called by init_run:
     wfcinit      :      5.78s CPU      5.90s WALL (       1 calls)
     wfcinit:atom :      0.05s CPU      0.06s WALL (       5 calls)
     wfcinit:wfcr :      5.45s CPU      5.54s WALL (       5 calls)
     potinit      :      0.18s CPU      0.20s WALL (       1 calls)
     hinit0       :      0.54s CPU      0.73s WALL (       1 calls)

     Called by electrons:
     c_bands      :    519.90s CPU    524.79s WALL (      47 calls)
     sum_band     :    103.65s CPU    107.72s WALL (      47 calls)
     v_of_rho     :      5.20s CPU      5.44s WALL (      48 calls)
     v_h          :      0.46s CPU      0.47s WALL (      48 calls)
     v_xc         :      4.74s CPU      4.97s WALL (      48 calls)
     newd         :     16.10s CPU     18.52s WALL (      48 calls)
     PAW_pot      :      1.56s CPU      1.58s WALL (      48 calls)
     mix_rho      :     11.72s CPU     11.96s WALL (      47 calls)

     Called by c_bands:
     init_us_2    :      6.75s CPU      6.81s WALL (     475 calls)
     init_us_2:cp :      6.75s CPU      6.80s WALL (     475 calls)
     cegterg      :    491.30s CPU    496.00s WALL (     235 calls)

     Called by sum_band:
     sum_band:wei :      0.32s CPU      0.32s WALL (      47 calls)
     sum_band:loo :     83.97s CPU     84.53s WALL (      47 calls)
     sum_band:buf :      1.42s CPU      1.44s WALL (     235 calls)
     sum_band:ini :      3.17s CPU      3.18s WALL (     235 calls)
     sum_band:cal :     17.59s CPU     17.64s WALL (     235 calls)
     sum_band:bec :      0.54s CPU      0.54s WALL (     235 calls)
     addusdens    :     17.59s CPU     21.04s WALL (      47 calls)
                                        0.00s GPU  (      47 calls)
     addusd:skk   :      0.33s CPU      0.64s WALL (     188 calls)
                                        0.00s GPU  (     188 calls)

     Called by *egterg:
     cdiaghg      :     52.89s CPU     53.13s WALL (    1216 calls)
     cegterg:over :     35.52s CPU     35.63s WALL (     981 calls)
     cegterg:upda :     26.16s CPU     26.58s WALL (     981 calls)
     cegterg:last :     54.01s CPU     54.17s WALL (     425 calls)
     cdiaghg:chol :      2.96s CPU      2.98s WALL (    1216 calls)
     cdiaghg:inve :      3.22s CPU      3.23s WALL (    1216 calls)
     cdiaghg:para :      6.88s CPU      6.91s WALL (    2432 calls)
     h_psi        :    271.63s CPU    274.37s WALL (    1221 calls)
     s_psi        :     36.33s CPU     36.44s WALL (    1221 calls)
     g_psi        :      1.09s CPU      1.09s WALL (     981 calls)

     Called by h_psi:
     h_psi:calbec :     40.26s CPU     40.46s WALL (    1221 calls)
     vloc_psi     :    192.19s CPU    194.18s WALL (    1221 calls)
     add_vuspsi   :     36.16s CPU     36.30s WALL (    1221 calls)

     General routines
     calbec       :     57.85s CPU     58.09s WALL (    1456 calls)
     fft          :      3.36s CPU      3.40s WALL (     622 calls)
     ffts         :      4.40s CPU      4.42s WALL (    4991 calls)
     fftw         :    163.18s CPU    164.60s WALL (  315532 calls)
     interpolate  :      0.38s CPU      0.38s WALL (      48 calls)
 
     Parallel routines

     PAW routines
     PAW_pot      :      1.56s CPU      1.58s WALL (      48 calls)
 
     PWSCF        :  11m 8.54s CPU  11m24.56s WALL

 
   This run was terminated on:  20:26:28  21Jun2024            

=------------------------------------------------------------------------------=
   JOB DONE.
=------------------------------------------------------------------------------=
