
     Program PWSCF v.7.2 starts on 21Jun2024 at 16:49:21 

     This program is part of the open-source Quantum ESPRESSO suite
     for quantum simulation of materials; please cite
         "P. Giannozzi et al., J. Phys.:Condens. Matter 21 395502 (2009);
         "P. Giannozzi et al., J. Phys.:Condens. Matter 29 465901 (2017);
         "P. Giannozzi et al., J. Chem. Phys. 152 154105 (2020);
          URL http://www.quantum-espresso.org", 
     in publications or presentations arising from this work. More details at
     http://www.quantum-espresso.org/quote

     Parallel version (MPI & OpenMP), running on      48 processor cores
     Number of MPI processes:                48
     Threads/MPI process:                     1

     MPI processes distributed on     1 nodes
     60576 MiB available memory on the printing compute node when the environment starts
 
     Reading input from espresso.pwi
Warning: card &CELL ignored
Warning: card / ignored
Warning: card &FCP ignored
Warning: card / ignored
Warning: card &RISM ignored
Warning: card / ignored

     Current dimensions of program PWSCF are:
     Max number of different atomic species (ntypx) = 10
     Max number of k-points (npk) =  40000
     Max angular momentum in pseudopotentials (lmaxx) =  4
     file O.pbe-n-kjpaw_psl.0.1.UPF: wavefunction(s)  2P renormalized
     signal trapping enabled: kill the code with -SIGUSR1 to stop cleanly the simulation 
 
     K-points division:     npool     =       2
     R & G space division:  proc/nbgrp/npool/nimage =      24
     Subspace diagonalization in iterative solution of the eigenvalue problem:
     one sub-group per band group will be used
     scalapack distributed-memory algorithm (size of sub-group:  3*  3 procs)

 
     Parallelization info
     --------------------
     sticks:   dense  smooth     PW     G-vecs:    dense   smooth      PW
     Min         350     175     47                61430    21716    3036
     Max         351     177     48                61449    21727    3041
     Sum        8421    4205   1137              1474595   521381   72913
 
     Using Slab Decomposition
 


     bravais-lattice index     =            0
     lattice parameter (alat)  =      14.8599  a.u.
     unit-cell volume          =    8305.1283 (a.u.)^3
     number of atoms/cell      =           49
     number of atomic types    =            3
     number of electrons       =       430.00
     number of Kohn-Sham states=          258
     kinetic-energy cutoff     =      60.0000  Ry
     charge density cutoff     =     480.0000  Ry
     scf convergence threshold =      1.0E-08
     mixing beta               =       0.1500
     number of iterations used =            8  local-TF  mixing
     Exchange-correlation= SLA  PW   PBE  PBE
                           (   1   4   3   4   0   0   0)

     celldm(1)=  14.859904  celldm(2)=   0.000000  celldm(3)=   0.000000
     celldm(4)=   0.000000  celldm(5)=   0.000000  celldm(6)=   0.000000

     crystal axes: (cart. coord. in units of alat)
               a(1) = (   1.000000   0.000000   0.000000 )  
               a(2) = (   0.000000   1.000000   0.000000 )  
               a(3) = (   0.000000   0.000000   2.531036 )  

     reciprocal axes: (cart. coord. in units 2 pi/alat)
               b(1) = (  1.000000  0.000000  0.000000 )  
               b(2) = (  0.000000  1.000000  0.000000 )  
               b(3) = (  0.000000  0.000000  0.395095 )  


     PseudoPot. # 1 for Sr read from file:
     /bsuhome/zayahcortright/q-e/pseudo/Sr_pbe_v1.uspp.F.UPF
     MD5 check sum: 6b418c05fbe9db5448babca5e47b7a5b
     Pseudo is Ultrasoft + core correction, Zval = 10.0
     Generated by new atomic code, or converted to UPF format
     Using radial grid of  883 points,  6 beta functions with: 
                l(1) =   0
                l(2) =   0
                l(3) =   1
                l(4) =   1
                l(5) =   2
                l(6) =   2
     Q(r) pseudized with  6 coefficients,  rinner =    1.400   1.400   1.400
                                                       1.400   1.400

     PseudoPot. # 2 for O  read from file:
     /bsuhome/zayahcortright/q-e/pseudo/O.pbe-n-kjpaw_psl.0.1.UPF
     MD5 check sum: 0234752ac141de4415c5fc33072bef88
     Pseudo is Projector augmented-wave + core cor, Zval =  6.0
     Generated using "atomic" code by A. Dal Corso  v.5.0.99 svn rev. 10869
     Shape of augmentation charge: BESSEL
     Using radial grid of 1095 points,  4 beta functions with: 
                l(1) =   0
                l(2) =   0
                l(3) =   1
                l(4) =   1
     Q(r) pseudized with 0 coefficients 


     PseudoPot. # 3 for Co read from file:
     /bsuhome/zayahcortright/q-e/pseudo/Co_pbe_v1.2.uspp.F.UPF
     MD5 check sum: 5f91765df6ddd3222702df6e7b74a16d
     Pseudo is Ultrasoft + core correction, Zval = 17.0
     Generated by new atomic code, or converted to UPF format
     Using radial grid of  863 points,  6 beta functions with: 
                l(1) =   0
                l(2) =   0
                l(3) =   1
                l(4) =   1
                l(5) =   2
                l(6) =   2
     Q(r) pseudized with  8 coefficients,  rinner =    1.200   1.200   1.200
                                                       1.200   1.200

     atomic species   valence    mass     pseudopotential
        Sr            10.00    87.62000     Sr( 1.00)
        O              6.00    15.99900     O ( 1.00)
        Co            17.00    58.93319     Co( 1.00)

     No symmetry found


                                    s                        frac. trans.

      isym =  1     identity                                     

 cryst.   s( 1) = (     1          0          0      )
                  (     0          1          0      )
                  (     0          0          1      )

 cart.    s( 1) = (  1.0000000  0.0000000  0.0000000 )
                  (  0.0000000  1.0000000  0.0000000 )
                  (  0.0000000  0.0000000  1.0000000 )


   Cartesian axes

     site n.     atom                  positions (alat units)
         1           Sr  tau(   1) = (   0.2508693   0.7491307   1.7574407  )
         2           O   tau(   2) = (   0.4985141   0.5014859   1.7715967  )
         3           Sr  tau(   3) = (   0.7482398   0.7454518   1.7648669  )
         4           Sr  tau(   4) = (   0.7441748   0.2558252   1.7667843  )
         5           Sr  tau(   5) = (   0.2508693   0.7491307   1.2696799  )
         6           Sr  tau(   6) = (   0.2508693   0.7491307   0.7632319  )
         7           Co  tau(   7) = (   0.4998914   0.5001086   1.0164559  )
         8           Co  tau(   8) = (   0.4936915   0.5063085   1.5135603  )
         9           O   tau(   9) = (   0.4988895   0.7610401   1.0164559  )
        10           O   tau(  10) = (   0.2389599   0.5011105   1.0164559  )
        11           O   tau(  11) = (   0.0070918   0.7374880   1.0164559  )
        12           O   tau(  12) = (   0.0088340   0.7405089   1.5135603  )
        13           O   tau(  13) = (   0.5066944   0.7415376   1.5135603  )
        14           O   tau(  14) = (   0.2584624   0.4933056   1.5135603  )
        15           O   tau(  15) = (   0.4985141   0.5014859   0.7773880  )
        16           O   tau(  16) = (   0.4985141   0.5014859   1.2555238  )
        17           Sr  tau(  17) = (   0.7482398   0.7454518   0.7706582  )
        18           Sr  tau(  18) = (   0.7482398   0.7454518   1.2622536  )
        19           Sr  tau(  19) = (   0.7441748   0.2558252   0.7725755  )
        20           Sr  tau(  20) = (   0.7441748   0.2558252   1.2603363  )
        21           O   tau(  21) = (   0.7322655   0.0078049   1.5135603  )
        22           O   tau(  22) = (   0.7558175   0.4996027   1.5135603  )
        23           O   tau(  23) = (   0.5003973   0.2441825   1.5135603  )
        24           O   tau(  24) = (   0.7527966   0.4978604   1.0164559  )
        25           O   tau(  25) = (   0.5021396   0.2472034   1.0164559  )
        26           O   tau(  26) = (   0.7517679   0.0000000   1.0164559  )
        27           O   tau(  27) = (   0.0114961   0.4948124   1.7455321  )
        28           O   tau(  28) = (   0.0048226   0.0077944   1.7715967  )
        29           Sr  tau(  29) = (   0.2545482   0.2517602   1.7648669  )
        30           O   tau(  30) = (   0.5048017   0.0015068   1.7786929  )
        31           Co  tau(  31) = (   0.0056869   0.5006215   1.0164559  )
        32           Co  tau(  32) = (   0.0065315   0.4997770   1.5135603  )
        33           Co  tau(  33) = (   0.0061999   0.0064171   1.0164559  )
        34           Co  tau(  34) = (   0.0000000   0.0126169   1.5135603  )
        35           O   tau(  35) = (   0.0114961   0.4948124   1.2815885  )
        36           O   tau(  36) = (   0.0114961   0.4948124   0.7513233  )
        37           O   tau(  37) = (   0.0051979   0.2673486   1.0164559  )
        38           O   tau(  38) = (   0.0130029   0.2478461   1.5135603  )
        39           O   tau(  39) = (   0.0048226   0.0077944   0.7773880  )
        40           O   tau(  40) = (   0.0048226   0.0077944   1.2555238  )
        41           Sr  tau(  41) = (   0.2545482   0.2517602   0.7706582  )
        42           Sr  tau(  42) = (   0.2545482   0.2517602   1.2622536  )
        43           Co  tau(  43) = (   0.4989925   0.0073160   1.5135603  )
        44           Co  tau(  44) = (   0.4998370   0.0064714   1.0164559  )
        45           O   tau(  45) = (   0.5048017   0.0015068   0.7844841  )
        46           O   tau(  46) = (   0.5048017   0.0015068   1.2484277  )
        47           O   tau(  47) = (   0.2621260   0.0059111   1.5135603  )
        48           O   tau(  48) = (   0.2591051   0.0041689   1.0164559  )
        49           O   tau(  49) = (   0.1421646   0.5686583   2.1602013  )

   Crystallographic axes

     site n.     atom                  positions (cryst. coord.)
         1           Sr  tau(   1) = (  0.2508693  0.7491307  0.6943562  )
         2           O   tau(   2) = (  0.4985141  0.5014859  0.6999492  )
         3           Sr  tau(   3) = (  0.7482398  0.7454518  0.6972903  )
         4           Sr  tau(   4) = (  0.7441748  0.2558252  0.6980478  )
         5           Sr  tau(   5) = (  0.2508693  0.7491307  0.5016443  )
         6           Sr  tau(   6) = (  0.2508693  0.7491307  0.3015492  )
         7           Co  tau(   7) = (  0.4998914  0.5001086  0.4015968  )
         8           Co  tau(   8) = (  0.4936915  0.5063085  0.5980003  )
         9           O   tau(   9) = (  0.4988895  0.7610401  0.4015968  )
        10           O   tau(  10) = (  0.2389599  0.5011105  0.4015968  )
        11           O   tau(  11) = (  0.0070918  0.7374880  0.4015968  )
        12           O   tau(  12) = (  0.0088340  0.7405089  0.5980003  )
        13           O   tau(  13) = (  0.5066944  0.7415376  0.5980003  )
        14           O   tau(  14) = (  0.2584624  0.4933056  0.5980003  )
        15           O   tau(  15) = (  0.4985141  0.5014859  0.3071422  )
        16           O   tau(  16) = (  0.4985141  0.5014859  0.4960513  )
        17           Sr  tau(  17) = (  0.7482398  0.7454518  0.3044833  )
        18           Sr  tau(  18) = (  0.7482398  0.7454518  0.4987103  )
        19           Sr  tau(  19) = (  0.7441748  0.2558252  0.3052408  )
        20           Sr  tau(  20) = (  0.7441748  0.2558252  0.4979527  )
        21           O   tau(  21) = (  0.7322655  0.0078049  0.5980003  )
        22           O   tau(  22) = (  0.7558175  0.4996027  0.5980003  )
        23           O   tau(  23) = (  0.5003973  0.2441825  0.5980003  )
        24           O   tau(  24) = (  0.7527966  0.4978604  0.4015968  )
        25           O   tau(  25) = (  0.5021396  0.2472034  0.4015968  )
        26           O   tau(  26) = (  0.7517679  0.0000000  0.4015968  )
        27           O   tau(  27) = (  0.0114961  0.4948124  0.6896512  )
        28           O   tau(  28) = (  0.0048226  0.0077944  0.6999492  )
        29           Sr  tau(  29) = (  0.2545482  0.2517602  0.6972903  )
        30           O   tau(  30) = (  0.5048017  0.0015068  0.7027529  )
        31           Co  tau(  31) = (  0.0056869  0.5006215  0.4015968  )
        32           Co  tau(  32) = (  0.0065315  0.4997770  0.5980003  )
        33           Co  tau(  33) = (  0.0061999  0.0064171  0.4015968  )
        34           Co  tau(  34) = (  0.0000000  0.0126169  0.5980003  )
        35           O   tau(  35) = (  0.0114961  0.4948124  0.5063494  )
        36           O   tau(  36) = (  0.0114961  0.4948124  0.2968442  )
        37           O   tau(  37) = (  0.0051979  0.2673486  0.4015968  )
        38           O   tau(  38) = (  0.0130029  0.2478461  0.5980003  )
        39           O   tau(  39) = (  0.0048226  0.0077944  0.3071422  )
        40           O   tau(  40) = (  0.0048226  0.0077944  0.4960513  )
        41           Sr  tau(  41) = (  0.2545482  0.2517602  0.3044833  )
        42           Sr  tau(  42) = (  0.2545482  0.2517602  0.4987103  )
        43           Co  tau(  43) = (  0.4989925  0.0073160  0.5980003  )
        44           Co  tau(  44) = (  0.4998370  0.0064714  0.4015968  )
        45           O   tau(  45) = (  0.5048017  0.0015068  0.3099459  )
        46           O   tau(  46) = (  0.5048017  0.0015068  0.4932477  )
        47           O   tau(  47) = (  0.2621260  0.0059111  0.5980003  )
        48           O   tau(  48) = (  0.2591051  0.0041689  0.4015968  )
        49           O   tau(  49) = (  0.1421646  0.5686583  0.8534850  )

     number of k points=    10  Gaussian smearing, width (Ry)=  0.0700
                       cart. coord. in units 2pi/alat
        k(    1) = (   0.0000000   0.0000000   0.0000000), wk =   0.1250000
        k(    2) = (   0.0000000   0.2500000   0.0000000), wk =   0.2500000
        k(    3) = (   0.0000000  -0.5000000   0.0000000), wk =   0.1250000
        k(    4) = (   0.2500000   0.2500000   0.0000000), wk =   0.2500000
        k(    5) = (   0.2500000  -0.5000000   0.0000000), wk =   0.2500000
        k(    6) = (  -0.5000000  -0.5000000   0.0000000), wk =   0.1250000
        k(    7) = (   0.2500000   0.0000000   0.0000000), wk =   0.2500000
        k(    8) = (  -0.5000000   0.0000000   0.0000000), wk =   0.1250000
        k(    9) = (  -0.2500000   0.2500000   0.0000000), wk =   0.2500000
        k(   10) = (  -0.5000000   0.2500000   0.0000000), wk =   0.2500000

                       cryst. coord.
        k(    1) = (   0.0000000   0.0000000   0.0000000), wk =   0.1250000
        k(    2) = (   0.0000000   0.2500000   0.0000000), wk =   0.2500000
        k(    3) = (   0.0000000  -0.5000000   0.0000000), wk =   0.1250000
        k(    4) = (   0.2500000   0.2500000   0.0000000), wk =   0.2500000
        k(    5) = (   0.2500000  -0.5000000   0.0000000), wk =   0.2500000
        k(    6) = (  -0.5000000  -0.5000000   0.0000000), wk =   0.1250000
        k(    7) = (   0.2500000   0.0000000   0.0000000), wk =   0.2500000
        k(    8) = (  -0.5000000   0.0000000   0.0000000), wk =   0.1250000
        k(    9) = (  -0.2500000   0.2500000   0.0000000), wk =   0.2500000
        k(   10) = (  -0.5000000   0.2500000   0.0000000), wk =   0.2500000

     Dense  grid:  1474595 G-vectors     FFT dimensions: ( 108, 108, 270)

     Smooth grid:   521381 G-vectors     FFT dimensions: (  75,  75, 192)

     Dynamical RAM for                 wfc:      10.69 MB

     Dynamical RAM for     wfc (w. buffer):      64.13 MB

     Dynamical RAM for           str. fact:       2.81 MB

     Dynamical RAM for           local pot:       0.00 MB

     Dynamical RAM for          nlocal pot:      24.53 MB

     Dynamical RAM for                qrad:       5.27 MB

     Dynamical RAM for          rho,v,vnew:       6.02 MB

     Dynamical RAM for               rhoin:       2.01 MB

     Dynamical RAM for            rho*nmix:      15.00 MB

     Dynamical RAM for           G-vectors:       3.68 MB

     Dynamical RAM for          h,s,v(r/c):       1.35 MB

     Dynamical RAM for          <psi|beta>:       2.33 MB

     Dynamical RAM for                 psi:      21.38 MB

     Dynamical RAM for                hpsi:      21.38 MB

     Dynamical RAM for                spsi:      21.38 MB

     Dynamical RAM for      wfcinit/wfcrot:      34.39 MB

     Dynamical RAM for           addusdens:     101.26 MB

     Estimated static dynamical RAM per process >     117.53 MB

     Estimated max dynamical RAM per process >     233.79 MB

     Estimated total dynamical RAM >      10.61 GB

     Check: negative core charge=   -0.000004

     Initial potential from superposition of free atoms

     starting charge     421.5961, renormalised to     430.0000

     negative rho (up, down):  7.826E-01 0.000E+00
     Starting wfcs are  376 randomized atomic wfcs
     Checking if some PAW data can be deallocated... 
       PAW data deallocated on   19 nodes for type:  2

     total cpu time spent up to now is        9.2 secs

     Self-consistent Calculation

     iteration #  1     ecut=    60.00 Ry     beta= 0.15
     Davidson diagonalization with overlap

---- Real-time Memory Report at c_bands before calling an iterative solver
             0 MiB given to the printing process from OS
             0 MiB allocation reported by mallinfo(arena+hblkhd)
         51478 MiB available memory on the node where the printing process lives
------------------
     ethr =  1.00E-02,  avg # of iterations =  2.0

     negative rho (up, down):  7.716E-01 0.000E+00

     total cpu time spent up to now is       24.4 secs

     total energy              =   -4445.21202075 Ry
     estimated scf accuracy    <      54.03382493 Ry

     iteration #  2     ecut=    60.00 Ry     beta= 0.15
     Davidson diagonalization with overlap

---- Real-time Memory Report at c_bands before calling an iterative solver
             0 MiB given to the printing process from OS
             0 MiB allocation reported by mallinfo(arena+hblkhd)
         51845 MiB available memory on the node where the printing process lives
------------------
     ethr =  1.00E-02,  avg # of iterations =  1.0

     negative rho (up, down):  7.592E-01 0.000E+00

     total cpu time spent up to now is       37.1 secs

     total energy              =   -4441.95883104 Ry
     estimated scf accuracy    <      28.29363784 Ry

     iteration #  3     ecut=    60.00 Ry     beta= 0.15
     Davidson diagonalization with overlap

---- Real-time Memory Report at c_bands before calling an iterative solver
             0 MiB given to the printing process from OS
             0 MiB allocation reported by mallinfo(arena+hblkhd)
         51073 MiB available memory on the node where the printing process lives
------------------
     ethr =  6.58E-03,  avg # of iterations =  1.0

     negative rho (up, down):  7.530E-01 0.000E+00

     total cpu time spent up to now is       50.1 secs

     total energy              =   -4442.59187782 Ry
     estimated scf accuracy    <      29.19946959 Ry

     iteration #  4     ecut=    60.00 Ry     beta= 0.15
     Davidson diagonalization with overlap

---- Real-time Memory Report at c_bands before calling an iterative solver
             0 MiB given to the printing process from OS
             0 MiB allocation reported by mallinfo(arena+hblkhd)
         51023 MiB available memory on the node where the printing process lives
------------------
     ethr =  6.58E-03,  avg # of iterations =  1.0

     negative rho (up, down):  7.534E-01 0.000E+00

     total cpu time spent up to now is       62.7 secs

     total energy              =   -4442.71055354 Ry
     estimated scf accuracy    <      27.52494326 Ry

     iteration #  5     ecut=    60.00 Ry     beta= 0.15
     Davidson diagonalization with overlap

---- Real-time Memory Report at c_bands before calling an iterative solver
             0 MiB given to the printing process from OS
             0 MiB allocation reported by mallinfo(arena+hblkhd)
         51011 MiB available memory on the node where the printing process lives
------------------
     ethr =  6.40E-03,  avg # of iterations =  1.0

     negative rho (up, down):  7.394E-01 0.000E+00

     total cpu time spent up to now is       75.3 secs

     total energy              =   -4442.18421646 Ry
     estimated scf accuracy    <      23.45466948 Ry

     iteration #  6     ecut=    60.00 Ry     beta= 0.15
     Davidson diagonalization with overlap

---- Real-time Memory Report at c_bands before calling an iterative solver
             0 MiB given to the printing process from OS
             0 MiB allocation reported by mallinfo(arena+hblkhd)
         50988 MiB available memory on the node where the printing process lives
------------------
     ethr =  5.45E-03,  avg # of iterations =  1.0

     negative rho (up, down):  7.425E-01 0.000E+00

     total cpu time spent up to now is       87.9 secs

     total energy              =   -4443.35840545 Ry
     estimated scf accuracy    <      58.43703065 Ry

     iteration #  7     ecut=    60.00 Ry     beta= 0.15
     Davidson diagonalization with overlap

---- Real-time Memory Report at c_bands before calling an iterative solver
             0 MiB given to the printing process from OS
             0 MiB allocation reported by mallinfo(arena+hblkhd)
         50966 MiB available memory on the node where the printing process lives
------------------
     ethr =  5.45E-03,  avg # of iterations =  1.0

     negative rho (up, down):  7.515E-01 0.000E+00

     total cpu time spent up to now is      100.5 secs

     total energy              =   -4438.90983324 Ry
     estimated scf accuracy    <      51.82849000 Ry

     iteration #  8     ecut=    60.00 Ry     beta= 0.15
     Davidson diagonalization with overlap

---- Real-time Memory Report at c_bands before calling an iterative solver
             0 MiB given to the printing process from OS
             0 MiB allocation reported by mallinfo(arena+hblkhd)
         50956 MiB available memory on the node where the printing process lives
------------------
     ethr =  5.45E-03,  avg # of iterations =  1.0

     negative rho (up, down):  7.481E-01 0.000E+00

     total cpu time spent up to now is      112.8 secs

     total energy              =   -4441.10576170 Ry
     estimated scf accuracy    <       9.32040239 Ry

     iteration #  9     ecut=    60.00 Ry     beta= 0.15
     Davidson diagonalization with overlap

---- Real-time Memory Report at c_bands before calling an iterative solver
             0 MiB given to the printing process from OS
             0 MiB allocation reported by mallinfo(arena+hblkhd)
         50938 MiB available memory on the node where the printing process lives
------------------
     ethr =  2.17E-03,  avg # of iterations =  1.3

     negative rho (up, down):  7.547E-01 0.000E+00

     total cpu time spent up to now is      126.0 secs

     total energy              =   -4441.17008657 Ry
     estimated scf accuracy    <       5.28436331 Ry

     iteration # 10     ecut=    60.00 Ry     beta= 0.15
     Davidson diagonalization with overlap

---- Real-time Memory Report at c_bands before calling an iterative solver
             0 MiB given to the printing process from OS
             0 MiB allocation reported by mallinfo(arena+hblkhd)
         50915 MiB available memory on the node where the printing process lives
------------------
     ethr =  1.23E-03,  avg # of iterations =  2.0

     negative rho (up, down):  7.741E-01 0.000E+00

     total cpu time spent up to now is      139.9 secs

     total energy              =   -4440.14351551 Ry
     estimated scf accuracy    <      12.77763944 Ry

     iteration # 11     ecut=    60.00 Ry     beta= 0.15
     Davidson diagonalization with overlap

---- Real-time Memory Report at c_bands before calling an iterative solver
             0 MiB given to the printing process from OS
             0 MiB allocation reported by mallinfo(arena+hblkhd)
         50913 MiB available memory on the node where the printing process lives
------------------
     ethr =  1.23E-03,  avg # of iterations =  7.0

     negative rho (up, down):  7.727E-01 0.000E+00

     total cpu time spent up to now is      156.2 secs

     total energy              =   -4440.03581826 Ry
     estimated scf accuracy    <      22.46967897 Ry

     iteration # 12     ecut=    60.00 Ry     beta= 0.15
     Davidson diagonalization with overlap

---- Real-time Memory Report at c_bands before calling an iterative solver
             0 MiB given to the printing process from OS
             0 MiB allocation reported by mallinfo(arena+hblkhd)
         50719 MiB available memory on the node where the printing process lives
------------------
     ethr =  1.23E-03,  avg # of iterations =  2.0

     negative rho (up, down):  7.795E-01 0.000E+00

     total cpu time spent up to now is      170.2 secs

     total energy              =   -4440.54916457 Ry
     estimated scf accuracy    <       1.98442980 Ry

     iteration # 13     ecut=    60.00 Ry     beta= 0.15
     Davidson diagonalization with overlap

---- Real-time Memory Report at c_bands before calling an iterative solver
             0 MiB given to the printing process from OS
             0 MiB allocation reported by mallinfo(arena+hblkhd)
         50714 MiB available memory on the node where the printing process lives
------------------
     c_bands:  1 eigenvalues not converged
     ethr =  4.61E-04,  avg # of iterations = 12.9

     negative rho (up, down):  7.885E-01 0.000E+00

     total cpu time spent up to now is      188.9 secs

     total energy              =   -4440.43168438 Ry
     estimated scf accuracy    <       1.69597554 Ry

     iteration # 14     ecut=    60.00 Ry     beta= 0.15
     Davidson diagonalization with overlap

---- Real-time Memory Report at c_bands before calling an iterative solver
             0 MiB given to the printing process from OS
             0 MiB allocation reported by mallinfo(arena+hblkhd)
         50488 MiB available memory on the node where the printing process lives
------------------
     ethr =  3.94E-04,  avg # of iterations =  2.0

     negative rho (up, down):  8.044E-01 0.000E+00

     total cpu time spent up to now is      202.9 secs

     total energy              =   -4440.43914487 Ry
     estimated scf accuracy    <       5.14701529 Ry

     iteration # 15     ecut=    60.00 Ry     beta= 0.15
     Davidson diagonalization with overlap

---- Real-time Memory Report at c_bands before calling an iterative solver
             0 MiB given to the printing process from OS
             0 MiB allocation reported by mallinfo(arena+hblkhd)
         50478 MiB available memory on the node where the printing process lives
------------------
     ethr =  3.94E-04,  avg # of iterations =  1.4

     negative rho (up, down):  8.200E-01 0.000E+00

     total cpu time spent up to now is      215.9 secs

     total energy              =   -4440.38487131 Ry
     estimated scf accuracy    <       1.48657432 Ry

     iteration # 16     ecut=    60.00 Ry     beta= 0.15
     Davidson diagonalization with overlap

---- Real-time Memory Report at c_bands before calling an iterative solver
             0 MiB given to the printing process from OS
             0 MiB allocation reported by mallinfo(arena+hblkhd)
         50485 MiB available memory on the node where the printing process lives
------------------
     ethr =  3.46E-04,  avg # of iterations =  5.8

     negative rho (up, down):  8.243E-01 0.000E+00

     total cpu time spent up to now is      231.2 secs

     total energy              =   -4440.38260167 Ry
     estimated scf accuracy    <       0.51131015 Ry

     iteration # 17     ecut=    60.00 Ry     beta= 0.15
     Davidson diagonalization with overlap

---- Real-time Memory Report at c_bands before calling an iterative solver
             0 MiB given to the printing process from OS
             0 MiB allocation reported by mallinfo(arena+hblkhd)
         50477 MiB available memory on the node where the printing process lives
------------------
     c_bands:  2 eigenvalues not converged
     ethr =  1.19E-04,  avg # of iterations = 12.7

     negative rho (up, down):  8.216E-01 0.000E+00

     total cpu time spent up to now is      249.7 secs

     total energy              =   -4440.34596458 Ry
     estimated scf accuracy    <       0.27292904 Ry

     iteration # 18     ecut=    60.00 Ry     beta= 0.15
     Davidson diagonalization with overlap

---- Real-time Memory Report at c_bands before calling an iterative solver
             0 MiB given to the printing process from OS
             0 MiB allocation reported by mallinfo(arena+hblkhd)
         50398 MiB available memory on the node where the printing process lives
------------------
     ethr =  6.35E-05,  avg # of iterations =  7.4

     negative rho (up, down):  8.217E-01 0.000E+00

     total cpu time spent up to now is      266.5 secs

     total energy              =   -4440.35254818 Ry
     estimated scf accuracy    <       0.43305510 Ry

     iteration # 19     ecut=    60.00 Ry     beta= 0.15
     Davidson diagonalization with overlap

---- Real-time Memory Report at c_bands before calling an iterative solver
             0 MiB given to the printing process from OS
             0 MiB allocation reported by mallinfo(arena+hblkhd)
         50428 MiB available memory on the node where the printing process lives
------------------
     ethr =  6.35E-05,  avg # of iterations =  2.2

     negative rho (up, down):  8.179E-01 0.000E+00

     total cpu time spent up to now is      280.3 secs

     total energy              =   -4440.34712561 Ry
     estimated scf accuracy    <       0.16725224 Ry

     iteration # 20     ecut=    60.00 Ry     beta= 0.15
     Davidson diagonalization with overlap

---- Real-time Memory Report at c_bands before calling an iterative solver
             0 MiB given to the printing process from OS
             0 MiB allocation reported by mallinfo(arena+hblkhd)
         50434 MiB available memory on the node where the printing process lives
------------------
     ethr =  3.89E-05,  avg # of iterations =  2.6

     negative rho (up, down):  8.094E-01 0.000E+00

     total cpu time spent up to now is      294.8 secs

     total energy              =   -4440.33666570 Ry
     estimated scf accuracy    <       0.16635380 Ry

     iteration # 21     ecut=    60.00 Ry     beta= 0.15
     Davidson diagonalization with overlap

---- Real-time Memory Report at c_bands before calling an iterative solver
             0 MiB given to the printing process from OS
             0 MiB allocation reported by mallinfo(arena+hblkhd)
         50428 MiB available memory on the node where the printing process lives
------------------
     ethr =  3.87E-05,  avg # of iterations =  1.7

     negative rho (up, down):  8.162E-01 0.000E+00

     total cpu time spent up to now is      308.8 secs

     total energy              =   -4440.30778510 Ry
     estimated scf accuracy    <       0.13109420 Ry

     iteration # 22     ecut=    60.00 Ry     beta= 0.15
     Davidson diagonalization with overlap

---- Real-time Memory Report at c_bands before calling an iterative solver
             0 MiB given to the printing process from OS
             0 MiB allocation reported by mallinfo(arena+hblkhd)
         50430 MiB available memory on the node where the printing process lives
------------------
     ethr =  3.05E-05,  avg # of iterations =  9.7

     negative rho (up, down):  8.515E-01 0.000E+00

     total cpu time spent up to now is      327.0 secs

     total energy              =   -4440.30841232 Ry
     estimated scf accuracy    <       0.05339410 Ry

     iteration # 23     ecut=    60.00 Ry     beta= 0.15
     Davidson diagonalization with overlap

---- Real-time Memory Report at c_bands before calling an iterative solver
             0 MiB given to the printing process from OS
             0 MiB allocation reported by mallinfo(arena+hblkhd)
         50301 MiB available memory on the node where the printing process lives
------------------
     ethr =  1.24E-05,  avg # of iterations =  6.7

     negative rho (up, down):  8.296E-01 0.000E+00

     total cpu time spent up to now is      343.2 secs

     total energy              =   -4440.30851825 Ry
     estimated scf accuracy    <       0.03811458 Ry

     iteration # 24     ecut=    60.00 Ry     beta= 0.15
     Davidson diagonalization with overlap

---- Real-time Memory Report at c_bands before calling an iterative solver
             0 MiB given to the printing process from OS
             0 MiB allocation reported by mallinfo(arena+hblkhd)
         50325 MiB available memory on the node where the printing process lives
------------------
     ethr =  8.86E-06,  avg # of iterations =  1.8

     negative rho (up, down):  8.077E-01 0.000E+00

     total cpu time spent up to now is      357.1 secs

     total energy              =   -4440.30578287 Ry
     estimated scf accuracy    <       0.02188133 Ry

     iteration # 25     ecut=    60.00 Ry     beta= 0.15
     Davidson diagonalization with overlap

---- Real-time Memory Report at c_bands before calling an iterative solver
             0 MiB given to the printing process from OS
             0 MiB allocation reported by mallinfo(arena+hblkhd)
         50335 MiB available memory on the node where the printing process lives
------------------
     ethr =  5.09E-06,  avg # of iterations =  4.3

     negative rho (up, down):  8.038E-01 0.000E+00

     total cpu time spent up to now is      372.3 secs

     total energy              =   -4440.30553259 Ry
     estimated scf accuracy    <       0.01346310 Ry

     iteration # 26     ecut=    60.00 Ry     beta= 0.15
     Davidson diagonalization with overlap

---- Real-time Memory Report at c_bands before calling an iterative solver
             0 MiB given to the printing process from OS
             0 MiB allocation reported by mallinfo(arena+hblkhd)
         50348 MiB available memory on the node where the printing process lives
------------------
     c_bands:  1 eigenvalues not converged
     c_bands:  1 eigenvalues not converged
     ethr =  3.13E-06,  avg # of iterations = 11.1

     negative rho (up, down):  7.955E-01 0.000E+00

     total cpu time spent up to now is      390.9 secs

     total energy              =   -4440.30498995 Ry
     estimated scf accuracy    <       0.00883043 Ry

     iteration # 27     ecut=    60.00 Ry     beta= 0.15
     Davidson diagonalization with overlap

---- Real-time Memory Report at c_bands before calling an iterative solver
             0 MiB given to the printing process from OS
             0 MiB allocation reported by mallinfo(arena+hblkhd)
         50358 MiB available memory on the node where the printing process lives
------------------
     ethr =  2.05E-06,  avg # of iterations =  5.4

     negative rho (up, down):  7.886E-01 0.000E+00

     total cpu time spent up to now is      406.7 secs

     total energy              =   -4440.30416948 Ry
     estimated scf accuracy    <       0.00711483 Ry

     iteration # 28     ecut=    60.00 Ry     beta= 0.15
     Davidson diagonalization with overlap

---- Real-time Memory Report at c_bands before calling an iterative solver
             0 MiB given to the printing process from OS
             0 MiB allocation reported by mallinfo(arena+hblkhd)
         50358 MiB available memory on the node where the printing process lives
------------------
     c_bands:  1 eigenvalues not converged
     ethr =  1.65E-06,  avg # of iterations =  7.5

     negative rho (up, down):  7.889E-01 0.000E+00

     total cpu time spent up to now is      423.6 secs

     total energy              =   -4440.30405467 Ry
     estimated scf accuracy    <       0.00477082 Ry

     iteration # 29     ecut=    60.00 Ry     beta= 0.15
     Davidson diagonalization with overlap

---- Real-time Memory Report at c_bands before calling an iterative solver
             0 MiB given to the printing process from OS
             0 MiB allocation reported by mallinfo(arena+hblkhd)
         50350 MiB available memory on the node where the printing process lives
------------------
     ethr =  1.11E-06,  avg # of iterations =  2.2

     negative rho (up, down):  7.918E-01 0.000E+00

     total cpu time spent up to now is      437.9 secs

     total energy              =   -4440.30342665 Ry
     estimated scf accuracy    <       0.00353731 Ry

     iteration # 30     ecut=    60.00 Ry     beta= 0.15
     Davidson diagonalization with overlap

---- Real-time Memory Report at c_bands before calling an iterative solver
             0 MiB given to the printing process from OS
             0 MiB allocation reported by mallinfo(arena+hblkhd)
         50342 MiB available memory on the node where the printing process lives
------------------
     c_bands:  1 eigenvalues not converged
     ethr =  8.23E-07,  avg # of iterations =  9.1

     negative rho (up, down):  7.935E-01 0.000E+00

     total cpu time spent up to now is      455.6 secs

     total energy              =   -4440.30347468 Ry
     estimated scf accuracy    <       0.00115403 Ry

     iteration # 31     ecut=    60.00 Ry     beta= 0.15
     Davidson diagonalization with overlap

---- Real-time Memory Report at c_bands before calling an iterative solver
             0 MiB given to the printing process from OS
             0 MiB allocation reported by mallinfo(arena+hblkhd)
         50347 MiB available memory on the node where the printing process lives
------------------
     ethr =  2.68E-07,  avg # of iterations =  6.8

     negative rho (up, down):  7.952E-01 0.000E+00

     total cpu time spent up to now is      472.1 secs

     total energy              =   -4440.30358177 Ry
     estimated scf accuracy    <       0.00027299 Ry

     iteration # 32     ecut=    60.00 Ry     beta= 0.15
     Davidson diagonalization with overlap

---- Real-time Memory Report at c_bands before calling an iterative solver
             0 MiB given to the printing process from OS
             0 MiB allocation reported by mallinfo(arena+hblkhd)
         50309 MiB available memory on the node where the printing process lives
------------------
     ethr =  6.35E-08,  avg # of iterations =  4.3

     negative rho (up, down):  7.953E-01 0.000E+00

     total cpu time spent up to now is      487.5 secs

     total energy              =   -4440.30361518 Ry
     estimated scf accuracy    <       0.00010701 Ry

     iteration # 33     ecut=    60.00 Ry     beta= 0.15
     Davidson diagonalization with overlap

---- Real-time Memory Report at c_bands before calling an iterative solver
             0 MiB given to the printing process from OS
             0 MiB allocation reported by mallinfo(arena+hblkhd)
         50310 MiB available memory on the node where the printing process lives
------------------
     ethr =  2.49E-08,  avg # of iterations =  2.0

     negative rho (up, down):  7.943E-01 0.000E+00

     total cpu time spent up to now is      501.7 secs

     total energy              =   -4440.30361338 Ry
     estimated scf accuracy    <       0.00006537 Ry

     iteration # 34     ecut=    60.00 Ry     beta= 0.15
     Davidson diagonalization with overlap

---- Real-time Memory Report at c_bands before calling an iterative solver
             0 MiB given to the printing process from OS
             0 MiB allocation reported by mallinfo(arena+hblkhd)
         50338 MiB available memory on the node where the printing process lives
------------------
     ethr =  1.52E-08,  avg # of iterations =  2.0

     negative rho (up, down):  7.943E-01 0.000E+00

     total cpu time spent up to now is      515.9 secs

     total energy              =   -4440.30361982 Ry
     estimated scf accuracy    <       0.00003892 Ry

     iteration # 35     ecut=    60.00 Ry     beta= 0.15
     Davidson diagonalization with overlap

---- Real-time Memory Report at c_bands before calling an iterative solver
             0 MiB given to the printing process from OS
             0 MiB allocation reported by mallinfo(arena+hblkhd)
         50330 MiB available memory on the node where the printing process lives
------------------
     ethr =  9.05E-09,  avg # of iterations =  1.1

     negative rho (up, down):  7.933E-01 0.000E+00

     total cpu time spent up to now is      528.9 secs

     total energy              =   -4440.30361553 Ry
     estimated scf accuracy    <       0.00002714 Ry

     iteration # 36     ecut=    60.00 Ry     beta= 0.15
     Davidson diagonalization with overlap

---- Real-time Memory Report at c_bands before calling an iterative solver
             0 MiB given to the printing process from OS
             0 MiB allocation reported by mallinfo(arena+hblkhd)
         50332 MiB available memory on the node where the printing process lives
------------------
     ethr =  6.31E-09,  avg # of iterations =  3.2

     negative rho (up, down):  7.927E-01 0.000E+00

     total cpu time spent up to now is      543.6 secs

     total energy              =   -4440.30361801 Ry
     estimated scf accuracy    <       0.00001807 Ry

     iteration # 37     ecut=    60.00 Ry     beta= 0.15
     Davidson diagonalization with overlap

---- Real-time Memory Report at c_bands before calling an iterative solver
             0 MiB given to the printing process from OS
             0 MiB allocation reported by mallinfo(arena+hblkhd)
         50371 MiB available memory on the node where the printing process lives
------------------
     ethr =  4.20E-09,  avg # of iterations =  2.0

     negative rho (up, down):  7.924E-01 0.000E+00

     total cpu time spent up to now is      557.8 secs

     total energy              =   -4440.30362073 Ry
     estimated scf accuracy    <       0.00001264 Ry

     iteration # 38     ecut=    60.00 Ry     beta= 0.15
     Davidson diagonalization with overlap

---- Real-time Memory Report at c_bands before calling an iterative solver
             0 MiB given to the printing process from OS
             0 MiB allocation reported by mallinfo(arena+hblkhd)
         50361 MiB available memory on the node where the printing process lives
------------------
     ethr =  2.94E-09,  avg # of iterations =  2.7

     negative rho (up, down):  7.923E-01 0.000E+00

     total cpu time spent up to now is      572.3 secs

     total energy              =   -4440.30362028 Ry
     estimated scf accuracy    <       0.00000800 Ry

     iteration # 39     ecut=    60.00 Ry     beta= 0.15
     Davidson diagonalization with overlap

---- Real-time Memory Report at c_bands before calling an iterative solver
             0 MiB given to the printing process from OS
             0 MiB allocation reported by mallinfo(arena+hblkhd)
         50366 MiB available memory on the node where the printing process lives
------------------
     ethr =  1.86E-09,  avg # of iterations =  3.4

     negative rho (up, down):  7.925E-01 0.000E+00

     total cpu time spent up to now is      587.0 secs

     total energy              =   -4440.30361885 Ry
     estimated scf accuracy    <       0.00000651 Ry

     iteration # 40     ecut=    60.00 Ry     beta= 0.15
     Davidson diagonalization with overlap

---- Real-time Memory Report at c_bands before calling an iterative solver
             0 MiB given to the printing process from OS
             0 MiB allocation reported by mallinfo(arena+hblkhd)
         50381 MiB available memory on the node where the printing process lives
------------------
     ethr =  1.51E-09,  avg # of iterations =  3.2

     negative rho (up, down):  7.925E-01 0.000E+00

     total cpu time spent up to now is      602.3 secs

     total energy              =   -4440.30362032 Ry
     estimated scf accuracy    <       0.00000272 Ry

     iteration # 41     ecut=    60.00 Ry     beta= 0.15
     Davidson diagonalization with overlap

---- Real-time Memory Report at c_bands before calling an iterative solver
             0 MiB given to the printing process from OS
             0 MiB allocation reported by mallinfo(arena+hblkhd)
         50390 MiB available memory on the node where the printing process lives
------------------
     ethr =  6.34E-10,  avg # of iterations =  2.0

     negative rho (up, down):  7.926E-01 0.000E+00

     total cpu time spent up to now is      616.4 secs

     total energy              =   -4440.30362077 Ry
     estimated scf accuracy    <       0.00000196 Ry

     iteration # 42     ecut=    60.00 Ry     beta= 0.15
     Davidson diagonalization with overlap

---- Real-time Memory Report at c_bands before calling an iterative solver
             0 MiB given to the printing process from OS
             0 MiB allocation reported by mallinfo(arena+hblkhd)
         50416 MiB available memory on the node where the printing process lives
------------------
     ethr =  4.56E-10,  avg # of iterations =  2.8

     negative rho (up, down):  7.926E-01 0.000E+00

     total cpu time spent up to now is      630.8 secs

     total energy              =   -4440.30362080 Ry
     estimated scf accuracy    <       0.00000115 Ry

     iteration # 43     ecut=    60.00 Ry     beta= 0.15
     Davidson diagonalization with overlap

---- Real-time Memory Report at c_bands before calling an iterative solver
             0 MiB given to the printing process from OS
             0 MiB allocation reported by mallinfo(arena+hblkhd)
         50414 MiB available memory on the node where the printing process lives
------------------
     ethr =  2.67E-10,  avg # of iterations =  2.0

     negative rho (up, down):  7.927E-01 0.000E+00

     total cpu time spent up to now is      644.9 secs

     total energy              =   -4440.30362083 Ry
     estimated scf accuracy    <       0.00000055 Ry

     iteration # 44     ecut=    60.00 Ry     beta= 0.15
     Davidson diagonalization with overlap

---- Real-time Memory Report at c_bands before calling an iterative solver
             0 MiB given to the printing process from OS
             0 MiB allocation reported by mallinfo(arena+hblkhd)
         50420 MiB available memory on the node where the printing process lives
------------------
     ethr =  1.28E-10,  avg # of iterations =  2.1

     negative rho (up, down):  7.927E-01 0.000E+00

     total cpu time spent up to now is      658.9 secs

     total energy              =   -4440.30362082 Ry
     estimated scf accuracy    <       0.00000040 Ry

     iteration # 45     ecut=    60.00 Ry     beta= 0.15
     Davidson diagonalization with overlap

---- Real-time Memory Report at c_bands before calling an iterative solver
             0 MiB given to the printing process from OS
             0 MiB allocation reported by mallinfo(arena+hblkhd)
         50422 MiB available memory on the node where the printing process lives
------------------
     ethr =  9.28E-11,  avg # of iterations =  1.9

     negative rho (up, down):  7.926E-01 0.000E+00

     total cpu time spent up to now is      672.9 secs

     total energy              =   -4440.30362083 Ry
     estimated scf accuracy    <       0.00000027 Ry

     iteration # 46     ecut=    60.00 Ry     beta= 0.15
     Davidson diagonalization with overlap

---- Real-time Memory Report at c_bands before calling an iterative solver
             0 MiB given to the printing process from OS
             0 MiB allocation reported by mallinfo(arena+hblkhd)
         50419 MiB available memory on the node where the printing process lives
------------------
     ethr =  6.24E-11,  avg # of iterations =  2.6

     negative rho (up, down):  7.926E-01 0.000E+00

     total cpu time spent up to now is      687.4 secs

     total energy              =   -4440.30362093 Ry
     estimated scf accuracy    <       0.00000008 Ry

     iteration # 47     ecut=    60.00 Ry     beta= 0.15
     Davidson diagonalization with overlap

---- Real-time Memory Report at c_bands before calling an iterative solver
             0 MiB given to the printing process from OS
             0 MiB allocation reported by mallinfo(arena+hblkhd)
         50418 MiB available memory on the node where the printing process lives
------------------
     ethr =  1.85E-11,  avg # of iterations =  3.0

     negative rho (up, down):  7.926E-01 0.000E+00

     total cpu time spent up to now is      702.2 secs

     total energy              =   -4440.30362095 Ry
     estimated scf accuracy    <       0.00000003 Ry

     iteration # 48     ecut=    60.00 Ry     beta= 0.15
     Davidson diagonalization with overlap

---- Real-time Memory Report at c_bands before calling an iterative solver
             0 MiB given to the printing process from OS
             0 MiB allocation reported by mallinfo(arena+hblkhd)
         50402 MiB available memory on the node where the printing process lives
------------------
     ethr =  7.36E-12,  avg # of iterations =  2.0

     negative rho (up, down):  7.926E-01 0.000E+00

     total cpu time spent up to now is      716.3 secs

     total energy              =   -4440.30362096 Ry
     estimated scf accuracy    <       0.00000002 Ry

     iteration # 49     ecut=    60.00 Ry     beta= 0.15
     Davidson diagonalization with overlap

---- Real-time Memory Report at c_bands before calling an iterative solver
             0 MiB given to the printing process from OS
             0 MiB allocation reported by mallinfo(arena+hblkhd)
         50470 MiB available memory on the node where the printing process lives
------------------
     ethr =  4.53E-12,  avg # of iterations =  2.9

     negative rho (up, down):  7.926E-01 0.000E+00

     total cpu time spent up to now is      730.5 secs

     End of self-consistent calculation

          k = 0.0000 0.0000 0.0000 ( 65197 PWs)   bands (ev):

   -92.8869 -92.8376 -92.7418 -92.6938 -92.6382 -92.5938 -92.5761 -92.4552
   -56.2405 -56.2232 -56.0983 -56.0873 -56.0810 -56.0742 -56.0411 -56.0104
   -55.9949 -55.9937 -55.9881 -55.9446 -55.9244 -55.8891 -55.8688 -55.8381
   -55.8294 -55.7813 -55.7813 -55.7785 -55.7701 -55.7304 -55.7061 -55.6205
   -31.4503 -31.4297 -31.2896 -31.2400 -31.2018 -31.1897 -30.8618 -30.8236
   -30.0315 -29.9875 -29.9635 -29.8538 -15.2632 -15.2128 -15.1371 -15.0074
   -14.8055 -14.6846 -14.3984 -14.3779 -14.3492 -14.3045 -14.2554 -14.2430
   -14.2325 -14.2115 -14.1870 -14.1621 -14.1122 -13.9587 -13.7707 -13.7460
   -13.7168 -13.6775 -13.6598 -13.6077 -13.5757 -13.4926 -13.4246 -13.3041
   -13.2826 -13.2745 -13.2481 -13.2376 -13.2299 -13.1802 -13.1748 -13.1536
   -13.1287 -13.0957 -13.0787 -13.0687 -13.0551 -13.0386 -12.9221 -12.8913
   -12.8306 -12.7452 -12.7173 -12.6939 -12.5166 -12.3702 -12.1666 -12.0921
   -12.0442 -11.9888 -11.9704 -11.9599 -11.9359 -11.9188 -11.8552 -11.8382
   -11.8028 -11.7747 -11.6621 -11.5830 -11.5794  -3.1237  -2.8926  -2.6631
    -2.5138  -2.4533  -2.3116  -2.0029  -1.9879  -1.9704  -1.8806  -1.8639
    -1.7961  -1.7792  -1.7390  -1.6956  -1.5135  -1.2859  -1.2555  -1.1142
    -1.0992  -1.0495  -1.0324  -0.9852  -0.9680  -0.9170  -0.8897  -0.8132
    -0.8026  -0.7302  -0.5947  -0.5818  -0.5537  -0.4739  -0.4446  -0.3967
    -0.3708  -0.3082  -0.2575  -0.2077  -0.1835  -0.1132  -0.0464  -0.0020
     0.0230   0.0350   0.2945   0.3116   0.4853   0.5460   0.6109   0.6649
     0.7455   0.7582   0.7740   0.8439   0.8704   0.9042   0.9608   1.0902
     1.1513   1.1730   1.2010   1.2123   1.2697   1.3365   1.4534   1.4713
     1.5306   1.5347   1.5812   1.6005   1.6126   1.6657   1.7305   1.7350
     1.7754   1.8041   1.8468   1.9789   2.0691   2.1075   2.1258   2.2715
     2.2854   2.3274   2.3350   2.4404   2.4752   2.5009   2.5203   2.5365
     2.5707   2.6238   2.6249   2.6542   2.7260   2.7626   2.7686   2.7737
     2.8417   2.8528   2.8690   2.8767   2.8865   2.8983   2.9067   2.9228
     2.9283   2.9371   2.9455   2.9540   2.9729   2.9940   2.9987   3.0114
     3.0362   3.1513   3.2525   3.9327   4.2504   4.6076   4.8262   4.8639
     5.7681   5.8091   5.8332   5.8874   6.1306   6.1769   6.4309   6.4412
     6.9383   6.9892   7.0765   7.1570   7.4391   7.5361   7.5559   7.5621
     7.6513   7.8634   7.8774   7.9718   8.0289   8.1396   8.2946   8.6035
     8.7680   8.9302

     occupation numbers 
     1.0000   1.0000   1.0000   1.0000   1.0000   1.0000   1.0000   1.0000
     1.0000   1.0000   1.0000   1.0000   1.0000   1.0000   1.0000   1.0000
     1.0000   1.0000   1.0000   1.0000   1.0000   1.0000   1.0000   1.0000
     1.0000   1.0000   1.0000   1.0000   1.0000   1.0000   1.0000   1.0000
     1.0000   1.0000   1.0000   1.0000   1.0000   1.0000   1.0000   1.0000
     1.0000   1.0000   1.0000   1.0000   1.0000   1.0000   1.0000   1.0000
     1.0000   1.0000   1.0000   1.0000   1.0000   1.0000   1.0000   1.0000
     1.0000   1.0000   1.0000   1.0000   1.0000   1.0000   1.0000   1.0000
     1.0000   1.0000   1.0000   1.0000   1.0000   1.0000   1.0000   1.0000
     1.0000   1.0000   1.0000   1.0000   1.0000   1.0000   1.0000   1.0000
     1.0000   1.0000   1.0000   1.0000   1.0000   1.0000   1.0000   1.0000
     1.0000   1.0000   1.0000   1.0000   1.0000   1.0000   1.0000   1.0000
     1.0000   1.0000   1.0000   1.0000   1.0000   1.0000   1.0000   1.0000
     1.0000   1.0000   1.0000   1.0000   1.0000   1.0000   1.0000   1.0000
     1.0000   1.0000   1.0000   1.0000   1.0000   1.0000   1.0000   1.0000
     1.0000   1.0000   1.0000   1.0000   1.0000   1.0000   1.0000   1.0000
     1.0000   1.0000   1.0000   1.0000   1.0000   1.0000   1.0000   1.0000
     1.0000   1.0000   1.0000   1.0000   1.0000   1.0000   1.0000   1.0000
     1.0000   1.0000   1.0000   1.0000   1.0000   1.0000   1.0000   1.0000
     1.0000   1.0000   1.0000   1.0000   1.0000   0.9999   0.9999   0.9999
     0.9998   0.9998   0.9998   0.9997   0.9996   0.9996   0.9994   0.9988
     0.9984   0.9983   0.9980   0.9979   0.9973   0.9963   0.9939   0.9934
     0.9916   0.9915   0.9898   0.9889   0.9884   0.9858   0.9819   0.9816
     0.9788   0.9765   0.9727   0.9579   0.9444   0.9377   0.9343   0.9019
     0.8982   0.8867   0.8845   0.8512   0.8388   0.8293   0.8219   0.8156
     0.8017   0.7791   0.7786   0.7655   0.7315   0.7133   0.7102   0.7076
     0.6720   0.6660   0.6572   0.6530   0.6476   0.6411   0.6364   0.6274
     0.6243   0.6194   0.6146   0.6098   0.5990   0.5868   0.5841   0.5767
     0.5623   0.4943   0.4347   0.1201   0.0498   0.0148   0.0062   0.0053
     0.0000   0.0000   0.0000   0.0000   0.0000   0.0000   0.0000   0.0000
     0.0000   0.0000   0.0000   0.0000   0.0000   0.0000   0.0000   0.0000
     0.0000   0.0000   0.0000   0.0000   0.0000   0.0000   0.0000   0.0000
     0.0000   0.0000

          k = 0.0000 0.2500 0.0000 ( 65257 PWs)   bands (ev):

   -92.8869 -92.8376 -92.7418 -92.6938 -92.6382 -92.5938 -92.5761 -92.4552
   -56.2405 -56.2232 -56.0983 -56.0873 -56.0810 -56.0742 -56.0411 -56.0104
   -55.9949 -55.9937 -55.9881 -55.9446 -55.9244 -55.8891 -55.8688 -55.8381
   -55.8294 -55.7813 -55.7813 -55.7785 -55.7701 -55.7304 -55.7061 -55.6205
   -31.4501 -31.4296 -31.2898 -31.2395 -31.2019 -31.1903 -30.8610 -30.8245
   -30.0308 -29.9872 -29.9641 -29.8542 -15.2269 -15.1864 -15.1121 -14.9778
   -14.8487 -14.6749 -14.5451 -14.3652 -14.3245 -14.3078 -14.2799 -14.2187
   -14.2133 -14.1962 -14.1730 -14.1247 -14.0304 -13.9882 -13.8256 -13.7958
   -13.7574 -13.7196 -13.6592 -13.6302 -13.5795 -13.5185 -13.4789 -13.4168
   -13.3449 -13.3199 -13.2814 -13.2663 -13.2136 -13.1642 -13.1396 -13.1105
   -13.0918 -13.0740 -13.0403 -12.9904 -12.9721 -12.9630 -12.9065 -12.8904
   -12.8151 -12.7355 -12.6418 -12.5815 -12.5778 -12.4213 -12.2247 -12.1586
   -12.0097 -11.9888 -11.9672 -11.9392 -11.9115 -11.8948 -11.8467 -11.8359
   -11.8135 -11.7784 -11.6766 -11.6246 -11.6140  -2.9881  -2.7683  -2.6299
    -2.4474  -2.4042  -2.2419  -2.0181  -1.9384  -1.9252  -1.8606  -1.7630
    -1.7468  -1.7138  -1.6854  -1.6414  -1.4449  -1.3146  -1.3031  -1.2258
    -1.2160  -1.1134  -1.0845  -1.0253  -0.9980  -0.9607  -0.8937  -0.8661
    -0.8352  -0.8042  -0.7871  -0.7538  -0.6804  -0.6304  -0.5496  -0.4440
    -0.4126  -0.3708  -0.2698  -0.2258  -0.1634  -0.1212  -0.0591  -0.0473
    -0.0213   0.0406   0.3438   0.4300   0.4659   0.5512   0.5975   0.6219
     0.7289   0.7473   0.8438   0.8715   0.8951   1.0091   1.1102   1.1265
     1.1538   1.1748   1.1940   1.2533   1.2816   1.3098   1.3557   1.3946
     1.4271   1.5185   1.5567   1.5810   1.6352   1.6897   1.7295   1.7596
     1.7811   1.7946   1.8990   2.0183   2.0922   2.1096   2.1780   2.2244
     2.2675   2.2737   2.3342   2.3713   2.4565   2.4989   2.5117   2.5817
     2.6196   2.6429   2.6847   2.7049   2.7382   2.7641   2.7767   2.7847
     2.7907   2.7994   2.8300   2.8330   2.8496   2.8618   2.8636   2.8837
     2.8998   2.9037   2.9236   2.9351   2.9418   2.9760   2.9917   3.0507
     3.4243   3.4685   3.6996   4.1232   4.2474   4.5495   4.8808   4.9881
     5.5116   5.6526   5.8087   5.9110   5.9572   6.0378   6.0630   6.5457
     7.0270   7.0423   7.2061   7.2401   7.3426   7.4024   7.5424   7.6403
     7.7839   7.9932   8.0691   8.1042   8.2664   8.2918   8.3150   8.3906
     8.6095   8.8145

     occupation numbers 
     1.0000   1.0000   1.0000   1.0000   1.0000   1.0000   1.0000   1.0000
     1.0000   1.0000   1.0000   1.0000   1.0000   1.0000   1.0000   1.0000
     1.0000   1.0000   1.0000   1.0000   1.0000   1.0000   1.0000   1.0000
     1.0000   1.0000   1.0000   1.0000   1.0000   1.0000   1.0000   1.0000
     1.0000   1.0000   1.0000   1.0000   1.0000   1.0000   1.0000   1.0000
     1.0000   1.0000   1.0000   1.0000   1.0000   1.0000   1.0000   1.0000
     1.0000   1.0000   1.0000   1.0000   1.0000   1.0000   1.0000   1.0000
     1.0000   1.0000   1.0000   1.0000   1.0000   1.0000   1.0000   1.0000
     1.0000   1.0000   1.0000   1.0000   1.0000   1.0000   1.0000   1.0000
     1.0000   1.0000   1.0000   1.0000   1.0000   1.0000   1.0000   1.0000
     1.0000   1.0000   1.0000   1.0000   1.0000   1.0000   1.0000   1.0000
     1.0000   1.0000   1.0000   1.0000   1.0000   1.0000   1.0000   1.0000
     1.0000   1.0000   1.0000   1.0000   1.0000   1.0000   1.0000   1.0000
     1.0000   1.0000   1.0000   1.0000   1.0000   1.0000   1.0000   1.0000
     1.0000   1.0000   1.0000   1.0000   1.0000   1.0000   1.0000   1.0000
     1.0000   1.0000   1.0000   1.0000   1.0000   1.0000   1.0000   1.0000
     1.0000   1.0000   1.0000   1.0000   1.0000   1.0000   1.0000   1.0000
     1.0000   1.0000   1.0000   1.0000   1.0000   1.0000   1.0000   1.0000
     1.0000   1.0000   1.0000   1.0000   1.0000   1.0000   1.0000   1.0000
     1.0000   1.0000   1.0000   1.0000   1.0000   0.9999   0.9999   0.9999
     0.9998   0.9998   0.9997   0.9996   0.9996   0.9992   0.9987   0.9986
     0.9984   0.9983   0.9981   0.9975   0.9971   0.9967   0.9960   0.9953
     0.9946   0.9920   0.9907   0.9898   0.9874   0.9845   0.9820   0.9799
     0.9783   0.9773   0.9675   0.9524   0.9404   0.9373   0.9238   0.9134
     0.9029   0.9013   0.8847   0.8737   0.8455   0.8301   0.8252   0.7972
     0.7809   0.7705   0.7513   0.7417   0.7255   0.7125   0.7061   0.7020
     0.6989   0.6944   0.6783   0.6767   0.6677   0.6612   0.6602   0.6492
     0.6403   0.6381   0.6270   0.6205   0.6167   0.5972   0.5881   0.5537
     0.3374   0.3138   0.2037   0.0725   0.0503   0.0183   0.0049   0.0031
     0.0002   0.0001   0.0000   0.0000   0.0000   0.0000   0.0000   0.0000
     0.0000   0.0000   0.0000   0.0000   0.0000   0.0000   0.0000   0.0000
     0.0000   0.0000   0.0000   0.0000   0.0000   0.0000   0.0000   0.0000
     0.0000   0.0000

          k = 0.0000-0.5000 0.0000 ( 65180 PWs)   bands (ev):

   -92.8869 -92.8376 -92.7418 -92.6938 -92.6382 -92.5938 -92.5761 -92.4552
   -56.2405 -56.2232 -56.0983 -56.0873 -56.0810 -56.0742 -56.0411 -56.0104
   -55.9949 -55.9937 -55.9881 -55.9446 -55.9244 -55.8891 -55.8688 -55.8381
   -55.8294 -55.7813 -55.7813 -55.7785 -55.7701 -55.7304 -55.7061 -55.6205
   -31.4499 -31.4295 -31.2900 -31.2388 -31.2021 -31.1910 -30.8601 -30.8254
   -30.0302 -29.9869 -29.9648 -29.8545 -15.1891 -15.1406 -15.0864 -14.9545
   -14.8765 -14.7368 -14.5812 -14.4535 -14.3382 -14.2650 -14.2213 -14.2143
   -14.1615 -14.1494 -14.1033 -14.0709 -14.0551 -14.0156 -13.9623 -13.9380
   -13.7643 -13.7047 -13.6600 -13.6364 -13.5723 -13.5364 -13.4921 -13.4543
   -13.4350 -13.3894 -13.2823 -13.2677 -13.1805 -13.1697 -13.1400 -13.1188
   -13.1014 -13.0561 -12.9652 -12.9534 -12.8985 -12.8865 -12.8793 -12.8263
   -12.8009 -12.7356 -12.6887 -12.5033 -12.4957 -12.3849 -12.3332 -12.3021
   -11.9891 -11.9641 -11.9612 -11.9342 -11.8980 -11.8630 -11.8520 -11.8084
   -11.8047 -11.7592 -11.6989 -11.6853 -11.6712  -2.7727  -2.7152  -2.5648
    -2.4935  -2.2072  -2.1269  -1.9998  -1.8641  -1.8187  -1.8056  -1.7286
    -1.6955  -1.6146  -1.5788  -1.4985  -1.4611  -1.4237  -1.3960  -1.3335
    -1.3010  -1.2491  -1.2158  -1.1851  -1.1494  -1.0412  -0.9969  -0.9583
    -0.9554  -0.8691  -0.8391  -0.8173  -0.7695  -0.6775  -0.6082  -0.5146
    -0.4687  -0.3788  -0.3512  -0.2123  -0.1443  -0.1397  -0.0897   0.0312
     0.0991   0.2090   0.2803   0.2910   0.4156   0.4876   0.5694   0.6989
     0.7994   0.8336   0.8737   0.8903   0.9212   0.9346   0.9681   0.9855
     0.9974   1.1087   1.1685   1.2040   1.2338   1.5048   1.5222   1.5446
     1.6353   1.6592   1.6935   1.7144   1.7311   1.7586   1.7600   1.7840
     1.8268   1.8527   1.8850   1.8883   1.9182   1.9715   2.0655   2.1009
     2.2617   2.4200   2.4280   2.4491   2.4846   2.4920   2.4999   2.5408
     2.5598   2.5804   2.6120   2.6226   2.6372   2.6463   2.7192   2.7385
     2.8010   2.8050   2.8285   2.8353   2.8464   2.8505   2.8545   2.8616
     2.8687   2.8810   2.8938   2.8981   2.9601   2.9657   2.9812   3.0371
     3.9460   3.9641   4.0137   4.0995   4.5581   4.7321   4.9003   5.0158
     5.2820   5.3630   5.4863   5.5967   5.8640   5.8700   6.3857   6.5527
     6.7873   6.8930   7.1402   7.3060   7.5771   7.6429   7.7109   7.7711
     7.8312   7.9770   8.0453   8.1995   8.2344   8.3444   8.4614   8.5144
     8.6851   8.7626

     occupation numbers 
     1.0000   1.0000   1.0000   1.0000   1.0000   1.0000   1.0000   1.0000
     1.0000   1.0000   1.0000   1.0000   1.0000   1.0000   1.0000   1.0000
     1.0000   1.0000   1.0000   1.0000   1.0000   1.0000   1.0000   1.0000
     1.0000   1.0000   1.0000   1.0000   1.0000   1.0000   1.0000   1.0000
     1.0000   1.0000   1.0000   1.0000   1.0000   1.0000   1.0000   1.0000
     1.0000   1.0000   1.0000   1.0000   1.0000   1.0000   1.0000   1.0000
     1.0000   1.0000   1.0000   1.0000   1.0000   1.0000   1.0000   1.0000
     1.0000   1.0000   1.0000   1.0000   1.0000   1.0000   1.0000   1.0000
     1.0000   1.0000   1.0000   1.0000   1.0000   1.0000   1.0000   1.0000
     1.0000   1.0000   1.0000   1.0000   1.0000   1.0000   1.0000   1.0000
     1.0000   1.0000   1.0000   1.0000   1.0000   1.0000   1.0000   1.0000
     1.0000   1.0000   1.0000   1.0000   1.0000   1.0000   1.0000   1.0000
     1.0000   1.0000   1.0000   1.0000   1.0000   1.0000   1.0000   1.0000
     1.0000   1.0000   1.0000   1.0000   1.0000   1.0000   1.0000   1.0000
     1.0000   1.0000   1.0000   1.0000   1.0000   1.0000   1.0000   1.0000
     1.0000   1.0000   1.0000   1.0000   1.0000   1.0000   1.0000   1.0000
     1.0000   1.0000   1.0000   1.0000   1.0000   1.0000   1.0000   1.0000
     1.0000   1.0000   1.0000   1.0000   1.0000   1.0000   1.0000   1.0000
     1.0000   1.0000   1.0000   1.0000   1.0000   1.0000   1.0000   1.0000
     1.0000   1.0000   1.0000   1.0000   1.0000   1.0000   0.9999   0.9999
     0.9997   0.9997   0.9996   0.9996   0.9995   0.9995   0.9994   0.9993
     0.9993   0.9987   0.9983   0.9980   0.9977   0.9925   0.9919   0.9911
     0.9874   0.9861   0.9842   0.9830   0.9819   0.9800   0.9799   0.9781
     0.9746   0.9722   0.9690   0.9686   0.9654   0.9589   0.9450   0.9389
     0.9043   0.8581   0.8554   0.8481   0.8354   0.8327   0.8297   0.8139
     0.8062   0.7977   0.7842   0.7796   0.7731   0.7690   0.7348   0.7253
     0.6935   0.6915   0.6791   0.6755   0.6695   0.6673   0.6651   0.6613
     0.6574   0.6507   0.6436   0.6412   0.6063   0.6031   0.5942   0.5617
     0.1162   0.1110   0.0977   0.0775   0.0177   0.0091   0.0045   0.0027
     0.0007   0.0005   0.0002   0.0001   0.0000   0.0000   0.0000   0.0000
     0.0000   0.0000   0.0000   0.0000   0.0000   0.0000   0.0000   0.0000
     0.0000   0.0000   0.0000   0.0000   0.0000   0.0000   0.0000   0.0000
     0.0000   0.0000

          k = 0.2500 0.2500 0.0000 ( 65198 PWs)   bands (ev):

   -92.8869 -92.8376 -92.7418 -92.6938 -92.6382 -92.5938 -92.5761 -92.4552
   -56.2405 -56.2232 -56.0983 -56.0873 -56.0810 -56.0742 -56.0411 -56.0104
   -55.9949 -55.9937 -55.9881 -55.9446 -55.9244 -55.8891 -55.8688 -55.8381
   -55.8294 -55.7813 -55.7813 -55.7785 -55.7701 -55.7304 -55.7061 -55.6205
   -31.4485 -31.4312 -31.2894 -31.2394 -31.2023 -31.1903 -30.8611 -30.8246
   -30.0299 -29.9882 -29.9637 -29.8546 -15.1977 -15.1513 -15.0841 -14.9674
   -14.8421 -14.7172 -14.6511 -14.4390 -14.2881 -14.2733 -14.2372 -14.2077
   -14.1844 -14.1515 -14.1205 -14.0882 -14.0208 -14.0015 -13.8420 -13.8266
   -13.7979 -13.7780 -13.6990 -13.6862 -13.6044 -13.6014 -13.4687 -13.4299
   -13.4014 -13.3146 -13.2748 -13.2248 -13.1959 -13.1880 -13.1568 -13.1199
   -13.1036 -13.0855 -13.0236 -12.9879 -12.9183 -12.8884 -12.8646 -12.8336
   -12.8000 -12.7323 -12.6264 -12.5946 -12.5255 -12.4503 -12.2579 -12.1981
   -11.9894 -11.9816 -11.9506 -11.9394 -11.9329 -11.8696 -11.8358 -11.8288
   -11.7928 -11.7859 -11.6932 -11.6529 -11.6353  -2.8496  -2.6425  -2.5241
    -2.4276  -2.3093  -2.2450  -2.0426  -1.9024  -1.8841  -1.8485  -1.7572
    -1.7245  -1.6296  -1.6009  -1.5507  -1.4214  -1.3719  -1.2970  -1.2539
    -1.2083  -1.1863  -1.1633  -1.1205  -1.1051  -1.0137  -0.9638  -0.8920
    -0.8456  -0.8171  -0.7707  -0.7540  -0.6903  -0.6403  -0.5730  -0.5469
    -0.4522  -0.4083  -0.3747  -0.3419  -0.2866  -0.2036  -0.1745  -0.1393
    -0.0685  -0.0350   0.2310   0.3841   0.4130   0.4789   0.5174   0.5786
     0.6220   0.6928   0.7281   1.0004   1.0613   1.1350   1.1574   1.2150
     1.2380   1.2763   1.3132   1.3287   1.3561   1.4053   1.4115   1.4302
     1.4765   1.5113   1.5491   1.6152   1.6505   1.6659   1.6928   1.7284
     1.7854   1.8068   1.9365   1.9992   2.0335   2.0518   2.1264   2.1863
     2.2138   2.2492   2.2784   2.2867   2.4000   2.4385   2.5250   2.5771
     2.6165   2.6433   2.6947   2.7122   2.7161   2.7347   2.7485   2.7623
     2.7745   2.7794   2.7921   2.8063   2.8260   2.8345   2.8407   2.8532
     2.8790   2.8867   2.8954   2.9270   3.2266   3.3193   3.3740   3.4389
     3.4568   3.6869   3.7704   4.1293   4.3375   4.5556   4.8036   5.1274
     5.4983   5.5610   5.6197   5.6571   5.7195   6.0878   6.1518   6.1738
     6.8341   7.0902   7.2463   7.3864   7.4511   7.4788   7.5898   7.7567
     7.8325   8.0240   8.1992   8.2177   8.3238   8.3777   8.4370   8.4842
     8.5415   8.6945

     occupation numbers 
     1.0000   1.0000   1.0000   1.0000   1.0000   1.0000   1.0000   1.0000
     1.0000   1.0000   1.0000   1.0000   1.0000   1.0000   1.0000   1.0000
     1.0000   1.0000   1.0000   1.0000   1.0000   1.0000   1.0000   1.0000
     1.0000   1.0000   1.0000   1.0000   1.0000   1.0000   1.0000   1.0000
     1.0000   1.0000   1.0000   1.0000   1.0000   1.0000   1.0000   1.0000
     1.0000   1.0000   1.0000   1.0000   1.0000   1.0000   1.0000   1.0000
     1.0000   1.0000   1.0000   1.0000   1.0000   1.0000   1.0000   1.0000
     1.0000   1.0000   1.0000   1.0000   1.0000   1.0000   1.0000   1.0000
     1.0000   1.0000   1.0000   1.0000   1.0000   1.0000   1.0000   1.0000
     1.0000   1.0000   1.0000   1.0000   1.0000   1.0000   1.0000   1.0000
     1.0000   1.0000   1.0000   1.0000   1.0000   1.0000   1.0000   1.0000
     1.0000   1.0000   1.0000   1.0000   1.0000   1.0000   1.0000   1.0000
     1.0000   1.0000   1.0000   1.0000   1.0000   1.0000   1.0000   1.0000
     1.0000   1.0000   1.0000   1.0000   1.0000   1.0000   1.0000   1.0000
     1.0000   1.0000   1.0000   1.0000   1.0000   1.0000   1.0000   1.0000
     1.0000   1.0000   1.0000   1.0000   1.0000   1.0000   1.0000   1.0000
     1.0000   1.0000   1.0000   1.0000   1.0000   1.0000   1.0000   1.0000
     1.0000   1.0000   1.0000   1.0000   1.0000   1.0000   1.0000   1.0000
     1.0000   1.0000   1.0000   1.0000   1.0000   1.0000   1.0000   1.0000
     1.0000   1.0000   1.0000   1.0000   1.0000   1.0000   1.0000   0.9999
     0.9999   0.9999   0.9998   0.9993   0.9990   0.9986   0.9984   0.9979
     0.9976   0.9972   0.9967   0.9965   0.9960   0.9950   0.9949   0.9945
     0.9933   0.9923   0.9910   0.9883   0.9866   0.9858   0.9843   0.9821
     0.9780   0.9763   0.9632   0.9551   0.9501   0.9472   0.9342   0.9220
     0.9159   0.9075   0.9001   0.8979   0.8646   0.8518   0.8201   0.7991
     0.7823   0.7704   0.7466   0.7382   0.7363   0.7272   0.7203   0.7134
     0.7072   0.7047   0.6982   0.6908   0.6804   0.6759   0.6726   0.6658
     0.6518   0.6476   0.6427   0.6250   0.4498   0.3960   0.3651   0.3295
     0.3199   0.2091   0.1753   0.0713   0.0379   0.0179   0.0068   0.0016
     0.0002   0.0002   0.0001   0.0001   0.0001   0.0000   0.0000   0.0000
     0.0000   0.0000   0.0000   0.0000   0.0000   0.0000   0.0000   0.0000
     0.0000   0.0000   0.0000   0.0000   0.0000   0.0000   0.0000   0.0000
     0.0000   0.0000

          k = 0.2500-0.5000 0.0000 ( 65138 PWs)   bands (ev):

   -92.8869 -92.8376 -92.7418 -92.6938 -92.6382 -92.5938 -92.5761 -92.4552
   -56.2405 -56.2232 -56.0983 -56.0873 -56.0810 -56.0742 -56.0411 -56.0104
   -55.9949 -55.9937 -55.9881 -55.9446 -55.9244 -55.8891 -55.8688 -55.8381
   -55.8294 -55.7813 -55.7813 -55.7785 -55.7701 -55.7304 -55.7061 -55.6205
   -31.4483 -31.4311 -31.2896 -31.2388 -31.2024 -31.1909 -30.8602 -30.8255
   -30.0293 -29.9879 -29.9644 -29.8549 -15.1582 -15.1136 -15.0430 -14.9259
   -14.8981 -14.7785 -14.6854 -14.5530 -14.2538 -14.1973 -14.1725 -14.1474
   -14.1336 -14.1223 -14.0865 -14.0607 -14.0307 -13.9966 -13.9638 -13.9216
   -13.8451 -13.7959 -13.7181 -13.7123 -13.6440 -13.6152 -13.5277 -13.4872
   -13.3795 -13.3149 -13.2938 -13.2093 -13.1700 -13.1561 -13.1534 -13.1286
   -13.1138 -13.0849 -12.9752 -12.9568 -12.8968 -12.8800 -12.8312 -12.8102
   -12.7960 -12.7418 -12.6948 -12.4948 -12.4879 -12.3667 -12.3218 -12.3011
   -11.9892 -11.9577 -11.9455 -11.9350 -11.9083 -11.8760 -11.8485 -11.8059
   -11.7794 -11.7566 -11.7117 -11.6866 -11.6750  -2.6299  -2.5669  -2.4384
    -2.3621  -2.2277  -2.1466  -2.0240  -1.8745  -1.8168  -1.7957  -1.7353
    -1.7230  -1.6256  -1.5578  -1.4738  -1.4211  -1.4116  -1.3512  -1.3052
    -1.2739  -1.2253  -1.1870  -1.1528  -1.1148  -1.1019  -1.0570  -1.0268
    -0.9825  -0.9529  -0.8857  -0.7801  -0.7453  -0.6629  -0.5965  -0.5406
    -0.5043  -0.4879  -0.4211  -0.2722  -0.2607  -0.1369  -0.1243  -0.1166
    -0.0720  -0.0322  -0.0014   0.0320   0.0954   0.3867   0.4895   0.5356
     0.5888   0.8695   0.8813   0.9729   0.9972   1.1586   1.1992   1.2336
     1.2561   1.2687   1.2920   1.3573   1.4103   1.4432   1.5146   1.6227
     1.6512   1.6711   1.6766   1.7165   1.7278   1.7406   1.7825   1.7909
     1.8123   1.8466   1.8591   1.8784   1.9145   1.9717   2.0192   2.0978
     2.2272   2.3715   2.3896   2.4083   2.4393   2.4582   2.4862   2.5067
     2.5199   2.5387   2.5752   2.6136   2.6429   2.6447   2.7003   2.7127
     2.7253   2.7324   2.7502   2.7630   2.7833   2.7932   2.8339   2.8417
     2.8511   2.8576   2.8684   2.8765   3.3955   3.4265   3.5586   3.6136
     3.9486   4.0087   4.0202   4.1486   4.5772   4.7526   4.9199   4.9720
     5.1306   5.3086   5.5065   5.5437   5.6278   5.6673   6.3401   6.4437
     6.4825   6.6476   7.3920   7.5835   7.6556   7.7020   7.7337   7.7854
     7.9032   7.9299   8.2026   8.3251   8.4014   8.4366   8.5456   8.5839
     8.6250   8.6540

     occupation numbers 
     1.0000   1.0000   1.0000   1.0000   1.0000   1.0000   1.0000   1.0000
     1.0000   1.0000   1.0000   1.0000   1.0000   1.0000   1.0000   1.0000
     1.0000   1.0000   1.0000   1.0000   1.0000   1.0000   1.0000   1.0000
     1.0000   1.0000   1.0000   1.0000   1.0000   1.0000   1.0000   1.0000
     1.0000   1.0000   1.0000   1.0000   1.0000   1.0000   1.0000   1.0000
     1.0000   1.0000   1.0000   1.0000   1.0000   1.0000   1.0000   1.0000
     1.0000   1.0000   1.0000   1.0000   1.0000   1.0000   1.0000   1.0000
     1.0000   1.0000   1.0000   1.0000   1.0000   1.0000   1.0000   1.0000
     1.0000   1.0000   1.0000   1.0000   1.0000   1.0000   1.0000   1.0000
     1.0000   1.0000   1.0000   1.0000   1.0000   1.0000   1.0000   1.0000
     1.0000   1.0000   1.0000   1.0000   1.0000   1.0000   1.0000   1.0000
     1.0000   1.0000   1.0000   1.0000   1.0000   1.0000   1.0000   1.0000
     1.0000   1.0000   1.0000   1.0000   1.0000   1.0000   1.0000   1.0000
     1.0000   1.0000   1.0000   1.0000   1.0000   1.0000   1.0000   1.0000
     1.0000   1.0000   1.0000   1.0000   1.0000   1.0000   1.0000   1.0000
     1.0000   1.0000   1.0000   1.0000   1.0000   1.0000   1.0000   1.0000
     1.0000   1.0000   1.0000   1.0000   1.0000   1.0000   1.0000   1.0000
     1.0000   1.0000   1.0000   1.0000   1.0000   1.0000   1.0000   1.0000
     1.0000   1.0000   1.0000   1.0000   1.0000   1.0000   1.0000   1.0000
     1.0000   1.0000   1.0000   1.0000   1.0000   1.0000   1.0000   0.9999
     0.9999   0.9996   0.9996   0.9994   0.9993   0.9984   0.9980   0.9977
     0.9974   0.9973   0.9970   0.9960   0.9949   0.9942   0.9922   0.9880
     0.9866   0.9855   0.9852   0.9828   0.9821   0.9813   0.9782   0.9776
     0.9758   0.9728   0.9716   0.9697   0.9658   0.9588   0.9522   0.9394
     0.9128   0.8736   0.8680   0.8619   0.8515   0.8449   0.8348   0.8272
     0.8221   0.8147   0.7999   0.7835   0.7706   0.7698   0.7439   0.7380
     0.7318   0.7283   0.7195   0.7130   0.7027   0.6976   0.6762   0.6720
     0.6670   0.6634   0.6576   0.6531   0.3531   0.3362   0.2680   0.2417
     0.1154   0.0990   0.0960   0.0674   0.0165   0.0084   0.0041   0.0033
     0.0016   0.0006   0.0002   0.0002   0.0001   0.0001   0.0000   0.0000
     0.0000   0.0000   0.0000   0.0000   0.0000   0.0000   0.0000   0.0000
     0.0000   0.0000   0.0000   0.0000   0.0000   0.0000   0.0000   0.0000
     0.0000   0.0000

          k =-0.5000-0.5000 0.0000 ( 65132 PWs)   bands (ev):

   -92.8869 -92.8376 -92.7418 -92.6938 -92.6382 -92.5938 -92.5761 -92.4552
   -56.2405 -56.2232 -56.0983 -56.0873 -56.0810 -56.0742 -56.0411 -56.0104
   -55.9949 -55.9937 -55.9881 -55.9446 -55.9244 -55.8891 -55.8688 -55.8381
   -55.8294 -55.7813 -55.7813 -55.7785 -55.7701 -55.7304 -55.7061 -55.6205
   -31.4463 -31.4330 -31.2893 -31.2387 -31.2028 -31.1908 -30.8603 -30.8256
   -30.0283 -29.9889 -29.9640 -29.8553 -15.1105 -15.0865 -14.9687 -14.9549
   -14.8611 -14.8255 -14.7884 -14.6540 -14.1634 -14.1494 -14.1174 -14.1000
   -14.0815 -14.0596 -14.0384 -14.0273 -14.0144 -14.0000 -13.9870 -13.9128
   -13.9025 -13.8716 -13.8386 -13.7890 -13.7286 -13.6697 -13.5661 -13.5296
   -13.3288 -13.2925 -13.2243 -13.1992 -13.1674 -13.1582 -13.1496 -13.1447
   -13.1297 -13.1100 -12.9846 -12.9578 -12.8979 -12.8663 -12.8201 -12.7800
   -12.7714 -12.7521 -12.7103 -12.4907 -12.4747 -12.3460 -12.3106 -12.3019
   -11.9892 -11.9544 -11.9422 -11.9241 -11.9076 -11.8720 -11.8536 -11.8212
   -11.7597 -11.7399 -11.7338 -11.6842 -11.6805  -2.4034  -2.3299  -2.3231
    -2.2505  -2.2115  -2.1333  -2.0654  -1.9384  -1.8249  -1.7949  -1.7501
    -1.6986  -1.6264  -1.6119  -1.5412  -1.4991  -1.3807  -1.3481  -1.3010
    -1.2764  -1.2117  -1.1625  -1.1449  -1.1316  -1.0750  -1.0362  -1.0152
    -0.9052  -0.8466  -0.8016  -0.7525  -0.7219  -0.7045  -0.6744  -0.6340
    -0.5932  -0.5855  -0.5015  -0.4336  -0.3933  -0.3615  -0.2919  -0.2247
    -0.2208  -0.1574  -0.1278  -0.1160  -0.0954   0.3641   0.4148   0.4825
     0.5034   0.8922   0.9080   0.9423   0.9804   1.2476   1.2654   1.2716
     1.3176   1.4366   1.5313   1.5590   1.5960   1.6286   1.6410   1.6499
     1.6820   1.6972   1.7188   1.7213   1.7665   1.7711   1.7985   1.8205
     1.8356   1.8526   1.8900   1.9138   1.9292   1.9577   1.9938   2.0518
     2.1206   2.3839   2.4153   2.4326   2.4534   2.4627   2.4916   2.4972
     2.5177   2.5251   2.5428   2.5571   2.5682   2.5852   2.6184   2.6371
     2.6446   2.6546   2.6687   2.6851   2.7003   2.7250   2.7256   2.7363
     2.8403   2.8472   2.8627   2.8772   3.8273   3.8738   3.8835   3.9144
     4.1344   4.2105   4.2340   4.4739   4.5969   4.6792   4.8127   4.9189
     4.9285   5.0255   5.1590   5.2962   5.8090   5.8482   5.8818   6.0134
     6.6485   6.7841   7.0602   7.5065   7.8350   7.8491   7.9295   8.0737
     8.1263   8.1537   8.2394   8.2658   8.3719   8.4525   8.4992   8.5229
     8.5306   8.6244

     occupation numbers 
     1.0000   1.0000   1.0000   1.0000   1.0000   1.0000   1.0000   1.0000
     1.0000   1.0000   1.0000   1.0000   1.0000   1.0000   1.0000   1.0000
     1.0000   1.0000   1.0000   1.0000   1.0000   1.0000   1.0000   1.0000
     1.0000   1.0000   1.0000   1.0000   1.0000   1.0000   1.0000   1.0000
     1.0000   1.0000   1.0000   1.0000   1.0000   1.0000   1.0000   1.0000
     1.0000   1.0000   1.0000   1.0000   1.0000   1.0000   1.0000   1.0000
     1.0000   1.0000   1.0000   1.0000   1.0000   1.0000   1.0000   1.0000
     1.0000   1.0000   1.0000   1.0000   1.0000   1.0000   1.0000   1.0000
     1.0000   1.0000   1.0000   1.0000   1.0000   1.0000   1.0000   1.0000
     1.0000   1.0000   1.0000   1.0000   1.0000   1.0000   1.0000   1.0000
     1.0000   1.0000   1.0000   1.0000   1.0000   1.0000   1.0000   1.0000
     1.0000   1.0000   1.0000   1.0000   1.0000   1.0000   1.0000   1.0000
     1.0000   1.0000   1.0000   1.0000   1.0000   1.0000   1.0000   1.0000
     1.0000   1.0000   1.0000   1.0000   1.0000   1.0000   1.0000   1.0000
     1.0000   1.0000   1.0000   1.0000   1.0000   1.0000   1.0000   1.0000
     1.0000   1.0000   1.0000   1.0000   1.0000   1.0000   1.0000   1.0000
     1.0000   1.0000   1.0000   1.0000   1.0000   1.0000   1.0000   1.0000
     1.0000   1.0000   1.0000   1.0000   1.0000   1.0000   1.0000   1.0000
     1.0000   1.0000   1.0000   1.0000   1.0000   1.0000   1.0000   1.0000
     1.0000   1.0000   1.0000   1.0000   1.0000   1.0000   1.0000   1.0000
     1.0000   0.9996   0.9995   0.9995   0.9993   0.9975   0.9973   0.9973
     0.9966   0.9943   0.9916   0.9906   0.9891   0.9877   0.9871   0.9866
     0.9849   0.9840   0.9827   0.9825   0.9794   0.9791   0.9770   0.9751
     0.9738   0.9722   0.9685   0.9659   0.9641   0.9606   0.9559   0.9472
     0.9353   0.8698   0.8596   0.8538   0.8466   0.8433   0.8328   0.8307
     0.8229   0.8201   0.8131   0.8073   0.8028   0.7957   0.7815   0.7732
     0.7698   0.7653   0.7588   0.7511   0.7439   0.7320   0.7317   0.7264
     0.6728   0.6691   0.6607   0.6527   0.1543   0.1385   0.1353   0.1256
     0.0702   0.0562   0.0524   0.0240   0.0154   0.0112   0.0065   0.0042
     0.0040   0.0026   0.0014   0.0007   0.0000   0.0000   0.0000   0.0000
     0.0000   0.0000   0.0000   0.0000   0.0000   0.0000   0.0000   0.0000
     0.0000   0.0000   0.0000   0.0000   0.0000   0.0000   0.0000   0.0000
     0.0000   0.0000

          k = 0.2500 0.0000 0.0000 ( 65257 PWs)   bands (ev):

   -92.8869 -92.8376 -92.7418 -92.6938 -92.6382 -92.5938 -92.5761 -92.4552
   -56.2405 -56.2232 -56.0983 -56.0873 -56.0810 -56.0742 -56.0411 -56.0104
   -55.9949 -55.9937 -55.9881 -55.9446 -55.9244 -55.8891 -55.8688 -55.8381
   -55.8294 -55.7813 -55.7813 -55.7785 -55.7701 -55.7304 -55.7061 -55.6205
   -31.4487 -31.4313 -31.2892 -31.2400 -31.2022 -31.1897 -30.8620 -30.8237
[...]
     0.6331   0.6209   0.6180   0.6144   0.6097   0.6047   0.5993   0.5256
     0.3528   0.3165   0.2025   0.0765   0.0446   0.0204   0.0049   0.0030
     0.0002   0.0001   0.0000   0.0000   0.0000   0.0000   0.0000   0.0000
     0.0000   0.0000   0.0000   0.0000   0.0000   0.0000   0.0000   0.0000
     0.0000   0.0000   0.0000   0.0000   0.0000   0.0000   0.0000   0.0000
     0.0000   0.0000

          k =-0.5000 0.0000 0.0000 ( 65180 PWs)   bands (ev):

   -92.8869 -92.8376 -92.7418 -92.6938 -92.6382 -92.5938 -92.5761 -92.4552
   -56.2405 -56.2232 -56.0983 -56.0873 -56.0810 -56.0742 -56.0411 -56.0104
   -55.9949 -55.9937 -55.9881 -55.9446 -55.9244 -55.8891 -55.8688 -55.8381
   -55.8294 -55.7813 -55.7813 -55.7785 -55.7701 -55.7304 -55.7061 -55.6205
   -31.4467 -31.4333 -31.2888 -31.2399 -31.2025 -31.1896 -30.8621 -30.8238
   -30.0295 -29.9895 -29.9627 -29.8547 -15.1959 -15.1395 -15.0787 -14.9708
   -14.8684 -14.7253 -14.5705 -14.4335 -14.3127 -14.2964 -14.2894 -14.2168
   -14.1685 -14.1365 -14.0871 -14.0759 -14.0591 -14.0153 -13.9956 -13.8830
   -13.7356 -13.6861 -13.6723 -13.6626 -13.5833 -13.5419 -13.4682 -13.4394
   -13.4153 -13.4039 -13.2337 -13.2276 -13.2147 -13.1917 -13.1821 -13.1202
   -13.1117 -13.0992 -13.0633 -13.0492 -12.8256 -12.8152 -12.8060 -12.7511
   -12.7202 -12.7146 -12.6980 -12.6194 -12.5026 -12.4992 -12.3024 -12.2523
   -11.9890 -11.9617 -11.9393 -11.9332 -11.9181 -11.8999 -11.8582 -11.7970
   -11.7798 -11.7471 -11.7002 -11.6914 -11.6763  -2.7633  -2.7255  -2.5627
    -2.5238  -2.2073  -2.1302  -1.9859  -1.8693  -1.8281  -1.7815  -1.7349
    -1.7124  -1.5878  -1.5446  -1.5262  -1.4454  -1.4115  -1.3909  -1.3638
    -1.3030  -1.2353  -1.2084  -1.1751  -1.0820  -1.0363  -0.9848  -0.9532
    -0.9331  -0.8987  -0.8539  -0.8297  -0.7887  -0.6809  -0.6207  -0.5381
    -0.4806  -0.3210  -0.2836  -0.2383  -0.1812  -0.1303  -0.1181   0.0215
     0.0505   0.0945   0.2578   0.3578   0.4057   0.5039   0.5677   0.6803
     0.6921   0.8276   0.8520   0.9066   0.9427   0.9755   0.9835   1.0305
     1.0539   1.1262   1.1706   1.2173   1.2310   1.5293   1.5412   1.5620
     1.5845   1.6822   1.6967   1.7093   1.7141   1.7481   1.7573   1.7960
     1.8162   1.8403   1.8951   1.9152   1.9640   1.9871   2.0435   2.1547
     2.2518   2.3197   2.3358   2.4159   2.4421   2.4674   2.5256   2.5470
     2.5513   2.5772   2.6012   2.6223   2.6487   2.6540   2.7037   2.7629
     2.7736   2.8173   2.8223   2.8251   2.8340   2.8519   2.8628   2.8748
     2.8834   2.9011   2.9032   2.9254   2.9449   2.9502   3.0804   3.0866
     3.8859   3.9667   4.0192   4.1433   4.6160   4.6980   4.8956   4.9169
     5.3740   5.4029   5.4875   5.5172   5.8584   5.8776   6.2864   6.7290
     6.7448   6.9469   7.1953   7.2581   7.5986   7.6254   7.6745   7.7147
     7.7874   7.8223   8.0759   8.1725   8.3046   8.3650   8.4843   8.6006
     8.6334   8.7367

     occupation numbers 
     1.0000   1.0000   1.0000   1.0000   1.0000   1.0000   1.0000   1.0000
     1.0000   1.0000   1.0000   1.0000   1.0000   1.0000   1.0000   1.0000
     1.0000   1.0000   1.0000   1.0000   1.0000   1.0000   1.0000   1.0000
     1.0000   1.0000   1.0000   1.0000   1.0000   1.0000   1.0000   1.0000
     1.0000   1.0000   1.0000   1.0000   1.0000   1.0000   1.0000   1.0000
     1.0000   1.0000   1.0000   1.0000   1.0000   1.0000   1.0000   1.0000
     1.0000   1.0000   1.0000   1.0000   1.0000   1.0000   1.0000   1.0000
     1.0000   1.0000   1.0000   1.0000   1.0000   1.0000   1.0000   1.0000
     1.0000   1.0000   1.0000   1.0000   1.0000   1.0000   1.0000   1.0000
     1.0000   1.0000   1.0000   1.0000   1.0000   1.0000   1.0000   1.0000
     1.0000   1.0000   1.0000   1.0000   1.0000   1.0000   1.0000   1.0000
     1.0000   1.0000   1.0000   1.0000   1.0000   1.0000   1.0000   1.0000
     1.0000   1.0000   1.0000   1.0000   1.0000   1.0000   1.0000   1.0000
     1.0000   1.0000   1.0000   1.0000   1.0000   1.0000   1.0000   1.0000
     1.0000   1.0000   1.0000   1.0000   1.0000   1.0000   1.0000   1.0000
     1.0000   1.0000   1.0000   1.0000   1.0000   1.0000   1.0000   1.0000
     1.0000   1.0000   1.0000   1.0000   1.0000   1.0000   1.0000   1.0000
     1.0000   1.0000   1.0000   1.0000   1.0000   1.0000   1.0000   1.0000
     1.0000   1.0000   1.0000   1.0000   1.0000   1.0000   1.0000   1.0000
     1.0000   1.0000   1.0000   1.0000   1.0000   1.0000   0.9999   0.9999
     0.9999   0.9997   0.9997   0.9995   0.9995   0.9994   0.9993   0.9991
     0.9990   0.9986   0.9983   0.9979   0.9977   0.9917   0.9913   0.9905
     0.9896   0.9849   0.9840   0.9833   0.9830   0.9807   0.9801   0.9772
     0.9755   0.9733   0.9679   0.9657   0.9598   0.9568   0.9485   0.9286
     0.9068   0.8889   0.8843   0.8594   0.8506   0.8417   0.8199   0.8114
     0.8097   0.7991   0.7889   0.7797   0.7680   0.7655   0.7423   0.7131
     0.7077   0.6850   0.6824   0.6809   0.6761   0.6665   0.6606   0.6541
     0.6493   0.6396   0.6384   0.6260   0.6149   0.6119   0.5363   0.5326
     0.1346   0.1103   0.0963   0.0685   0.0143   0.0104   0.0046   0.0042
     0.0005   0.0004   0.0002   0.0002   0.0000   0.0000   0.0000   0.0000
     0.0000   0.0000   0.0000   0.0000   0.0000   0.0000   0.0000   0.0000
     0.0000   0.0000   0.0000   0.0000   0.0000   0.0000   0.0000   0.0000
     0.0000   0.0000

          k =-0.2500 0.2500 0.0000 ( 65198 PWs)   bands (ev):

   -92.8869 -92.8376 -92.7418 -92.6938 -92.6382 -92.5938 -92.5761 -92.4552
   -56.2405 -56.2232 -56.0983 -56.0873 -56.0810 -56.0742 -56.0411 -56.0104
   -55.9949 -55.9937 -55.9881 -55.9446 -55.9244 -55.8891 -55.8688 -55.8381
   -55.8294 -55.7813 -55.7813 -55.7785 -55.7701 -55.7304 -55.7061 -55.6205
   -31.4485 -31.4312 -31.2894 -31.2394 -31.2023 -31.1903 -30.8611 -30.8246
   -30.0299 -29.9882 -29.9637 -29.8546 -15.1989 -15.1503 -15.0826 -14.9661
   -14.8480 -14.7217 -14.6432 -14.4298 -14.2944 -14.2646 -14.2505 -14.2023
   -14.1802 -14.1571 -14.1270 -14.0930 -14.0168 -14.0025 -13.8493 -13.8249
   -13.7925 -13.7740 -13.6997 -13.6765 -13.6100 -13.5992 -13.4786 -13.4238
   -13.3955 -13.3187 -13.2765 -13.2130 -13.1922 -13.1821 -13.1609 -13.1271
   -13.1001 -13.0881 -13.0281 -12.9967 -12.9448 -12.8670 -12.8593 -12.8327
   -12.8028 -12.7339 -12.6160 -12.6031 -12.5145 -12.4560 -12.2524 -12.2046
   -11.9893 -11.9809 -11.9599 -11.9328 -11.9209 -11.8792 -11.8456 -11.8214
   -11.8009 -11.7779 -11.6929 -11.6483 -11.6386  -2.8480  -2.6414  -2.5200
    -2.4289  -2.3138  -2.2477  -2.0401  -1.8996  -1.8817  -1.8465  -1.7578
    -1.7234  -1.6293  -1.5943  -1.5680  -1.4270  -1.3705  -1.3002  -1.2728
    -1.2109  -1.1933  -1.1529  -1.1244  -1.0837  -1.0199  -0.9720  -0.9029
    -0.8380  -0.8130  -0.7637  -0.7350  -0.6888  -0.6296  -0.5752  -0.5427
    -0.4349  -0.4106  -0.3907  -0.3515  -0.2895  -0.2093  -0.1734  -0.1293
    -0.0632  -0.0380   0.2108   0.3881   0.4207   0.4650   0.5268   0.5792
     0.6256   0.6965   0.7278   1.0086   1.1111   1.1515   1.1844   1.1951
     1.2337   1.2476   1.2943   1.3256   1.3376   1.3631   1.4153   1.4307
     1.4677   1.4940   1.5357   1.6313   1.6418   1.6637   1.6943   1.7270
     1.7658   1.8152   1.9249   2.0312   2.0532   2.1019   2.1220   2.1843
     2.2254   2.2521   2.2786   2.2978   2.4004   2.4385   2.5195   2.5814
     2.6148   2.6437   2.7058   2.7087   2.7232   2.7312   2.7428   2.7590
     2.7651   2.7826   2.7940   2.8045   2.8160   2.8270   2.8367   2.8439
     2.8798   2.8898   2.8947   2.9291   3.2200   3.3011   3.3757   3.4425
     3.4676   3.6710   3.7790   4.1286   4.3345   4.5578   4.8131   5.1276
     5.4996   5.5583   5.6240   5.6531   5.7202   6.1030   6.1376   6.1706
     6.8352   7.0961   7.2387   7.3843   7.4606   7.4845   7.5658   7.7663
     7.8414   8.0181   8.1997   8.2282   8.3247   8.3653   8.4522   8.4644
     8.5301   8.7223

     occupation numbers 
     1.0000   1.0000   1.0000   1.0000   1.0000   1.0000   1.0000   1.0000
     1.0000   1.0000   1.0000   1.0000   1.0000   1.0000   1.0000   1.0000
     1.0000   1.0000   1.0000   1.0000   1.0000   1.0000   1.0000   1.0000
     1.0000   1.0000   1.0000   1.0000   1.0000   1.0000   1.0000   1.0000
     1.0000   1.0000   1.0000   1.0000   1.0000   1.0000   1.0000   1.0000
     1.0000   1.0000   1.0000   1.0000   1.0000   1.0000   1.0000   1.0000
     1.0000   1.0000   1.0000   1.0000   1.0000   1.0000   1.0000   1.0000
     1.0000   1.0000   1.0000   1.0000   1.0000   1.0000   1.0000   1.0000
     1.0000   1.0000   1.0000   1.0000   1.0000   1.0000   1.0000   1.0000
     1.0000   1.0000   1.0000   1.0000   1.0000   1.0000   1.0000   1.0000
     1.0000   1.0000   1.0000   1.0000   1.0000   1.0000   1.0000   1.0000
     1.0000   1.0000   1.0000   1.0000   1.0000   1.0000   1.0000   1.0000
     1.0000   1.0000   1.0000   1.0000   1.0000   1.0000   1.0000   1.0000
     1.0000   1.0000   1.0000   1.0000   1.0000   1.0000   1.0000   1.0000
     1.0000   1.0000   1.0000   1.0000   1.0000   1.0000   1.0000   1.0000
     1.0000   1.0000   1.0000   1.0000   1.0000   1.0000   1.0000   1.0000
     1.0000   1.0000   1.0000   1.0000   1.0000   1.0000   1.0000   1.0000
     1.0000   1.0000   1.0000   1.0000   1.0000   1.0000   1.0000   1.0000
     1.0000   1.0000   1.0000   1.0000   1.0000   1.0000   1.0000   1.0000
     1.0000   1.0000   1.0000   1.0000   1.0000   1.0000   0.9999   0.9999
     0.9999   0.9999   0.9998   0.9992   0.9987   0.9984   0.9982   0.9981
     0.9977   0.9975   0.9970   0.9965   0.9963   0.9959   0.9948   0.9945
     0.9935   0.9928   0.9915   0.9875   0.9870   0.9859   0.9842   0.9822
     0.9795   0.9756   0.9646   0.9504   0.9470   0.9387   0.9350   0.9224
     0.9132   0.9067   0.9000   0.8949   0.8645   0.8518   0.8222   0.7973
     0.7830   0.7702   0.7413   0.7399   0.7328   0.7289   0.7232   0.7151
     0.7120   0.7030   0.6972   0.6917   0.6857   0.6799   0.6747   0.6708
     0.6513   0.6458   0.6431   0.6239   0.4537   0.4065   0.3641   0.3276
     0.3142   0.2159   0.1720   0.0714   0.0383   0.0177   0.0065   0.0016
     0.0002   0.0002   0.0001   0.0001   0.0001   0.0000   0.0000   0.0000
     0.0000   0.0000   0.0000   0.0000   0.0000   0.0000   0.0000   0.0000
     0.0000   0.0000   0.0000   0.0000   0.0000   0.0000   0.0000   0.0000
     0.0000   0.0000

          k =-0.5000 0.2500 0.0000 ( 65138 PWs)   bands (ev):

   -92.8869 -92.8376 -92.7418 -92.6938 -92.6382 -92.5938 -92.5761 -92.4552
   -56.2405 -56.2232 -56.0983 -56.0873 -56.0810 -56.0742 -56.0411 -56.0104
   -55.9949 -55.9937 -55.9881 -55.9446 -55.9244 -55.8891 -55.8688 -55.8381
   -55.8294 -55.7813 -55.7813 -55.7785 -55.7701 -55.7304 -55.7061 -55.6205
   -31.4465 -31.4331 -31.2890 -31.2393 -31.2027 -31.1902 -30.8612 -30.8247
   -30.0289 -29.9892 -29.9633 -29.8550 -15.1624 -15.1137 -15.0356 -14.9370
   -14.8977 -14.7722 -14.6762 -14.5501 -14.2456 -14.2137 -14.2009 -14.1540
   -14.1314 -14.1102 -14.0738 -14.0594 -14.0404 -14.0030 -13.9930 -13.8788
   -13.8162 -13.7679 -13.7591 -13.7209 -13.6449 -13.6261 -13.5135 -13.4752
   -13.3719 -13.3383 -13.2413 -13.2004 -13.1899 -13.1871 -13.1626 -13.1298
   -13.1130 -13.0897 -13.0502 -13.0019 -12.8333 -12.8135 -12.7968 -12.7948
   -12.7890 -12.7336 -12.7120 -12.5335 -12.4951 -12.4238 -12.3037 -12.2688
   -11.9891 -11.9543 -11.9412 -11.9271 -11.9154 -11.8933 -11.8632 -11.7840
   -11.7753 -11.7524 -11.7148 -11.6872 -11.6789  -2.6204  -2.5791  -2.4321
    -2.3902  -2.2272  -2.1487  -2.0101  -1.8752  -1.8155  -1.7899  -1.7510
    -1.7151  -1.6333  -1.5178  -1.4602  -1.4380  -1.4105  -1.3306  -1.3068
    -1.2652  -1.2504  -1.1891  -1.1573  -1.1207  -1.0861  -1.0571  -0.9980
    -0.9708  -0.9303  -0.8930  -0.7874  -0.7621  -0.6626  -0.6138  -0.5758
    -0.5117  -0.4394  -0.4052  -0.3034  -0.2608  -0.2031  -0.1512  -0.1083
    -0.0577  -0.0315   0.0015   0.0504   0.0899   0.4222   0.4835   0.5308
     0.5501   0.8412   0.9048   0.9735   1.0044   1.1736   1.2083   1.2457
     1.2557   1.2738   1.2913   1.3630   1.4083   1.4516   1.4860   1.6053
     1.6479   1.6693   1.6794   1.7161   1.7452   1.7604   1.7705   1.7888
     1.8133   1.8549   1.8709   1.9074   1.9316   1.9662   2.0191   2.1449
     2.2386   2.2681   2.3333   2.3690   2.4323   2.4655   2.4735   2.5129
     2.5372   2.5634   2.5864   2.6152   2.6457   2.6557   2.7005   2.7124
     2.7214   2.7396   2.7585   2.7702   2.7884   2.7980   2.8239   2.8358
     2.8452   2.8551   2.8619   2.8734   3.4078   3.4473   3.5924   3.6115
     3.8955   3.9770   4.0284   4.2258   4.6084   4.7099   4.8847   4.9319
     5.2419   5.2630   5.4878   5.5812   5.6091   5.6533   6.3278   6.3920
     6.4575   6.8605   7.2076   7.5988   7.6706   7.7228   7.7555   7.7927
     7.8723   7.9469   8.1375   8.3098   8.4123   8.4463   8.5041   8.5618
     8.6942   8.7345

     occupation numbers 
     1.0000   1.0000   1.0000   1.0000   1.0000   1.0000   1.0000   1.0000
     1.0000   1.0000   1.0000   1.0000   1.0000   1.0000   1.0000   1.0000
     1.0000   1.0000   1.0000   1.0000   1.0000   1.0000   1.0000   1.0000
     1.0000   1.0000   1.0000   1.0000   1.0000   1.0000   1.0000   1.0000
     1.0000   1.0000   1.0000   1.0000   1.0000   1.0000   1.0000   1.0000
     1.0000   1.0000   1.0000   1.0000   1.0000   1.0000   1.0000   1.0000
     1.0000   1.0000   1.0000   1.0000   1.0000   1.0000   1.0000   1.0000
     1.0000   1.0000   1.0000   1.0000   1.0000   1.0000   1.0000   1.0000
     1.0000   1.0000   1.0000   1.0000   1.0000   1.0000   1.0000   1.0000
     1.0000   1.0000   1.0000   1.0000   1.0000   1.0000   1.0000   1.0000
     1.0000   1.0000   1.0000   1.0000   1.0000   1.0000   1.0000   1.0000
     1.0000   1.0000   1.0000   1.0000   1.0000   1.0000   1.0000   1.0000
     1.0000   1.0000   1.0000   1.0000   1.0000   1.0000   1.0000   1.0000
     1.0000   1.0000   1.0000   1.0000   1.0000   1.0000   1.0000   1.0000
     1.0000   1.0000   1.0000   1.0000   1.0000   1.0000   1.0000   1.0000
     1.0000   1.0000   1.0000   1.0000   1.0000   1.0000   1.0000   1.0000
     1.0000   1.0000   1.0000   1.0000   1.0000   1.0000   1.0000   1.0000
     1.0000   1.0000   1.0000   1.0000   1.0000   1.0000   1.0000   1.0000
     1.0000   1.0000   1.0000   1.0000   1.0000   1.0000   1.0000   1.0000
     1.0000   1.0000   1.0000   1.0000   1.0000   1.0000   1.0000   0.9999
     0.9999   0.9997   0.9996   0.9994   0.9992   0.9983   0.9980   0.9976
     0.9974   0.9972   0.9970   0.9959   0.9950   0.9940   0.9930   0.9887
     0.9867   0.9856   0.9850   0.9829   0.9809   0.9799   0.9791   0.9777
     0.9757   0.9720   0.9704   0.9666   0.9638   0.9595   0.9522   0.9306
     0.9100   0.9027   0.8850   0.8744   0.8539   0.8423   0.8394   0.8248
     0.8153   0.8047   0.7952   0.7828   0.7693   0.7647   0.7438   0.7381
     0.7337   0.7248   0.7153   0.7094   0.7001   0.6951   0.6815   0.6752
     0.6701   0.6648   0.6611   0.6549   0.3464   0.3250   0.2517   0.2427
     0.1315   0.1074   0.0940   0.0537   0.0147   0.0099   0.0048   0.0039
     0.0009   0.0008   0.0002   0.0001   0.0001   0.0001   0.0000   0.0000
     0.0000   0.0000   0.0000   0.0000   0.0000   0.0000   0.0000   0.0000
     0.0000   0.0000   0.0000   0.0000   0.0000   0.0000   0.0000   0.0000
     0.0000   0.0000

     the Fermi energy is     3.1417 ev

!    total energy              =   -4440.30362094 Ry
     estimated scf accuracy    <          1.0E-08 Ry
     smearing contrib. (-TS)   =      -1.20821741 Ry
     internal energy E=F+TS    =   -4439.09540352 Ry

     The total energy is F=E-TS. E is the sum of the following terms:
     one-electron contribution =  -20889.05305405 Ry
     hartree contribution      =   10573.47586957 Ry
     xc contribution           =    -693.24615973 Ry
     ewald contribution        =    6845.91912145 Ry
     one-center paw contrib.   =    -276.19118076 Ry
      -> PAW hartree energy AE =      25.13389162 Ry
      -> PAW hartree energy PS =     -25.01808533 Ry
      -> PAW xc energy AE      =     -16.51337424 Ry
      -> PAW xc energy PS      =       6.87263817 Ry
      -> total E_H with PAW    =   10573.59167585 Ry
      -> total E_XC with PAW   =    -702.88689580 Ry

     convergence has been achieved in  49 iterations

     Writing all to output data dir /bsuhome/zayahcortright/scratch/pwscf.save/
 
     init_run     :      7.64s CPU      8.77s WALL (       1 calls)
     electrons    :    687.73s CPU    721.70s WALL (       1 calls)

     Called by init_run:
     wfcinit      :      6.35s CPU      6.73s WALL (       1 calls)
     wfcinit:atom :      0.05s CPU      0.07s WALL (       5 calls)
     wfcinit:wfcr :      6.03s CPU      6.31s WALL (       5 calls)
     potinit      :      0.17s CPU      0.20s WALL (       1 calls)
     hinit0       :      0.26s CPU      0.71s WALL (       1 calls)

     Called by electrons:
     c_bands      :    543.85s CPU    550.43s WALL (      49 calls)
     sum_band     :    107.85s CPU    123.08s WALL (      49 calls)
     v_of_rho     :      5.38s CPU      5.74s WALL (      50 calls)
     v_h          :      0.44s CPU      0.45s WALL (      50 calls)
     v_xc         :      4.93s CPU      5.29s WALL (      50 calls)
     newd         :     16.16s CPU     27.49s WALL (      50 calls)
     PAW_pot      :      1.59s CPU      1.63s WALL (      50 calls)
     mix_rho      :     12.53s CPU     12.91s WALL (      49 calls)

     Called by c_bands:
     init_us_2    :      6.65s CPU      6.75s WALL (     495 calls)
     init_us_2:cp :      6.65s CPU      6.74s WALL (     495 calls)
     cegterg      :    514.55s CPU    520.81s WALL (     245 calls)

     Called by sum_band:
     sum_band:wei :      0.35s CPU      0.35s WALL (      49 calls)
     sum_band:loo :     91.01s CPU     91.75s WALL (      49 calls)
     sum_band:buf :      1.43s CPU      1.51s WALL (     245 calls)
     sum_band:ini :      2.96s CPU      2.98s WALL (     245 calls)
     sum_band:cal :     19.42s CPU     19.49s WALL (     245 calls)
     sum_band:bec :      0.57s CPU      0.57s WALL (     245 calls)
     addusdens    :     15.46s CPU     29.87s WALL (      49 calls)
                                        0.00s GPU  (      49 calls)
     addusd:skk   :      0.31s CPU      0.97s WALL (     147 calls)
                                        0.00s GPU  (     147 calls)

     Called by *egterg:
     cdiaghg      :     50.95s CPU     51.17s WALL (    1168 calls)
     cegterg:over :     37.32s CPU     37.48s WALL (     923 calls)
     cegterg:upda :     27.05s CPU     27.55s WALL (     923 calls)
     cegterg:last :     57.34s CPU     57.56s WALL (     437 calls)
     cdiaghg:chol :      2.82s CPU      2.84s WALL (    1168 calls)
     cdiaghg:inve :      2.54s CPU      2.55s WALL (    1168 calls)
     cdiaghg:para :      6.54s CPU      6.59s WALL (    2336 calls)
     h_psi        :    288.41s CPU    291.49s WALL (    1173 calls)
     s_psi        :     38.37s CPU     38.50s WALL (    1173 calls)
     g_psi        :      1.02s CPU      1.02s WALL (     923 calls)

     Called by h_psi:
     h_psi:calbec :     44.15s CPU     44.39s WALL (    1173 calls)
     vloc_psi     :    202.88s CPU    204.78s WALL (    1173 calls)
     add_vuspsi   :     38.60s CPU     38.88s WALL (    1173 calls)

     General routines
     calbec       :     63.56s CPU     63.87s WALL (    1418 calls)
     fft          :      3.68s CPU      3.72s WALL (     648 calls)
     ffts         :      4.64s CPU      4.68s WALL (    5293 calls)
     fftw         :    176.22s CPU    177.66s WALL (  328678 calls)
     interpolate  :      0.41s CPU      0.42s WALL (      50 calls)
 
     Parallel routines

     PAW routines
     PAW_pot      :      1.59s CPU      1.63s WALL (      50 calls)
 
     PWSCF        :  11m37.41s CPU  12m15.85s WALL

 
   This run was terminated on:  17: 1:37  21Jun2024            

=------------------------------------------------------------------------------=
   JOB DONE.
=------------------------------------------------------------------------------=
