
     Program PWSCF v.7.2 starts on 21Jun2024 at 18:37:22 

     This program is part of the open-source Quantum ESPRESSO suite
     for quantum simulation of materials; please cite
         "P. Giannozzi et al., J. Phys.:Condens. Matter 21 395502 (2009);
         "P. Giannozzi et al., J. Phys.:Condens. Matter 29 465901 (2017);
         "P. Giannozzi et al., J. Chem. Phys. 152 154105 (2020);
          URL http://www.quantum-espresso.org", 
     in publications or presentations arising from this work. More details at
     http://www.quantum-espresso.org/quote

     Parallel version (MPI & OpenMP), running on      48 processor cores
     Number of MPI processes:                48
     Threads/MPI process:                     1

     MPI processes distributed on     1 nodes
     180152 MiB available memory on the printing compute node when the environment starts
 
     Reading input from espresso.pwi
Warning: card &CELL ignored
Warning: card / ignored
Warning: card &FCP ignored
Warning: card / ignored
Warning: card &RISM ignored
Warning: card / ignored

     Current dimensions of program PWSCF are:
     Max number of different atomic species (ntypx) = 10
     Max number of k-points (npk) =  40000
     Max angular momentum in pseudopotentials (lmaxx) =  4
     file O.pbe-n-kjpaw_psl.0.1.UPF: wavefunction(s)  2P renormalized
     signal trapping enabled: kill the code with -SIGUSR1 to stop cleanly the simulation 
 
     K-points division:     npool     =       2
     R & G space division:  proc/nbgrp/npool/nimage =      24
     Subspace diagonalization in iterative solution of the eigenvalue problem:
     one sub-group per band group will be used
     scalapack distributed-memory algorithm (size of sub-group:  3*  3 procs)

 
     Parallelization info
     --------------------
     sticks:   dense  smooth     PW     G-vecs:    dense   smooth      PW
     Min         350     175     47                61430    21716    3036
     Max         351     177     48                61449    21727    3041
     Sum        8421    4205   1137              1474595   521381   72913
 
     Using Slab Decomposition
 


     bravais-lattice index     =            0
     lattice parameter (alat)  =      14.8599  a.u.
     unit-cell volume          =    8305.1283 (a.u.)^3
     number of atoms/cell      =           49
     number of atomic types    =            4
     number of electrons       =       425.00
     number of Kohn-Sham states=          256
     kinetic-energy cutoff     =      60.0000  Ry
     charge density cutoff     =     480.0000  Ry
     scf convergence threshold =      1.0E-08
     mixing beta               =       0.1500
     number of iterations used =            8  local-TF  mixing
     Exchange-correlation= PBE
                           (   1   4   3   4   0   0   0)

     celldm(1)=  14.859904  celldm(2)=   0.000000  celldm(3)=   0.000000
     celldm(4)=   0.000000  celldm(5)=   0.000000  celldm(6)=   0.000000

     crystal axes: (cart. coord. in units of alat)
               a(1) = (   1.000000   0.000000   0.000000 )  
               a(2) = (   0.000000   1.000000   0.000000 )  
               a(3) = (   0.000000   0.000000   2.531036 )  

     reciprocal axes: (cart. coord. in units 2 pi/alat)
               b(1) = (  1.000000  0.000000  0.000000 )  
               b(2) = (  0.000000  1.000000  0.000000 )  
               b(3) = (  0.000000  0.000000  0.395095 )  


     PseudoPot. # 1 for Sr read from file:
     /bsuhome/zayahcortright/q-e/pseudo/Sr_pbe_v1.uspp.F.UPF
     MD5 check sum: 6b418c05fbe9db5448babca5e47b7a5b
     Pseudo is Ultrasoft + core correction, Zval = 10.0
     Generated by new atomic code, or converted to UPF format
     Using radial grid of  883 points,  6 beta functions with: 
                l(1) =   0
                l(2) =   0
                l(3) =   1
                l(4) =   1
                l(5) =   2
                l(6) =   2
     Q(r) pseudized with  6 coefficients,  rinner =    1.400   1.400   1.400
                                                       1.400   1.400

     PseudoPot. # 2 for O  read from file:
     /bsuhome/zayahcortright/q-e/pseudo/O.pbe-n-kjpaw_psl.0.1.UPF
     MD5 check sum: 0234752ac141de4415c5fc33072bef88
     Pseudo is Projector augmented-wave + core cor, Zval =  6.0
     Generated using "atomic" code by A. Dal Corso  v.5.0.99 svn rev. 10869
     Shape of augmentation charge: BESSEL
     Using radial grid of 1095 points,  4 beta functions with: 
                l(1) =   0
                l(2) =   0
                l(3) =   1
                l(4) =   1
     Q(r) pseudized with 0 coefficients 


     PseudoPot. # 3 for Co read from file:
     /bsuhome/zayahcortright/q-e/pseudo/Co_pbe_v1.2.uspp.F.UPF
     MD5 check sum: 5f91765df6ddd3222702df6e7b74a16d
     Pseudo is Ultrasoft + core correction, Zval = 17.0
     Generated by new atomic code, or converted to UPF format
     Using radial grid of  863 points,  6 beta functions with: 
                l(1) =   0
                l(2) =   0
                l(3) =   1
                l(4) =   1
                l(5) =   2
                l(6) =   2
     Q(r) pseudized with  8 coefficients,  rinner =    1.200   1.200   1.200
                                                       1.200   1.200

     PseudoPot. # 4 for H  read from file:
     /bsuhome/zayahcortright/q-e/pseudo/H.pbe-rrkjus_psl.1.0.0.UPF
     MD5 check sum: f52b6d4d1c606e5624b1dc7b2218f220
     Pseudo is Ultrasoft, Zval =  1.0
     Generated using "atomic" code by A. Dal Corso  v.5.1
     Using radial grid of  929 points,  2 beta functions with: 
                l(1) =   0
                l(2) =   0
     Q(r) pseudized with 0 coefficients 


     atomic species   valence    mass     pseudopotential
        Sr            10.00    87.62000     Sr( 1.00)
        O              6.00    15.99900     O ( 1.00)
        Co            17.00    58.93319     Co( 1.00)
        H              1.00     1.00800     H ( 1.00)

     No symmetry found


                                    s                        frac. trans.

      isym =  1     identity                                     

 cryst.   s( 1) = (     1          0          0      )
                  (     0          1          0      )
                  (     0          0          1      )

 cart.    s( 1) = (  1.0000000  0.0000000  0.0000000 )
                  (  0.0000000  1.0000000  0.0000000 )
                  (  0.0000000  0.0000000  1.0000000 )


   Cartesian axes

     site n.     atom                  positions (alat units)
         1           Sr  tau(   1) = (   0.2508693   0.7491307   1.7574407  )
         2           O   tau(   2) = (   0.4985141   0.5014859   1.7715967  )
         3           Sr  tau(   3) = (   0.7482398   0.7454518   1.7648669  )
         4           Sr  tau(   4) = (   0.7441748   0.2558252   1.7667843  )
         5           Sr  tau(   5) = (   0.2508693   0.7491307   1.2696799  )
         6           Sr  tau(   6) = (   0.2508693   0.7491307   0.7632319  )
         7           Co  tau(   7) = (   0.4998914   0.5001086   1.0164559  )
         8           Co  tau(   8) = (   0.4936915   0.5063085   1.5135603  )
         9           O   tau(   9) = (   0.4988895   0.7610401   1.0164559  )
        10           O   tau(  10) = (   0.2389599   0.5011105   1.0164559  )
        11           O   tau(  11) = (   0.0070918   0.7374880   1.0164559  )
        12           O   tau(  12) = (   0.0088340   0.7405089   1.5135603  )
        13           O   tau(  13) = (   0.5066944   0.7415376   1.5135603  )
        14           O   tau(  14) = (   0.2584624   0.4933056   1.5135603  )
        15           O   tau(  15) = (   0.4985141   0.5014859   0.7773880  )
        16           O   tau(  16) = (   0.4985141   0.5014859   1.2555238  )
        17           Sr  tau(  17) = (   0.7482398   0.7454518   0.7706582  )
        18           Sr  tau(  18) = (   0.7482398   0.7454518   1.2622536  )
        19           Sr  tau(  19) = (   0.7441748   0.2558252   0.7725755  )
        20           Sr  tau(  20) = (   0.7441748   0.2558252   1.2603363  )
        21           O   tau(  21) = (   0.7322655   0.0078049   1.5135603  )
        22           O   tau(  22) = (   0.7558175   0.4996027   1.5135603  )
        23           O   tau(  23) = (   0.5003973   0.2441825   1.5135603  )
        24           O   tau(  24) = (   0.7527966   0.4978604   1.0164559  )
        25           O   tau(  25) = (   0.5021396   0.2472034   1.0164559  )
        26           O   tau(  26) = (   0.7517679   0.0000000   1.0164559  )
        27           O   tau(  27) = (   0.0114961   0.4948124   1.7455321  )
        28           O   tau(  28) = (   0.0048226   0.0077944   1.7715967  )
        29           Sr  tau(  29) = (   0.2545482   0.2517602   1.7648669  )
        30           O   tau(  30) = (   0.5048017   0.0015068   1.7786929  )
        31           Co  tau(  31) = (   0.0056869   0.5006215   1.0164559  )
        32           Co  tau(  32) = (   0.0065315   0.4997770   1.5135603  )
        33           Co  tau(  33) = (   0.0061999   0.0064171   1.0164559  )
        34           Co  tau(  34) = (   0.0000000   0.0126169   1.5135603  )
        35           O   tau(  35) = (   0.0114961   0.4948124   1.2815885  )
        36           O   tau(  36) = (   0.0114961   0.4948124   0.7513233  )
        37           O   tau(  37) = (   0.0051979   0.2673486   1.0164559  )
        38           O   tau(  38) = (   0.0130029   0.2478461   1.5135603  )
        39           O   tau(  39) = (   0.0048226   0.0077944   0.7773880  )
        40           O   tau(  40) = (   0.0048226   0.0077944   1.2555238  )
        41           Sr  tau(  41) = (   0.2545482   0.2517602   0.7706582  )
        42           Sr  tau(  42) = (   0.2545482   0.2517602   1.2622536  )
        43           Co  tau(  43) = (   0.4989925   0.0073160   1.5135603  )
        44           Co  tau(  44) = (   0.4998370   0.0064714   1.0164559  )
        45           O   tau(  45) = (   0.5048017   0.0015068   0.7844841  )
        46           O   tau(  46) = (   0.5048017   0.0015068   1.2484277  )
        47           O   tau(  47) = (   0.2621260   0.0059111   1.5135603  )
        48           O   tau(  48) = (   0.2591051   0.0041689   1.0164559  )
        49           H   tau(  49) = (   0.5686583   0.1421646   2.1602013  )

   Crystallographic axes

     site n.     atom                  positions (cryst. coord.)
         1           Sr  tau(   1) = (  0.2508693  0.7491307  0.6943562  )
         2           O   tau(   2) = (  0.4985141  0.5014859  0.6999492  )
         3           Sr  tau(   3) = (  0.7482398  0.7454518  0.6972903  )
         4           Sr  tau(   4) = (  0.7441748  0.2558252  0.6980478  )
         5           Sr  tau(   5) = (  0.2508693  0.7491307  0.5016443  )
         6           Sr  tau(   6) = (  0.2508693  0.7491307  0.3015492  )
         7           Co  tau(   7) = (  0.4998914  0.5001086  0.4015968  )
         8           Co  tau(   8) = (  0.4936915  0.5063085  0.5980003  )
         9           O   tau(   9) = (  0.4988895  0.7610401  0.4015968  )
        10           O   tau(  10) = (  0.2389599  0.5011105  0.4015968  )
        11           O   tau(  11) = (  0.0070918  0.7374880  0.4015968  )
        12           O   tau(  12) = (  0.0088340  0.7405089  0.5980003  )
        13           O   tau(  13) = (  0.5066944  0.7415376  0.5980003  )
        14           O   tau(  14) = (  0.2584624  0.4933056  0.5980003  )
        15           O   tau(  15) = (  0.4985141  0.5014859  0.3071422  )
        16           O   tau(  16) = (  0.4985141  0.5014859  0.4960513  )
        17           Sr  tau(  17) = (  0.7482398  0.7454518  0.3044833  )
        18           Sr  tau(  18) = (  0.7482398  0.7454518  0.4987103  )
        19           Sr  tau(  19) = (  0.7441748  0.2558252  0.3052408  )
        20           Sr  tau(  20) = (  0.7441748  0.2558252  0.4979527  )
        21           O   tau(  21) = (  0.7322655  0.0078049  0.5980003  )
        22           O   tau(  22) = (  0.7558175  0.4996027  0.5980003  )
        23           O   tau(  23) = (  0.5003973  0.2441825  0.5980003  )
        24           O   tau(  24) = (  0.7527966  0.4978604  0.4015968  )
        25           O   tau(  25) = (  0.5021396  0.2472034  0.4015968  )
        26           O   tau(  26) = (  0.7517679  0.0000000  0.4015968  )
        27           O   tau(  27) = (  0.0114961  0.4948124  0.6896512  )
        28           O   tau(  28) = (  0.0048226  0.0077944  0.6999492  )
        29           Sr  tau(  29) = (  0.2545482  0.2517602  0.6972903  )
        30           O   tau(  30) = (  0.5048017  0.0015068  0.7027529  )
        31           Co  tau(  31) = (  0.0056869  0.5006215  0.4015968  )
        32           Co  tau(  32) = (  0.0065315  0.4997770  0.5980003  )
        33           Co  tau(  33) = (  0.0061999  0.0064171  0.4015968  )
        34           Co  tau(  34) = (  0.0000000  0.0126169  0.5980003  )
        35           O   tau(  35) = (  0.0114961  0.4948124  0.5063494  )
        36           O   tau(  36) = (  0.0114961  0.4948124  0.2968442  )
        37           O   tau(  37) = (  0.0051979  0.2673486  0.4015968  )
        38           O   tau(  38) = (  0.0130029  0.2478461  0.5980003  )
        39           O   tau(  39) = (  0.0048226  0.0077944  0.3071422  )
        40           O   tau(  40) = (  0.0048226  0.0077944  0.4960513  )
        41           Sr  tau(  41) = (  0.2545482  0.2517602  0.3044833  )
        42           Sr  tau(  42) = (  0.2545482  0.2517602  0.4987103  )
        43           Co  tau(  43) = (  0.4989925  0.0073160  0.5980003  )
        44           Co  tau(  44) = (  0.4998370  0.0064714  0.4015968  )
        45           O   tau(  45) = (  0.5048017  0.0015068  0.3099459  )
        46           O   tau(  46) = (  0.5048017  0.0015068  0.4932477  )
        47           O   tau(  47) = (  0.2621260  0.0059111  0.5980003  )
        48           O   tau(  48) = (  0.2591051  0.0041689  0.4015968  )
        49           H   tau(  49) = (  0.5686583  0.1421646  0.8534850  )

     number of k points=    10  Gaussian smearing, width (Ry)=  0.0700
                       cart. coord. in units 2pi/alat
        k(    1) = (   0.0000000   0.0000000   0.0000000), wk =   0.1250000
        k(    2) = (   0.0000000   0.2500000   0.0000000), wk =   0.2500000
        k(    3) = (   0.0000000  -0.5000000   0.0000000), wk =   0.1250000
        k(    4) = (   0.2500000   0.2500000   0.0000000), wk =   0.2500000
        k(    5) = (   0.2500000  -0.5000000   0.0000000), wk =   0.2500000
        k(    6) = (  -0.5000000  -0.5000000   0.0000000), wk =   0.1250000
        k(    7) = (   0.2500000   0.0000000   0.0000000), wk =   0.2500000
        k(    8) = (  -0.5000000   0.0000000   0.0000000), wk =   0.1250000
        k(    9) = (  -0.2500000   0.2500000   0.0000000), wk =   0.2500000
        k(   10) = (  -0.5000000   0.2500000   0.0000000), wk =   0.2500000

                       cryst. coord.
        k(    1) = (   0.0000000   0.0000000   0.0000000), wk =   0.1250000
        k(    2) = (   0.0000000   0.2500000   0.0000000), wk =   0.2500000
        k(    3) = (   0.0000000  -0.5000000   0.0000000), wk =   0.1250000
        k(    4) = (   0.2500000   0.2500000   0.0000000), wk =   0.2500000
        k(    5) = (   0.2500000  -0.5000000   0.0000000), wk =   0.2500000
        k(    6) = (  -0.5000000  -0.5000000   0.0000000), wk =   0.1250000
        k(    7) = (   0.2500000   0.0000000   0.0000000), wk =   0.2500000
        k(    8) = (  -0.5000000   0.0000000   0.0000000), wk =   0.1250000
        k(    9) = (  -0.2500000   0.2500000   0.0000000), wk =   0.2500000
        k(   10) = (  -0.5000000   0.2500000   0.0000000), wk =   0.2500000

     Dense  grid:  1474595 G-vectors     FFT dimensions: ( 108, 108, 270)

     Smooth grid:   521381 G-vectors     FFT dimensions: (  75,  75, 192)

     Dynamical RAM for                 wfc:      10.61 MB

     Dynamical RAM for     wfc (w. buffer):      63.63 MB

     Dynamical RAM for           str. fact:       3.75 MB

     Dynamical RAM for           local pot:       0.00 MB

     Dynamical RAM for          nlocal pot:      24.28 MB

     Dynamical RAM for                qrad:       7.03 MB

     Dynamical RAM for          rho,v,vnew:       6.02 MB

     Dynamical RAM for               rhoin:       2.01 MB

     Dynamical RAM for            rho*nmix:      15.00 MB

     Dynamical RAM for           G-vectors:       3.68 MB

     Dynamical RAM for          h,s,v(r/c):       1.32 MB

     Dynamical RAM for          <psi|beta>:       2.29 MB

     Dynamical RAM for                 psi:      21.21 MB

     Dynamical RAM for                hpsi:      21.21 MB

     Dynamical RAM for                spsi:      21.21 MB

     Dynamical RAM for      wfcinit/wfcrot:      34.09 MB

     Dynamical RAM for           addusdens:     100.79 MB

     Estimated static dynamical RAM per process >     120.42 MB

     Estimated max dynamical RAM per process >     236.21 MB

     Estimated total dynamical RAM >      10.72 GB

     Check: negative core charge=   -0.000004

     Initial potential from superposition of free atoms

     starting charge     416.5961, renormalised to     425.0000

     negative rho (up, down):  7.827E-01 0.000E+00
     Starting wfcs are  373 randomized atomic wfcs
     Checking if some PAW data can be deallocated... 
       PAW data deallocated on   20 nodes for type:  2

     total cpu time spent up to now is        8.3 secs

     Self-consistent Calculation

     iteration #  1     ecut=    60.00 Ry     beta= 0.15
     Davidson diagonalization with overlap

---- Real-time Memory Report at c_bands before calling an iterative solver
             0 MiB given to the printing process from OS
             0 MiB allocation reported by mallinfo(arena+hblkhd)
        170492 MiB available memory on the node where the printing process lives
------------------
     ethr =  1.00E-02,  avg # of iterations =  2.0

     negative rho (up, down):  7.717E-01 0.000E+00

     total cpu time spent up to now is       22.5 secs

     total energy              =   -4404.74317453 Ry
     estimated scf accuracy    <      42.17831739 Ry

     iteration #  2     ecut=    60.00 Ry     beta= 0.15
     Davidson diagonalization with overlap

---- Real-time Memory Report at c_bands before calling an iterative solver
             0 MiB given to the printing process from OS
             0 MiB allocation reported by mallinfo(arena+hblkhd)
        170690 MiB available memory on the node where the printing process lives
------------------
     ethr =  9.92E-03,  avg # of iterations =  1.0

     negative rho (up, down):  7.532E-01 0.000E+00

     total cpu time spent up to now is       34.7 secs

     total energy              =   -4400.03288545 Ry
     estimated scf accuracy    <      26.58069903 Ry

     iteration #  3     ecut=    60.00 Ry     beta= 0.15
     Davidson diagonalization with overlap

---- Real-time Memory Report at c_bands before calling an iterative solver
             0 MiB given to the printing process from OS
             0 MiB allocation reported by mallinfo(arena+hblkhd)
        169952 MiB available memory on the node where the printing process lives
------------------
     ethr =  6.25E-03,  avg # of iterations =  2.0

     negative rho (up, down):  7.544E-01 0.000E+00

     total cpu time spent up to now is       48.3 secs

     total energy              =   -4402.39090653 Ry
     estimated scf accuracy    <      49.28339366 Ry

     iteration #  4     ecut=    60.00 Ry     beta= 0.15
     Davidson diagonalization with overlap

---- Real-time Memory Report at c_bands before calling an iterative solver
             0 MiB given to the printing process from OS
             0 MiB allocation reported by mallinfo(arena+hblkhd)
        169825 MiB available memory on the node where the printing process lives
------------------
     ethr =  6.25E-03,  avg # of iterations =  1.0

     negative rho (up, down):  7.410E-01 0.000E+00

     total cpu time spent up to now is       60.4 secs

     total energy              =   -4401.65171124 Ry
     estimated scf accuracy    <      29.49666188 Ry

     iteration #  5     ecut=    60.00 Ry     beta= 0.15
     Davidson diagonalization with overlap

---- Real-time Memory Report at c_bands before calling an iterative solver
             0 MiB given to the printing process from OS
             0 MiB allocation reported by mallinfo(arena+hblkhd)
        169807 MiB available memory on the node where the printing process lives
------------------
     ethr =  6.25E-03,  avg # of iterations =  1.0

     negative rho (up, down):  7.470E-01 0.000E+00

     total cpu time spent up to now is       72.3 secs

     total energy              =   -4399.87738099 Ry
     estimated scf accuracy    <      44.27290916 Ry

     iteration #  6     ecut=    60.00 Ry     beta= 0.15
     Davidson diagonalization with overlap

---- Real-time Memory Report at c_bands before calling an iterative solver
             0 MiB given to the printing process from OS
             0 MiB allocation reported by mallinfo(arena+hblkhd)
        169792 MiB available memory on the node where the printing process lives
------------------
     ethr =  6.25E-03,  avg # of iterations =  1.0

     negative rho (up, down):  7.421E-01 0.000E+00

     total cpu time spent up to now is       84.3 secs

     total energy              =   -4400.65045152 Ry
     estimated scf accuracy    <      11.82560756 Ry

     iteration #  7     ecut=    60.00 Ry     beta= 0.15
     Davidson diagonalization with overlap

---- Real-time Memory Report at c_bands before calling an iterative solver
             0 MiB given to the printing process from OS
             0 MiB allocation reported by mallinfo(arena+hblkhd)
        169769 MiB available memory on the node where the printing process lives
------------------
     ethr =  2.78E-03,  avg # of iterations =  1.1

     negative rho (up, down):  7.445E-01 0.000E+00

     total cpu time spent up to now is       96.4 secs

     total energy              =   -4400.80027397 Ry
     estimated scf accuracy    <       4.17095673 Ry

     iteration #  8     ecut=    60.00 Ry     beta= 0.15
     Davidson diagonalization with overlap

---- Real-time Memory Report at c_bands before calling an iterative solver
             0 MiB given to the printing process from OS
             0 MiB allocation reported by mallinfo(arena+hblkhd)
        169751 MiB available memory on the node where the printing process lives
------------------
     ethr =  9.81E-04,  avg # of iterations =  1.6

     negative rho (up, down):  7.537E-01 0.000E+00

     total cpu time spent up to now is      108.9 secs

     total energy              =   -4400.31891863 Ry
     estimated scf accuracy    <       3.60552920 Ry

     iteration #  9     ecut=    60.00 Ry     beta= 0.15
     Davidson diagonalization with overlap

---- Real-time Memory Report at c_bands before calling an iterative solver
             0 MiB given to the printing process from OS
             0 MiB allocation reported by mallinfo(arena+hblkhd)
        169727 MiB available memory on the node where the printing process lives
------------------
     ethr =  8.48E-04,  avg # of iterations =  4.6

     negative rho (up, down):  7.761E-01 0.000E+00

     total cpu time spent up to now is      124.1 secs

     total energy              =   -4399.87308629 Ry
     estimated scf accuracy    <      41.02126422 Ry

     iteration # 10     ecut=    60.00 Ry     beta= 0.15
     Davidson diagonalization with overlap

---- Real-time Memory Report at c_bands before calling an iterative solver
             0 MiB given to the printing process from OS
             0 MiB allocation reported by mallinfo(arena+hblkhd)
        169604 MiB available memory on the node where the printing process lives
------------------
     ethr =  8.48E-04,  avg # of iterations =  9.3

     negative rho (up, down):  7.784E-01 0.000E+00

     total cpu time spent up to now is      141.9 secs

     total energy              =   -4399.80974114 Ry
     estimated scf accuracy    <      12.19191326 Ry

     iteration # 11     ecut=    60.00 Ry     beta= 0.15
     Davidson diagonalization with overlap

---- Real-time Memory Report at c_bands before calling an iterative solver
             0 MiB given to the printing process from OS
             0 MiB allocation reported by mallinfo(arena+hblkhd)
        169267 MiB available memory on the node where the printing process lives
------------------
     ethr =  8.48E-04,  avg # of iterations =  1.1

     negative rho (up, down):  7.810E-01 0.000E+00

     total cpu time spent up to now is      154.1 secs

     total energy              =   -4400.11825201 Ry
     estimated scf accuracy    <       1.31970094 Ry

     iteration # 12     ecut=    60.00 Ry     beta= 0.15
     Davidson diagonalization with overlap

---- Real-time Memory Report at c_bands before calling an iterative solver
             0 MiB given to the printing process from OS
             0 MiB allocation reported by mallinfo(arena+hblkhd)
        169265 MiB available memory on the node where the printing process lives
------------------
     ethr =  3.11E-04,  avg # of iterations =  2.9

     negative rho (up, down):  7.889E-01 0.000E+00

     total cpu time spent up to now is      168.4 secs

     total energy              =   -4400.08741490 Ry
     estimated scf accuracy    <       0.71001718 Ry

     iteration # 13     ecut=    60.00 Ry     beta= 0.15
     Davidson diagonalization with overlap

---- Real-time Memory Report at c_bands before calling an iterative solver
             0 MiB given to the printing process from OS
             0 MiB allocation reported by mallinfo(arena+hblkhd)
        169211 MiB available memory on the node where the printing process lives
------------------
     ethr =  1.67E-04,  avg # of iterations =  5.2

     negative rho (up, down):  8.008E-01 0.000E+00

     total cpu time spent up to now is      183.2 secs

     total energy              =   -4400.08623831 Ry
     estimated scf accuracy    <       1.03284652 Ry

     iteration # 14     ecut=    60.00 Ry     beta= 0.15
     Davidson diagonalization with overlap

---- Real-time Memory Report at c_bands before calling an iterative solver
             0 MiB given to the printing process from OS
             0 MiB allocation reported by mallinfo(arena+hblkhd)
        169212 MiB available memory on the node where the printing process lives
------------------
     ethr =  1.67E-04,  avg # of iterations =  7.0

     negative rho (up, down):  8.037E-01 0.000E+00

     total cpu time spent up to now is      198.9 secs

     total energy              =   -4400.02616225 Ry
     estimated scf accuracy    <       1.52115615 Ry

     iteration # 15     ecut=    60.00 Ry     beta= 0.15
     Davidson diagonalization with overlap

---- Real-time Memory Report at c_bands before calling an iterative solver
             0 MiB given to the printing process from OS
             0 MiB allocation reported by mallinfo(arena+hblkhd)
        169196 MiB available memory on the node where the printing process lives
------------------
     ethr =  1.67E-04,  avg # of iterations =  3.5

     negative rho (up, down):  8.060E-01 0.000E+00

     total cpu time spent up to now is      212.7 secs

     total energy              =   -4400.05280978 Ry
     estimated scf accuracy    <       0.38627563 Ry

     iteration # 16     ecut=    60.00 Ry     beta= 0.15
     Davidson diagonalization with overlap

---- Real-time Memory Report at c_bands before calling an iterative solver
             0 MiB given to the printing process from OS
             0 MiB allocation reported by mallinfo(arena+hblkhd)
        169220 MiB available memory on the node where the printing process lives
------------------
     ethr =  9.09E-05,  avg # of iterations =  4.9

     negative rho (up, down):  8.091E-01 0.000E+00

     total cpu time spent up to now is      226.9 secs

     total energy              =   -4400.02026223 Ry
     estimated scf accuracy    <       0.32001838 Ry

     iteration # 17     ecut=    60.00 Ry     beta= 0.15
     Davidson diagonalization with overlap

---- Real-time Memory Report at c_bands before calling an iterative solver
             0 MiB given to the printing process from OS
             0 MiB allocation reported by mallinfo(arena+hblkhd)
        169208 MiB available memory on the node where the printing process lives
------------------
     c_bands:  3 eigenvalues not converged
     ethr =  7.53E-05,  avg # of iterations =  8.0

     negative rho (up, down):  8.171E-01 0.000E+00

     total cpu time spent up to now is      243.3 secs

     total energy              =   -4399.95004107 Ry
     estimated scf accuracy    <       0.28536707 Ry

     iteration # 18     ecut=    60.00 Ry     beta= 0.15
     Davidson diagonalization with overlap

---- Real-time Memory Report at c_bands before calling an iterative solver
             0 MiB given to the printing process from OS
             0 MiB allocation reported by mallinfo(arena+hblkhd)
        169185 MiB available memory on the node where the printing process lives
------------------
     ethr =  6.71E-05,  avg # of iterations = 11.8

     negative rho (up, down):  8.241E-01 0.000E+00

     total cpu time spent up to now is      262.0 secs

     total energy              =   -4399.94730016 Ry
     estimated scf accuracy    <       0.12156843 Ry

     iteration # 19     ecut=    60.00 Ry     beta= 0.15
     Davidson diagonalization with overlap

---- Real-time Memory Report at c_bands before calling an iterative solver
             0 MiB given to the printing process from OS
             0 MiB allocation reported by mallinfo(arena+hblkhd)
        169145 MiB available memory on the node where the printing process lives
------------------
     ethr =  2.86E-05,  avg # of iterations =  7.1

     negative rho (up, down):  8.260E-01 0.000E+00

     total cpu time spent up to now is      278.4 secs

     total energy              =   -4399.93247851 Ry
     estimated scf accuracy    <       0.10381484 Ry

     iteration # 20     ecut=    60.00 Ry     beta= 0.15
     Davidson diagonalization with overlap

---- Real-time Memory Report at c_bands before calling an iterative solver
             0 MiB given to the printing process from OS
             0 MiB allocation reported by mallinfo(arena+hblkhd)
        169051 MiB available memory on the node where the printing process lives
------------------
     ethr =  2.44E-05,  avg # of iterations =  6.0

     negative rho (up, down):  8.174E-01 0.000E+00

     total cpu time spent up to now is      294.1 secs

     total energy              =   -4399.92380529 Ry
     estimated scf accuracy    <       0.09908799 Ry

     iteration # 21     ecut=    60.00 Ry     beta= 0.15
     Davidson diagonalization with overlap

---- Real-time Memory Report at c_bands before calling an iterative solver
             0 MiB given to the printing process from OS
             0 MiB allocation reported by mallinfo(arena+hblkhd)
        169040 MiB available memory on the node where the printing process lives
------------------
     ethr =  2.33E-05,  avg # of iterations =  7.5

     negative rho (up, down):  8.130E-01 0.000E+00

     total cpu time spent up to now is      310.4 secs

     total energy              =   -4399.92334502 Ry
     estimated scf accuracy    <       0.04759639 Ry

     iteration # 22     ecut=    60.00 Ry     beta= 0.15
     Davidson diagonalization with overlap

---- Real-time Memory Report at c_bands before calling an iterative solver
             0 MiB given to the printing process from OS
             0 MiB allocation reported by mallinfo(arena+hblkhd)
        169069 MiB available memory on the node where the printing process lives
------------------
     ethr =  1.12E-05,  avg # of iterations =  5.8

     negative rho (up, down):  8.021E-01 0.000E+00

     total cpu time spent up to now is      325.4 secs

     total energy              =   -4399.91778755 Ry
     estimated scf accuracy    <       0.03373399 Ry

     iteration # 23     ecut=    60.00 Ry     beta= 0.15
     Davidson diagonalization with overlap

---- Real-time Memory Report at c_bands before calling an iterative solver
             0 MiB given to the printing process from OS
             0 MiB allocation reported by mallinfo(arena+hblkhd)
        169033 MiB available memory on the node where the printing process lives
------------------
     ethr =  7.94E-06,  avg # of iterations = 11.6

     negative rho (up, down):  8.044E-01 0.000E+00

     total cpu time spent up to now is      343.6 secs

     total energy              =   -4399.91693552 Ry
     estimated scf accuracy    <       0.01803003 Ry

     iteration # 24     ecut=    60.00 Ry     beta= 0.15
     Davidson diagonalization with overlap

---- Real-time Memory Report at c_bands before calling an iterative solver
             0 MiB given to the printing process from OS
             0 MiB allocation reported by mallinfo(arena+hblkhd)
        168989 MiB available memory on the node where the printing process lives
------------------
     ethr =  4.24E-06,  avg # of iterations =  9.2

     negative rho (up, down):  7.993E-01 0.000E+00

     total cpu time spent up to now is      360.0 secs

     total energy              =   -4399.91666153 Ry
     estimated scf accuracy    <       0.01175843 Ry

     iteration # 25     ecut=    60.00 Ry     beta= 0.15
     Davidson diagonalization with overlap

---- Real-time Memory Report at c_bands before calling an iterative solver
             0 MiB given to the printing process from OS
             0 MiB allocation reported by mallinfo(arena+hblkhd)
        168985 MiB available memory on the node where the printing process lives
------------------
     ethr =  2.77E-06,  avg # of iterations =  2.2

     negative rho (up, down):  7.948E-01 0.000E+00

     total cpu time spent up to now is      373.5 secs

     total energy              =   -4399.91618349 Ry
     estimated scf accuracy    <       0.00910124 Ry

     iteration # 26     ecut=    60.00 Ry     beta= 0.15
     Davidson diagonalization with overlap

---- Real-time Memory Report at c_bands before calling an iterative solver
             0 MiB given to the printing process from OS
             0 MiB allocation reported by mallinfo(arena+hblkhd)
        169039 MiB available memory on the node where the printing process lives
------------------
     ethr =  2.14E-06,  avg # of iterations =  4.7

     negative rho (up, down):  7.944E-01 0.000E+00

     total cpu time spent up to now is      388.5 secs

     total energy              =   -4399.91543065 Ry
     estimated scf accuracy    <       0.00638563 Ry

     iteration # 27     ecut=    60.00 Ry     beta= 0.15
     Davidson diagonalization with overlap

---- Real-time Memory Report at c_bands before calling an iterative solver
             0 MiB given to the printing process from OS
             0 MiB allocation reported by mallinfo(arena+hblkhd)
        169035 MiB available memory on the node where the printing process lives
------------------
     ethr =  1.50E-06,  avg # of iterations =  8.4

     negative rho (up, down):  7.954E-01 0.000E+00

     total cpu time spent up to now is      405.6 secs

     total energy              =   -4399.91558008 Ry
     estimated scf accuracy    <       0.00263607 Ry

     iteration # 28     ecut=    60.00 Ry     beta= 0.15
     Davidson diagonalization with overlap

---- Real-time Memory Report at c_bands before calling an iterative solver
             0 MiB given to the printing process from OS
             0 MiB allocation reported by mallinfo(arena+hblkhd)
        168998 MiB available memory on the node where the printing process lives
------------------
     ethr =  6.20E-07,  avg # of iterations =  6.4

     negative rho (up, down):  7.928E-01 0.000E+00

     total cpu time spent up to now is      421.4 secs

     total energy              =   -4399.91530590 Ry
     estimated scf accuracy    <       0.00162210 Ry

     iteration # 29     ecut=    60.00 Ry     beta= 0.15
     Davidson diagonalization with overlap

---- Real-time Memory Report at c_bands before calling an iterative solver
             0 MiB given to the printing process from OS
             0 MiB allocation reported by mallinfo(arena+hblkhd)
        168995 MiB available memory on the node where the printing process lives
------------------
     ethr =  3.82E-07,  avg # of iterations =  9.5

     negative rho (up, down):  7.936E-01 0.000E+00

     total cpu time spent up to now is      438.1 secs

     total energy              =   -4399.91521837 Ry
     estimated scf accuracy    <       0.00080630 Ry

     iteration # 30     ecut=    60.00 Ry     beta= 0.15
     Davidson diagonalization with overlap

---- Real-time Memory Report at c_bands before calling an iterative solver
             0 MiB given to the printing process from OS
             0 MiB allocation reported by mallinfo(arena+hblkhd)
        169039 MiB available memory on the node where the printing process lives
------------------
     ethr =  1.90E-07,  avg # of iterations = 11.0

     negative rho (up, down):  7.945E-01 0.000E+00

     total cpu time spent up to now is      456.8 secs

     total energy              =   -4399.91521419 Ry
     estimated scf accuracy    <       0.00034379 Ry

     iteration # 31     ecut=    60.00 Ry     beta= 0.15
     Davidson diagonalization with overlap

---- Real-time Memory Report at c_bands before calling an iterative solver
             0 MiB given to the printing process from OS
             0 MiB allocation reported by mallinfo(arena+hblkhd)
        168940 MiB available memory on the node where the printing process lives
------------------
     ethr =  8.09E-08,  avg # of iterations =  2.2

     negative rho (up, down):  7.940E-01 0.000E+00

     total cpu time spent up to now is      470.3 secs

     total energy              =   -4399.91520303 Ry
     estimated scf accuracy    <       0.00019436 Ry

     iteration # 32     ecut=    60.00 Ry     beta= 0.15
     Davidson diagonalization with overlap

---- Real-time Memory Report at c_bands before calling an iterative solver
             0 MiB given to the printing process from OS
             0 MiB allocation reported by mallinfo(arena+hblkhd)
        168962 MiB available memory on the node where the printing process lives
------------------
     ethr =  4.57E-08,  avg # of iterations =  1.7

     negative rho (up, down):  7.931E-01 0.000E+00

     total cpu time spent up to now is      483.7 secs

     total energy              =   -4399.91519656 Ry
     estimated scf accuracy    <       0.00014004 Ry

     iteration # 33     ecut=    60.00 Ry     beta= 0.15
     Davidson diagonalization with overlap

---- Real-time Memory Report at c_bands before calling an iterative solver
             0 MiB given to the printing process from OS
             0 MiB allocation reported by mallinfo(arena+hblkhd)
        168964 MiB available memory on the node where the printing process lives
------------------
     ethr =  3.30E-08,  avg # of iterations =  2.2

     negative rho (up, down):  7.927E-01 0.000E+00

     total cpu time spent up to now is      497.3 secs

     total energy              =   -4399.91519672 Ry
     estimated scf accuracy    <       0.00007309 Ry

     iteration # 34     ecut=    60.00 Ry     beta= 0.15
     Davidson diagonalization with overlap

---- Real-time Memory Report at c_bands before calling an iterative solver
             0 MiB given to the printing process from OS
             0 MiB allocation reported by mallinfo(arena+hblkhd)
        168981 MiB available memory on the node where the printing process lives
------------------
     ethr =  1.72E-08,  avg # of iterations =  2.1

     negative rho (up, down):  7.925E-01 0.000E+00

     total cpu time spent up to now is      510.9 secs

     total energy              =   -4399.91520300 Ry
     estimated scf accuracy    <       0.00002632 Ry

     iteration # 35     ecut=    60.00 Ry     beta= 0.15
     Davidson diagonalization with overlap

---- Real-time Memory Report at c_bands before calling an iterative solver
             0 MiB given to the printing process from OS
             0 MiB allocation reported by mallinfo(arena+hblkhd)
        169009 MiB available memory on the node where the printing process lives
------------------
     ethr =  6.19E-09,  avg # of iterations =  2.1

     negative rho (up, down):  7.924E-01 0.000E+00

     total cpu time spent up to now is      524.8 secs

     total energy              =   -4399.91520645 Ry
     estimated scf accuracy    <       0.00001174 Ry

     iteration # 36     ecut=    60.00 Ry     beta= 0.15
     Davidson diagonalization with overlap

---- Real-time Memory Report at c_bands before calling an iterative solver
             0 MiB given to the printing process from OS
             0 MiB allocation reported by mallinfo(arena+hblkhd)
        169029 MiB available memory on the node where the printing process lives
------------------
     ethr =  2.76E-09,  avg # of iterations =  2.2

     negative rho (up, down):  7.924E-01 0.000E+00

     total cpu time spent up to now is      538.4 secs

     total energy              =   -4399.91520725 Ry
     estimated scf accuracy    <       0.00000555 Ry

     iteration # 37     ecut=    60.00 Ry     beta= 0.15
     Davidson diagonalization with overlap

---- Real-time Memory Report at c_bands before calling an iterative solver
             0 MiB given to the printing process from OS
             0 MiB allocation reported by mallinfo(arena+hblkhd)
        169029 MiB available memory on the node where the printing process lives
------------------
     ethr =  1.31E-09,  avg # of iterations =  1.9

     negative rho (up, down):  7.924E-01 0.000E+00

     total cpu time spent up to now is      551.8 secs

     total energy              =   -4399.91520770 Ry
     estimated scf accuracy    <       0.00000434 Ry

     iteration # 38     ecut=    60.00 Ry     beta= 0.15
     Davidson diagonalization with overlap

---- Real-time Memory Report at c_bands before calling an iterative solver
             0 MiB given to the printing process from OS
             0 MiB allocation reported by mallinfo(arena+hblkhd)
        169043 MiB available memory on the node where the printing process lives
------------------
     ethr =  1.02E-09,  avg # of iterations =  1.9

     negative rho (up, down):  7.924E-01 0.000E+00

     total cpu time spent up to now is      565.3 secs

     total energy              =   -4399.91520792 Ry
     estimated scf accuracy    <       0.00000334 Ry

     iteration # 39     ecut=    60.00 Ry     beta= 0.15
     Davidson diagonalization with overlap

---- Real-time Memory Report at c_bands before calling an iterative solver
             0 MiB given to the printing process from OS
             0 MiB allocation reported by mallinfo(arena+hblkhd)
        169054 MiB available memory on the node where the printing process lives
------------------
     ethr =  7.86E-10,  avg # of iterations =  2.2

     negative rho (up, down):  7.924E-01 0.000E+00

     total cpu time spent up to now is      578.8 secs

     total energy              =   -4399.91520781 Ry
     estimated scf accuracy    <       0.00000274 Ry

     iteration # 40     ecut=    60.00 Ry     beta= 0.15
     Davidson diagonalization with overlap

---- Real-time Memory Report at c_bands before calling an iterative solver
             0 MiB given to the printing process from OS
             0 MiB allocation reported by mallinfo(arena+hblkhd)
        169055 MiB available memory on the node where the printing process lives
------------------
     ethr =  6.46E-10,  avg # of iterations =  2.2

     negative rho (up, down):  7.924E-01 0.000E+00

     total cpu time spent up to now is      592.3 secs

     total energy              =   -4399.91520760 Ry
     estimated scf accuracy    <       0.00000201 Ry

     iteration # 41     ecut=    60.00 Ry     beta= 0.15
     Davidson diagonalization with overlap

---- Real-time Memory Report at c_bands before calling an iterative solver
             0 MiB given to the printing process from OS
             0 MiB allocation reported by mallinfo(arena+hblkhd)
        169059 MiB available memory on the node where the printing process lives
------------------
     ethr =  4.73E-10,  avg # of iterations =  2.1

     negative rho (up, down):  7.924E-01 0.000E+00

     total cpu time spent up to now is      605.8 secs

     total energy              =   -4399.91520763 Ry
     estimated scf accuracy    <       0.00000145 Ry

     iteration # 42     ecut=    60.00 Ry     beta= 0.15
     Davidson diagonalization with overlap

---- Real-time Memory Report at c_bands before calling an iterative solver
             0 MiB given to the printing process from OS
             0 MiB allocation reported by mallinfo(arena+hblkhd)
        169068 MiB available memory on the node where the printing process lives
------------------
     ethr =  3.42E-10,  avg # of iterations =  2.0

     negative rho (up, down):  7.924E-01 0.000E+00

     total cpu time spent up to now is      619.3 secs

     total energy              =   -4399.91520782 Ry
     estimated scf accuracy    <       0.00000098 Ry

     iteration # 43     ecut=    60.00 Ry     beta= 0.15
     Davidson diagonalization with overlap

---- Real-time Memory Report at c_bands before calling an iterative solver
             0 MiB given to the printing process from OS
             0 MiB allocation reported by mallinfo(arena+hblkhd)
        169081 MiB available memory on the node where the printing process lives
------------------
     ethr =  2.32E-10,  avg # of iterations =  2.2

     negative rho (up, down):  7.924E-01 0.000E+00

     total cpu time spent up to now is      632.8 secs

     total energy              =   -4399.91520797 Ry
     estimated scf accuracy    <       0.00000034 Ry

     iteration # 44     ecut=    60.00 Ry     beta= 0.15
     Davidson diagonalization with overlap

---- Real-time Memory Report at c_bands before calling an iterative solver
             0 MiB given to the printing process from OS
             0 MiB allocation reported by mallinfo(arena+hblkhd)
        169084 MiB available memory on the node where the printing process lives
------------------
     ethr =  7.99E-11,  avg # of iterations =  2.2

     negative rho (up, down):  7.924E-01 0.000E+00

     total cpu time spent up to now is      646.5 secs

     total energy              =   -4399.91520811 Ry
     estimated scf accuracy    <       0.00000019 Ry

     iteration # 45     ecut=    60.00 Ry     beta= 0.15
     Davidson diagonalization with overlap

---- Real-time Memory Report at c_bands before calling an iterative solver
             0 MiB given to the printing process from OS
             0 MiB allocation reported by mallinfo(arena+hblkhd)
        169076 MiB available memory on the node where the printing process lives
------------------
     ethr =  4.45E-11,  avg # of iterations =  3.6

     negative rho (up, down):  7.924E-01 0.000E+00

     total cpu time spent up to now is      661.0 secs

     total energy              =   -4399.91520815 Ry
     estimated scf accuracy    <       0.00000005 Ry

     iteration # 46     ecut=    60.00 Ry     beta= 0.15
     Davidson diagonalization with overlap

---- Real-time Memory Report at c_bands before calling an iterative solver
             0 MiB given to the printing process from OS
             0 MiB allocation reported by mallinfo(arena+hblkhd)
        169062 MiB available memory on the node where the printing process lives
------------------
     ethr =  1.14E-11,  avg # of iterations =  2.2

     negative rho (up, down):  7.924E-01 0.000E+00

     total cpu time spent up to now is      674.5 secs

     total energy              =   -4399.91520817 Ry
     estimated scf accuracy    <       0.00000003 Ry

     iteration # 47     ecut=    60.00 Ry     beta= 0.15
     Davidson diagonalization with overlap

---- Real-time Memory Report at c_bands before calling an iterative solver
             0 MiB given to the printing process from OS
             0 MiB allocation reported by mallinfo(arena+hblkhd)
        169064 MiB available memory on the node where the printing process lives
------------------
     ethr =  8.01E-12,  avg # of iterations =  3.0

     negative rho (up, down):  7.924E-01 0.000E+00

     total cpu time spent up to now is      688.4 secs

     total energy              =   -4399.91520818 Ry
     estimated scf accuracy    <       0.00000003 Ry

     iteration # 48     ecut=    60.00 Ry     beta= 0.15
     Davidson diagonalization with overlap

---- Real-time Memory Report at c_bands before calling an iterative solver
             0 MiB given to the printing process from OS
             0 MiB allocation reported by mallinfo(arena+hblkhd)
        169061 MiB available memory on the node where the printing process lives
------------------
     ethr =  5.94E-12,  avg # of iterations =  4.3

     negative rho (up, down):  7.924E-01 0.000E+00

     total cpu time spent up to now is      703.7 secs

     End of self-consistent calculation

          k = 0.0000 0.0000 0.0000 ( 65197 PWs)   bands (ev):

   -92.7116 -92.6561 -92.5651 -92.5148 -92.4589 -92.4179 -92.4003 -92.2776
   -56.0650 -56.0426 -55.9225 -55.9122 -55.9018 -55.8991 -55.8606 -55.8344
   -55.8188 -55.8175 -55.8075 -55.7664 -55.7484 -55.7100 -55.6913 -55.6592
   -55.6481 -55.6060 -55.6039 -55.6032 -55.5947 -55.5524 -55.5307 -55.4446
   -31.2881 -31.2688 -31.1412 -31.1262 -31.0397 -30.9666 -30.8686 -30.7748
   -29.8600 -29.8172 -29.7903 -29.6820 -15.0921 -15.0530 -14.9689 -14.8385
   -14.6502 -14.5265 -14.2310 -14.2147 -14.1827 -14.1363 -14.0930 -14.0818
   -14.0718 -14.0544 -14.0383 -13.9918 -13.9426 -13.7913 -13.6184 -13.5799
   -13.5482 -13.5222 -13.5016 -13.4474 -13.4135 -13.3324 -13.2610 -13.1501
   -13.1310 -13.1207 -13.1042 -13.0856 -13.0668 -13.0304 -13.0103 -13.0016
   -12.9641 -12.9363 -12.9290 -12.9217 -12.8958 -12.8732 -12.8133 -12.7953
   -12.7686 -12.7123 -12.6743 -12.6558 -12.3525 -12.2069 -12.0517 -11.9846
   -11.8736 -11.7994 -11.7879 -11.7658 -11.7480 -11.6841 -11.6665 -11.6324
   -11.6029 -11.4913 -11.4113 -11.4078  -2.9535  -2.7206  -2.4911  -2.3448
    -2.2811  -2.1385  -1.8318  -1.8178  -1.7974  -1.7146  -1.6950  -1.6268
    -1.6106  -1.5688  -1.5254  -1.3436  -1.1211  -1.0908  -0.9417  -0.9277
    -0.8839  -0.8638  -0.8192  -0.8033  -0.7457  -0.7185  -0.6468  -0.6353
    -0.5580  -0.4265  -0.4133  -0.3861  -0.3051  -0.3013  -0.2809  -0.2139
    -0.1411  -0.0945  -0.0460  -0.0176   0.0423   0.1163   0.1689   0.1877
     0.2000   0.4563   0.4720   0.6428   0.7117   0.7776   0.8158   0.9107
     0.9241   0.9384   1.0097   1.0366   1.0708   1.1299   1.2621   1.3184
     1.3388   1.3573   1.3709   1.4370   1.5109   1.6124   1.6236   1.6892
     1.7041   1.7456   1.7622   1.7687   1.8274   1.8803   1.8884   1.9224
     1.9653   2.0131   2.1435   2.2294   2.2719   2.2836   2.4368   2.4559
     2.5004   2.5027   2.6079   2.6452   2.6698   2.6890   2.7031   2.7552
     2.8164   2.9018   2.9277   2.9406   2.9468   3.0158   3.0192   3.0425
     3.0505   3.0585   3.0723   3.0782   3.0903   3.0962   3.1097   3.1180
     3.1260   3.1458   3.1671   3.1721   3.1847   3.2351   3.3264   3.4220
     4.0972   4.4231   4.7636   4.8614   5.0270   5.7858   5.9402   5.9912
     5.9936   6.3035   6.3507   6.4802   6.4886   6.7321   7.0027   7.0889
     7.1322   7.2967   7.3149   7.5856   7.6536   7.6749   7.7216   7.9381
     7.9477   8.0918   8.1097   8.1758   8.5000   8.6128   8.7162   8.8475

     occupation numbers 
     1.0000   1.0000   1.0000   1.0000   1.0000   1.0000   1.0000   1.0000
     1.0000   1.0000   1.0000   1.0000   1.0000   1.0000   1.0000   1.0000
     1.0000   1.0000   1.0000   1.0000   1.0000   1.0000   1.0000   1.0000
     1.0000   1.0000   1.0000   1.0000   1.0000   1.0000   1.0000   1.0000
     1.0000   1.0000   1.0000   1.0000   1.0000   1.0000   1.0000   1.0000
     1.0000   1.0000   1.0000   1.0000   1.0000   1.0000   1.0000   1.0000
     1.0000   1.0000   1.0000   1.0000   1.0000   1.0000   1.0000   1.0000
     1.0000   1.0000   1.0000   1.0000   1.0000   1.0000   1.0000   1.0000
     1.0000   1.0000   1.0000   1.0000   1.0000   1.0000   1.0000   1.0000
     1.0000   1.0000   1.0000   1.0000   1.0000   1.0000   1.0000   1.0000
     1.0000   1.0000   1.0000   1.0000   1.0000   1.0000   1.0000   1.0000
     1.0000   1.0000   1.0000   1.0000   1.0000   1.0000   1.0000   1.0000
     1.0000   1.0000   1.0000   1.0000   1.0000   1.0000   1.0000   1.0000
     1.0000   1.0000   1.0000   1.0000   1.0000   1.0000   1.0000   1.0000
     1.0000   1.0000   1.0000   1.0000   1.0000   1.0000   1.0000   1.0000
     1.0000   1.0000   1.0000   1.0000   1.0000   1.0000   1.0000   1.0000
     1.0000   1.0000   1.0000   1.0000   1.0000   1.0000   1.0000   1.0000
     1.0000   1.0000   1.0000   1.0000   1.0000   1.0000   1.0000   1.0000
     1.0000   1.0000   1.0000   1.0000   1.0000   1.0000   1.0000   1.0000
     1.0000   1.0000   1.0000   1.0000   0.9999   0.9999   0.9999   0.9998
     0.9998   0.9998   0.9997   0.9996   0.9996   0.9994   0.9989   0.9985
     0.9983   0.9982   0.9981   0.9974   0.9963   0.9943   0.9940   0.9922
     0.9917   0.9902   0.9895   0.9892   0.9865   0.9835   0.9830   0.9808
     0.9776   0.9735   0.9592   0.9467   0.9395   0.9374   0.9042   0.8993
     0.8871   0.8865   0.8536   0.8405   0.8315   0.8242   0.8187   0.7976
     0.7710   0.7309   0.7180   0.7115   0.7084   0.6723   0.6704   0.6578
     0.6535   0.6491   0.6414   0.6381   0.6314   0.6281   0.6205   0.6158
     0.6112   0.5999   0.5876   0.5848   0.5774   0.5480   0.4940   0.4376
     0.1231   0.0501   0.0158   0.0109   0.0055   0.0001   0.0000   0.0000
     0.0000   0.0000   0.0000   0.0000   0.0000   0.0000   0.0000   0.0000
     0.0000   0.0000   0.0000   0.0000   0.0000   0.0000   0.0000   0.0000
     0.0000   0.0000   0.0000   0.0000   0.0000   0.0000   0.0000   0.0000

          k = 0.0000 0.2500 0.0000 ( 65257 PWs)   bands (ev):

   -92.7116 -92.6561 -92.5651 -92.5148 -92.4589 -92.4179 -92.4003 -92.2776
   -56.0650 -56.0426 -55.9225 -55.9122 -55.9018 -55.8991 -55.8606 -55.8344
   -55.8188 -55.8175 -55.8075 -55.7664 -55.7484 -55.7100 -55.6913 -55.6592
   -55.6481 -55.6060 -55.6039 -55.6032 -55.5947 -55.5524 -55.5307 -55.4446
   -31.2879 -31.2687 -31.1411 -31.1265 -31.0399 -30.9664 -30.8687 -30.7750
   -29.8594 -29.8169 -29.7910 -29.6823 -15.0553 -15.0268 -14.9437 -14.8094
   -14.6907 -14.5169 -14.3767 -14.1967 -14.1664 -14.1427 -14.1120 -14.0579
   -14.0476 -14.0351 -14.0205 -13.9696 -13.8619 -13.8229 -13.6587 -13.6429
   -13.5901 -13.5546 -13.5148 -13.4650 -13.4218 -13.3537 -13.3181 -13.2554
   -13.2067 -13.1582 -13.1254 -13.1166 -13.0929 -12.9975 -12.9716 -12.9451
   -12.9385 -12.9108 -12.9086 -12.8844 -12.8729 -12.8086 -12.7844 -12.7250
   -12.7037 -12.6831 -12.6136 -12.5463 -12.4138 -12.2582 -12.1062 -12.0494
   -11.8391 -11.7963 -11.7681 -11.7398 -11.7233 -11.6762 -11.6646 -11.6419
   -11.6084 -11.5054 -11.4529 -11.4424  -2.8183  -2.5962  -2.4589  -2.2768
    -2.2332  -2.0691  -1.8507  -1.7650  -1.7520  -1.6960  -1.5921  -1.5768
    -1.5433  -1.5163  -1.4727  -1.2747  -1.1465  -1.1348  -1.0590  -1.0484
    -0.9438  -0.9127  -0.8556  -0.8312  -0.7893  -0.7268  -0.7005  -0.6679
    -0.6354  -0.6187  -0.5864  -0.5113  -0.4614  -0.4024  -0.2850  -0.2691
    -0.2232  -0.1023  -0.0679  -0.0082   0.0421   0.0966   0.1171   0.1483
     0.2077   0.5036   0.5920   0.6235   0.7096   0.7560   0.7752   0.8963
     0.9149   1.0109   1.0360   1.0637   1.1780   1.2684   1.2946   1.3168
     1.3331   1.3625   1.4231   1.4492   1.4775   1.5253   1.5589   1.5882
     1.6694   1.7015   1.7411   1.7916   1.8495   1.8944   1.9142   1.9394
     1.9634   2.0470   2.1818   2.2515   2.2680   2.3473   2.3937   2.4314
     2.4426   2.5024   2.5435   2.6251   2.6621   2.6790   2.7846   2.8536
     2.8858   2.9122   2.9304   2.9493   2.9559   2.9636   2.9786   3.0021
     3.0041   3.0242   3.0289   3.0388   3.0575   3.0671   3.0766   3.0978
     3.1080   3.1127   3.1478   3.1652   3.2256   3.6034   3.6446   3.8663
     4.2821   4.4253   4.6965   5.0190   5.0513   5.6267   5.7569   5.8989
     5.9879   6.0820   6.1016   6.1778   6.5958   6.8940   6.9649   7.1070
     7.2663   7.3262   7.4769   7.4926   7.6368   7.7389   7.8466   7.9499
     8.0176   8.1093   8.1898   8.3147   8.4027   8.5853   8.7587   8.8649

     occupation numbers 
     1.0000   1.0000   1.0000   1.0000   1.0000   1.0000   1.0000   1.0000
     1.0000   1.0000   1.0000   1.0000   1.0000   1.0000   1.0000   1.0000
     1.0000   1.0000   1.0000   1.0000   1.0000   1.0000   1.0000   1.0000
     1.0000   1.0000   1.0000   1.0000   1.0000   1.0000   1.0000   1.0000
     1.0000   1.0000   1.0000   1.0000   1.0000   1.0000   1.0000   1.0000
     1.0000   1.0000   1.0000   1.0000   1.0000   1.0000   1.0000   1.0000
     1.0000   1.0000   1.0000   1.0000   1.0000   1.0000   1.0000   1.0000
     1.0000   1.0000   1.0000   1.0000   1.0000   1.0000   1.0000   1.0000
     1.0000   1.0000   1.0000   1.0000   1.0000   1.0000   1.0000   1.0000
     1.0000   1.0000   1.0000   1.0000   1.0000   1.0000   1.0000   1.0000
     1.0000   1.0000   1.0000   1.0000   1.0000   1.0000   1.0000   1.0000
     1.0000   1.0000   1.0000   1.0000   1.0000   1.0000   1.0000   1.0000
     1.0000   1.0000   1.0000   1.0000   1.0000   1.0000   1.0000   1.0000
     1.0000   1.0000   1.0000   1.0000   1.0000   1.0000   1.0000   1.0000
     1.0000   1.0000   1.0000   1.0000   1.0000   1.0000   1.0000   1.0000
     1.0000   1.0000   1.0000   1.0000   1.0000   1.0000   1.0000   1.0000
     1.0000   1.0000   1.0000   1.0000   1.0000   1.0000   1.0000   1.0000
     1.0000   1.0000   1.0000   1.0000   1.0000   1.0000   1.0000   1.0000
     1.0000   1.0000   1.0000   1.0000   1.0000   1.0000   1.0000   1.0000
     1.0000   1.0000   1.0000   1.0000   0.9999   0.9999   0.9999   0.9998
     0.9998   0.9997   0.9996   0.9996   0.9993   0.9988   0.9987   0.9985
     0.9984   0.9981   0.9975   0.9972   0.9968   0.9961   0.9955   0.9949
     0.9928   0.9918   0.9903   0.9882   0.9853   0.9826   0.9813   0.9795
     0.9777   0.9703   0.9540   0.9431   0.9402   0.9249   0.9146   0.9056
     0.9027   0.8866   0.8744   0.8476   0.8343   0.8280   0.7851   0.7540
     0.7386   0.7257   0.7167   0.7071   0.7037   0.6997   0.6919   0.6796
     0.6785   0.6677   0.6652   0.6598   0.6496   0.6443   0.6390   0.6272
     0.6214   0.6188   0.5987   0.5888   0.5536   0.3349   0.3129   0.2071
     0.0758   0.0498   0.0202   0.0057   0.0050   0.0003   0.0001   0.0001
     0.0000   0.0000   0.0000   0.0000   0.0000   0.0000   0.0000   0.0000
     0.0000   0.0000   0.0000   0.0000   0.0000   0.0000   0.0000   0.0000
     0.0000   0.0000   0.0000   0.0000   0.0000   0.0000   0.0000   0.0000

          k = 0.0000-0.5000 0.0000 ( 65180 PWs)   bands (ev):

   -92.7116 -92.6561 -92.5651 -92.5148 -92.4589 -92.4179 -92.4003 -92.2776
   -56.0650 -56.0426 -55.9225 -55.9122 -55.9018 -55.8991 -55.8606 -55.8344
   -55.8188 -55.8175 -55.8075 -55.7664 -55.7484 -55.7100 -55.6913 -55.6592
   -55.6481 -55.6060 -55.6039 -55.6032 -55.5947 -55.5524 -55.5307 -55.4446
   -31.2877 -31.2685 -31.1410 -31.1267 -31.0400 -30.9663 -30.8688 -30.7751
   -29.8587 -29.8166 -29.7916 -29.6826 -15.0220 -14.9736 -14.9195 -14.7960
   -14.7064 -14.5733 -14.4157 -14.3015 -14.1679 -14.0983 -14.0568 -14.0488
   -14.0007 -13.9826 -13.9317 -13.9177 -13.8882 -13.8563 -13.8314 -13.7745
   -13.5937 -13.5373 -13.5230 -13.4671 -13.4124 -13.3695 -13.3320 -13.2935
   -13.2912 -13.2278 -13.1277 -13.1169 -13.0903 -12.9786 -12.9731 -12.9657
   -12.9387 -12.9118 -12.8926 -12.8769 -12.7768 -12.7238 -12.7153 -12.6870
   -12.6800 -12.6617 -12.5247 -12.4833 -12.3454 -12.3333 -12.2043 -12.1600
   -11.7932 -11.7907 -11.7631 -11.7252 -11.6911 -11.6800 -11.6385 -11.6344
   -11.5904 -11.5268 -11.5133 -11.4993  -2.6036  -2.5441  -2.3930  -2.3208
    -2.0405  -1.9556  -1.8284  -1.6911  -1.6558  -1.6342  -1.5562  -1.5260
    -1.4421  -1.4075  -1.3308  -1.2901  -1.2517  -1.2247  -1.1680  -1.1289
    -1.0848  -1.0482  -1.0132  -0.9810  -0.8693  -0.8249  -0.7906  -0.7896
    -0.7036  -0.6719  -0.6490  -0.6000  -0.5161  -0.4413  -0.3634  -0.3357
    -0.2213  -0.1810  -0.0406  -0.0128   0.0235   0.0724   0.1971   0.2541
     0.3810   0.4479   0.4550   0.5840   0.6285   0.7267   0.8637   0.9697
     1.0003   1.0395   1.0435   1.0808   1.1000   1.1366   1.1528   1.1654
     1.2748   1.3359   1.3596   1.3829   1.6474   1.6814   1.7029   1.8002
     1.8218   1.8568   1.8717   1.8998   1.9163   1.9217   1.9551   1.9882
     2.0162   2.0438   2.0556   2.0863   2.1401   2.2215   2.2540   2.4341
     2.5910   2.5999   2.6173   2.6366   2.6564   2.6677   2.7120   2.7338
     2.7882   2.8079   2.8206   2.8867   2.8994   2.9666   2.9889   2.9991
     2.9996   3.0197   3.0263   3.0315   3.0341   3.0393   3.0535   3.0670
     3.0767   3.1333   3.1394   3.1548   3.2084   4.1120   4.1689   4.1799
     4.2387   4.7225   4.8933   5.0202   5.1389   5.4068   5.4569   5.5828
     5.6931   5.9797   6.0374   6.0393   6.7843   6.8497   6.9510   7.2160
     7.3149   7.3445   7.4214   7.4498   7.6618   7.7433   7.7950   7.9014
     8.1232   8.2687   8.4368   8.5118   8.6608   8.7441   8.8067   8.8207

     occupation numbers 
     1.0000   1.0000   1.0000   1.0000   1.0000   1.0000   1.0000   1.0000
     1.0000   1.0000   1.0000   1.0000   1.0000   1.0000   1.0000   1.0000
     1.0000   1.0000   1.0000   1.0000   1.0000   1.0000   1.0000   1.0000
     1.0000   1.0000   1.0000   1.0000   1.0000   1.0000   1.0000   1.0000
     1.0000   1.0000   1.0000   1.0000   1.0000   1.0000   1.0000   1.0000
     1.0000   1.0000   1.0000   1.0000   1.0000   1.0000   1.0000   1.0000
     1.0000   1.0000   1.0000   1.0000   1.0000   1.0000   1.0000   1.0000
     1.0000   1.0000   1.0000   1.0000   1.0000   1.0000   1.0000   1.0000
     1.0000   1.0000   1.0000   1.0000   1.0000   1.0000   1.0000   1.0000
     1.0000   1.0000   1.0000   1.0000   1.0000   1.0000   1.0000   1.0000
     1.0000   1.0000   1.0000   1.0000   1.0000   1.0000   1.0000   1.0000
     1.0000   1.0000   1.0000   1.0000   1.0000   1.0000   1.0000   1.0000
     1.0000   1.0000   1.0000   1.0000   1.0000   1.0000   1.0000   1.0000
     1.0000   1.0000   1.0000   1.0000   1.0000   1.0000   1.0000   1.0000
     1.0000   1.0000   1.0000   1.0000   1.0000   1.0000   1.0000   1.0000
     1.0000   1.0000   1.0000   1.0000   1.0000   1.0000   1.0000   1.0000
     1.0000   1.0000   1.0000   1.0000   1.0000   1.0000   1.0000   1.0000
     1.0000   1.0000   1.0000   1.0000   1.0000   1.0000   1.0000   1.0000
     1.0000   1.0000   1.0000   1.0000   1.0000   1.0000   1.0000   1.0000
     1.0000   1.0000   1.0000   1.0000   1.0000   0.9999   0.9999   0.9998
     0.9997   0.9996   0.9996   0.9995   0.9995   0.9994   0.9993   0.9993
     0.9988   0.9984   0.9982   0.9980   0.9934   0.9924   0.9917   0.9878
     0.9868   0.9849   0.9840   0.9823   0.9812   0.9808   0.9784   0.9757
     0.9732   0.9706   0.9694   0.9661   0.9596   0.9480   0.9426   0.9049
     0.8592   0.8563   0.8503   0.8436   0.8364   0.8322   0.8152   0.8065
     0.7835   0.7749   0.7691   0.7382   0.7320   0.6982   0.6865   0.6812
     0.6809   0.6702   0.6666   0.6638   0.6624   0.6596   0.6518   0.6443
     0.6390   0.6070   0.6036   0.5947   0.5636   0.1187   0.1027   0.0998
     0.0854   0.0184   0.0096   0.0057   0.0034   0.0010   0.0007   0.0004
     0.0002   0.0000   0.0000   0.0000   0.0000   0.0000   0.0000   0.0000
     0.0000   0.0000   0.0000   0.0000   0.0000   0.0000   0.0000   0.0000
     0.0000   0.0000   0.0000   0.0000   0.0000   0.0000   0.0000   0.0000

          k = 0.2500 0.2500 0.0000 ( 65198 PWs)   bands (ev):

   -92.7116 -92.6561 -92.5651 -92.5148 -92.4589 -92.4179 -92.4003 -92.2776
   -56.0650 -56.0426 -55.9225 -55.9122 -55.9018 -55.8991 -55.8606 -55.8344
   -55.8188 -55.8175 -55.8075 -55.7664 -55.7484 -55.7100 -55.6913 -55.6592
   -55.6481 -55.6060 -55.6039 -55.6032 -55.5947 -55.5524 -55.5307 -55.4446
   -31.2862 -31.2704 -31.1410 -31.1261 -31.0403 -30.9666 -30.8683 -30.7753
   -29.8584 -29.8179 -29.7906 -29.6827 -15.0270 -14.9917 -14.9157 -14.7991
   -14.6823 -14.5572 -14.4821 -14.2788 -14.1201 -14.1083 -14.0718 -14.0443
   -14.0193 -13.9949 -13.9670 -13.9309 -13.8528 -13.8370 -13.6739 -13.6612
   -13.6319 -13.6114 -13.5732 -13.5213 -13.4547 -13.4367 -13.3257 -13.2881
   -13.2393 -13.1540 -13.1141 -13.0858 -13.0535 -13.0298 -12.9843 -12.9573
   -12.9384 -12.9208 -12.8901 -12.8424 -12.8005 -12.7664 -12.7532 -12.7250
   -12.7138 -12.7067 -12.5267 -12.4623 -12.4272 -12.2873 -12.1400 -12.0957
   -11.8113 -11.7798 -11.7687 -11.7613 -11.6995 -11.6639 -11.6576 -11.6223
   -11.6140 -11.5221 -11.4813 -11.4637  -2.6801  -2.4705  -2.3530  -2.2591
    -2.1376  -2.0723  -1.8758  -1.7301  -1.7104  -1.6825  -1.5871  -1.5534
    -1.4594  -1.4321  -1.3817  -1.2503  -1.2026  -1.1304  -1.0852  -1.0411
    -1.0170  -0.9920  -0.9493  -0.9344  -0.8441  -0.7939  -0.7304  -0.6807
    -0.6496  -0.5988  -0.5859  -0.5233  -0.4743  -0.4213  -0.3829  -0.3000
    -0.2439  -0.2171  -0.1765  -0.1218  -0.0442  -0.0101   0.0118   0.0887
     0.1217   0.3958   0.5426   0.5800   0.6346   0.6792   0.7304   0.7872
     0.8503   0.8859   1.1579   1.2268   1.3006   1.3277   1.3724   1.4066
     1.4410   1.4787   1.4961   1.5243   1.5682   1.5754   1.5914   1.6325
     1.6735   1.7146   1.7735   1.8110   1.8173   1.8544   1.8882   1.9406
     1.9710   2.0891   2.1617   2.1979   2.2235   2.2831   2.3541   2.3849
     2.4195   2.4424   2.4558   2.5668   2.6038   2.6921   2.8077   2.8681
     2.8828   2.8897   2.9060   2.9206   2.9340   2.9454   2.9531   2.9645
     2.9761   2.9888   3.0071   3.0135   3.0249   3.0454   3.0591   3.0682
     3.0991   3.4005   3.4965   3.5335   3.6017   3.6644   3.8405   3.9436
     4.2909   4.5132   4.7052   4.9657   5.1655   5.6352   5.6763   5.7338
     5.8275   5.8849   6.0024   6.1606   6.2156   6.7646   6.8940   7.0506
     7.1452   7.5469   7.5958   7.7027   7.7516   7.8627   7.9574   8.0932
     8.1636   8.2396   8.2997   8.3235   8.4369   8.4566   8.6026   8.8299

     occupation numbers 
     1.0000   1.0000   1.0000   1.0000   1.0000   1.0000   1.0000   1.0000
     1.0000   1.0000   1.0000   1.0000   1.0000   1.0000   1.0000   1.0000
     1.0000   1.0000   1.0000   1.0000   1.0000   1.0000   1.0000   1.0000
     1.0000   1.0000   1.0000   1.0000   1.0000   1.0000   1.0000   1.0000
     1.0000   1.0000   1.0000   1.0000   1.0000   1.0000   1.0000   1.0000
     1.0000   1.0000   1.0000   1.0000   1.0000   1.0000   1.0000   1.0000
     1.0000   1.0000   1.0000   1.0000   1.0000   1.0000   1.0000   1.0000
     1.0000   1.0000   1.0000   1.0000   1.0000   1.0000   1.0000   1.0000
     1.0000   1.0000   1.0000   1.0000   1.0000   1.0000   1.0000   1.0000
     1.0000   1.0000   1.0000   1.0000   1.0000   1.0000   1.0000   1.0000
     1.0000   1.0000   1.0000   1.0000   1.0000   1.0000   1.0000   1.0000
     1.0000   1.0000   1.0000   1.0000   1.0000   1.0000   1.0000   1.0000
     1.0000   1.0000   1.0000   1.0000   1.0000   1.0000   1.0000   1.0000
     1.0000   1.0000   1.0000   1.0000   1.0000   1.0000   1.0000   1.0000
     1.0000   1.0000   1.0000   1.0000   1.0000   1.0000   1.0000   1.0000
     1.0000   1.0000   1.0000   1.0000   1.0000   1.0000   1.0000   1.0000
     1.0000   1.0000   1.0000   1.0000   1.0000   1.0000   1.0000   1.0000
     1.0000   1.0000   1.0000   1.0000   1.0000   1.0000   1.0000   1.0000
     1.0000   1.0000   1.0000   1.0000   1.0000   1.0000   1.0000   1.0000
     1.0000   1.0000   1.0000   1.0000   1.0000   1.0000   0.9999   0.9999
     0.9999   0.9998   0.9993   0.9990   0.9986   0.9984   0.9981   0.9977
     0.9973   0.9968   0.9966   0.9961   0.9953   0.9951   0.9948   0.9938
     0.9926   0.9913   0.9890   0.9873   0.9870   0.9850   0.9830   0.9795
     0.9771   0.9658   0.9568   0.9516   0.9477   0.9375   0.9235   0.9167
     0.9085   0.9028   0.8993   0.8671   0.8550   0.8230   0.7749   0.7471
     0.7401   0.7367   0.7288   0.7216   0.7149   0.7091   0.7051   0.6993
     0.6933   0.6866   0.6769   0.6735   0.6674   0.6563   0.6487   0.6437
     0.6264   0.4502   0.3945   0.3735   0.3358   0.3026   0.2181   0.1758
     0.0739   0.0378   0.0196   0.0072   0.0030   0.0003   0.0002   0.0002
     0.0001   0.0001   0.0000   0.0000   0.0000   0.0000   0.0000   0.0000
     0.0000   0.0000   0.0000   0.0000   0.0000   0.0000   0.0000   0.0000
     0.0000   0.0000   0.0000   0.0000   0.0000   0.0000   0.0000   0.0000

          k = 0.2500-0.5000 0.0000 ( 65138 PWs)   bands (ev):

   -92.7116 -92.6561 -92.5651 -92.5148 -92.4589 -92.4179 -92.4003 -92.2776
   -56.0650 -56.0426 -55.9225 -55.9122 -55.9018 -55.8991 -55.8606 -55.8344
   -55.8188 -55.8175 -55.8075 -55.7664 -55.7484 -55.7100 -55.6913 -55.6592
   -55.6481 -55.6060 -55.6039 -55.6032 -55.5947 -55.5524 -55.5307 -55.4446
   -31.2860 -31.2703 -31.1408 -31.1263 -31.0404 -30.9665 -30.8685 -30.7755
   -29.8578 -29.8175 -29.7912 -29.6830 -14.9916 -14.9467 -14.8767 -14.7659
   -14.7295 -14.6128 -14.5194 -14.3965 -14.0839 -14.0334 -14.0071 -13.9836
   -13.9694 -13.9539 -13.9167 -13.9056 -13.8719 -13.8312 -13.8168 -13.7657
   -13.6766 -13.6281 -13.5888 -13.5488 -13.4811 -13.4654 -13.3734 -13.3458
   -13.2173 -13.1523 -13.1355 -13.0714 -13.0410 -12.9999 -12.9838 -12.9537
   -12.9249 -12.9211 -12.9118 -12.8599 -12.7890 -12.7441 -12.7234 -12.7094
   -12.6655 -12.6336 -12.5314 -12.4415 -12.3309 -12.3004 -12.1997 -12.1692
   -11.7869 -11.7750 -11.7638 -11.7363 -11.7054 -11.6763 -11.6361 -11.6081
   -11.5863 -11.5400 -11.5143 -11.5035  -2.4621  -2.3959  -2.2669  -2.1896
    -2.0610  -1.9760  -1.8529  -1.7028  -1.6497  -1.6271  -1.5645  -1.5512
    -1.4527  -1.3873  -1.3018  -1.2526  -1.2435  -1.1797  -1.1380  -1.1025
    -1.0555  -1.0187  -0.9836  -0.9433  -0.9308  -0.8870  -0.8581  -0.8169
    -0.7855  -0.7185  -0.6187  -0.5766  -0.4993  -0.4344  -0.3873  -0.3424
    -0.3212  -0.2688  -0.1052  -0.0953  -0.0003   0.0427   0.0502   0.0936
     0.1275   0.1662   0.1950   0.2639   0.5341   0.6271   0.6930   0.7534
     1.0190   1.0437   1.1304   1.1585   1.3242   1.3557   1.4003   1.4240
     1.4390   1.4593   1.5201   1.5653   1.6019   1.6801   1.7746   1.8164
     1.8327   1.8410   1.8813   1.8941   1.9009   1.9447   1.9554   1.9765
     1.9989   2.0239   2.0481   2.0799   2.1388   2.1763   2.2559   2.3971
     2.5443   2.5587   2.5770   2.6047   2.6289   2.6454   2.6806   2.6880
     2.7060   2.8142   2.8412   2.8647   2.8843   2.8927   2.9043   2.9227
     2.9374   2.9568   2.9634   2.9933   3.0066   3.0212   3.0295   3.0382
     3.0498   3.5752   3.5892   3.7323   3.7835   4.1315   4.1730   4.2040
     4.3007   4.7421   4.9153   5.0544   5.1157   5.2954   5.4242   5.5882
     5.6169   5.7558   5.7854   6.1070   6.3914   6.4839   6.6714   6.9666
     7.4659   7.5049   7.6963   7.7344   7.8058   7.8717   8.0310   8.1842
     8.2816   8.4061   8.4505   8.5187   8.5309   8.6176   8.7101   8.7621

     occupation numbers 
     1.0000   1.0000   1.0000   1.0000   1.0000   1.0000   1.0000   1.0000
     1.0000   1.0000   1.0000   1.0000   1.0000   1.0000   1.0000   1.0000
     1.0000   1.0000   1.0000   1.0000   1.0000   1.0000   1.0000   1.0000
     1.0000   1.0000   1.0000   1.0000   1.0000   1.0000   1.0000   1.0000
     1.0000   1.0000   1.0000   1.0000   1.0000   1.0000   1.0000   1.0000
     1.0000   1.0000   1.0000   1.0000   1.0000   1.0000   1.0000   1.0000
     1.0000   1.0000   1.0000   1.0000   1.0000   1.0000   1.0000   1.0000
     1.0000   1.0000   1.0000   1.0000   1.0000   1.0000   1.0000   1.0000
     1.0000   1.0000   1.0000   1.0000   1.0000   1.0000   1.0000   1.0000
     1.0000   1.0000   1.0000   1.0000   1.0000   1.0000   1.0000   1.0000
     1.0000   1.0000   1.0000   1.0000   1.0000   1.0000   1.0000   1.0000
     1.0000   1.0000   1.0000   1.0000   1.0000   1.0000   1.0000   1.0000
     1.0000   1.0000   1.0000   1.0000   1.0000   1.0000   1.0000   1.0000
     1.0000   1.0000   1.0000   1.0000   1.0000   1.0000   1.0000   1.0000
     1.0000   1.0000   1.0000   1.0000   1.0000   1.0000   1.0000   1.0000
     1.0000   1.0000   1.0000   1.0000   1.0000   1.0000   1.0000   1.0000
     1.0000   1.0000   1.0000   1.0000   1.0000   1.0000   1.0000   1.0000
     1.0000   1.0000   1.0000   1.0000   1.0000   1.0000   1.0000   1.0000
     1.0000   1.0000   1.0000   1.0000   1.0000   1.0000   1.0000   1.0000
     1.0000   1.0000   1.0000   1.0000   1.0000   1.0000   1.0000   0.9999
     0.9997   0.9996   0.9994   0.9993   0.9985   0.9982   0.9978   0.9975
     0.9973   0.9971   0.9962   0.9953   0.9945   0.9924   0.9890   0.9870
     0.9862   0.9858   0.9834   0.9826   0.9822   0.9792   0.9783   0.9767
     0.9748   0.9725   0.9702   0.9668   0.9598   0.9547   0.9423   0.9138
     0.8742   0.8697   0.8638   0.8546   0.8463   0.8404   0.8274   0.8246
     0.8176   0.7720   0.7597   0.7487   0.7394   0.7353   0.7296   0.7205
     0.7131   0.7032   0.6998   0.6842   0.6772   0.6693   0.6649   0.6602
     0.6538   0.3503   0.3426   0.2684   0.2439   0.1130   0.1017   0.0937
     0.0719   0.0171   0.0088   0.0049   0.0038   0.0016   0.0009   0.0004
     0.0003   0.0001   0.0001   0.0000   0.0000   0.0000   0.0000   0.0000
     0.0000   0.0000   0.0000   0.0000   0.0000   0.0000   0.0000   0.0000
     0.0000   0.0000   0.0000   0.0000   0.0000   0.0000   0.0000   0.0000

          k =-0.5000-0.5000 0.0000 ( 65132 PWs)   bands (ev):

   -92.7116 -92.6561 -92.5651 -92.5148 -92.4589 -92.4179 -92.4003 -92.2776
   -56.0650 -56.0426 -55.9225 -55.9122 -55.9018 -55.8991 -55.8606 -55.8344
   -55.8188 -55.8175 -55.8075 -55.7664 -55.7484 -55.7100 -55.6913 -55.6592
   -55.6481 -55.6060 -55.6039 -55.6032 -55.5947 -55.5524 -55.5307 -55.4446
   -31.2838 -31.2725 -31.1407 -31.1259 -31.0408 -30.9666 -30.8681 -30.7758
   -29.8567 -29.8186 -29.7908 -29.6835 -14.9458 -14.9191 -14.8027 -14.7896
   -14.6934 -14.6595 -14.6255 -14.4946 -13.9965 -13.9852 -13.9513 -13.9316
   -13.9123 -13.9013 -13.8722 -13.8627 -13.8425 -13.8408 -13.8246 -13.7445
   -13.7373 -13.7067 -13.6835 -13.6743 -13.5700 -13.5397 -13.4118 -13.3913
   -13.1690 -13.1324 -13.0592 -13.0388 -13.0337 -12.9991 -12.9946 -12.9850
   -12.9662 -12.9080 -12.8607 -12.8461 -12.8048 -12.7914 -12.7436 -12.7335
   -12.6147 -12.6074 -12.5478 -12.4077 -12.3273 -12.2492 -12.2058 -12.1788
   -11.7833 -11.7710 -11.7532 -11.7363 -11.7017 -11.6846 -11.6484 -11.5883
   -11.5683 -11.5625 -11.5123 -11.5093  -2.2387  -2.1623  -2.1507  -2.0801
    -2.0413  -1.9627  -1.8948  -1.7698  -1.6528  -1.6225  -1.5848  -1.5264
    -1.4549  -1.4393  -1.3694  -1.3265  -1.2099  -1.1819  -1.1333  -1.1029
    -1.0389  -0.9937  -0.9745  -0.9630  -0.9102  -0.8637  -0.8500  -0.7365
    -0.6800  -0.6325  -0.5824  -0.5572  -0.5471  -0.5089  -0.4657  -0.4335
    -0.4198  -0.3350  -0.2671  -0.2211  -0.1967  -0.1224  -0.0676  -0.0478
     0.0048   0.0204   0.0398   0.0480   0.5023   0.5500   0.6400   0.6651
     1.0512   1.0640   1.0964   1.1333   1.4080   1.4277   1.4347   1.4703
     1.6052   1.6990   1.7270   1.7627   1.7836   1.8065   1.8152   1.8471
     1.8584   1.8774   1.8819   1.9319   1.9385   1.9649   1.9923   1.9967
     2.0153   2.0540   2.0794   2.0890   2.1224   2.1467   2.2205   2.2868
     2.5511   2.5879   2.6036   2.6245   2.6278   2.6633   2.6667   2.6835
     2.6985   2.7171   2.7382   2.7503   2.8159   2.8185   2.8316   2.8429
     2.8621   2.8657   2.8892   2.8974   2.9122   3.0028   3.0068   3.0336
     3.0439   3.9842   4.0178   4.0613   4.1105   4.3082   4.3796   4.4079
     4.6490   4.7702   4.8534   4.9834   5.0692   5.0787   5.1942   5.3004
     5.3659   5.8523   5.8779   5.9643   6.0253   6.3723   6.5166   6.5685
     7.7686   7.8294   7.8691   7.8974   7.9347   7.9692   8.0113   8.0780
     8.2603   8.4258   8.4756   8.5782   8.6041   8.6330   8.6453   8.6837

     occupation numbers 
     1.0000   1.0000   1.0000   1.0000   1.0000   1.0000   1.0000   1.0000
     1.0000   1.0000   1.0000   1.0000   1.0000   1.0000   1.0000   1.0000
     1.0000   1.0000   1.0000   1.0000   1.0000   1.0000   1.0000   1.0000
     1.0000   1.0000   1.0000   1.0000   1.0000   1.0000   1.0000   1.0000
     1.0000   1.0000   1.0000   1.0000   1.0000   1.0000   1.0000   1.0000
     1.0000   1.0000   1.0000   1.0000   1.0000   1.0000   1.0000   1.0000
     1.0000   1.0000   1.0000   1.0000   1.0000   1.0000   1.0000   1.0000
     1.0000   1.0000   1.0000   1.0000   1.0000   1.0000   1.0000   1.0000
     1.0000   1.0000   1.0000   1.0000   1.0000   1.0000   1.0000   1.0000
     1.0000   1.0000   1.0000   1.0000   1.0000   1.0000   1.0000   1.0000
     1.0000   1.0000   1.0000   1.0000   1.0000   1.0000   1.0000   1.0000
     1.0000   1.0000   1.0000   1.0000   1.0000   1.0000   1.0000   1.0000
     1.0000   1.0000   1.0000   1.0000   1.0000   1.0000   1.0000   1.0000
     1.0000   1.0000   1.0000   1.0000   1.0000   1.0000   1.0000   1.0000
     1.0000   1.0000   1.0000   1.0000   1.0000   1.0000   1.0000   1.0000
     1.0000   1.0000   1.0000   1.0000   1.0000   1.0000   1.0000   1.0000
     1.0000   1.0000   1.0000   1.0000   1.0000   1.0000   1.0000   1.0000
     1.0000   1.0000   1.0000   1.0000   1.0000   1.0000   1.0000   1.0000
     1.0000   1.0000   1.0000   1.0000   1.0000   1.0000   1.0000   1.0000
     1.0000   1.0000   1.0000   1.0000   1.0000   1.0000   1.0000   1.0000
     0.9996   0.9996   0.9995   0.9994   0.9977   0.9975   0.9974   0.9969
     0.9945   0.9918   0.9909   0.9895   0.9886   0.9875   0.9871   0.9854
     0.9848   0.9837   0.9834   0.9801   0.9796   0.9776   0.9753   0.9750
     0.9733   0.9696   0.9669   0.9658   0.9619   0.9588   0.9481   0.9368
     0.8721   0.8603   0.8550   0.8478   0.8467   0.8339   0.8326   0.8263
     0.8205   0.8132   0.8046   0.7997   0.7713   0.7701   0.7641   0.7589
     0.7500   0.7483   0.7370   0.7330   0.7258   0.6792   0.6771   0.6627
     0.6571   0.1606   0.1488   0.1343   0.1191   0.0704   0.0572   0.0525
     0.0239   0.0154   0.0112   0.0067   0.0046   0.0044   0.0026   0.0016
     0.0012   0.0001   0.0001   0.0000   0.0000   0.0000   0.0000   0.0000
     0.0000   0.0000   0.0000   0.0000   0.0000   0.0000   0.0000   0.0000
     0.0000   0.0000   0.0000   0.0000   0.0000   0.0000   0.0000   0.0000

          k = 0.2500 0.0000 0.0000 ( 65257 PWs)   bands (ev):

   -92.7116 -92.6561 -92.5651 -92.5148 -92.4589 -92.4179 -92.4003 -92.2776
   -56.0650 -56.0426 -55.9225 -55.9122 -55.9018 -55.8991 -55.8606 -55.8344
   -55.8188 -55.8175 -55.8075 -55.7664 -55.7484 -55.7100 -55.6913 -55.6592
   -55.6481 -55.6060 -55.6039 -55.6032 -55.5947 -55.5524 -55.5307 -55.4446
   -31.2863 -31.2705 -31.1411 -31.1259 -31.0401 -30.9668 -30.8682 -30.7751
   -29.8590 -29.8182 -29.7900 -29.6824 -15.0589 -15.0228 -14.9493 -14.8019
   -14.6987 -14.5054 -14.3668 -14.1917 -14.1711 -14.1411 -14.1110 -14.0873
   -14.0528 -14.0376 -14.0207 -13.9745 -13.8522 -13.8213 -13.6700 -13.6039
   -13.5987 -13.5372 -13.5033 -13.4931 -13.4362 -13.3565 -13.3229 -13.2508
   -13.1942 -13.1694 -13.1135 -13.0706 -13.0538 -13.0364 -13.0174 -12.9824
   -12.9550 -12.9346 -12.8687 -12.8613 -12.8299 -12.8017 -12.7805 -12.7502
   -12.7387 -12.7077 -12.5887 -12.5224 -12.4160 -12.2592 -12.1066 -12.0519
   -11.8384 -11.7860 -11.7692 -11.7561 -11.7293 -11.6783 -11.6553 -11.6469
   -11.5960 -11.5072 -11.4513 -11.4453  -2.8178  -2.5954  -2.4655  -2.2932
[...]
     0.7439   0.7285   0.7188   0.7148   0.7048   0.6989   0.6916   0.6805
     0.6771   0.6644   0.6577   0.6538   0.6466   0.6338   0.6220   0.6191
     0.6140   0.6107   0.6053   0.5999   0.5197   0.3526   0.3227   0.2047
     0.0799   0.0443   0.0218   0.0058   0.0049   0.0003   0.0001   0.0001
     0.0000   0.0000   0.0000   0.0000   0.0000   0.0000   0.0000   0.0000
     0.0000   0.0000   0.0000   0.0000   0.0000   0.0000   0.0000   0.0000
     0.0000   0.0000   0.0000   0.0000   0.0000   0.0000   0.0000   0.0000

          k =-0.5000 0.0000 0.0000 ( 65180 PWs)   bands (ev):

   -92.7116 -92.6561 -92.5651 -92.5148 -92.4589 -92.4179 -92.4003 -92.2776
   -56.0650 -56.0426 -55.9225 -55.9122 -55.9018 -55.8991 -55.8606 -55.8344
   -55.8188 -55.8175 -55.8075 -55.7664 -55.7484 -55.7100 -55.6913 -55.6592
   -55.6481 -55.6060 -55.6039 -55.6032 -55.5947 -55.5524 -55.5307 -55.4446
   -31.2841 -31.2727 -31.1409 -31.1255 -31.0405 -30.9670 -30.8679 -30.7755
   -29.8579 -29.8192 -29.7896 -29.6828 -15.0263 -14.9770 -14.9148 -14.8049
   -14.7006 -14.5567 -14.4152 -14.2685 -14.1446 -14.1373 -14.1188 -14.0658
   -14.0032 -13.9716 -13.9262 -13.9167 -13.8986 -13.8494 -13.8319 -13.7316
   -13.5652 -13.5497 -13.5061 -13.4981 -13.4382 -13.3753 -13.3401 -13.2779
   -13.2546 -13.2495 -13.1000 -13.0643 -13.0504 -13.0258 -13.0140 -13.0001
   -12.9544 -12.9323 -12.8619 -12.8497 -12.7998 -12.7399 -12.7230 -12.7109
   -12.6502 -12.6409 -12.5510 -12.4548 -12.3374 -12.3161 -12.2102 -12.1755
   -11.7901 -11.7690 -11.7619 -11.7478 -11.7298 -11.6885 -11.6247 -11.6069
   -11.5741 -11.5299 -11.5207 -11.5048  -2.5936  -2.5548  -2.3907  -2.3515
    -2.0388  -1.9644  -1.8149  -1.6971  -1.6584  -1.6137  -1.5649  -1.5392
    -1.4163  -1.3718  -1.3576  -1.2747  -1.2388  -1.2257  -1.1918  -1.1347
    -1.0665  -1.0366  -1.0084  -0.9128  -0.8660  -0.8180  -0.7843  -0.7630
    -0.7342  -0.6847  -0.6603  -0.6208  -0.5280  -0.4518  -0.3906  -0.3266
    -0.1577  -0.1275  -0.0667  -0.0407   0.0331   0.0402   0.1798   0.2096
     0.2482   0.4296   0.5283   0.5762   0.6481   0.7286   0.8451   0.8584
     0.9959   1.0190   1.0713   1.0951   1.1351   1.1515   1.1941   1.2188
     1.2857   1.3334   1.3806   1.3874   1.6858   1.6940   1.7131   1.7326
     1.8448   1.8569   1.8708   1.8813   1.9085   1.9177   1.9580   1.9845
     2.0083   2.0666   2.0766   2.1301   2.1503   2.2081   2.3101   2.4142
     2.4911   2.5053   2.5762   2.6159   2.6435   2.7100   2.7176   2.7274
     2.7547   2.8097   2.8280   2.8775   2.9177   2.9517   2.9882   2.9930
     2.9940   3.0097   3.0196   3.0322   3.0470   3.0504   3.0759   3.0876
     3.0988   3.1187   3.1248   3.2540   3.2702   4.0453   4.1096   4.1757
     4.3517   4.7809   4.8547   5.0185   5.0482   5.4786   5.5116   5.5763
     5.6486   5.9683   6.0242   6.0668   6.6344   6.7982   6.9994   7.2785
     7.3040   7.3161   7.3931   7.5247   7.7201   7.7698   7.8782   7.9081
     8.1511   8.2438   8.4292   8.5242   8.6187   8.7269   8.7553   8.8398

     occupation numbers 
     1.0000   1.0000   1.0000   1.0000   1.0000   1.0000   1.0000   1.0000
     1.0000   1.0000   1.0000   1.0000   1.0000   1.0000   1.0000   1.0000
     1.0000   1.0000   1.0000   1.0000   1.0000   1.0000   1.0000   1.0000
     1.0000   1.0000   1.0000   1.0000   1.0000   1.0000   1.0000   1.0000
     1.0000   1.0000   1.0000   1.0000   1.0000   1.0000   1.0000   1.0000
     1.0000   1.0000   1.0000   1.0000   1.0000   1.0000   1.0000   1.0000
     1.0000   1.0000   1.0000   1.0000   1.0000   1.0000   1.0000   1.0000
     1.0000   1.0000   1.0000   1.0000   1.0000   1.0000   1.0000   1.0000
     1.0000   1.0000   1.0000   1.0000   1.0000   1.0000   1.0000   1.0000
     1.0000   1.0000   1.0000   1.0000   1.0000   1.0000   1.0000   1.0000
     1.0000   1.0000   1.0000   1.0000   1.0000   1.0000   1.0000   1.0000
     1.0000   1.0000   1.0000   1.0000   1.0000   1.0000   1.0000   1.0000
     1.0000   1.0000   1.0000   1.0000   1.0000   1.0000   1.0000   1.0000
     1.0000   1.0000   1.0000   1.0000   1.0000   1.0000   1.0000   1.0000
     1.0000   1.0000   1.0000   1.0000   1.0000   1.0000   1.0000   1.0000
     1.0000   1.0000   1.0000   1.0000   1.0000   1.0000   1.0000   1.0000
     1.0000   1.0000   1.0000   1.0000   1.0000   1.0000   1.0000   1.0000
     1.0000   1.0000   1.0000   1.0000   1.0000   1.0000   1.0000   1.0000
     1.0000   1.0000   1.0000   1.0000   1.0000   1.0000   1.0000   1.0000
     1.0000   1.0000   1.0000   1.0000   1.0000   0.9999   0.9999   0.9999
     0.9997   0.9997   0.9996   0.9995   0.9994   0.9993   0.9992   0.9991
     0.9987   0.9984   0.9980   0.9979   0.9923   0.9920   0.9914   0.9907
     0.9856   0.9849   0.9841   0.9834   0.9817   0.9811   0.9781   0.9760
     0.9739   0.9682   0.9672   0.9609   0.9583   0.9501   0.9324   0.9098
     0.8898   0.8857   0.8641   0.8508   0.8411   0.8160   0.8130   0.8090
     0.7978   0.7740   0.7658   0.7427   0.7230   0.7059   0.6869   0.6844
     0.6839   0.6755   0.6702   0.6634   0.6554   0.6535   0.6394   0.6329
     0.6266   0.6154   0.6119   0.5368   0.5272   0.1395   0.1194   0.1009
     0.0621   0.0148   0.0112   0.0057   0.0051   0.0007   0.0006   0.0004
     0.0003   0.0000   0.0000   0.0000   0.0000   0.0000   0.0000   0.0000
     0.0000   0.0000   0.0000   0.0000   0.0000   0.0000   0.0000   0.0000
     0.0000   0.0000   0.0000   0.0000   0.0000   0.0000   0.0000   0.0000

          k =-0.2500 0.2500 0.0000 ( 65198 PWs)   bands (ev):

   -92.7116 -92.6561 -92.5651 -92.5148 -92.4589 -92.4179 -92.4003 -92.2776
   -56.0650 -56.0426 -55.9225 -55.9122 -55.9018 -55.8991 -55.8606 -55.8344
   -55.8188 -55.8175 -55.8075 -55.7664 -55.7484 -55.7100 -55.6913 -55.6592
   -55.6481 -55.6060 -55.6039 -55.6032 -55.5947 -55.5524 -55.5307 -55.4446
   -31.2862 -31.2704 -31.1410 -31.1261 -31.0403 -30.9666 -30.8683 -30.7753
   -29.8584 -29.8179 -29.7906 -29.6827 -15.0284 -14.9905 -14.9146 -14.7969
   -14.6886 -14.5620 -14.4737 -14.2701 -14.1273 -14.0981 -14.0857 -14.0387
   -14.0143 -13.9935 -13.9827 -13.9347 -13.8486 -13.8376 -13.6832 -13.6572
   -13.6307 -13.6077 -13.5736 -13.5082 -13.4520 -13.4453 -13.3233 -13.2916
   -13.2336 -13.1576 -13.1161 -13.0713 -13.0499 -13.0158 -12.9946 -12.9573
   -12.9387 -12.9335 -12.8954 -12.8597 -12.7997 -12.7798 -12.7621 -12.7237
   -12.7018 -12.6919 -12.5192 -12.4521 -12.4312 -12.2930 -12.1371 -12.0992
   -11.8105 -11.7889 -11.7618 -11.7494 -11.7090 -11.6737 -11.6512 -11.6289
   -11.6066 -11.5219 -11.4766 -11.4671  -2.6784  -2.4694  -2.3487  -2.2610
    -2.1418  -2.0750  -1.8734  -1.7268  -1.7081  -1.6806  -1.5876  -1.5523
    -1.4591  -1.4254  -1.3994  -1.2558  -1.2006  -1.1335  -1.1047  -1.0446
    -1.0222  -0.9819  -0.9530  -0.9131  -0.8508  -0.8025  -0.7424  -0.6717
    -0.6455  -0.5942  -0.5660  -0.5201  -0.4646  -0.4237  -0.3776  -0.2804
    -0.2456  -0.2349  -0.1901  -0.1233  -0.0466  -0.0076   0.0192   0.0910
     0.1200   0.3773   0.5437   0.5883   0.6258   0.6845   0.7305   0.7906
     0.8556   0.8846   1.1657   1.2773   1.3174   1.3500   1.3558   1.3995
     1.4171   1.4601   1.4920   1.5072   1.5328   1.5752   1.5905   1.6338
     1.6491   1.6957   1.7873   1.8010   1.8175   1.8597   1.8853   1.9211
     1.9762   2.0799   2.1916   2.2204   2.2645   2.2854   2.3538   2.3966
     2.4200   2.4419   2.4677   2.5674   2.6024   2.6923   2.8079   2.8726
     2.8829   2.8969   2.9043   2.9160   2.9313   2.9348   2.9537   2.9648
     2.9771   2.9855   2.9989   3.0081   3.0146   3.0476   3.0593   3.0675
     3.1009   3.3936   3.4765   3.5377   3.6198   3.6595   3.8255   3.9523
     4.2893   4.5131   4.7043   4.9770   5.1653   5.6366   5.6728   5.7387
     5.8239   5.8863   6.0032   6.1655   6.2077   6.7463   6.8933   7.0562
     7.1789   7.5603   7.6039   7.6637   7.7332   7.8767   7.9432   8.1074
     8.1637   8.2132   8.2900   8.3114   8.4396   8.4750   8.6631   8.8499

     occupation numbers 
     1.0000   1.0000   1.0000   1.0000   1.0000   1.0000   1.0000   1.0000
     1.0000   1.0000   1.0000   1.0000   1.0000   1.0000   1.0000   1.0000
     1.0000   1.0000   1.0000   1.0000   1.0000   1.0000   1.0000   1.0000
     1.0000   1.0000   1.0000   1.0000   1.0000   1.0000   1.0000   1.0000
     1.0000   1.0000   1.0000   1.0000   1.0000   1.0000   1.0000   1.0000
     1.0000   1.0000   1.0000   1.0000   1.0000   1.0000   1.0000   1.0000
     1.0000   1.0000   1.0000   1.0000   1.0000   1.0000   1.0000   1.0000
     1.0000   1.0000   1.0000   1.0000   1.0000   1.0000   1.0000   1.0000
     1.0000   1.0000   1.0000   1.0000   1.0000   1.0000   1.0000   1.0000
     1.0000   1.0000   1.0000   1.0000   1.0000   1.0000   1.0000   1.0000
     1.0000   1.0000   1.0000   1.0000   1.0000   1.0000   1.0000   1.0000
     1.0000   1.0000   1.0000   1.0000   1.0000   1.0000   1.0000   1.0000
     1.0000   1.0000   1.0000   1.0000   1.0000   1.0000   1.0000   1.0000
     1.0000   1.0000   1.0000   1.0000   1.0000   1.0000   1.0000   1.0000
     1.0000   1.0000   1.0000   1.0000   1.0000   1.0000   1.0000   1.0000
     1.0000   1.0000   1.0000   1.0000   1.0000   1.0000   1.0000   1.0000
     1.0000   1.0000   1.0000   1.0000   1.0000   1.0000   1.0000   1.0000
     1.0000   1.0000   1.0000   1.0000   1.0000   1.0000   1.0000   1.0000
     1.0000   1.0000   1.0000   1.0000   1.0000   1.0000   1.0000   1.0000
     1.0000   1.0000   1.0000   1.0000   1.0000   1.0000   0.9999   0.9999
     0.9999   0.9998   0.9993   0.9988   0.9985   0.9982   0.9982   0.9978
     0.9976   0.9971   0.9966   0.9964   0.9960   0.9951   0.9948   0.9938
     0.9933   0.9919   0.9884   0.9878   0.9870   0.9847   0.9832   0.9808
     0.9767   0.9668   0.9525   0.9482   0.9408   0.9371   0.9235   0.9140
     0.9084   0.9029   0.8962   0.8669   0.8554   0.8229   0.7748   0.7450
     0.7400   0.7333   0.7296   0.7239   0.7162   0.7144   0.7048   0.6991
     0.6927   0.6883   0.6813   0.6764   0.6729   0.6551   0.6486   0.6441
     0.6254   0.4543   0.4060   0.3712   0.3261   0.3052   0.2248   0.1725
     0.0742   0.0378   0.0196   0.0068   0.0030   0.0003   0.0002   0.0002
     0.0001   0.0001   0.0000   0.0000   0.0000   0.0000   0.0000   0.0000
     0.0000   0.0000   0.0000   0.0000   0.0000   0.0000   0.0000   0.0000
     0.0000   0.0000   0.0000   0.0000   0.0000   0.0000   0.0000   0.0000

          k =-0.5000 0.2500 0.0000 ( 65138 PWs)   bands (ev):

   -92.7116 -92.6561 -92.5651 -92.5148 -92.4589 -92.4179 -92.4003 -92.2776
   -56.0650 -56.0426 -55.9225 -55.9122 -55.9018 -55.8991 -55.8606 -55.8344
   -55.8188 -55.8175 -55.8075 -55.7664 -55.7484 -55.7100 -55.6913 -55.6592
   -55.6481 -55.6060 -55.6039 -55.6032 -55.5947 -55.5524 -55.5307 -55.4446
   -31.2839 -31.2726 -31.1408 -31.1257 -31.0406 -30.9668 -30.8680 -30.7757
   -29.8573 -29.8189 -29.7902 -29.6831 -14.9938 -14.9502 -14.8718 -14.7717
   -14.7284 -14.6037 -14.5188 -14.3873 -14.0782 -14.0486 -14.0366 -13.9916
   -13.9718 -13.9433 -13.9117 -13.9028 -13.8776 -13.8370 -13.8277 -13.7231
   -13.6478 -13.6075 -13.5983 -13.5871 -13.4904 -13.4790 -13.3768 -13.3211
   -13.2109 -13.1751 -13.0844 -13.0594 -13.0355 -13.0257 -12.9922 -12.9593
   -12.9535 -12.9476 -12.8648 -12.8521 -12.7997 -12.7650 -12.7269 -12.7245
   -12.6320 -12.6246 -12.5491 -12.4302 -12.3326 -12.2850 -12.2043 -12.1781
   -11.7829 -11.7704 -11.7565 -11.7442 -11.7235 -11.6932 -11.6117 -11.6034
   -11.5800 -11.5442 -11.5164 -11.5071  -2.4514  -2.4092  -2.2604  -2.2181
    -2.0579  -1.9832  -1.8392  -1.7032  -1.6477  -1.6202  -1.5810  -1.5417
    -1.4614  -1.3461  -1.2891  -1.2657  -1.2412  -1.1659  -1.1350  -1.0979
    -1.0793  -1.0191  -0.9904  -0.9511  -0.9158  -0.8869  -0.8295  -0.8019
    -0.7598  -0.7261  -0.6228  -0.5944  -0.5110  -0.4445  -0.4155  -0.3604
    -0.2722  -0.2375  -0.1396  -0.0971  -0.0439   0.0095   0.0276   0.1083
     0.1323   0.1639   0.2201   0.2589   0.5638   0.6307   0.6908   0.7119
     1.0042   1.0551   1.1339   1.1563   1.3362   1.3738   1.4105   1.4231
     1.4417   1.4594   1.5284   1.5713   1.6135   1.6376   1.7673   1.7984
     1.8287   1.8402   1.8833   1.9056   1.9178   1.9325   1.9550   1.9766
     2.0232   2.0403   2.0716   2.0967   2.1259   2.1858   2.3031   2.4033
     2.4352   2.5047   2.5425   2.5928   2.6412   2.6470   2.6834   2.7168
     2.7394   2.8150   2.8279   2.8718   2.8837   2.8930   2.9100   2.9319
     2.9429   2.9572   2.9744   2.9911   3.0042   3.0139   3.0223   3.0317
     3.0436   3.5691   3.6411   3.7621   3.7903   4.0540   4.1343   4.1851
     4.4195   4.7752   4.8716   5.0188   5.0744   5.3900   5.4225   5.5858
     5.6160   5.7419   5.7642   6.1297   6.3899   6.4913   6.5626   7.0189
     7.4413   7.5415   7.7105   7.7715   7.7896   7.8831   8.0168   8.2363
     8.3044   8.3894   8.4256   8.5415   8.5463   8.6090   8.6558   8.7452

     occupation numbers 
     1.0000   1.0000   1.0000   1.0000   1.0000   1.0000   1.0000   1.0000
     1.0000   1.0000   1.0000   1.0000   1.0000   1.0000   1.0000   1.0000
     1.0000   1.0000   1.0000   1.0000   1.0000   1.0000   1.0000   1.0000
     1.0000   1.0000   1.0000   1.0000   1.0000   1.0000   1.0000   1.0000
     1.0000   1.0000   1.0000   1.0000   1.0000   1.0000   1.0000   1.0000
     1.0000   1.0000   1.0000   1.0000   1.0000   1.0000   1.0000   1.0000
     1.0000   1.0000   1.0000   1.0000   1.0000   1.0000   1.0000   1.0000
     1.0000   1.0000   1.0000   1.0000   1.0000   1.0000   1.0000   1.0000
     1.0000   1.0000   1.0000   1.0000   1.0000   1.0000   1.0000   1.0000
     1.0000   1.0000   1.0000   1.0000   1.0000   1.0000   1.0000   1.0000
     1.0000   1.0000   1.0000   1.0000   1.0000   1.0000   1.0000   1.0000
     1.0000   1.0000   1.0000   1.0000   1.0000   1.0000   1.0000   1.0000
     1.0000   1.0000   1.0000   1.0000   1.0000   1.0000   1.0000   1.0000
     1.0000   1.0000   1.0000   1.0000   1.0000   1.0000   1.0000   1.0000
     1.0000   1.0000   1.0000   1.0000   1.0000   1.0000   1.0000   1.0000
     1.0000   1.0000   1.0000   1.0000   1.0000   1.0000   1.0000   1.0000
     1.0000   1.0000   1.0000   1.0000   1.0000   1.0000   1.0000   1.0000
     1.0000   1.0000   1.0000   1.0000   1.0000   1.0000   1.0000   1.0000
     1.0000   1.0000   1.0000   1.0000   1.0000   1.0000   1.0000   1.0000
     1.0000   1.0000   1.0000   1.0000   1.0000   1.0000   1.0000   0.9999
     0.9997   0.9996   0.9994   0.9993   0.9984   0.9980   0.9977   0.9975
     0.9973   0.9971   0.9960   0.9952   0.9943   0.9937   0.9893   0.9879
     0.9864   0.9858   0.9833   0.9819   0.9811   0.9800   0.9784   0.9767
     0.9726   0.9709   0.9677   0.9649   0.9614   0.9534   0.9338   0.9124
     0.9046   0.8859   0.8747   0.8586   0.8419   0.8398   0.8263   0.8133
     0.8042   0.7716   0.7658   0.7454   0.7397   0.7352   0.7268   0.7159
     0.7103   0.7030   0.6942   0.6854   0.6784   0.6733   0.6688   0.6637
     0.6572   0.3537   0.3148   0.2540   0.2408   0.1366   0.1122   0.0985
     0.0507   0.0151   0.0105   0.0057   0.0045   0.0010   0.0009   0.0004
     0.0003   0.0002   0.0001   0.0000   0.0000   0.0000   0.0000   0.0000
     0.0000   0.0000   0.0000   0.0000   0.0000   0.0000   0.0000   0.0000
     0.0000   0.0000   0.0000   0.0000   0.0000   0.0000   0.0000   0.0000

     the Fermi energy is     3.3163 ev

!    total energy              =   -4399.91520818 Ry
     estimated scf accuracy    <          9.2E-09 Ry
     smearing contrib. (-TS)   =      -1.14556725 Ry
     internal energy E=F+TS    =   -4398.76964093 Ry

     The total energy is F=E-TS. E is the sum of the following terms:
     one-electron contribution =  -21253.16237961 Ry
     hartree contribution      =   10754.53535052 Ry
     xc contribution           =    -686.72883902 Ry
     ewald contribution        =    7053.23154016 Ry
     one-center paw contrib.   =    -266.64531298 Ry
      -> PAW hartree energy AE =      25.15708881 Ry
      -> PAW hartree energy PS =     -25.04106793 Ry
      -> PAW xc energy AE      =     -16.51662842 Ry
      -> PAW xc energy PS      =       6.87606336 Ry
      -> total E_H with PAW    =   10754.65137140 Ry
      -> total E_XC with PAW   =    -696.36940408 Ry

     convergence has been achieved in  48 iterations

     Writing all to output data dir /bsuhome/zayahcortright/scratch/pwscf.save/
 
     init_run     :      7.40s CPU      7.85s WALL (       1 calls)
     electrons    :    683.66s CPU    695.63s WALL (       1 calls)

     Called by init_run:
     wfcinit      :      5.83s CPU      5.97s WALL (       1 calls)
     wfcinit:atom :      0.05s CPU      0.07s WALL (       5 calls)
     wfcinit:wfcr :      5.50s CPU      5.58s WALL (       5 calls)
     potinit      :      0.16s CPU      0.18s WALL (       1 calls)
     hinit0       :      0.51s CPU      0.75s WALL (       1 calls)

     Called by electrons:
     c_bands      :    541.56s CPU    546.24s WALL (      48 calls)
     sum_band     :    106.20s CPU    110.37s WALL (      48 calls)
     v_of_rho     :      5.30s CPU      5.57s WALL (      49 calls)
     v_h          :      0.46s CPU      0.46s WALL (      49 calls)
     v_xc         :      4.84s CPU      5.11s WALL (      49 calls)
     newd         :     16.39s CPU     18.83s WALL (      49 calls)
     PAW_pot      :      1.53s CPU      1.56s WALL (      49 calls)
     mix_rho      :     12.38s CPU     12.63s WALL (      48 calls)

     Called by c_bands:
     init_us_2    :      7.00s CPU      7.04s WALL (     485 calls)
     init_us_2:cp :      6.99s CPU      7.03s WALL (     485 calls)
     cegterg      :    511.71s CPU    516.21s WALL (     240 calls)

     Called by sum_band:
     sum_band:wei :      0.33s CPU      0.33s WALL (      48 calls)
     sum_band:loo :     86.95s CPU     87.54s WALL (      48 calls)
     sum_band:buf :      1.37s CPU      1.39s WALL (     240 calls)
     sum_band:ini :      3.43s CPU      3.44s WALL (     240 calls)
     sum_band:cal :     18.13s CPU     18.18s WALL (     240 calls)
     sum_band:bec :      0.52s CPU      0.53s WALL (     240 calls)
     addusdens    :     17.99s CPU     21.54s WALL (      48 calls)
                                        0.00s GPU  (      48 calls)
     addusd:skk   :      0.34s CPU      0.66s WALL (     192 calls)
                                        0.00s GPU  (     192 calls)

     Called by *egterg:
     cdiaghg      :     55.36s CPU     55.56s WALL (    1298 calls)
     cegterg:over :     37.19s CPU     37.31s WALL (    1058 calls)
     cegterg:upda :     27.47s CPU     27.78s WALL (    1058 calls)
     cegterg:last :     56.84s CPU     57.01s WALL (     441 calls)
     cdiaghg:chol :      3.24s CPU      3.25s WALL (    1298 calls)
     cdiaghg:inve :      3.41s CPU      3.43s WALL (    1298 calls)
     cdiaghg:para :      7.05s CPU      7.08s WALL (    2596 calls)
     h_psi        :    281.76s CPU    284.41s WALL (    1303 calls)
     s_psi        :     37.57s CPU     37.68s WALL (    1303 calls)
     g_psi        :      1.12s CPU      1.13s WALL (    1058 calls)

     Called by h_psi:
     h_psi:calbec :     41.35s CPU     41.47s WALL (    1303 calls)
     vloc_psi     :    199.80s CPU    201.80s WALL (    1303 calls)
     add_vuspsi   :     37.38s CPU     37.50s WALL (    1303 calls)

     General routines
     calbec       :     59.47s CPU     59.64s WALL (    1543 calls)
     fft          :      3.40s CPU      3.44s WALL (     635 calls)
     ffts         :      4.68s CPU      4.71s WALL (    5066 calls)
     fftw         :    168.29s CPU    169.70s WALL (  321754 calls)
     interpolate  :      0.40s CPU      0.40s WALL (      49 calls)
 
     Parallel routines

     PAW routines
     PAW_pot      :      1.53s CPU      1.56s WALL (      49 calls)
 
     PWSCF        :  11m32.69s CPU  11m48.28s WALL

 
   This run was terminated on:  18:49:10  21Jun2024            

=------------------------------------------------------------------------------=
   JOB DONE.
=------------------------------------------------------------------------------=
