
     Program PWSCF v.7.2 starts on 18Jun2024 at 19:35:17 

     This program is part of the open-source Quantum ESPRESSO suite
     for quantum simulation of materials; please cite
         "P. Giannozzi et al., J. Phys.:Condens. Matter 21 395502 (2009);
         "P. Giannozzi et al., J. Phys.:Condens. Matter 29 465901 (2017);
         "P. Giannozzi et al., J. Chem. Phys. 152 154105 (2020);
          URL http://www.quantum-espresso.org", 
     in publications or presentations arising from this work. More details at
     http://www.quantum-espresso.org/quote

     Parallel version (MPI & OpenMP), running on      48 processor cores
     Number of MPI processes:                48
     Threads/MPI process:                     1

     MPI processes distributed on     1 nodes
     16432 MiB available memory on the printing compute node when the environment starts
 
     Reading input from espresso.pwi
Warning: card &CELL ignored
Warning: card / ignored
Warning: card &FCP ignored
Warning: card / ignored
Warning: card &RISM ignored
Warning: card / ignored

     Current dimensions of program PWSCF are:
     Max number of different atomic species (ntypx) = 10
     Max number of k-points (npk) =  40000
     Max angular momentum in pseudopotentials (lmaxx) =  4
     file O.pbe-n-kjpaw_psl.0.1.UPF: wavefunction(s)  2P renormalized
     signal trapping enabled: kill the code with -SIGUSR1 to stop cleanly the simulation 
 
     K-points division:     npool     =       2
     R & G space division:  proc/nbgrp/npool/nimage =      24
     Subspace diagonalization in iterative solution of the eigenvalue problem:
     one sub-group per band group will be used
     scalapack distributed-memory algorithm (size of sub-group:  3*  3 procs)

 
     Parallelization info
     --------------------
     sticks:   dense  smooth     PW     G-vecs:    dense   smooth      PW
     Min         350     175     47                61430    21716    3036
     Max         351     177     48                61449    21727    3041
     Sum        8421    4205   1137              1474595   521381   72913
 
     Using Slab Decomposition
 


     bravais-lattice index     =            0
     lattice parameter (alat)  =      14.8599  a.u.
     unit-cell volume          =    8305.1283 (a.u.)^3
     number of atoms/cell      =           51
     number of atomic types    =            4
     number of electrons       =       437.00
     number of Kohn-Sham states=          263
     kinetic-energy cutoff     =      60.0000  Ry
     charge density cutoff     =     480.0000  Ry
     scf convergence threshold =      1.0E-08
     mixing beta               =       0.1500
     number of iterations used =            8  local-TF  mixing
     Exchange-correlation= PBE
                           (   1   4   3   4   0   0   0)

     celldm(1)=  14.859904  celldm(2)=   0.000000  celldm(3)=   0.000000
     celldm(4)=   0.000000  celldm(5)=   0.000000  celldm(6)=   0.000000

     crystal axes: (cart. coord. in units of alat)
               a(1) = (   1.000000   0.000000   0.000000 )  
               a(2) = (   0.000000   1.000000   0.000000 )  
               a(3) = (   0.000000   0.000000   2.531036 )  

     reciprocal axes: (cart. coord. in units 2 pi/alat)
               b(1) = (  1.000000  0.000000  0.000000 )  
               b(2) = (  0.000000  1.000000  0.000000 )  
               b(3) = (  0.000000  0.000000  0.395095 )  


     PseudoPot. # 1 for Sr read from file:
     /bsuhome/zayahcortright/q-e/pseudo/Sr_pbe_v1.uspp.F.UPF
     MD5 check sum: 6b418c05fbe9db5448babca5e47b7a5b
     Pseudo is Ultrasoft + core correction, Zval = 10.0
     Generated by new atomic code, or converted to UPF format
     Using radial grid of  883 points,  6 beta functions with: 
                l(1) =   0
                l(2) =   0
                l(3) =   1
                l(4) =   1
                l(5) =   2
                l(6) =   2
     Q(r) pseudized with  6 coefficients,  rinner =    1.400   1.400   1.400
                                                       1.400   1.400

     PseudoPot. # 2 for O  read from file:
     /bsuhome/zayahcortright/q-e/pseudo/O.pbe-n-kjpaw_psl.0.1.UPF
     MD5 check sum: 0234752ac141de4415c5fc33072bef88
     Pseudo is Projector augmented-wave + core cor, Zval =  6.0
     Generated using "atomic" code by A. Dal Corso  v.5.0.99 svn rev. 10869
     Shape of augmentation charge: BESSEL
     Using radial grid of 1095 points,  4 beta functions with: 
                l(1) =   0
                l(2) =   0
                l(3) =   1
                l(4) =   1
     Q(r) pseudized with 0 coefficients 


     PseudoPot. # 3 for Co read from file:
     /bsuhome/zayahcortright/q-e/pseudo/Co_pbe_v1.2.uspp.F.UPF
     MD5 check sum: 5f91765df6ddd3222702df6e7b74a16d
     Pseudo is Ultrasoft + core correction, Zval = 17.0
     Generated by new atomic code, or converted to UPF format
     Using radial grid of  863 points,  6 beta functions with: 
                l(1) =   0
                l(2) =   0
                l(3) =   1
                l(4) =   1
                l(5) =   2
                l(6) =   2
     Q(r) pseudized with  8 coefficients,  rinner =    1.200   1.200   1.200
                                                       1.200   1.200

     PseudoPot. # 4 for H  read from file:
     /bsuhome/zayahcortright/q-e/pseudo/H.pbe-rrkjus_psl.1.0.0.UPF
     MD5 check sum: f52b6d4d1c606e5624b1dc7b2218f220
     Pseudo is Ultrasoft, Zval =  1.0
     Generated using "atomic" code by A. Dal Corso  v.5.1
     Using radial grid of  929 points,  2 beta functions with: 
                l(1) =   0
                l(2) =   0
     Q(r) pseudized with 0 coefficients 


     atomic species   valence    mass     pseudopotential
        Sr            10.00    87.62000     Sr( 1.00)
        O              6.00    15.99900     O ( 1.00)
        Co            17.00    58.93319     Co( 1.00)
        H              1.00     1.00800     H ( 1.00)

     No symmetry found


                                    s                        frac. trans.

      isym =  1     identity                                     

 cryst.   s( 1) = (     1          0          0      )
                  (     0          1          0      )
                  (     0          0          1      )

 cart.    s( 1) = (  1.0000000  0.0000000  0.0000000 )
                  (  0.0000000  1.0000000  0.0000000 )
                  (  0.0000000  0.0000000  1.0000000 )


   Cartesian axes

     site n.     atom                  positions (alat units)
         1           Sr  tau(   1) = (   0.2508693   0.7491307   1.7574407  )
         2           O   tau(   2) = (   0.4985141   0.5014859   1.7715967  )
         3           Sr  tau(   3) = (   0.7482398   0.7454518   1.7648669  )
         4           Sr  tau(   4) = (   0.7441748   0.2558252   1.7667843  )
         5           Sr  tau(   5) = (   0.2508693   0.7491307   1.2696799  )
         6           Sr  tau(   6) = (   0.2508693   0.7491307   0.7632319  )
         7           Co  tau(   7) = (   0.4998914   0.5001086   1.0164559  )
         8           Co  tau(   8) = (   0.4936915   0.5063085   1.5135603  )
         9           O   tau(   9) = (   0.4988895   0.7610401   1.0164559  )
        10           O   tau(  10) = (   0.2389599   0.5011105   1.0164559  )
        11           O   tau(  11) = (   0.0070918   0.7374880   1.0164559  )
        12           O   tau(  12) = (   0.0088340   0.7405089   1.5135603  )
        13           O   tau(  13) = (   0.5066944   0.7415376   1.5135603  )
        14           O   tau(  14) = (   0.2584624   0.4933056   1.5135603  )
        15           O   tau(  15) = (   0.4985141   0.5014859   0.7773880  )
        16           O   tau(  16) = (   0.4985141   0.5014859   1.2555238  )
        17           Sr  tau(  17) = (   0.7482398   0.7454518   0.7706582  )
        18           Sr  tau(  18) = (   0.7482398   0.7454518   1.2622536  )
        19           Sr  tau(  19) = (   0.7441748   0.2558252   0.7725755  )
        20           Sr  tau(  20) = (   0.7441748   0.2558252   1.2603363  )
        21           O   tau(  21) = (   0.7322655   0.0078049   1.5135603  )
        22           O   tau(  22) = (   0.7558175   0.4996027   1.5135603  )
        23           O   tau(  23) = (   0.5003973   0.2441825   1.5135603  )
        24           O   tau(  24) = (   0.7527966   0.4978604   1.0164559  )
        25           O   tau(  25) = (   0.5021396   0.2472034   1.0164559  )
        26           O   tau(  26) = (   0.7517679   0.0000000   1.0164559  )
        27           O   tau(  27) = (   0.0114961   0.4948124   1.7455321  )
        28           O   tau(  28) = (   0.0048226   0.0077944   1.7715967  )
        29           Sr  tau(  29) = (   0.2545482   0.2517602   1.7648669  )
        30           O   tau(  30) = (   0.5048017   0.0015068   1.7786929  )
        31           Co  tau(  31) = (   0.0056869   0.5006215   1.0164559  )
        32           Co  tau(  32) = (   0.0065315   0.4997770   1.5135603  )
        33           Co  tau(  33) = (   0.0061999   0.0064171   1.0164559  )
        34           Co  tau(  34) = (   0.0000000   0.0126169   1.5135603  )
        35           O   tau(  35) = (   0.0114961   0.4948124   1.2815885  )
        36           O   tau(  36) = (   0.0114961   0.4948124   0.7513233  )
        37           O   tau(  37) = (   0.0051979   0.2673486   1.0164559  )
        38           O   tau(  38) = (   0.0130029   0.2478461   1.5135603  )
        39           O   tau(  39) = (   0.0048226   0.0077944   0.7773880  )
        40           O   tau(  40) = (   0.0048226   0.0077944   1.2555238  )
        41           Sr  tau(  41) = (   0.2545482   0.2517602   0.7706582  )
        42           Sr  tau(  42) = (   0.2545482   0.2517602   1.2622536  )
        43           Co  tau(  43) = (   0.4989925   0.0073160   1.5135603  )
        44           Co  tau(  44) = (   0.4998370   0.0064714   1.0164559  )
        45           O   tau(  45) = (   0.5048017   0.0015068   0.7844841  )
        46           O   tau(  46) = (   0.5048017   0.0015068   1.2484277  )
        47           O   tau(  47) = (   0.2621260   0.0059111   1.5135603  )
        48           O   tau(  48) = (   0.2591051   0.0041689   1.0164559  )
        49           O   tau(  49) = (   0.1421646   0.1421646   2.1602013  )
        50           O   tau(  50) = (   0.1421646   0.1421646   2.3186489  )
        51           H   tau(  51) = (   0.1421646   0.1421646   2.4431567  )

   Crystallographic axes

     site n.     atom                  positions (cryst. coord.)
         1           Sr  tau(   1) = (  0.2508693  0.7491307  0.6943562  )
         2           O   tau(   2) = (  0.4985141  0.5014859  0.6999492  )
         3           Sr  tau(   3) = (  0.7482398  0.7454518  0.6972903  )
         4           Sr  tau(   4) = (  0.7441748  0.2558252  0.6980478  )
         5           Sr  tau(   5) = (  0.2508693  0.7491307  0.5016443  )
         6           Sr  tau(   6) = (  0.2508693  0.7491307  0.3015492  )
         7           Co  tau(   7) = (  0.4998914  0.5001086  0.4015968  )
         8           Co  tau(   8) = (  0.4936915  0.5063085  0.5980003  )
         9           O   tau(   9) = (  0.4988895  0.7610401  0.4015968  )
        10           O   tau(  10) = (  0.2389599  0.5011105  0.4015968  )
        11           O   tau(  11) = (  0.0070918  0.7374880  0.4015968  )
        12           O   tau(  12) = (  0.0088340  0.7405089  0.5980003  )
        13           O   tau(  13) = (  0.5066944  0.7415376  0.5980003  )
        14           O   tau(  14) = (  0.2584624  0.4933056  0.5980003  )
        15           O   tau(  15) = (  0.4985141  0.5014859  0.3071422  )
        16           O   tau(  16) = (  0.4985141  0.5014859  0.4960513  )
        17           Sr  tau(  17) = (  0.7482398  0.7454518  0.3044833  )
        18           Sr  tau(  18) = (  0.7482398  0.7454518  0.4987103  )
        19           Sr  tau(  19) = (  0.7441748  0.2558252  0.3052408  )
        20           Sr  tau(  20) = (  0.7441748  0.2558252  0.4979527  )
        21           O   tau(  21) = (  0.7322655  0.0078049  0.5980003  )
        22           O   tau(  22) = (  0.7558175  0.4996027  0.5980003  )
        23           O   tau(  23) = (  0.5003973  0.2441825  0.5980003  )
        24           O   tau(  24) = (  0.7527966  0.4978604  0.4015968  )
        25           O   tau(  25) = (  0.5021396  0.2472034  0.4015968  )
        26           O   tau(  26) = (  0.7517679  0.0000000  0.4015968  )
        27           O   tau(  27) = (  0.0114961  0.4948124  0.6896512  )
        28           O   tau(  28) = (  0.0048226  0.0077944  0.6999492  )
        29           Sr  tau(  29) = (  0.2545482  0.2517602  0.6972903  )
        30           O   tau(  30) = (  0.5048017  0.0015068  0.7027529  )
        31           Co  tau(  31) = (  0.0056869  0.5006215  0.4015968  )
        32           Co  tau(  32) = (  0.0065315  0.4997770  0.5980003  )
        33           Co  tau(  33) = (  0.0061999  0.0064171  0.4015968  )
        34           Co  tau(  34) = (  0.0000000  0.0126169  0.5980003  )
        35           O   tau(  35) = (  0.0114961  0.4948124  0.5063494  )
        36           O   tau(  36) = (  0.0114961  0.4948124  0.2968442  )
        37           O   tau(  37) = (  0.0051979  0.2673486  0.4015968  )
        38           O   tau(  38) = (  0.0130029  0.2478461  0.5980003  )
        39           O   tau(  39) = (  0.0048226  0.0077944  0.3071422  )
        40           O   tau(  40) = (  0.0048226  0.0077944  0.4960513  )
        41           Sr  tau(  41) = (  0.2545482  0.2517602  0.3044833  )
        42           Sr  tau(  42) = (  0.2545482  0.2517602  0.4987103  )
        43           Co  tau(  43) = (  0.4989925  0.0073160  0.5980003  )
        44           Co  tau(  44) = (  0.4998370  0.0064714  0.4015968  )
        45           O   tau(  45) = (  0.5048017  0.0015068  0.3099459  )
        46           O   tau(  46) = (  0.5048017  0.0015068  0.4932477  )
        47           O   tau(  47) = (  0.2621260  0.0059111  0.5980003  )
        48           O   tau(  48) = (  0.2591051  0.0041689  0.4015968  )
        49           O   tau(  49) = (  0.1421646  0.1421646  0.8534850  )
        50           O   tau(  50) = (  0.1421646  0.1421646  0.9160869  )
        51           H   tau(  51) = (  0.1421646  0.1421646  0.9652793  )

     number of k points=    10  Gaussian smearing, width (Ry)=  0.0700
                       cart. coord. in units 2pi/alat
        k(    1) = (   0.0000000   0.0000000   0.0000000), wk =   0.1250000
        k(    2) = (   0.0000000   0.2500000   0.0000000), wk =   0.2500000
        k(    3) = (   0.0000000  -0.5000000   0.0000000), wk =   0.1250000
        k(    4) = (   0.2500000   0.2500000   0.0000000), wk =   0.2500000
        k(    5) = (   0.2500000  -0.5000000   0.0000000), wk =   0.2500000
        k(    6) = (  -0.5000000  -0.5000000   0.0000000), wk =   0.1250000
        k(    7) = (   0.2500000   0.0000000   0.0000000), wk =   0.2500000
        k(    8) = (  -0.5000000   0.0000000   0.0000000), wk =   0.1250000
        k(    9) = (  -0.2500000   0.2500000   0.0000000), wk =   0.2500000
        k(   10) = (  -0.5000000   0.2500000   0.0000000), wk =   0.2500000

                       cryst. coord.
        k(    1) = (   0.0000000   0.0000000   0.0000000), wk =   0.1250000
        k(    2) = (   0.0000000   0.2500000   0.0000000), wk =   0.2500000
        k(    3) = (   0.0000000  -0.5000000   0.0000000), wk =   0.1250000
        k(    4) = (   0.2500000   0.2500000   0.0000000), wk =   0.2500000
        k(    5) = (   0.2500000  -0.5000000   0.0000000), wk =   0.2500000
        k(    6) = (  -0.5000000  -0.5000000   0.0000000), wk =   0.1250000
        k(    7) = (   0.2500000   0.0000000   0.0000000), wk =   0.2500000
        k(    8) = (  -0.5000000   0.0000000   0.0000000), wk =   0.1250000
        k(    9) = (  -0.2500000   0.2500000   0.0000000), wk =   0.2500000
        k(   10) = (  -0.5000000   0.2500000   0.0000000), wk =   0.2500000

     Dense  grid:  1474595 G-vectors     FFT dimensions: ( 108, 108, 270)

     Smooth grid:   521381 G-vectors     FFT dimensions: (  75,  75, 192)

     Dynamical RAM for                 wfc:      10.90 MB

     Dynamical RAM for     wfc (w. buffer):      65.37 MB

     Dynamical RAM for           str. fact:       3.75 MB

     Dynamical RAM for           local pot:       0.00 MB

     Dynamical RAM for          nlocal pot:      24.94 MB

     Dynamical RAM for                qrad:       7.03 MB

     Dynamical RAM for          rho,v,vnew:       6.02 MB

     Dynamical RAM for               rhoin:       2.01 MB

     Dynamical RAM for            rho*nmix:      15.00 MB

     Dynamical RAM for           G-vectors:       3.68 MB

     Dynamical RAM for          h,s,v(r/c):       1.40 MB

     Dynamical RAM for          <psi|beta>:       2.42 MB

     Dynamical RAM for                 psi:      21.79 MB

     Dynamical RAM for                hpsi:      21.79 MB

     Dynamical RAM for                spsi:      21.79 MB

     Dynamical RAM for      wfcinit/wfcrot:      34.89 MB

     Dynamical RAM for           addusdens:     101.73 MB

     Estimated static dynamical RAM per process >     122.82 MB

     Estimated max dynamical RAM per process >     239.55 MB

     Estimated total dynamical RAM >      10.88 GB

     Check: negative core charge=   -0.000004

     Initial potential from superposition of free atoms

     starting charge     428.5961, renormalised to     437.0000

     negative rho (up, down):  7.813E-01 0.000E+00
     Starting wfcs are  381 randomized atomic wfcs
     Checking if some PAW data can be deallocated... 
       PAW data deallocated on   18 nodes for type:  2

     total cpu time spent up to now is       10.3 secs

     Self-consistent Calculation

     iteration #  1     ecut=    60.00 Ry     beta= 0.15
     Davidson diagonalization with overlap

---- Real-time Memory Report at c_bands before calling an iterative solver
             0 MiB given to the printing process from OS
             0 MiB allocation reported by mallinfo(arena+hblkhd)
          6905 MiB available memory on the node where the printing process lives
------------------
     ethr =  1.00E-02,  avg # of iterations =  2.0

     negative rho (up, down):  7.715E-01 0.000E+00

     total cpu time spent up to now is       26.6 secs

     total energy              =   -4489.28827552 Ry
     estimated scf accuracy    <      49.70102243 Ry

     iteration #  2     ecut=    60.00 Ry     beta= 0.15
     Davidson diagonalization with overlap

---- Real-time Memory Report at c_bands before calling an iterative solver
             0 MiB given to the printing process from OS
             0 MiB allocation reported by mallinfo(arena+hblkhd)
          7236 MiB available memory on the node where the printing process lives
------------------
     ethr =  1.00E-02,  avg # of iterations =  1.0

     negative rho (up, down):  7.613E-01 0.000E+00

     total cpu time spent up to now is       39.8 secs

     total energy              =   -4486.81172216 Ry
     estimated scf accuracy    <      35.28473126 Ry

     iteration #  3     ecut=    60.00 Ry     beta= 0.15
     Davidson diagonalization with overlap

---- Real-time Memory Report at c_bands before calling an iterative solver
             0 MiB given to the printing process from OS
             0 MiB allocation reported by mallinfo(arena+hblkhd)
          6435 MiB available memory on the node where the printing process lives
------------------
     ethr =  8.07E-03,  avg # of iterations =  1.0

     negative rho (up, down):  7.563E-01 0.000E+00

     total cpu time spent up to now is       53.2 secs

     total energy              =   -4486.76730050 Ry
     estimated scf accuracy    <      35.27766412 Ry

     iteration #  4     ecut=    60.00 Ry     beta= 0.15
     Davidson diagonalization with overlap

---- Real-time Memory Report at c_bands before calling an iterative solver
             0 MiB given to the printing process from OS
             0 MiB allocation reported by mallinfo(arena+hblkhd)
          6409 MiB available memory on the node where the printing process lives
------------------
     ethr =  8.07E-03,  avg # of iterations =  1.0

     negative rho (up, down):  7.575E-01 0.000E+00

     total cpu time spent up to now is       66.3 secs

     total energy              =   -4486.59864565 Ry
     estimated scf accuracy    <      34.22997013 Ry

     iteration #  5     ecut=    60.00 Ry     beta= 0.15
     Davidson diagonalization with overlap

---- Real-time Memory Report at c_bands before calling an iterative solver
             0 MiB given to the printing process from OS
             0 MiB allocation reported by mallinfo(arena+hblkhd)
          6396 MiB available memory on the node where the printing process lives
------------------
     ethr =  7.83E-03,  avg # of iterations =  1.0

     negative rho (up, down):  7.338E-01 0.000E+00

     total cpu time spent up to now is       79.3 secs

     total energy              =   -4482.56966060 Ry
     estimated scf accuracy    <      22.74556404 Ry

     iteration #  6     ecut=    60.00 Ry     beta= 0.15
     Davidson diagonalization with overlap

---- Real-time Memory Report at c_bands before calling an iterative solver
             0 MiB given to the printing process from OS
             0 MiB allocation reported by mallinfo(arena+hblkhd)
          6375 MiB available memory on the node where the printing process lives
------------------
     ethr =  5.20E-03,  avg # of iterations =  2.0

     negative rho (up, down):  7.486E-01 0.000E+00

     total cpu time spent up to now is       93.6 secs

     total energy              =   -4483.68515771 Ry
     estimated scf accuracy    <      35.47200039 Ry

     iteration #  7     ecut=    60.00 Ry     beta= 0.15
     Davidson diagonalization with overlap

---- Real-time Memory Report at c_bands before calling an iterative solver
             0 MiB given to the printing process from OS
             0 MiB allocation reported by mallinfo(arena+hblkhd)
          6350 MiB available memory on the node where the printing process lives
------------------
     ethr =  5.20E-03,  avg # of iterations =  1.0

     negative rho (up, down):  7.534E-01 0.000E+00

     total cpu time spent up to now is      106.6 secs

     total energy              =   -4483.61292840 Ry
     estimated scf accuracy    <      36.20184929 Ry

     iteration #  8     ecut=    60.00 Ry     beta= 0.15
     Davidson diagonalization with overlap

---- Real-time Memory Report at c_bands before calling an iterative solver
             0 MiB given to the printing process from OS
             0 MiB allocation reported by mallinfo(arena+hblkhd)
          6333 MiB available memory on the node where the printing process lives
------------------
     ethr =  5.20E-03,  avg # of iterations =  1.0

     negative rho (up, down):  7.509E-01 0.000E+00

     total cpu time spent up to now is      119.6 secs

     total energy              =   -4483.83338748 Ry
     estimated scf accuracy    <       6.08889129 Ry

     iteration #  9     ecut=    60.00 Ry     beta= 0.15
     Davidson diagonalization with overlap

---- Real-time Memory Report at c_bands before calling an iterative solver
             0 MiB given to the printing process from OS
             0 MiB allocation reported by mallinfo(arena+hblkhd)
          6309 MiB available memory on the node where the printing process lives
------------------
     ethr =  1.39E-03,  avg # of iterations =  4.7

     negative rho (up, down):  7.656E-01 0.000E+00

     total cpu time spent up to now is      135.4 secs

     total energy              =   -4483.73713351 Ry
     estimated scf accuracy    <       3.62619998 Ry

     iteration # 10     ecut=    60.00 Ry     beta= 0.15
     Davidson diagonalization with overlap

---- Real-time Memory Report at c_bands before calling an iterative solver
             0 MiB given to the printing process from OS
             0 MiB allocation reported by mallinfo(arena+hblkhd)
          6267 MiB available memory on the node where the printing process lives
------------------
     ethr =  8.30E-04,  avg # of iterations =  9.4

     negative rho (up, down):  7.878E-01 0.000E+00

     total cpu time spent up to now is      154.1 secs

     total energy              =   -4483.52180297 Ry
     estimated scf accuracy    <       4.52174474 Ry

     iteration # 11     ecut=    60.00 Ry     beta= 0.15
     Davidson diagonalization with overlap

---- Real-time Memory Report at c_bands before calling an iterative solver
             0 MiB given to the printing process from OS
             0 MiB allocation reported by mallinfo(arena+hblkhd)
          5901 MiB available memory on the node where the printing process lives
------------------
     ethr =  8.30E-04,  avg # of iterations =  5.7

     negative rho (up, down):  7.904E-01 0.000E+00

     total cpu time spent up to now is      171.1 secs

     total energy              =   -4483.19362960 Ry
     estimated scf accuracy    <       4.26536424 Ry

     iteration # 12     ecut=    60.00 Ry     beta= 0.15
     Davidson diagonalization with overlap

---- Real-time Memory Report at c_bands before calling an iterative solver
             0 MiB given to the printing process from OS
             0 MiB allocation reported by mallinfo(arena+hblkhd)
          5871 MiB available memory on the node where the printing process lives
------------------
     ethr =  8.30E-04,  avg # of iterations =  8.4

     negative rho (up, down):  8.011E-01 0.000E+00

     total cpu time spent up to now is      188.5 secs

     total energy              =   -4483.21267118 Ry
     estimated scf accuracy    <       2.09192918 Ry

     iteration # 13     ecut=    60.00 Ry     beta= 0.15
     Davidson diagonalization with overlap

---- Real-time Memory Report at c_bands before calling an iterative solver
             0 MiB given to the printing process from OS
             0 MiB allocation reported by mallinfo(arena+hblkhd)
          5827 MiB available memory on the node where the printing process lives
------------------
     ethr =  4.79E-04,  avg # of iterations =  2.8

     negative rho (up, down):  8.026E-01 0.000E+00

     total cpu time spent up to now is      203.3 secs

     total energy              =   -4483.25830694 Ry
     estimated scf accuracy    <       1.10285697 Ry

     iteration # 14     ecut=    60.00 Ry     beta= 0.15
     Davidson diagonalization with overlap

---- Real-time Memory Report at c_bands before calling an iterative solver
             0 MiB given to the printing process from OS
             0 MiB allocation reported by mallinfo(arena+hblkhd)
          5837 MiB available memory on the node where the printing process lives
------------------
     ethr =  2.52E-04,  avg # of iterations =  6.4

     negative rho (up, down):  8.152E-01 0.000E+00

     total cpu time spent up to now is      220.0 secs

     total energy              =   -4483.11501179 Ry
     estimated scf accuracy    <       0.72590790 Ry

     iteration # 15     ecut=    60.00 Ry     beta= 0.15
     Davidson diagonalization with overlap

---- Real-time Memory Report at c_bands before calling an iterative solver
             0 MiB given to the printing process from OS
             0 MiB allocation reported by mallinfo(arena+hblkhd)
          5816 MiB available memory on the node where the printing process lives
------------------
     ethr =  1.66E-04,  avg # of iterations =  6.5

     negative rho (up, down):  8.185E-01 0.000E+00

     total cpu time spent up to now is      236.9 secs

     total energy              =   -4483.13994785 Ry
     estimated scf accuracy    <       3.31942251 Ry

     iteration # 16     ecut=    60.00 Ry     beta= 0.15
     Davidson diagonalization with overlap

---- Real-time Memory Report at c_bands before calling an iterative solver
             0 MiB given to the printing process from OS
             0 MiB allocation reported by mallinfo(arena+hblkhd)
          5812 MiB available memory on the node where the printing process lives
------------------
     ethr =  1.66E-04,  avg # of iterations =  3.3

     negative rho (up, down):  8.144E-01 0.000E+00

     total cpu time spent up to now is      251.8 secs

     total energy              =   -4483.11050822 Ry
     estimated scf accuracy    <       1.33674580 Ry

     iteration # 17     ecut=    60.00 Ry     beta= 0.15
     Davidson diagonalization with overlap

---- Real-time Memory Report at c_bands before calling an iterative solver
             0 MiB given to the printing process from OS
             0 MiB allocation reported by mallinfo(arena+hblkhd)
          5823 MiB available memory on the node where the printing process lives
------------------
     ethr =  1.66E-04,  avg # of iterations =  1.6

     negative rho (up, down):  8.194E-01 0.000E+00

     total cpu time spent up to now is      265.9 secs

     total energy              =   -4483.05346404 Ry
     estimated scf accuracy    <       0.39417678 Ry

     iteration # 18     ecut=    60.00 Ry     beta= 0.15
     Davidson diagonalization with overlap

---- Real-time Memory Report at c_bands before calling an iterative solver
             0 MiB given to the printing process from OS
             0 MiB allocation reported by mallinfo(arena+hblkhd)
          5835 MiB available memory on the node where the printing process lives
------------------
     c_bands:  1 eigenvalues not converged
     ethr =  9.02E-05,  avg # of iterations = 13.5

     negative rho (up, down):  8.209E-01 0.000E+00

     total cpu time spent up to now is      286.4 secs

     total energy              =   -4483.03791785 Ry
     estimated scf accuracy    <       1.41903611 Ry

     iteration # 19     ecut=    60.00 Ry     beta= 0.15
     Davidson diagonalization with overlap

---- Real-time Memory Report at c_bands before calling an iterative solver
             0 MiB given to the printing process from OS
             0 MiB allocation reported by mallinfo(arena+hblkhd)
          5809 MiB available memory on the node where the printing process lives
------------------
     ethr =  9.02E-05,  avg # of iterations =  4.8

     negative rho (up, down):  8.290E-01 0.000E+00

     total cpu time spent up to now is      301.9 secs

     total energy              =   -4483.03180927 Ry
     estimated scf accuracy    <       0.49743290 Ry

     iteration # 20     ecut=    60.00 Ry     beta= 0.15
     Davidson diagonalization with overlap

---- Real-time Memory Report at c_bands before calling an iterative solver
             0 MiB given to the printing process from OS
             0 MiB allocation reported by mallinfo(arena+hblkhd)
          5807 MiB available memory on the node where the printing process lives
------------------
     ethr =  9.02E-05,  avg # of iterations =  5.1

     negative rho (up, down):  8.267E-01 0.000E+00

     total cpu time spent up to now is      318.0 secs

     total energy              =   -4482.98876021 Ry
     estimated scf accuracy    <       0.76057438 Ry

     iteration # 21     ecut=    60.00 Ry     beta= 0.15
     Davidson diagonalization with overlap

---- Real-time Memory Report at c_bands before calling an iterative solver
             0 MiB given to the printing process from OS
             0 MiB allocation reported by mallinfo(arena+hblkhd)
          5786 MiB available memory on the node where the printing process lives
------------------
     ethr =  9.02E-05,  avg # of iterations =  9.8

     negative rho (up, down):  8.430E-01 0.000E+00

     total cpu time spent up to now is      335.9 secs

     total energy              =   -4482.98128515 Ry
     estimated scf accuracy    <       0.16413805 Ry

     iteration # 22     ecut=    60.00 Ry     beta= 0.15
     Davidson diagonalization with overlap

---- Real-time Memory Report at c_bands before calling an iterative solver
             0 MiB given to the printing process from OS
             0 MiB allocation reported by mallinfo(arena+hblkhd)
          5794 MiB available memory on the node where the printing process lives
------------------
     ethr =  3.76E-05,  avg # of iterations =  8.7

     negative rho (up, down):  8.448E-01 0.000E+00

     total cpu time spent up to now is      354.1 secs

     total energy              =   -4482.98048672 Ry
     estimated scf accuracy    <       0.04956893 Ry

     iteration # 23     ecut=    60.00 Ry     beta= 0.15
     Davidson diagonalization with overlap

---- Real-time Memory Report at c_bands before calling an iterative solver
             0 MiB given to the printing process from OS
             0 MiB allocation reported by mallinfo(arena+hblkhd)
          5707 MiB available memory on the node where the printing process lives
------------------
     ethr =  1.13E-05,  avg # of iterations = 10.3

     negative rho (up, down):  8.293E-01 0.000E+00

     total cpu time spent up to now is      373.0 secs

     total energy              =   -4482.97594292 Ry
     estimated scf accuracy    <       0.03066465 Ry

     iteration # 24     ecut=    60.00 Ry     beta= 0.15
     Davidson diagonalization with overlap

---- Real-time Memory Report at c_bands before calling an iterative solver
             0 MiB given to the printing process from OS
             0 MiB allocation reported by mallinfo(arena+hblkhd)
          5690 MiB available memory on the node where the printing process lives
------------------
     ethr =  7.02E-06,  avg # of iterations = 11.9

     negative rho (up, down):  8.201E-01 0.000E+00

     total cpu time spent up to now is      393.4 secs

     total energy              =   -4482.97555284 Ry
     estimated scf accuracy    <       0.01673123 Ry

     iteration # 25     ecut=    60.00 Ry     beta= 0.15
     Davidson diagonalization with overlap

---- Real-time Memory Report at c_bands before calling an iterative solver
             0 MiB given to the printing process from OS
             0 MiB allocation reported by mallinfo(arena+hblkhd)
          5544 MiB available memory on the node where the printing process lives
------------------
     ethr =  3.83E-06,  avg # of iterations =  4.5

     negative rho (up, down):  8.124E-01 0.000E+00

     total cpu time spent up to now is      410.2 secs

     total energy              =   -4482.97385002 Ry
     estimated scf accuracy    <       0.01112214 Ry

     iteration # 26     ecut=    60.00 Ry     beta= 0.15
     Davidson diagonalization with overlap

---- Real-time Memory Report at c_bands before calling an iterative solver
             0 MiB given to the printing process from OS
             0 MiB allocation reported by mallinfo(arena+hblkhd)
          5569 MiB available memory on the node where the printing process lives
------------------
     ethr =  2.55E-06,  avg # of iterations =  9.7

     negative rho (up, down):  7.967E-01 0.000E+00

     total cpu time spent up to now is      429.7 secs

     total energy              =   -4482.97299343 Ry
     estimated scf accuracy    <       0.00505198 Ry

     iteration # 27     ecut=    60.00 Ry     beta= 0.15
     Davidson diagonalization with overlap

---- Real-time Memory Report at c_bands before calling an iterative solver
             0 MiB given to the printing process from OS
             0 MiB allocation reported by mallinfo(arena+hblkhd)
          5561 MiB available memory on the node where the printing process lives
------------------
     ethr =  1.16E-06,  avg # of iterations =  9.4

     negative rho (up, down):  7.992E-01 0.000E+00

     total cpu time spent up to now is      450.1 secs

     total energy              =   -4482.97319969 Ry
     estimated scf accuracy    <       0.00218161 Ry

     iteration # 28     ecut=    60.00 Ry     beta= 0.15
     Davidson diagonalization with overlap

---- Real-time Memory Report at c_bands before calling an iterative solver
             0 MiB given to the printing process from OS
             0 MiB allocation reported by mallinfo(arena+hblkhd)
          5456 MiB available memory on the node where the printing process lives
------------------
     ethr =  4.99E-07,  avg # of iterations =  7.8

     negative rho (up, down):  7.952E-01 0.000E+00

     total cpu time spent up to now is      468.5 secs

     total energy              =   -4482.97319045 Ry
     estimated scf accuracy    <       0.00116997 Ry

     iteration # 29     ecut=    60.00 Ry     beta= 0.15
     Davidson diagonalization with overlap

---- Real-time Memory Report at c_bands before calling an iterative solver
             0 MiB given to the printing process from OS
             0 MiB allocation reported by mallinfo(arena+hblkhd)
          5472 MiB available memory on the node where the printing process lives
------------------
     ethr =  2.68E-07,  avg # of iterations =  5.3

     negative rho (up, down):  7.927E-01 0.000E+00

     total cpu time spent up to now is      485.5 secs

     total energy              =   -4482.97309808 Ry
     estimated scf accuracy    <       0.00064075 Ry

     iteration # 30     ecut=    60.00 Ry     beta= 0.15
     Davidson diagonalization with overlap

---- Real-time Memory Report at c_bands before calling an iterative solver
             0 MiB given to the printing process from OS
             0 MiB allocation reported by mallinfo(arena+hblkhd)
          5442 MiB available memory on the node where the printing process lives
------------------
     ethr =  1.47E-07,  avg # of iterations =  6.0

     negative rho (up, down):  7.924E-01 0.000E+00

     total cpu time spent up to now is      503.0 secs

     total energy              =   -4482.97311787 Ry
     estimated scf accuracy    <       0.00024271 Ry

     iteration # 31     ecut=    60.00 Ry     beta= 0.15
     Davidson diagonalization with overlap

---- Real-time Memory Report at c_bands before calling an iterative solver
             0 MiB given to the printing process from OS
             0 MiB allocation reported by mallinfo(arena+hblkhd)
          5373 MiB available memory on the node where the printing process lives
------------------
     ethr =  5.55E-08,  avg # of iterations =  2.7

     negative rho (up, down):  7.924E-01 0.000E+00

     total cpu time spent up to now is      518.3 secs

     total energy              =   -4482.97310399 Ry
     estimated scf accuracy    <       0.00017365 Ry

     iteration # 32     ecut=    60.00 Ry     beta= 0.15
     Davidson diagonalization with overlap

---- Real-time Memory Report at c_bands before calling an iterative solver
             0 MiB given to the printing process from OS
             0 MiB allocation reported by mallinfo(arena+hblkhd)
          5374 MiB available memory on the node where the printing process lives
------------------
     ethr =  3.97E-08,  avg # of iterations =  2.9

     negative rho (up, down):  7.924E-01 0.000E+00

     total cpu time spent up to now is      533.6 secs

     total energy              =   -4482.97308300 Ry
     estimated scf accuracy    <       0.00010980 Ry

     iteration # 33     ecut=    60.00 Ry     beta= 0.15
     Davidson diagonalization with overlap

---- Real-time Memory Report at c_bands before calling an iterative solver
             0 MiB given to the printing process from OS
             0 MiB allocation reported by mallinfo(arena+hblkhd)
          5375 MiB available memory on the node where the printing process lives
------------------
     ethr =  2.51E-08,  avg # of iterations =  4.2

     negative rho (up, down):  7.924E-01 0.000E+00

     total cpu time spent up to now is      549.3 secs

     total energy              =   -4482.97308651 Ry
     estimated scf accuracy    <       0.00006774 Ry

     iteration # 34     ecut=    60.00 Ry     beta= 0.15
     Davidson diagonalization with overlap

---- Real-time Memory Report at c_bands before calling an iterative solver
             0 MiB given to the printing process from OS
             0 MiB allocation reported by mallinfo(arena+hblkhd)
          5367 MiB available memory on the node where the printing process lives
------------------
     ethr =  1.55E-08,  avg # of iterations =  2.3

     negative rho (up, down):  7.923E-01 0.000E+00

     total cpu time spent up to now is      564.1 secs

     total energy              =   -4482.97309082 Ry
     estimated scf accuracy    <       0.00004181 Ry

     iteration # 35     ecut=    60.00 Ry     beta= 0.15
     Davidson diagonalization with overlap

---- Real-time Memory Report at c_bands before calling an iterative solver
             0 MiB given to the printing process from OS
             0 MiB allocation reported by mallinfo(arena+hblkhd)
          5391 MiB available memory on the node where the printing process lives
------------------
     ethr =  9.57E-09,  avg # of iterations =  2.6

     negative rho (up, down):  7.923E-01 0.000E+00

     total cpu time spent up to now is      579.1 secs

     total energy              =   -4482.97309671 Ry
     estimated scf accuracy    <       0.00002508 Ry

     iteration # 36     ecut=    60.00 Ry     beta= 0.15
     Davidson diagonalization with overlap

---- Real-time Memory Report at c_bands before calling an iterative solver
             0 MiB given to the printing process from OS
             0 MiB allocation reported by mallinfo(arena+hblkhd)
          5405 MiB available memory on the node where the printing process lives
------------------
     ethr =  5.74E-09,  avg # of iterations =  3.6

     negative rho (up, down):  7.924E-01 0.000E+00

     total cpu time spent up to now is      594.5 secs

     total energy              =   -4482.97309980 Ry
     estimated scf accuracy    <       0.00001338 Ry

     iteration # 37     ecut=    60.00 Ry     beta= 0.15
     Davidson diagonalization with overlap

---- Real-time Memory Report at c_bands before calling an iterative solver
             0 MiB given to the printing process from OS
             0 MiB allocation reported by mallinfo(arena+hblkhd)
          5435 MiB available memory on the node where the printing process lives
------------------
     ethr =  3.06E-09,  avg # of iterations =  3.9

     negative rho (up, down):  7.924E-01 0.000E+00

     total cpu time spent up to now is      610.3 secs

     total energy              =   -4482.97310118 Ry
     estimated scf accuracy    <       0.00000637 Ry

     iteration # 38     ecut=    60.00 Ry     beta= 0.15
     Davidson diagonalization with overlap

---- Real-time Memory Report at c_bands before calling an iterative solver
             0 MiB given to the printing process from OS
             0 MiB allocation reported by mallinfo(arena+hblkhd)
          5422 MiB available memory on the node where the printing process lives
------------------
     ethr =  1.46E-09,  avg # of iterations =  2.0

     negative rho (up, down):  7.924E-01 0.000E+00

     total cpu time spent up to now is      625.1 secs

     total energy              =   -4482.97310158 Ry
     estimated scf accuracy    <       0.00000465 Ry

     iteration # 39     ecut=    60.00 Ry     beta= 0.15
     Davidson diagonalization with overlap

---- Real-time Memory Report at c_bands before calling an iterative solver
             0 MiB given to the printing process from OS
             0 MiB allocation reported by mallinfo(arena+hblkhd)
          5489 MiB available memory on the node where the printing process lives
------------------
     ethr =  1.07E-09,  avg # of iterations =  1.9

     negative rho (up, down):  7.924E-01 0.000E+00

     total cpu time spent up to now is      639.5 secs

     total energy              =   -4482.97310161 Ry
     estimated scf accuracy    <       0.00000403 Ry

     iteration # 40     ecut=    60.00 Ry     beta= 0.15
     Davidson diagonalization with overlap

---- Real-time Memory Report at c_bands before calling an iterative solver
             0 MiB given to the printing process from OS
             0 MiB allocation reported by mallinfo(arena+hblkhd)
          5483 MiB available memory on the node where the printing process lives
------------------
     ethr =  9.23E-10,  avg # of iterations =  2.5

     negative rho (up, down):  7.924E-01 0.000E+00

     total cpu time spent up to now is      654.6 secs

     total energy              =   -4482.97310216 Ry
     estimated scf accuracy    <       0.00000344 Ry

     iteration # 41     ecut=    60.00 Ry     beta= 0.15
     Davidson diagonalization with overlap

---- Real-time Memory Report at c_bands before calling an iterative solver
             0 MiB given to the printing process from OS
             0 MiB allocation reported by mallinfo(arena+hblkhd)
          5486 MiB available memory on the node where the printing process lives
------------------
     ethr =  7.88E-10,  avg # of iterations =  4.1

     negative rho (up, down):  7.923E-01 0.000E+00

     total cpu time spent up to now is      670.0 secs

     total energy              =   -4482.97310208 Ry
     estimated scf accuracy    <       0.00000185 Ry

     iteration # 42     ecut=    60.00 Ry     beta= 0.15
     Davidson diagonalization with overlap

---- Real-time Memory Report at c_bands before calling an iterative solver
             0 MiB given to the printing process from OS
             0 MiB allocation reported by mallinfo(arena+hblkhd)
          5523 MiB available memory on the node where the printing process lives
------------------
     ethr =  4.24E-10,  avg # of iterations =  4.7

     negative rho (up, down):  7.922E-01 0.000E+00

     total cpu time spent up to now is      685.9 secs

     total energy              =   -4482.97310219 Ry
     estimated scf accuracy    <       0.00000146 Ry

     iteration # 43     ecut=    60.00 Ry     beta= 0.15
     Davidson diagonalization with overlap

---- Real-time Memory Report at c_bands before calling an iterative solver
             0 MiB given to the printing process from OS
             0 MiB allocation reported by mallinfo(arena+hblkhd)
          5544 MiB available memory on the node where the printing process lives
------------------
     ethr =  3.33E-10,  avg # of iterations =  4.5

     negative rho (up, down):  7.922E-01 0.000E+00

     total cpu time spent up to now is      701.7 secs

     total energy              =   -4482.97310227 Ry
     estimated scf accuracy    <       0.00000053 Ry

     iteration # 44     ecut=    60.00 Ry     beta= 0.15
     Davidson diagonalization with overlap

---- Real-time Memory Report at c_bands before calling an iterative solver
             0 MiB given to the printing process from OS
             0 MiB allocation reported by mallinfo(arena+hblkhd)
          5535 MiB available memory on the node where the printing process lives
------------------
     ethr =  1.22E-10,  avg # of iterations =  3.1

     negative rho (up, down):  7.923E-01 0.000E+00

     total cpu time spent up to now is      716.8 secs

     total energy              =   -4482.97310237 Ry
     estimated scf accuracy    <       0.00000038 Ry

     iteration # 45     ecut=    60.00 Ry     beta= 0.15
     Davidson diagonalization with overlap

---- Real-time Memory Report at c_bands before calling an iterative solver
             0 MiB given to the printing process from OS
             0 MiB allocation reported by mallinfo(arena+hblkhd)
          5532 MiB available memory on the node where the printing process lives
------------------
     ethr =  8.58E-11,  avg # of iterations =  4.2

     negative rho (up, down):  7.923E-01 0.000E+00

     total cpu time spent up to now is      732.5 secs

     total energy              =   -4482.97310243 Ry
     estimated scf accuracy    <       0.00000012 Ry

     iteration # 46     ecut=    60.00 Ry     beta= 0.15
     Davidson diagonalization with overlap

---- Real-time Memory Report at c_bands before calling an iterative solver
             0 MiB given to the printing process from OS
             0 MiB allocation reported by mallinfo(arena+hblkhd)
          5538 MiB available memory on the node where the printing process lives
------------------
     ethr =  2.70E-11,  avg # of iterations =  4.0

     negative rho (up, down):  7.923E-01 0.000E+00

     total cpu time spent up to now is      748.0 secs

     total energy              =   -4482.97310246 Ry
     estimated scf accuracy    <       0.00000007 Ry

     iteration # 47     ecut=    60.00 Ry     beta= 0.15
     Davidson diagonalization with overlap

---- Real-time Memory Report at c_bands before calling an iterative solver
             0 MiB given to the printing process from OS
             0 MiB allocation reported by mallinfo(arena+hblkhd)
          5542 MiB available memory on the node where the printing process lives
------------------
     ethr =  1.70E-11,  avg # of iterations =  3.2

     negative rho (up, down):  7.923E-01 0.000E+00

     total cpu time spent up to now is      763.3 secs

     total energy              =   -4482.97310247 Ry
     estimated scf accuracy    <       0.00000005 Ry

     iteration # 48     ecut=    60.00 Ry     beta= 0.15
     Davidson diagonalization with overlap

---- Real-time Memory Report at c_bands before calling an iterative solver
             0 MiB given to the printing process from OS
             0 MiB allocation reported by mallinfo(arena+hblkhd)
          5540 MiB available memory on the node where the printing process lives
------------------
     ethr =  1.08E-11,  avg # of iterations =  4.8

     negative rho (up, down):  7.923E-01 0.000E+00

     total cpu time spent up to now is      779.3 secs

     total energy              =   -4482.97310249 Ry
     estimated scf accuracy    <       0.00000002 Ry

     iteration # 49     ecut=    60.00 Ry     beta= 0.15
     Davidson diagonalization with overlap

---- Real-time Memory Report at c_bands before calling an iterative solver
             0 MiB given to the printing process from OS
             0 MiB allocation reported by mallinfo(arena+hblkhd)
          5541 MiB available memory on the node where the printing process lives
------------------
     ethr =  5.63E-12,  avg # of iterations =  5.4

     negative rho (up, down):  7.923E-01 0.000E+00

     total cpu time spent up to now is      795.6 secs

     total energy              =   -4482.97310250 Ry
     estimated scf accuracy    <       0.00000001 Ry

     iteration # 50     ecut=    60.00 Ry     beta= 0.15
     Davidson diagonalization with overlap

---- Real-time Memory Report at c_bands before calling an iterative solver
             0 MiB given to the printing process from OS
             0 MiB allocation reported by mallinfo(arena+hblkhd)
          5538 MiB available memory on the node where the printing process lives
------------------
     ethr =  2.30E-12,  avg # of iterations =  4.7

     negative rho (up, down):  7.923E-01 0.000E+00

     total cpu time spent up to now is      811.2 secs

     End of self-consistent calculation

          k = 0.0000 0.0000 0.0000 ( 65197 PWs)   bands (ev):

   -92.3365 -92.2814 -92.1904 -92.1416 -92.0824 -92.0427 -92.0256 -91.9035
   -55.6896 -55.6677 -55.5483 -55.5376 -55.5300 -55.5244 -55.4866 -55.4600
   -55.4438 -55.4417 -55.4324 -55.3911 -55.3726 -55.3343 -55.3163 -55.2819
   -55.2769 -55.2318 -55.2302 -55.2286 -55.2201 -55.1780 -55.1563 -55.0702
   -30.9239 -30.9046 -30.8327 -30.7637 -30.7093 -30.6770 -30.5981 -30.3319
   -29.4886 -29.4444 -29.4186 -29.3098 -22.2513 -14.7215 -14.6835 -14.5997
   -14.4689 -14.2857 -14.1620 -13.8631 -13.8461 -13.8138 -13.7784 -13.7708
   -13.7296 -13.7190 -13.7066 -13.6895 -13.6732 -13.6390 -13.5717 -13.4238
   -13.2526 -13.2135 -13.1802 -13.1546 -13.1348 -13.0902 -13.0503 -12.9707
   -12.8981 -12.8356 -12.8102 -12.7567 -12.7472 -12.7217 -12.7047 -12.6910
   -12.6609 -12.6410 -12.6253 -12.6138 -12.5998 -12.5737 -12.5633 -12.5464
   -12.5140 -12.4941 -12.4723 -12.3007 -12.2981 -12.2711 -11.9888 -11.8440
   -11.7043 -11.6314 -11.5019 -11.4276 -11.4162 -11.3938 -11.3759 -11.3121
   -11.2948 -11.2604 -11.2318 -11.1195 -11.0393 -11.0358  -5.8964  -3.1531
    -3.1517  -2.5820  -2.3484  -2.1190  -1.9732  -1.9087  -1.7659  -1.4599
    -1.4456  -1.4244  -1.3425  -1.3239  -1.2558  -1.2400  -1.1982  -1.1525
    -0.9723  -0.7498  -0.7207  -0.5699  -0.5562  -0.5127  -0.4944  -0.4506
    -0.4354  -0.3734  -0.3472  -0.2799  -0.2664  -0.1863  -0.0607  -0.0457
    -0.0163   0.0656   0.0695   0.0817   0.1519   0.2300   0.2539   0.3229
     0.3444   0.4001   0.4861   0.5392   0.5620   0.5684   0.8231   0.8368
     1.0068   1.0787   1.1402   1.1871   1.2770   1.2916   1.3090   1.3762
     1.4053   1.4398   1.4987   1.6340   1.6857   1.7082   1.7261   1.7341
     1.8040   1.8839   1.9751   1.9895   2.0454   2.0692   2.1059   2.1293
     2.1354   2.1902   2.2435   2.2510   2.2799   2.3215   2.3820   2.5118
     2.5890   2.6400   2.6561   2.8032   2.8184   2.8645   2.8757   2.9765
     3.0156   3.0387   3.0563   3.0615   3.0650   3.0789   3.1538   3.2652
     3.2984   3.3129   3.3198   3.3861   3.3898   3.4148   3.4238   3.4314
     3.4408   3.4496   3.4618   3.4678   3.4818   3.4911   3.4977   3.5185
     3.5396   3.5451   3.5563   3.5753   3.6972   3.7486   4.4234   4.7585
     4.7909   5.1418   5.3869   5.4734   5.6970   6.2792   6.3204   6.3566
     6.6267   6.6359   6.6764   6.7260   6.9565   7.1855   7.2074   7.3231
     7.5929   7.6518   7.7740   7.8810   7.9358   7.9702   7.9912   8.0455
     8.3132   8.3461   8.3874   8.4066   8.5438   8.5820   8.6602

     occupation numbers 
     1.0000   1.0000   1.0000   1.0000   1.0000   1.0000   1.0000   1.0000
     1.0000   1.0000   1.0000   1.0000   1.0000   1.0000   1.0000   1.0000
     1.0000   1.0000   1.0000   1.0000   1.0000   1.0000   1.0000   1.0000
     1.0000   1.0000   1.0000   1.0000   1.0000   1.0000   1.0000   1.0000
     1.0000   1.0000   1.0000   1.0000   1.0000   1.0000   1.0000   1.0000
     1.0000   1.0000   1.0000   1.0000   1.0000   1.0000   1.0000   1.0000
     1.0000   1.0000   1.0000   1.0000   1.0000   1.0000   1.0000   1.0000
     1.0000   1.0000   1.0000   1.0000   1.0000   1.0000   1.0000   1.0000
     1.0000   1.0000   1.0000   1.0000   1.0000   1.0000   1.0000   1.0000
     1.0000   1.0000   1.0000   1.0000   1.0000   1.0000   1.0000   1.0000
     1.0000   1.0000   1.0000   1.0000   1.0000   1.0000   1.0000   1.0000
     1.0000   1.0000   1.0000   1.0000   1.0000   1.0000   1.0000   1.0000
     1.0000   1.0000   1.0000   1.0000   1.0000   1.0000   1.0000   1.0000
     1.0000   1.0000   1.0000   1.0000   1.0000   1.0000   1.0000   1.0000
     1.0000   1.0000   1.0000   1.0000   1.0000   1.0000   1.0000   1.0000
     1.0000   1.0000   1.0000   1.0000   1.0000   1.0000   1.0000   1.0000
     1.0000   1.0000   1.0000   1.0000   1.0000   1.0000   1.0000   1.0000
     1.0000   1.0000   1.0000   1.0000   1.0000   1.0000   1.0000   1.0000
     1.0000   1.0000   1.0000   1.0000   1.0000   1.0000   1.0000   1.0000
     1.0000   1.0000   1.0000   1.0000   1.0000   1.0000   1.0000   1.0000
     1.0000   0.9999   0.9999   0.9999   0.9998   0.9998   0.9998   0.9997
     0.9997   0.9996   0.9994   0.9989   0.9985   0.9984   0.9982   0.9982
     0.9974   0.9963   0.9946   0.9942   0.9927   0.9919   0.9907   0.9898
     0.9895   0.9870   0.9841   0.9837   0.9819   0.9789   0.9739   0.9599
     0.9489   0.9405   0.9376   0.9060   0.9022   0.8898   0.8866   0.8553
     0.8416   0.8332   0.8266   0.8246   0.8232   0.8178   0.7870   0.7358
     0.7194   0.7121   0.7086   0.6740   0.6720   0.6585   0.6536   0.6494
     0.6442   0.6394   0.6325   0.6292   0.6213   0.6160   0.6123   0.6004
     0.5883   0.5851   0.5786   0.5675   0.4956   0.4652   0.1380   0.0563
     0.0510   0.0155   0.0059   0.0040   0.0014   0.0001   0.0000   0.0000
     0.0000   0.0000   0.0000   0.0000   0.0000   0.0000   0.0000   0.0000
     0.0000   0.0000   0.0000   0.0000   0.0000   0.0000   0.0000   0.0000
     0.0000   0.0000   0.0000   0.0000   0.0000   0.0000   0.0000

          k = 0.0000 0.2500 0.0000 ( 65257 PWs)   bands (ev):

   -92.3365 -92.2814 -92.1904 -92.1416 -92.0824 -92.0427 -92.0256 -91.9035
   -55.6896 -55.6677 -55.5483 -55.5376 -55.5300 -55.5244 -55.4866 -55.4600
   -55.4438 -55.4417 -55.4324 -55.3911 -55.3726 -55.3343 -55.3163 -55.2819
   -55.2769 -55.2318 -55.2302 -55.2286 -55.2201 -55.1780 -55.1563 -55.0702
   -30.9237 -30.9045 -30.8325 -30.7639 -30.7095 -30.6772 -30.5980 -30.3320
   -29.4880 -29.4441 -29.4192 -29.3102 -22.2513 -14.6847 -14.6572 -14.5746
   -14.4398 -14.3241 -14.1527 -14.0073 -13.8283 -13.7995 -13.7802 -13.7738
   -13.7482 -13.6913 -13.6850 -13.6687 -13.6551 -13.6218 -13.4916 -13.4549
   -13.2923 -13.2786 -13.2231 -13.1875 -13.1460 -13.1063 -13.0694 -12.9903
   -12.9577 -12.9288 -12.8676 -12.8062 -12.7932 -12.7544 -12.7380 -12.6718
   -12.6278 -12.6050 -12.5820 -12.5767 -12.5573 -12.5372 -12.5148 -12.5105
   -12.4444 -12.4431 -12.4073 -12.2773 -12.2276 -12.1702 -12.0501 -11.8952
   -11.7585 -11.6953 -11.4673 -11.4244 -11.3968 -11.3678 -11.3511 -11.3042
   -11.2928 -11.2704 -11.2368 -11.1336 -11.0810 -11.0704  -5.8964  -3.1533
    -3.1517  -2.4467  -2.2240  -2.0870  -1.9049  -1.8613  -1.6967  -1.4798
    -1.3922  -1.3792  -1.3234  -1.2207  -1.2057  -1.1706  -1.1456  -1.1021
    -0.9034  -0.7758  -0.7635  -0.6877  -0.6765  -0.5720  -0.5412  -0.4862
    -0.4619  -0.4176  -0.3560  -0.3312  -0.2969  -0.2684  -0.2504  -0.2172
    -0.1447  -0.0909  -0.0308   0.0780   0.0983   0.1400   0.2582   0.2922
     0.3543   0.4063   0.4699   0.4873   0.5159   0.5716   0.8698   0.9577
     0.9867   1.0764   1.1203   1.1392   1.2674   1.2861   1.3770   1.4027
     1.4344   1.5497   1.6347   1.6619   1.6855   1.7019   1.7322   1.7934
     1.8184   1.8452   1.8947   1.9246   1.9531   2.0301   2.0637   2.0996
     2.1565   2.2061   2.2374   2.2699   2.3062   2.3264   2.4155   2.5459
     2.6188   2.6399   2.7183   2.7614   2.7985   2.8057   2.8726   2.9153
     2.9941   3.0320   3.0475   3.0578   3.0673   3.2267   3.2480   3.2800
     3.3006   3.3191   3.3281   3.3357   3.3443   3.3741   3.3762   3.3938
     3.3968   3.4097   3.4254   3.4359   3.4467   3.4697   3.4800   3.4848
     3.5202   3.5367   3.5975   3.9472   3.9800   4.2388   4.6081   4.7513
     4.9076   5.0862   5.4151   5.5101   5.8266   5.9122   6.1634   6.3122
     6.3424   6.4595   6.5266   6.7462   6.9021   7.0297   7.2568   7.5387
     7.5545   7.7086   7.7950   7.8720   7.9089   7.9380   8.0812   8.2161
     8.2860   8.4195   8.5581   8.5819   8.6083   8.6875   8.9238

     occupation numbers 
     1.0000   1.0000   1.0000   1.0000   1.0000   1.0000   1.0000   1.0000
     1.0000   1.0000   1.0000   1.0000   1.0000   1.0000   1.0000   1.0000
     1.0000   1.0000   1.0000   1.0000   1.0000   1.0000   1.0000   1.0000
     1.0000   1.0000   1.0000   1.0000   1.0000   1.0000   1.0000   1.0000
     1.0000   1.0000   1.0000   1.0000   1.0000   1.0000   1.0000   1.0000
     1.0000   1.0000   1.0000   1.0000   1.0000   1.0000   1.0000   1.0000
     1.0000   1.0000   1.0000   1.0000   1.0000   1.0000   1.0000   1.0000
     1.0000   1.0000   1.0000   1.0000   1.0000   1.0000   1.0000   1.0000
     1.0000   1.0000   1.0000   1.0000   1.0000   1.0000   1.0000   1.0000
     1.0000   1.0000   1.0000   1.0000   1.0000   1.0000   1.0000   1.0000
     1.0000   1.0000   1.0000   1.0000   1.0000   1.0000   1.0000   1.0000
     1.0000   1.0000   1.0000   1.0000   1.0000   1.0000   1.0000   1.0000
     1.0000   1.0000   1.0000   1.0000   1.0000   1.0000   1.0000   1.0000
     1.0000   1.0000   1.0000   1.0000   1.0000   1.0000   1.0000   1.0000
     1.0000   1.0000   1.0000   1.0000   1.0000   1.0000   1.0000   1.0000
     1.0000   1.0000   1.0000   1.0000   1.0000   1.0000   1.0000   1.0000
     1.0000   1.0000   1.0000   1.0000   1.0000   1.0000   1.0000   1.0000
     1.0000   1.0000   1.0000   1.0000   1.0000   1.0000   1.0000   1.0000
     1.0000   1.0000   1.0000   1.0000   1.0000   1.0000   1.0000   1.0000
     1.0000   1.0000   1.0000   1.0000   1.0000   1.0000   1.0000   1.0000
     1.0000   0.9999   0.9999   0.9999   0.9998   0.9998   0.9997   0.9997
     0.9996   0.9993   0.9989   0.9987   0.9985   0.9984   0.9982   0.9976
     0.9973   0.9969   0.9962   0.9956   0.9950   0.9931   0.9921   0.9909
     0.9886   0.9862   0.9845   0.9825   0.9800   0.9785   0.9708   0.9553
     0.9441   0.9405   0.9254   0.9160   0.9072   0.9054   0.8875   0.8749
     0.8492   0.8357   0.8299   0.8260   0.8224   0.7542   0.7441   0.7286
     0.7183   0.7090   0.7044   0.7005   0.6960   0.6804   0.6793   0.6699
     0.6683   0.6613   0.6527   0.6469   0.6409   0.6281   0.6223   0.6196
     0.5994   0.5899   0.5545   0.3512   0.3333   0.2075   0.0863   0.0575
     0.0353   0.0191   0.0052   0.0034   0.0008   0.0005   0.0001   0.0000
     0.0000   0.0000   0.0000   0.0000   0.0000   0.0000   0.0000   0.0000
     0.0000   0.0000   0.0000   0.0000   0.0000   0.0000   0.0000   0.0000
     0.0000   0.0000   0.0000   0.0000   0.0000   0.0000   0.0000

          k = 0.0000-0.5000 0.0000 ( 65180 PWs)   bands (ev):

   -92.3365 -92.2814 -92.1904 -92.1416 -92.0824 -92.0427 -92.0256 -91.9035
   -55.6896 -55.6677 -55.5483 -55.5376 -55.5300 -55.5244 -55.4866 -55.4600
   -55.4438 -55.4417 -55.4324 -55.3911 -55.3726 -55.3343 -55.3163 -55.2819
   -55.2769 -55.2318 -55.2302 -55.2286 -55.2201 -55.1780 -55.1563 -55.0702
   -30.9235 -30.9044 -30.8322 -30.7641 -30.7098 -30.6773 -30.5979 -30.3322
   -29.4874 -29.4438 -29.4198 -29.3105 -22.2513 -14.6516 -14.6035 -14.5500
   -14.4286 -14.3375 -14.2033 -14.0521 -13.9356 -13.7980 -13.7776 -13.7393
   -13.6938 -13.6790 -13.6350 -13.6147 -13.5662 -13.5512 -13.5224 -13.4902
   -13.4751 -13.4219 -13.2250 -13.1683 -13.1551 -13.0985 -13.0865 -13.0031
   -12.9916 -12.9422 -12.9306 -12.8655 -12.8008 -12.7547 -12.7326 -12.7090
   -12.6137 -12.6036 -12.5764 -12.5741 -12.5371 -12.5286 -12.5169 -12.4160
   -12.3887 -12.3514 -12.2983 -12.2766 -12.1612 -12.1095 -11.9872 -11.9705
   -11.8525 -11.8065 -11.4213 -11.4191 -11.3918 -11.3533 -11.3194 -11.3085
   -11.2664 -11.2624 -11.2185 -11.1551 -11.1414 -11.1272  -5.8964  -3.1535
    -3.1517  -2.2321  -2.1724  -2.0208  -1.9485  -1.6689  -1.5853  -1.4564
    -1.3188  -1.2824  -1.2626  -1.1832  -1.1540  -1.0705  -1.0363  -0.9600
    -0.9185  -0.8792  -0.8528  -0.7955  -0.7592  -0.7140  -0.6778  -0.6423
    -0.6098  -0.4983  -0.4534  -0.4213  -0.4194  -0.3339  -0.3007  -0.2792
    -0.2308  -0.1459  -0.0785   0.0042   0.0309   0.1333   0.1783   0.3302
     0.3568   0.3887   0.4427   0.5578   0.6082   0.7523   0.8170   0.8247
     0.9531   0.9895   1.0970   1.2312   1.3381   1.3688   1.4034   1.4106
     1.4502   1.4688   1.5045   1.5188   1.5326   1.6403   1.6999   1.7289
     1.7543   2.0109   2.0448   2.0623   2.1542   2.1831   2.2134   2.2291
     2.2656   2.2733   2.2825   2.3167   2.3582   2.3866   2.4101   2.4265
     2.4544   2.5081   2.5881   2.6131   2.7965   2.9627   2.9714   2.9865
     3.0260   3.0313   3.0424   3.0548   3.0620   3.0942   3.1070   3.1608
     3.1816   3.2554   3.2711   3.3379   3.3462   3.3708   3.3719   3.3923
     3.3954   3.3994   3.4035   3.4067   3.4188   3.4400   3.4403   3.5058
     3.5106   3.5263   3.5807   4.4806   4.4860   4.5226   4.5919   4.9668
     5.1287   5.2299   5.3922   5.5208   5.6103   5.8233   5.9392   6.0105
     6.2066   6.3741   6.3972   6.4565   7.0117   7.0484   7.1436   7.4317
     7.5687   7.6241   7.7002   7.9948   8.0697   8.1594   8.2094   8.3260
     8.5283   8.5762   8.6550   8.7337   8.7628   8.8508   8.9571

     occupation numbers 
     1.0000   1.0000   1.0000   1.0000   1.0000   1.0000   1.0000   1.0000
     1.0000   1.0000   1.0000   1.0000   1.0000   1.0000   1.0000   1.0000
     1.0000   1.0000   1.0000   1.0000   1.0000   1.0000   1.0000   1.0000
     1.0000   1.0000   1.0000   1.0000   1.0000   1.0000   1.0000   1.0000
     1.0000   1.0000   1.0000   1.0000   1.0000   1.0000   1.0000   1.0000
     1.0000   1.0000   1.0000   1.0000   1.0000   1.0000   1.0000   1.0000
     1.0000   1.0000   1.0000   1.0000   1.0000   1.0000   1.0000   1.0000
     1.0000   1.0000   1.0000   1.0000   1.0000   1.0000   1.0000   1.0000
     1.0000   1.0000   1.0000   1.0000   1.0000   1.0000   1.0000   1.0000
     1.0000   1.0000   1.0000   1.0000   1.0000   1.0000   1.0000   1.0000
     1.0000   1.0000   1.0000   1.0000   1.0000   1.0000   1.0000   1.0000
     1.0000   1.0000   1.0000   1.0000   1.0000   1.0000   1.0000   1.0000
     1.0000   1.0000   1.0000   1.0000   1.0000   1.0000   1.0000   1.0000
     1.0000   1.0000   1.0000   1.0000   1.0000   1.0000   1.0000   1.0000
     1.0000   1.0000   1.0000   1.0000   1.0000   1.0000   1.0000   1.0000
     1.0000   1.0000   1.0000   1.0000   1.0000   1.0000   1.0000   1.0000
     1.0000   1.0000   1.0000   1.0000   1.0000   1.0000   1.0000   1.0000
     1.0000   1.0000   1.0000   1.0000   1.0000   1.0000   1.0000   1.0000
     1.0000   1.0000   1.0000   1.0000   1.0000   1.0000   1.0000   1.0000
     1.0000   1.0000   1.0000   1.0000   1.0000   1.0000   1.0000   1.0000
     1.0000   1.0000   0.9999   0.9999   0.9998   0.9997   0.9997   0.9996
     0.9996   0.9995   0.9994   0.9994   0.9993   0.9988   0.9984   0.9982
     0.9980   0.9937   0.9927   0.9922   0.9887   0.9874   0.9858   0.9850
     0.9828   0.9823   0.9817   0.9793   0.9760   0.9735   0.9713   0.9697
     0.9667   0.9603   0.9491   0.9451   0.9077   0.8599   0.8570   0.8518
     0.8378   0.8359   0.8318   0.8271   0.8244   0.8118   0.8066   0.7839
     0.7748   0.7405   0.7330   0.6993   0.6950   0.6822   0.6816   0.6707
     0.6690   0.6668   0.6646   0.6629   0.6563   0.6447   0.6445   0.6077
     0.6049   0.5959   0.5644   0.1201   0.1185   0.1081   0.0902   0.0290
     0.0163   0.0111   0.0057   0.0033   0.0022   0.0008   0.0004   0.0003
     0.0001   0.0000   0.0000   0.0000   0.0000   0.0000   0.0000   0.0000
     0.0000   0.0000   0.0000   0.0000   0.0000   0.0000   0.0000   0.0000
     0.0000   0.0000   0.0000   0.0000   0.0000   0.0000   0.0000

          k = 0.2500 0.2500 0.0000 ( 65198 PWs)   bands (ev):

   -92.3365 -92.2814 -92.1904 -92.1416 -92.0824 -92.0427 -92.0256 -91.9035
   -55.6896 -55.6677 -55.5483 -55.5376 -55.5300 -55.5244 -55.4866 -55.4600
   -55.4438 -55.4417 -55.4324 -55.3911 -55.3726 -55.3343 -55.3163 -55.2819
   -55.2769 -55.2318 -55.2302 -55.2286 -55.2201 -55.1780 -55.1563 -55.0702
   -30.9220 -30.9062 -30.8323 -30.7635 -30.7094 -30.6776 -30.5982 -30.3321
   -29.4870 -29.4451 -29.4188 -29.3106 -22.2513 -14.6565 -14.6214 -14.5468
   -14.4297 -14.3160 -14.1912 -14.1130 -13.9144 -13.7778 -13.7517 -13.7410
   -13.7071 -13.6763 -13.6544 -13.6280 -13.6023 -13.5830 -13.4843 -13.4692
   -13.3086 -13.2961 -13.2637 -13.2451 -13.2070 -13.1572 -13.1209 -13.0721
   -12.9870 -12.9479 -12.8772 -12.7944 -12.7717 -12.7451 -12.6977 -12.6711
   -12.6636 -12.6170 -12.5944 -12.5872 -12.5525 -12.5215 -12.5101 -12.4651
   -12.3903 -12.3773 -12.3603 -12.2783 -12.1987 -12.0987 -12.0576 -11.9245
   -11.7832 -11.7467 -11.4396 -11.4076 -11.3971 -11.3900 -11.3273 -11.2920
   -11.2856 -11.2505 -11.2430 -11.1502 -11.1091 -11.0918  -5.8964  -3.1533
    -3.1518  -2.3087  -2.0984  -1.9812  -1.8878  -1.7654  -1.7000  -1.5047
    -1.3575  -1.3374  -1.3101  -1.2156  -1.1806  -1.0883  -1.0607  -1.0114
    -0.8788  -0.8310  -0.7596  -0.7141  -0.6700  -0.6456  -0.6203  -0.5789
    -0.5627  -0.4731  -0.4235  -0.3609  -0.3117  -0.2824  -0.2285  -0.2188
    -0.1551  -0.1046  -0.0506  -0.0137   0.0685   0.1211   0.1505   0.1922
     0.2457   0.3069   0.3537   0.3800   0.4486   0.4930   0.7635   0.9086
     0.9482   0.9968   1.0424   1.0988   1.1571   1.2116   1.2508   1.5246
     1.5963   1.6707   1.6962   1.7398   1.7758   1.8110   1.8474   1.8655
     1.8936   1.9312   1.9421   1.9607   2.0012   2.0425   2.0823   2.1258
     2.1642   2.1781   2.2066   2.2472   2.2974   2.3281   2.4576   2.5258
     2.5662   2.5960   2.6550   2.7214   2.7525   2.7901   2.8119   2.8255
     2.9375   2.9746   3.0508   3.0610   3.0720   3.2373   3.2547   3.2611
     3.2770   3.2902   3.3038   3.3164   3.3245   3.3342   3.3476   3.3590
     3.3793   3.3858   3.3963   3.4164   3.4309   3.4407   3.4714   3.7734
     3.8645   3.9010   3.9645   3.9839   4.2095   4.3150   4.6432   4.8025
     4.9823   5.1386   5.3281   5.5503   5.9375   5.9530   5.9893   6.1222
     6.2017   6.2539   6.3519   6.4194   6.8995   7.0130   7.0929   7.1995
     7.7081   7.7758   7.8761   7.9086   8.0283   8.1366   8.2079   8.3059
     8.3484   8.4472   8.5888   8.6971   8.7295   8.7574   8.8456

     occupation numbers 
     1.0000   1.0000   1.0000   1.0000   1.0000   1.0000   1.0000   1.0000
     1.0000   1.0000   1.0000   1.0000   1.0000   1.0000   1.0000   1.0000
     1.0000   1.0000   1.0000   1.0000   1.0000   1.0000   1.0000   1.0000
     1.0000   1.0000   1.0000   1.0000   1.0000   1.0000   1.0000   1.0000
     1.0000   1.0000   1.0000   1.0000   1.0000   1.0000   1.0000   1.0000
     1.0000   1.0000   1.0000   1.0000   1.0000   1.0000   1.0000   1.0000
     1.0000   1.0000   1.0000   1.0000   1.0000   1.0000   1.0000   1.0000
     1.0000   1.0000   1.0000   1.0000   1.0000   1.0000   1.0000   1.0000
     1.0000   1.0000   1.0000   1.0000   1.0000   1.0000   1.0000   1.0000
     1.0000   1.0000   1.0000   1.0000   1.0000   1.0000   1.0000   1.0000
     1.0000   1.0000   1.0000   1.0000   1.0000   1.0000   1.0000   1.0000
     1.0000   1.0000   1.0000   1.0000   1.0000   1.0000   1.0000   1.0000
     1.0000   1.0000   1.0000   1.0000   1.0000   1.0000   1.0000   1.0000
     1.0000   1.0000   1.0000   1.0000   1.0000   1.0000   1.0000   1.0000
     1.0000   1.0000   1.0000   1.0000   1.0000   1.0000   1.0000   1.0000
     1.0000   1.0000   1.0000   1.0000   1.0000   1.0000   1.0000   1.0000
     1.0000   1.0000   1.0000   1.0000   1.0000   1.0000   1.0000   1.0000
     1.0000   1.0000   1.0000   1.0000   1.0000   1.0000   1.0000   1.0000
     1.0000   1.0000   1.0000   1.0000   1.0000   1.0000   1.0000   1.0000
     1.0000   1.0000   1.0000   1.0000   1.0000   1.0000   1.0000   1.0000
     1.0000   1.0000   1.0000   0.9999   0.9999   0.9999   0.9999   0.9993
     0.9991   0.9986   0.9985   0.9981   0.9978   0.9974   0.9969   0.9966
     0.9962   0.9955   0.9953   0.9949   0.9939   0.9928   0.9915   0.9899
     0.9883   0.9876   0.9862   0.9839   0.9807   0.9784   0.9663   0.9580
     0.9524   0.9478   0.9378   0.9248   0.9180   0.9092   0.9038   0.9003
     0.8680   0.8559   0.8287   0.8248   0.8205   0.7492   0.7409   0.7378
     0.7301   0.7235   0.7168   0.7104   0.7062   0.7013   0.6943   0.6884
     0.6777   0.6742   0.6685   0.6576   0.6497   0.6443   0.6271   0.4506
     0.3977   0.3769   0.3417   0.3311   0.2201   0.1766   0.0784   0.0492
     0.0275   0.0157   0.0075   0.0029   0.0004   0.0004   0.0003   0.0002
     0.0001   0.0001   0.0000   0.0000   0.0000   0.0000   0.0000   0.0000
     0.0000   0.0000   0.0000   0.0000   0.0000   0.0000   0.0000   0.0000
     0.0000   0.0000   0.0000   0.0000   0.0000   0.0000   0.0000

          k = 0.2500-0.5000 0.0000 ( 65138 PWs)   bands (ev):

   -92.3365 -92.2814 -92.1904 -92.1416 -92.0824 -92.0427 -92.0256 -91.9035
   -55.6896 -55.6677 -55.5483 -55.5376 -55.5300 -55.5244 -55.4866 -55.4600
   -55.4438 -55.4417 -55.4324 -55.3911 -55.3726 -55.3343 -55.3163 -55.2819
   -55.2769 -55.2318 -55.2302 -55.2286 -55.2201 -55.1780 -55.1563 -55.0702
   -30.9218 -30.9061 -30.8321 -30.7637 -30.7097 -30.6777 -30.5981 -30.3323
   -29.4864 -29.4448 -29.4194 -29.3109 -22.2513 -14.6209 -14.5765 -14.5068
   -14.3979 -14.3618 -14.2427 -14.1556 -14.0304 -13.7773 -13.7157 -13.6696
   -13.6395 -13.6187 -13.6028 -13.5856 -13.5517 -13.5390 -13.5050 -13.4647
   -13.4534 -13.4166 -13.3087 -13.2610 -13.2247 -13.1811 -13.1443 -13.1126
   -13.0440 -13.0016 -12.8531 -12.7896 -12.7816 -12.7386 -12.6801 -12.6765
   -12.6349 -12.6142 -12.5897 -12.5692 -12.5586 -12.5246 -12.5112 -12.4419
   -12.4201 -12.3032 -12.2826 -12.2673 -12.1679 -12.0821 -11.9683 -11.9565
   -11.8433 -11.8129 -11.4152 -11.4033 -11.3921 -11.3649 -11.3337 -11.3048
   -11.2644 -11.2358 -11.2143 -11.1682 -11.1426 -11.1314  -5.8964  -3.1535
    -3.1518  -2.0907  -2.0246  -1.8948  -1.8175  -1.6896  -1.6053  -1.4810
    -1.3303  -1.2769  -1.2551  -1.1922  -1.1787  -1.0812  -1.0154  -0.9296
    -0.8819  -0.8724  -0.8074  -0.7662  -0.7313  -0.6844  -0.6480  -0.6127
    -0.5716  -0.5607  -0.5158  -0.4877  -0.4466  -0.4158  -0.3478  -0.2475
    -0.2085  -0.1314  -0.0676  -0.0197   0.0247   0.0466   0.0938   0.2565
     0.2648   0.3693   0.4104   0.4188   0.4666   0.4908   0.5316   0.5593
     0.6344   0.8917   0.9834   1.0608   1.1232   1.3814   1.4067   1.4957
     1.5241   1.6932   1.7245   1.7684   1.7915   1.8098   1.8294   1.8896
     1.9337   1.9712   2.0485   2.1274   2.1695   2.1928   2.2059   2.2388
     2.2541   2.2621   2.3030   2.3190   2.3352   2.3711   2.3897   2.4175
     2.4480   2.5063   2.5435   2.6196   2.7638   2.9162   2.9316   2.9497
     2.9757   3.0005   3.0285   3.0476   3.0542   3.0637   3.0688   3.0937
     3.1875   3.2344   3.2564   3.2585   3.2738   3.2947   3.3087   3.3272
     3.3343   3.3645   3.3771   3.3931   3.4016   3.4102   3.4210   3.9360
     3.9446   4.1044   4.1527   4.4851   4.5315   4.5372   4.6592   5.0296
     5.1595   5.2634   5.4219   5.4997   5.6203   5.6956   5.8862   5.9225
     6.0801   6.1352   6.2761   6.5117   6.5616   6.6648   7.0995   7.2637
     7.5502   7.6912   7.9646   8.0757   8.1626   8.2011   8.3271   8.3839
     8.5188   8.5868   8.7171   8.8288   8.8399   8.9238   8.9425

     occupation numbers 
     1.0000   1.0000   1.0000   1.0000   1.0000   1.0000   1.0000   1.0000
     1.0000   1.0000   1.0000   1.0000   1.0000   1.0000   1.0000   1.0000
     1.0000   1.0000   1.0000   1.0000   1.0000   1.0000   1.0000   1.0000
     1.0000   1.0000   1.0000   1.0000   1.0000   1.0000   1.0000   1.0000
     1.0000   1.0000   1.0000   1.0000   1.0000   1.0000   1.0000   1.0000
     1.0000   1.0000   1.0000   1.0000   1.0000   1.0000   1.0000   1.0000
     1.0000   1.0000   1.0000   1.0000   1.0000   1.0000   1.0000   1.0000
     1.0000   1.0000   1.0000   1.0000   1.0000   1.0000   1.0000   1.0000
     1.0000   1.0000   1.0000   1.0000   1.0000   1.0000   1.0000   1.0000
     1.0000   1.0000   1.0000   1.0000   1.0000   1.0000   1.0000   1.0000
     1.0000   1.0000   1.0000   1.0000   1.0000   1.0000   1.0000   1.0000
     1.0000   1.0000   1.0000   1.0000   1.0000   1.0000   1.0000   1.0000
     1.0000   1.0000   1.0000   1.0000   1.0000   1.0000   1.0000   1.0000
     1.0000   1.0000   1.0000   1.0000   1.0000   1.0000   1.0000   1.0000
     1.0000   1.0000   1.0000   1.0000   1.0000   1.0000   1.0000   1.0000
     1.0000   1.0000   1.0000   1.0000   1.0000   1.0000   1.0000   1.0000
     1.0000   1.0000   1.0000   1.0000   1.0000   1.0000   1.0000   1.0000
     1.0000   1.0000   1.0000   1.0000   1.0000   1.0000   1.0000   1.0000
     1.0000   1.0000   1.0000   1.0000   1.0000   1.0000   1.0000   1.0000
     1.0000   1.0000   1.0000   1.0000   1.0000   1.0000   1.0000   1.0000
     1.0000   1.0000   1.0000   1.0000   0.9999   0.9997   0.9997   0.9994
     0.9993   0.9985   0.9982   0.9978   0.9976   0.9974   0.9971   0.9962
     0.9954   0.9946   0.9926   0.9898   0.9880   0.9869   0.9862   0.9844
     0.9835   0.9830   0.9803   0.9791   0.9779   0.9749   0.9732   0.9706
     0.9674   0.9606   0.9556   0.9440   0.9154   0.8747   0.8699   0.8641
     0.8555   0.8470   0.8370   0.8299   0.8274   0.8237   0.8218   0.8120
     0.7721   0.7505   0.7400   0.7391   0.7316   0.7213   0.7143   0.7048
     0.7012   0.6855   0.6788   0.6702   0.6656   0.6610   0.6551   0.3573
     0.3526   0.2691   0.2459   0.1188   0.1057   0.1041   0.0750   0.0233
     0.0145   0.0097   0.0051   0.0036   0.0021   0.0014   0.0006   0.0005
     0.0002   0.0001   0.0001   0.0000   0.0000   0.0000   0.0000   0.0000
     0.0000   0.0000   0.0000   0.0000   0.0000   0.0000   0.0000   0.0000
     0.0000   0.0000   0.0000   0.0000   0.0000   0.0000   0.0000

          k =-0.5000-0.5000 0.0000 ( 65132 PWs)   bands (ev):

   -92.3365 -92.2814 -92.1904 -92.1416 -92.0824 -92.0427 -92.0256 -91.9035
   -55.6896 -55.6677 -55.5483 -55.5376 -55.5300 -55.5243 -55.4866 -55.4600
   -55.4438 -55.4417 -55.4324 -55.3911 -55.3726 -55.3343 -55.3163 -55.2819
   -55.2769 -55.2318 -55.2302 -55.2286 -55.2201 -55.1780 -55.1563 -55.0702
   -30.9196 -30.9083 -30.8320 -30.7633 -30.7096 -30.6781 -30.5982 -30.3323
   -29.4854 -29.4458 -29.4190 -29.3113 -22.2513 -14.5742 -14.5490 -14.4326
   -14.4193 -14.3284 -14.2883 -14.2631 -14.1285 -13.7772 -13.6283 -13.6188
   -13.5803 -13.5654 -13.5461 -13.5327 -13.5021 -13.4927 -13.4797 -13.4747
   -13.4593 -13.3788 -13.3718 -13.3518 -13.3197 -13.3087 -13.2218 -13.2064
   -13.0922 -13.0508 -12.8049 -12.7767 -12.7124 -12.6980 -12.6721 -12.6531
   -12.6309 -12.6245 -12.6172 -12.5999 -12.5411 -12.5276 -12.4979 -12.4792
   -12.4471 -12.2898 -12.2505 -12.2427 -12.1844 -12.0573 -11.9647 -11.9257
   -11.8309 -11.8245 -11.4111 -11.3996 -11.3819 -11.3646 -11.3305 -11.3122
   -11.2773 -11.2157 -11.1963 -11.1906 -11.1405 -11.1374  -5.8964  -3.1534
    -3.1520  -1.8674  -1.7914  -1.7819  -1.7072  -1.6691  -1.5910  -1.5232
    -1.3976  -1.2804  -1.2509  -1.2114  -1.1536  -1.0825  -1.0680  -0.9971
    -0.9544  -0.8390  -0.8110  -0.7632  -0.7304  -0.6664  -0.6228  -0.6038
    -0.5925  -0.5398  -0.4916  -0.4803  -0.3655  -0.3079  -0.2599  -0.2127
    -0.1883  -0.1760  -0.1398  -0.1002  -0.0658  -0.0522   0.0348   0.0984
     0.1503   0.1698   0.2465   0.2955   0.3076   0.3670   0.3883   0.4054
     0.4206   0.8587   0.8983   1.0024   1.0378   1.4143   1.4273   1.4593
     1.4994   1.7759   1.7948   1.8022   1.8406   1.9751   2.0708   2.0964
     2.1313   2.1418   2.1695   2.1809   2.2117   2.2183   2.2274   2.2418
     2.3041   2.3066   2.3333   2.3376   2.3654   2.3730   2.4140   2.4456
     2.4553   2.4912   2.5165   2.5892   2.6565   2.9264   2.9604   2.9766
     2.9991   3.0044   3.0334   3.0395   3.0485   3.0594   3.0722   3.0801
     3.0909   3.1117   3.1248   3.1884   3.1916   3.2140   3.2271   3.2370
     3.2564   3.2624   3.2713   3.3727   3.3769   3.4057   3.4157   4.3650
     4.3791   4.4017   4.4105   4.6817   4.7525   4.7813   5.0210   5.1428
     5.1641   5.2281   5.3459   5.4004   5.4705   5.5652   5.5947   5.7263
     5.9899   6.0149   6.1213   6.2813   6.4986   6.7045   6.7363   7.2646
     7.5320   7.5473   7.6423   8.2831   8.3054   8.3809   8.4554   8.5518
     8.6391   8.7682   8.8914   8.9217   8.9453   8.9689   8.9937

     occupation numbers 
     1.0000   1.0000   1.0000   1.0000   1.0000   1.0000   1.0000   1.0000
     1.0000   1.0000   1.0000   1.0000   1.0000   1.0000   1.0000   1.0000
     1.0000   1.0000   1.0000   1.0000   1.0000   1.0000   1.0000   1.0000
     1.0000   1.0000   1.0000   1.0000   1.0000   1.0000   1.0000   1.0000
     1.0000   1.0000   1.0000   1.0000   1.0000   1.0000   1.0000   1.0000
     1.0000   1.0000   1.0000   1.0000   1.0000   1.0000   1.0000   1.0000
     1.0000   1.0000   1.0000   1.0000   1.0000   1.0000   1.0000   1.0000
     1.0000   1.0000   1.0000   1.0000   1.0000   1.0000   1.0000   1.0000
     1.0000   1.0000   1.0000   1.0000   1.0000   1.0000   1.0000   1.0000
     1.0000   1.0000   1.0000   1.0000   1.0000   1.0000   1.0000   1.0000
     1.0000   1.0000   1.0000   1.0000   1.0000   1.0000   1.0000   1.0000
     1.0000   1.0000   1.0000   1.0000   1.0000   1.0000   1.0000   1.0000
     1.0000   1.0000   1.0000   1.0000   1.0000   1.0000   1.0000   1.0000
     1.0000   1.0000   1.0000   1.0000   1.0000   1.0000   1.0000   1.0000
     1.0000   1.0000   1.0000   1.0000   1.0000   1.0000   1.0000   1.0000
[...]
     0.0000   0.0000   0.0000   0.0000   0.0000   0.0000   0.0000   0.0000
     0.0000   0.0000   0.0000   0.0000   0.0000   0.0000   0.0000

          k =-0.5000 0.0000 0.0000 ( 65180 PWs)   bands (ev):

   -92.3365 -92.2814 -92.1904 -92.1416 -92.0824 -92.0427 -92.0256 -91.9035
   -55.6896 -55.6677 -55.5483 -55.5376 -55.5300 -55.5243 -55.4866 -55.4600
   -55.4438 -55.4417 -55.4324 -55.3911 -55.3726 -55.3343 -55.3163 -55.2819
   -55.2769 -55.2318 -55.2302 -55.2286 -55.2201 -55.1780 -55.1563 -55.0702
   -30.9200 -30.9086 -30.8325 -30.7629 -30.7091 -30.6778 -30.5984 -30.3321
   -29.4866 -29.4464 -29.4178 -29.3107 -22.2513 -14.6559 -14.6057 -14.5443
   -14.4411 -14.3305 -14.1873 -14.0461 -13.9126 -13.7819 -13.7733 -13.7687
   -13.7484 -13.7001 -13.6371 -13.6031 -13.5580 -13.5550 -13.5387 -13.4825
   -13.4792 -13.3804 -13.1965 -13.1788 -13.1374 -13.1289 -13.1009 -13.0078
   -12.9840 -12.9156 -12.8964 -12.8921 -12.8076 -12.7006 -12.7001 -12.6890
   -12.6739 -12.6578 -12.6092 -12.5973 -12.5865 -12.5630 -12.5010 -12.3557
   -12.3368 -12.2865 -12.2815 -12.2743 -12.1872 -12.1457 -12.0235 -11.9745
   -11.8393 -11.7977 -11.4187 -11.3974 -11.3906 -11.3751 -11.3574 -11.3164
   -11.2529 -11.2358 -11.2038 -11.1575 -11.1483 -11.1326  -5.8964  -3.1531
    -3.1520  -2.2220  -2.1832  -2.0182  -1.9795  -1.6678  -1.5925  -1.4426
    -1.3252  -1.2868  -1.2406  -1.1922  -1.1666  -1.0453  -0.9997  -0.9859
    -0.9024  -0.8677  -0.8534  -0.8201  -0.7652  -0.6951  -0.6647  -0.6388
    -0.5456  -0.4947  -0.4462  -0.4144  -0.3924  -0.3638  -0.3153  -0.2906
    -0.2535  -0.1581  -0.0845  -0.0229   0.0403   0.1930   0.2409   0.3024
     0.3249   0.3805   0.4123   0.5392   0.5788   0.6258   0.8000   0.8980
     0.9436   1.0198   1.0789   1.2161   1.2284   1.3556   1.3865   1.4406
     1.4660   1.5047   1.5180   1.5618   1.5900   1.6518   1.6995   1.7475
     1.7557   2.0498   2.0540   2.0682   2.0878   2.2078   2.2187   2.2229
     2.2418   2.2743   2.2868   2.3223   2.3523   2.3695   2.4377   2.4412
     2.4998   2.5141   2.5782   2.6850   2.7777   2.8593   2.8742   2.9550
     2.9889   3.0154   3.0507   3.0638   3.0827   3.0956   3.1000   3.1288
     3.1972   3.2406   3.2847   3.3143   3.3609   3.3646   3.3661   3.3782
     3.3928   3.4047   3.4193   3.4229   3.4438   3.4497   3.4705   3.4916
     3.4960   3.6228   3.6294   4.4289   4.4650   4.5281   4.6509   4.9969
     5.1337   5.2452   5.3062   5.4368   5.7153   5.8685   5.9453   5.9848
     6.1703   6.3717   6.3855   6.4613   6.9714   7.0701   7.1711   7.4521
     7.4960   7.6762   7.7244   7.9596   8.0924   8.1315   8.1922   8.3546
     8.5475   8.6063   8.6544   8.7216   8.7748   8.8637   8.9495

     occupation numbers 
     1.0000   1.0000   1.0000   1.0000   1.0000   1.0000   1.0000   1.0000
     1.0000   1.0000   1.0000   1.0000   1.0000   1.0000   1.0000   1.0000
     1.0000   1.0000   1.0000   1.0000   1.0000   1.0000   1.0000   1.0000
     1.0000   1.0000   1.0000   1.0000   1.0000   1.0000   1.0000   1.0000
     1.0000   1.0000   1.0000   1.0000   1.0000   1.0000   1.0000   1.0000
     1.0000   1.0000   1.0000   1.0000   1.0000   1.0000   1.0000   1.0000
     1.0000   1.0000   1.0000   1.0000   1.0000   1.0000   1.0000   1.0000
     1.0000   1.0000   1.0000   1.0000   1.0000   1.0000   1.0000   1.0000
     1.0000   1.0000   1.0000   1.0000   1.0000   1.0000   1.0000   1.0000
     1.0000   1.0000   1.0000   1.0000   1.0000   1.0000   1.0000   1.0000
     1.0000   1.0000   1.0000   1.0000   1.0000   1.0000   1.0000   1.0000
     1.0000   1.0000   1.0000   1.0000   1.0000   1.0000   1.0000   1.0000
     1.0000   1.0000   1.0000   1.0000   1.0000   1.0000   1.0000   1.0000
     1.0000   1.0000   1.0000   1.0000   1.0000   1.0000   1.0000   1.0000
     1.0000   1.0000   1.0000   1.0000   1.0000   1.0000   1.0000   1.0000
     1.0000   1.0000   1.0000   1.0000   1.0000   1.0000   1.0000   1.0000
     1.0000   1.0000   1.0000   1.0000   1.0000   1.0000   1.0000   1.0000
     1.0000   1.0000   1.0000   1.0000   1.0000   1.0000   1.0000   1.0000
     1.0000   1.0000   1.0000   1.0000   1.0000   1.0000   1.0000   1.0000
     1.0000   1.0000   1.0000   1.0000   1.0000   1.0000   1.0000   1.0000
     1.0000   1.0000   0.9999   0.9999   0.9999   0.9997   0.9997   0.9996
     0.9995   0.9994   0.9994   0.9992   0.9991   0.9988   0.9984   0.9980
     0.9980   0.9926   0.9924   0.9920   0.9913   0.9861   0.9855   0.9853
     0.9842   0.9822   0.9814   0.9789   0.9765   0.9750   0.9685   0.9681
     0.9614   0.9596   0.9506   0.9322   0.9122   0.8913   0.8871   0.8624
     0.8510   0.8417   0.8287   0.8237   0.8163   0.8112   0.8094   0.7976
     0.7678   0.7476   0.7262   0.7114   0.6874   0.6854   0.6846   0.6782
     0.6704   0.6640   0.6561   0.6541   0.6426   0.6393   0.6277   0.6157
     0.6133   0.5397   0.5358   0.1362   0.1248   0.1066   0.0768   0.0261
     0.0160   0.0105   0.0082   0.0047   0.0013   0.0006   0.0004   0.0003
     0.0001   0.0000   0.0000   0.0000   0.0000   0.0000   0.0000   0.0000
     0.0000   0.0000   0.0000   0.0000   0.0000   0.0000   0.0000   0.0000
     0.0000   0.0000   0.0000   0.0000   0.0000   0.0000   0.0000

          k =-0.2500 0.2500 0.0000 ( 65198 PWs)   bands (ev):

   -92.3365 -92.2814 -92.1904 -92.1416 -92.0824 -92.0427 -92.0256 -91.9035
   -55.6896 -55.6677 -55.5483 -55.5376 -55.5300 -55.5244 -55.4866 -55.4600
   -55.4438 -55.4417 -55.4324 -55.3911 -55.3726 -55.3343 -55.3163 -55.2819
   -55.2769 -55.2318 -55.2302 -55.2286 -55.2201 -55.1780 -55.1563 -55.0702
   -30.9220 -30.9062 -30.8323 -30.7635 -30.7094 -30.6776 -30.5982 -30.3321
   -29.4870 -29.4451 -29.4188 -29.3106 -22.2513 -14.6579 -14.6202 -14.5456
   -14.4274 -14.3224 -14.1961 -14.1047 -13.9052 -13.7779 -13.7596 -13.7297
   -13.7196 -13.6713 -13.6465 -13.6304 -13.6201 -13.5845 -13.4805 -13.4698
   -13.3176 -13.2914 -13.2629 -13.2417 -13.2081 -13.1423 -13.1112 -13.0818
   -12.9964 -12.9523 -12.8707 -12.7956 -12.7687 -12.7422 -12.6891 -12.6683
   -12.6460 -12.6217 -12.6108 -12.5831 -12.5731 -12.5385 -12.5220 -12.4589
   -12.4167 -12.3492 -12.3383 -12.2770 -12.1547 -12.1092 -12.0884 -11.9302
   -11.7949 -11.7313 -11.4389 -11.4173 -11.3898 -11.3777 -11.3370 -11.3017
   -11.2791 -11.2576 -11.2352 -11.1500 -11.1045 -11.0951  -5.8964  -3.1533
    -3.1519  -2.3070  -2.0973  -1.9770  -1.8896  -1.7695  -1.7026  -1.5023
    -1.3542  -1.3351  -1.3080  -1.2161  -1.1794  -1.0879  -1.0549  -1.0285
    -0.8844  -0.8297  -0.7621  -0.7328  -0.6739  -0.6512  -0.6106  -0.5816
    -0.5417  -0.4797  -0.4328  -0.3723  -0.3030  -0.2787  -0.2246  -0.1968
    -0.1519  -0.0951  -0.0532  -0.0087   0.0870   0.1239   0.1292   0.1794
     0.2431   0.3069   0.3562   0.3841   0.4518   0.4910   0.7456   0.9099
     0.9558   0.9900   1.0472   1.0990   1.1588   1.2200   1.2474   1.5315
     1.6475   1.6863   1.7176   1.7262   1.7688   1.7858   1.8298   1.8599
     1.8769   1.9029   1.9415   1.9548   2.0025   2.0179   2.0622   2.1355
     2.1571   2.1784   2.2121   2.2433   2.2806   2.3324   2.4469   2.5549
     2.5923   2.6363   2.6560   2.7209   2.7647   2.7916   2.8124   2.8362
     2.9395   2.9734   3.0524   3.0589   3.0712   3.2440   3.2524   3.2661
     3.2766   3.2871   3.3003   3.3066   3.3241   3.3324   3.3487   3.3581
     3.3709   3.3804   3.3870   3.4185   3.4300   3.4399   3.4733   3.7665
     3.8474   3.9038   3.9681   3.9927   4.1938   4.3235   4.6412   4.8041
     4.9768   5.1429   5.3383   5.5520   5.9276   5.9362   6.0118   6.1316
     6.1994   6.2474   6.3573   6.4178   6.9319   6.9672   7.0808   7.2176
     7.7057   7.8235   7.8649   7.9134   7.9828   8.1487   8.1959   8.3297
     8.3782   8.4305   8.4891   8.7069   8.7227   8.8037   8.9115

     occupation numbers 
     1.0000   1.0000   1.0000   1.0000   1.0000   1.0000   1.0000   1.0000
     1.0000   1.0000   1.0000   1.0000   1.0000   1.0000   1.0000   1.0000
     1.0000   1.0000   1.0000   1.0000   1.0000   1.0000   1.0000   1.0000
     1.0000   1.0000   1.0000   1.0000   1.0000   1.0000   1.0000   1.0000
     1.0000   1.0000   1.0000   1.0000   1.0000   1.0000   1.0000   1.0000
     1.0000   1.0000   1.0000   1.0000   1.0000   1.0000   1.0000   1.0000
     1.0000   1.0000   1.0000   1.0000   1.0000   1.0000   1.0000   1.0000
     1.0000   1.0000   1.0000   1.0000   1.0000   1.0000   1.0000   1.0000
     1.0000   1.0000   1.0000   1.0000   1.0000   1.0000   1.0000   1.0000
     1.0000   1.0000   1.0000   1.0000   1.0000   1.0000   1.0000   1.0000
     1.0000   1.0000   1.0000   1.0000   1.0000   1.0000   1.0000   1.0000
     1.0000   1.0000   1.0000   1.0000   1.0000   1.0000   1.0000   1.0000
     1.0000   1.0000   1.0000   1.0000   1.0000   1.0000   1.0000   1.0000
     1.0000   1.0000   1.0000   1.0000   1.0000   1.0000   1.0000   1.0000
     1.0000   1.0000   1.0000   1.0000   1.0000   1.0000   1.0000   1.0000
     1.0000   1.0000   1.0000   1.0000   1.0000   1.0000   1.0000   1.0000
     1.0000   1.0000   1.0000   1.0000   1.0000   1.0000   1.0000   1.0000
     1.0000   1.0000   1.0000   1.0000   1.0000   1.0000   1.0000   1.0000
     1.0000   1.0000   1.0000   1.0000   1.0000   1.0000   1.0000   1.0000
     1.0000   1.0000   1.0000   1.0000   1.0000   1.0000   1.0000   1.0000
     1.0000   1.0000   1.0000   0.9999   0.9999   0.9999   0.9999   0.9993
     0.9988   0.9985   0.9983   0.9982   0.9978   0.9977   0.9971   0.9967
     0.9964   0.9960   0.9953   0.9950   0.9939   0.9935   0.9922   0.9895
     0.9886   0.9876   0.9859   0.9841   0.9818   0.9781   0.9675   0.9540
     0.9484   0.9411   0.9376   0.9249   0.9152   0.9089   0.9037   0.8975
     0.8674   0.8563   0.8280   0.8256   0.8208   0.7460   0.7420   0.7354
     0.7303   0.7251   0.7185   0.7153   0.7064   0.7022   0.6938   0.6888
     0.6821   0.6771   0.6735   0.6565   0.6502   0.6447   0.6261   0.4547
     0.4075   0.3753   0.3397   0.3264   0.2271   0.1734   0.0789   0.0490
     0.0280   0.0155   0.0072   0.0028   0.0004   0.0004   0.0003   0.0001
     0.0001   0.0001   0.0000   0.0000   0.0000   0.0000   0.0000   0.0000
     0.0000   0.0000   0.0000   0.0000   0.0000   0.0000   0.0000   0.0000
     0.0000   0.0000   0.0000   0.0000   0.0000   0.0000   0.0000

          k =-0.5000 0.2500 0.0000 ( 65138 PWs)   bands (ev):

   -92.3365 -92.2814 -92.1904 -92.1416 -92.0824 -92.0427 -92.0256 -91.9035
   -55.6896 -55.6677 -55.5483 -55.5376 -55.5300 -55.5243 -55.4866 -55.4600
   -55.4438 -55.4417 -55.4324 -55.3911 -55.3726 -55.3343 -55.3163 -55.2819
   -55.2769 -55.2318 -55.2302 -55.2286 -55.2201 -55.1780 -55.1563 -55.0702
   -30.9198 -30.9085 -30.8322 -30.7631 -30.7094 -30.6779 -30.5983 -30.3322
   -29.4860 -29.4461 -29.4184 -29.3110 -22.2513 -14.6232 -14.5792 -14.5013
   -14.4063 -14.3608 -14.2337 -14.1506 -14.0255 -13.7774 -13.7098 -13.6806
   -13.6680 -13.6233 -13.6071 -13.5761 -13.5451 -13.5396 -13.5150 -13.4799
   -13.4626 -13.3677 -13.2811 -13.2397 -13.2304 -13.2204 -13.1620 -13.1143
   -13.0340 -12.9841 -12.8471 -12.8126 -12.7592 -12.7139 -12.6761 -12.6627
   -12.6578 -12.6291 -12.6134 -12.5909 -12.5813 -12.5415 -12.5111 -12.4113
   -12.3911 -12.2829 -12.2675 -12.2590 -12.1856 -12.0968 -11.9741 -11.9697
   -11.8353 -11.8082 -11.4114 -11.3985 -11.3846 -11.3729 -11.3513 -11.3211
   -11.2406 -11.2313 -11.2088 -11.1720 -11.1441 -11.1351  -5.8964  -3.1533
    -3.1520  -2.0802  -2.0378  -1.8880  -1.8464  -1.6872  -1.6112  -1.4669
    -1.3315  -1.2752  -1.2478  -1.2085  -1.1691  -1.0891  -0.9747  -0.9178
    -0.8947  -0.8696  -0.7935  -0.7641  -0.7276  -0.7079  -0.6474  -0.6201
    -0.5797  -0.5442  -0.5156  -0.4586  -0.4327  -0.3910  -0.3570  -0.2529
    -0.2270  -0.1411  -0.0785  -0.0456   0.0097   0.0962   0.1257   0.2305
     0.2582   0.3218   0.3651   0.3923   0.4730   0.5048   0.5366   0.5914
     0.6280   0.9294   0.9806   1.0528   1.0830   1.3634   1.4236   1.4971
     1.5245   1.7052   1.7417   1.7790   1.7939   1.8116   1.8296   1.8983
     1.9399   1.9765   2.0056   2.1135   2.1537   2.1958   2.2045   2.2375
     2.2666   2.2814   2.2953   2.3177   2.3411   2.3836   2.4092   2.4402
     2.4638   2.4895   2.5572   2.6754   2.7750   2.8036   2.8732   2.9155
     2.9716   3.0123   3.0194   3.0459   3.0561   3.0696   3.0921   3.1140
     3.1972   3.2377   3.2518   3.2586   3.2792   3.3027   3.3152   3.3295
     3.3419   3.3615   3.3755   3.3862   3.3937   3.4042   3.4166   3.9399
     3.9735   4.1358   4.1563   4.4350   4.4899   4.5421   4.7453   5.0584
     5.1446   5.2539   5.3475   5.4405   5.7293   5.7642   5.8384   5.9243
     6.0514   6.1170   6.2785   6.5054   6.5628   6.6683   7.1030   7.2750
     7.5545   7.6794   7.9720   8.0622   8.1820   8.2011   8.3173   8.3576
     8.5418   8.5903   8.7253   8.8164   8.8303   8.9255   8.9681

     occupation numbers 
     1.0000   1.0000   1.0000   1.0000   1.0000   1.0000   1.0000   1.0000
     1.0000   1.0000   1.0000   1.0000   1.0000   1.0000   1.0000   1.0000
     1.0000   1.0000   1.0000   1.0000   1.0000   1.0000   1.0000   1.0000
     1.0000   1.0000   1.0000   1.0000   1.0000   1.0000   1.0000   1.0000
     1.0000   1.0000   1.0000   1.0000   1.0000   1.0000   1.0000   1.0000
     1.0000   1.0000   1.0000   1.0000   1.0000   1.0000   1.0000   1.0000
     1.0000   1.0000   1.0000   1.0000   1.0000   1.0000   1.0000   1.0000
     1.0000   1.0000   1.0000   1.0000   1.0000   1.0000   1.0000   1.0000
     1.0000   1.0000   1.0000   1.0000   1.0000   1.0000   1.0000   1.0000
     1.0000   1.0000   1.0000   1.0000   1.0000   1.0000   1.0000   1.0000
     1.0000   1.0000   1.0000   1.0000   1.0000   1.0000   1.0000   1.0000
     1.0000   1.0000   1.0000   1.0000   1.0000   1.0000   1.0000   1.0000
     1.0000   1.0000   1.0000   1.0000   1.0000   1.0000   1.0000   1.0000
     1.0000   1.0000   1.0000   1.0000   1.0000   1.0000   1.0000   1.0000
     1.0000   1.0000   1.0000   1.0000   1.0000   1.0000   1.0000   1.0000
     1.0000   1.0000   1.0000   1.0000   1.0000   1.0000   1.0000   1.0000
     1.0000   1.0000   1.0000   1.0000   1.0000   1.0000   1.0000   1.0000
     1.0000   1.0000   1.0000   1.0000   1.0000   1.0000   1.0000   1.0000
     1.0000   1.0000   1.0000   1.0000   1.0000   1.0000   1.0000   1.0000
     1.0000   1.0000   1.0000   1.0000   1.0000   1.0000   1.0000   1.0000
     1.0000   1.0000   1.0000   1.0000   0.9999   0.9997   0.9996   0.9994
     0.9993   0.9984   0.9981   0.9977   0.9976   0.9974   0.9971   0.9961
     0.9953   0.9945   0.9938   0.9904   0.9887   0.9867   0.9863   0.9845
     0.9827   0.9818   0.9808   0.9792   0.9774   0.9738   0.9714   0.9682
     0.9657   0.9627   0.9537   0.9340   0.9128   0.9059   0.8873   0.8749
     0.8569   0.8428   0.8403   0.8305   0.8266   0.8215   0.8126   0.8037
     0.7678   0.7490   0.7423   0.7390   0.7290   0.7173   0.7110   0.7037
     0.6973   0.6870   0.6797   0.6739   0.6699   0.6642   0.6575   0.3552
     0.3368   0.2539   0.2443   0.1343   0.1174   0.1028   0.0585   0.0211
     0.0154   0.0101   0.0069   0.0047   0.0012   0.0010   0.0007   0.0005
     0.0002   0.0002   0.0001   0.0000   0.0000   0.0000   0.0000   0.0000
     0.0000   0.0000   0.0000   0.0000   0.0000   0.0000   0.0000   0.0000
     0.0000   0.0000   0.0000   0.0000   0.0000   0.0000   0.0000

     the Fermi energy is     3.6898 ev

!    total energy              =   -4482.97310250 Ry
     estimated scf accuracy    <          4.0E-09 Ry
     smearing contrib. (-TS)   =      -1.17248555 Ry
     internal energy E=F+TS    =   -4481.80061695 Ry

     The total energy is F=E-TS. E is the sum of the following terms:
     one-electron contribution =  -20253.03779665 Ry
     hartree contribution      =   10266.21275263 Ry
     xc contribution           =    -701.58305361 Ry
     ewald contribution        =    6492.26303982 Ry
     one-center paw contrib.   =    -285.65555914 Ry
      -> PAW hartree energy AE =      25.18443457 Ry
      -> PAW hartree energy PS =     -25.06813864 Ry
      -> PAW xc energy AE      =     -16.52047097 Ry
      -> PAW xc energy PS      =       6.88010802 Ry
      -> total E_H with PAW    =   10266.32904856 Ry
      -> total E_XC with PAW   =    -711.22341656 Ry

     convergence has been achieved in  50 iterations

     Writing all to output data dir /bsuhome/zayahcortright/scratch/pwscf.save/
 
     init_run     :      8.78s CPU      9.68s WALL (       1 calls)
     electrons    :    768.67s CPU    801.09s WALL (       1 calls)

     Called by init_run:
     wfcinit      :      7.35s CPU      7.58s WALL (       1 calls)
     wfcinit:atom :      0.04s CPU      0.06s WALL (       5 calls)
     wfcinit:wfcr :      7.04s CPU      7.18s WALL (       5 calls)
     potinit      :      0.18s CPU      0.20s WALL (       1 calls)
     hinit0       :      0.37s CPU      0.76s WALL (       1 calls)

     Called by electrons:
     c_bands      :    613.03s CPU    620.01s WALL (      50 calls)
     sum_band     :    117.61s CPU    132.00s WALL (      50 calls)
     v_of_rho     :      5.54s CPU      5.86s WALL (      51 calls)
     v_h          :      0.47s CPU      0.48s WALL (      51 calls)
     v_xc         :      5.06s CPU      5.38s WALL (      51 calls)
     newd         :     17.36s CPU     27.75s WALL (      51 calls)
     PAW_pot      :      1.69s CPU      1.72s WALL (      51 calls)
     mix_rho      :     13.06s CPU     13.40s WALL (      50 calls)

     Called by c_bands:
     init_us_2    :      6.33s CPU      6.43s WALL (     505 calls)
     init_us_2:cp :      6.33s CPU      6.43s WALL (     505 calls)
     cegterg      :    579.81s CPU    586.49s WALL (     250 calls)

     Called by sum_band:
     sum_band:wei :      0.34s CPU      0.34s WALL (      50 calls)
     sum_band:loo :     98.63s CPU     99.40s WALL (      50 calls)
     sum_band:buf :      1.37s CPU      1.45s WALL (     250 calls)
     sum_band:ini :      2.88s CPU      2.89s WALL (     250 calls)
     sum_band:cal :     21.09s CPU     21.15s WALL (     250 calls)
     sum_band:bec :      0.64s CPU      0.66s WALL (     250 calls)
     addusdens    :     16.04s CPU     29.59s WALL (      50 calls)
                                        0.00s GPU  (      50 calls)
     addusd:skk   :      0.34s CPU      0.96s WALL (     200 calls)
                                        0.00s GPU  (     200 calls)

     Called by *egterg:
     cdiaghg      :     63.84s CPU     64.12s WALL (    1429 calls)
     cegterg:over :     45.47s CPU     45.65s WALL (    1179 calls)
     cegterg:upda :     32.81s CPU     33.40s WALL (    1179 calls)
     cegterg:last :     66.19s CPU     66.46s WALL (     465 calls)
     cdiaghg:chol :      3.70s CPU      3.72s WALL (    1429 calls)
     cdiaghg:inve :      3.87s CPU      3.89s WALL (    1429 calls)
     cdiaghg:para :      8.05s CPU      8.11s WALL (    2858 calls)
     h_psi        :    313.26s CPU    316.54s WALL (    1434 calls)
     s_psi        :     41.75s CPU     41.88s WALL (    1434 calls)
     g_psi        :      1.07s CPU      1.07s WALL (    1179 calls)

     Called by h_psi:
     h_psi:calbec :     49.20s CPU     49.46s WALL (    1434 calls)
     vloc_psi     :    219.57s CPU    221.63s WALL (    1434 calls)
     add_vuspsi   :     41.69s CPU     41.91s WALL (    1434 calls)

     General routines
     calbec       :     70.27s CPU     70.61s WALL (    1684 calls)
     fft          :      5.01s CPU      5.06s WALL (     661 calls)
     ffts         :      4.86s CPU      4.89s WALL (    5252 calls)
     fftw         :    189.53s CPU    191.04s WALL (  345058 calls)
     interpolate  :      0.44s CPU      0.44s WALL (      51 calls)
 
     Parallel routines

     PAW routines
     PAW_pot      :      1.69s CPU      1.72s WALL (      51 calls)
 
     PWSCF        :  12m59.23s CPU  13m36.99s WALL

 
   This run was terminated on:  19:48:54  18Jun2024            

=------------------------------------------------------------------------------=
   JOB DONE.
=------------------------------------------------------------------------------=
