
     Program PWSCF v.7.2 starts on 21Jun2024 at 14:47:34 

     This program is part of the open-source Quantum ESPRESSO suite
     for quantum simulation of materials; please cite
         "P. Giannozzi et al., J. Phys.:Condens. Matter 21 395502 (2009);
         "P. Giannozzi et al., J. Phys.:Condens. Matter 29 465901 (2017);
         "P. Giannozzi et al., J. Chem. Phys. 152 154105 (2020);
          URL http://www.quantum-espresso.org", 
     in publications or presentations arising from this work. More details at
     http://www.quantum-espresso.org/quote

     Parallel version (MPI & OpenMP), running on      48 processor cores
     Number of MPI processes:                48
     Threads/MPI process:                     1

     MPI processes distributed on     1 nodes
     180164 MiB available memory on the printing compute node when the environment starts
 
     Reading input from espresso.pwi
Warning: card &CELL ignored
Warning: card / ignored
Warning: card &FCP ignored
Warning: card / ignored
Warning: card &RISM ignored
Warning: card / ignored

     Current dimensions of program PWSCF are:
     Max number of different atomic species (ntypx) = 10
     Max number of k-points (npk) =  40000
     Max angular momentum in pseudopotentials (lmaxx) =  4
     file O.pbe-n-kjpaw_psl.0.1.UPF: wavefunction(s)  2P renormalized
     signal trapping enabled: kill the code with -SIGUSR1 to stop cleanly the simulation 
 
     K-points division:     npool     =       2
     R & G space division:  proc/nbgrp/npool/nimage =      24
     Subspace diagonalization in iterative solution of the eigenvalue problem:
     one sub-group per band group will be used
     scalapack distributed-memory algorithm (size of sub-group:  3*  3 procs)

 
     Parallelization info
     --------------------
     sticks:   dense  smooth     PW     G-vecs:    dense   smooth      PW
     Min         350     175     47                61430    21716    3036
     Max         351     177     48                61449    21727    3041
     Sum        8421    4205   1137              1474595   521381   72913
 
     Using Slab Decomposition
 


     bravais-lattice index     =            0
     lattice parameter (alat)  =      14.8599  a.u.
     unit-cell volume          =    8305.1283 (a.u.)^3
     number of atoms/cell      =           49
     number of atomic types    =            4
     number of electrons       =       425.00
     number of Kohn-Sham states=          256
     kinetic-energy cutoff     =      60.0000  Ry
     charge density cutoff     =     480.0000  Ry
     scf convergence threshold =      1.0E-08
     mixing beta               =       0.1500
     number of iterations used =            8  local-TF  mixing
     Exchange-correlation= PBE
                           (   1   4   3   4   0   0   0)

     celldm(1)=  14.859904  celldm(2)=   0.000000  celldm(3)=   0.000000
     celldm(4)=   0.000000  celldm(5)=   0.000000  celldm(6)=   0.000000

     crystal axes: (cart. coord. in units of alat)
               a(1) = (   1.000000   0.000000   0.000000 )  
               a(2) = (   0.000000   1.000000   0.000000 )  
               a(3) = (   0.000000   0.000000   2.531036 )  

     reciprocal axes: (cart. coord. in units 2 pi/alat)
               b(1) = (  1.000000  0.000000  0.000000 )  
               b(2) = (  0.000000  1.000000  0.000000 )  
               b(3) = (  0.000000  0.000000  0.395095 )  


     PseudoPot. # 1 for Sr read from file:
     /bsuhome/zayahcortright/q-e/pseudo/Sr_pbe_v1.uspp.F.UPF
     MD5 check sum: 6b418c05fbe9db5448babca5e47b7a5b
     Pseudo is Ultrasoft + core correction, Zval = 10.0
     Generated by new atomic code, or converted to UPF format
     Using radial grid of  883 points,  6 beta functions with: 
                l(1) =   0
                l(2) =   0
                l(3) =   1
                l(4) =   1
                l(5) =   2
                l(6) =   2
     Q(r) pseudized with  6 coefficients,  rinner =    1.400   1.400   1.400
                                                       1.400   1.400

     PseudoPot. # 2 for O  read from file:
     /bsuhome/zayahcortright/q-e/pseudo/O.pbe-n-kjpaw_psl.0.1.UPF
     MD5 check sum: 0234752ac141de4415c5fc33072bef88
     Pseudo is Projector augmented-wave + core cor, Zval =  6.0
     Generated using "atomic" code by A. Dal Corso  v.5.0.99 svn rev. 10869
     Shape of augmentation charge: BESSEL
     Using radial grid of 1095 points,  4 beta functions with: 
                l(1) =   0
                l(2) =   0
                l(3) =   1
                l(4) =   1
     Q(r) pseudized with 0 coefficients 


     PseudoPot. # 3 for Co read from file:
     /bsuhome/zayahcortright/q-e/pseudo/Co_pbe_v1.2.uspp.F.UPF
     MD5 check sum: 5f91765df6ddd3222702df6e7b74a16d
     Pseudo is Ultrasoft + core correction, Zval = 17.0
     Generated by new atomic code, or converted to UPF format
     Using radial grid of  863 points,  6 beta functions with: 
                l(1) =   0
                l(2) =   0
                l(3) =   1
                l(4) =   1
                l(5) =   2
                l(6) =   2
     Q(r) pseudized with  8 coefficients,  rinner =    1.200   1.200   1.200
                                                       1.200   1.200

     PseudoPot. # 4 for H  read from file:
     /bsuhome/zayahcortright/q-e/pseudo/H.pbe-rrkjus_psl.1.0.0.UPF
     MD5 check sum: f52b6d4d1c606e5624b1dc7b2218f220
     Pseudo is Ultrasoft, Zval =  1.0
     Generated using "atomic" code by A. Dal Corso  v.5.1
     Using radial grid of  929 points,  2 beta functions with: 
                l(1) =   0
                l(2) =   0
     Q(r) pseudized with 0 coefficients 


     atomic species   valence    mass     pseudopotential
        Sr            10.00    87.62000     Sr( 1.00)
        O              6.00    15.99900     O ( 1.00)
        Co            17.00    58.93319     Co( 1.00)
        H              1.00     1.00800     H ( 1.00)

     No symmetry found


                                    s                        frac. trans.

      isym =  1     identity                                     

 cryst.   s( 1) = (     1          0          0      )
                  (     0          1          0      )
                  (     0          0          1      )

 cart.    s( 1) = (  1.0000000  0.0000000  0.0000000 )
                  (  0.0000000  1.0000000  0.0000000 )
                  (  0.0000000  0.0000000  1.0000000 )


   Cartesian axes

     site n.     atom                  positions (alat units)
         1           Sr  tau(   1) = (   0.2508693   0.7491307   1.7574407  )
         2           O   tau(   2) = (   0.4985141   0.5014859   1.7715967  )
         3           Sr  tau(   3) = (   0.7482398   0.7454518   1.7648669  )
         4           Sr  tau(   4) = (   0.7441748   0.2558252   1.7667843  )
         5           Sr  tau(   5) = (   0.2508693   0.7491307   1.2696799  )
         6           Sr  tau(   6) = (   0.2508693   0.7491307   0.7632319  )
         7           Co  tau(   7) = (   0.4998914   0.5001086   1.0164559  )
         8           Co  tau(   8) = (   0.4936915   0.5063085   1.5135603  )
         9           O   tau(   9) = (   0.4988895   0.7610401   1.0164559  )
        10           O   tau(  10) = (   0.2389599   0.5011105   1.0164559  )
        11           O   tau(  11) = (   0.0070918   0.7374880   1.0164559  )
        12           O   tau(  12) = (   0.0088340   0.7405089   1.5135603  )
        13           O   tau(  13) = (   0.5066944   0.7415376   1.5135603  )
        14           O   tau(  14) = (   0.2584624   0.4933056   1.5135603  )
        15           O   tau(  15) = (   0.4985141   0.5014859   0.7773880  )
        16           O   tau(  16) = (   0.4985141   0.5014859   1.2555238  )
        17           Sr  tau(  17) = (   0.7482398   0.7454518   0.7706582  )
        18           Sr  tau(  18) = (   0.7482398   0.7454518   1.2622536  )
        19           Sr  tau(  19) = (   0.7441748   0.2558252   0.7725755  )
        20           Sr  tau(  20) = (   0.7441748   0.2558252   1.2603363  )
        21           O   tau(  21) = (   0.7322655   0.0078049   1.5135603  )
        22           O   tau(  22) = (   0.7558175   0.4996027   1.5135603  )
        23           O   tau(  23) = (   0.5003973   0.2441825   1.5135603  )
        24           O   tau(  24) = (   0.7527966   0.4978604   1.0164559  )
        25           O   tau(  25) = (   0.5021396   0.2472034   1.0164559  )
        26           O   tau(  26) = (   0.7517679   0.0000000   1.0164559  )
        27           O   tau(  27) = (   0.0114961   0.4948124   1.7455321  )
        28           O   tau(  28) = (   0.0048226   0.0077944   1.7715967  )
        29           Sr  tau(  29) = (   0.2545482   0.2517602   1.7648669  )
        30           O   tau(  30) = (   0.5048017   0.0015068   1.7786929  )
        31           Co  tau(  31) = (   0.0056869   0.5006215   1.0164559  )
        32           Co  tau(  32) = (   0.0065315   0.4997770   1.5135603  )
        33           Co  tau(  33) = (   0.0061999   0.0064171   1.0164559  )
        34           Co  tau(  34) = (   0.0000000   0.0126169   1.5135603  )
        35           O   tau(  35) = (   0.0114961   0.4948124   1.2815885  )
        36           O   tau(  36) = (   0.0114961   0.4948124   0.7513233  )
        37           O   tau(  37) = (   0.0051979   0.2673486   1.0164559  )
        38           O   tau(  38) = (   0.0130029   0.2478461   1.5135603  )
        39           O   tau(  39) = (   0.0048226   0.0077944   0.7773880  )
        40           O   tau(  40) = (   0.0048226   0.0077944   1.2555238  )
        41           Sr  tau(  41) = (   0.2545482   0.2517602   0.7706582  )
        42           Sr  tau(  42) = (   0.2545482   0.2517602   1.2622536  )
        43           Co  tau(  43) = (   0.4989925   0.0073160   1.5135603  )
        44           Co  tau(  44) = (   0.4998370   0.0064714   1.0164559  )
        45           O   tau(  45) = (   0.5048017   0.0015068   0.7844841  )
        46           O   tau(  46) = (   0.5048017   0.0015068   1.2484277  )
        47           O   tau(  47) = (   0.2621260   0.0059111   1.5135603  )
        48           O   tau(  48) = (   0.2591051   0.0041689   1.0164559  )
        49           H   tau(  49) = (   0.1421646   0.8529874   2.1602013  )

   Crystallographic axes

     site n.     atom                  positions (cryst. coord.)
         1           Sr  tau(   1) = (  0.2508693  0.7491307  0.6943562  )
         2           O   tau(   2) = (  0.4985141  0.5014859  0.6999492  )
         3           Sr  tau(   3) = (  0.7482398  0.7454518  0.6972903  )
         4           Sr  tau(   4) = (  0.7441748  0.2558252  0.6980478  )
         5           Sr  tau(   5) = (  0.2508693  0.7491307  0.5016443  )
         6           Sr  tau(   6) = (  0.2508693  0.7491307  0.3015492  )
         7           Co  tau(   7) = (  0.4998914  0.5001086  0.4015968  )
         8           Co  tau(   8) = (  0.4936915  0.5063085  0.5980003  )
         9           O   tau(   9) = (  0.4988895  0.7610401  0.4015968  )
        10           O   tau(  10) = (  0.2389599  0.5011105  0.4015968  )
        11           O   tau(  11) = (  0.0070918  0.7374880  0.4015968  )
        12           O   tau(  12) = (  0.0088340  0.7405089  0.5980003  )
        13           O   tau(  13) = (  0.5066944  0.7415376  0.5980003  )
        14           O   tau(  14) = (  0.2584624  0.4933056  0.5980003  )
        15           O   tau(  15) = (  0.4985141  0.5014859  0.3071422  )
        16           O   tau(  16) = (  0.4985141  0.5014859  0.4960513  )
        17           Sr  tau(  17) = (  0.7482398  0.7454518  0.3044833  )
        18           Sr  tau(  18) = (  0.7482398  0.7454518  0.4987103  )
        19           Sr  tau(  19) = (  0.7441748  0.2558252  0.3052408  )
        20           Sr  tau(  20) = (  0.7441748  0.2558252  0.4979527  )
        21           O   tau(  21) = (  0.7322655  0.0078049  0.5980003  )
        22           O   tau(  22) = (  0.7558175  0.4996027  0.5980003  )
        23           O   tau(  23) = (  0.5003973  0.2441825  0.5980003  )
        24           O   tau(  24) = (  0.7527966  0.4978604  0.4015968  )
        25           O   tau(  25) = (  0.5021396  0.2472034  0.4015968  )
        26           O   tau(  26) = (  0.7517679  0.0000000  0.4015968  )
        27           O   tau(  27) = (  0.0114961  0.4948124  0.6896512  )
        28           O   tau(  28) = (  0.0048226  0.0077944  0.6999492  )
        29           Sr  tau(  29) = (  0.2545482  0.2517602  0.6972903  )
        30           O   tau(  30) = (  0.5048017  0.0015068  0.7027529  )
        31           Co  tau(  31) = (  0.0056869  0.5006215  0.4015968  )
        32           Co  tau(  32) = (  0.0065315  0.4997770  0.5980003  )
        33           Co  tau(  33) = (  0.0061999  0.0064171  0.4015968  )
        34           Co  tau(  34) = (  0.0000000  0.0126169  0.5980003  )
        35           O   tau(  35) = (  0.0114961  0.4948124  0.5063494  )
        36           O   tau(  36) = (  0.0114961  0.4948124  0.2968442  )
        37           O   tau(  37) = (  0.0051979  0.2673486  0.4015968  )
        38           O   tau(  38) = (  0.0130029  0.2478461  0.5980003  )
        39           O   tau(  39) = (  0.0048226  0.0077944  0.3071422  )
        40           O   tau(  40) = (  0.0048226  0.0077944  0.4960513  )
        41           Sr  tau(  41) = (  0.2545482  0.2517602  0.3044833  )
        42           Sr  tau(  42) = (  0.2545482  0.2517602  0.4987103  )
        43           Co  tau(  43) = (  0.4989925  0.0073160  0.5980003  )
        44           Co  tau(  44) = (  0.4998370  0.0064714  0.4015968  )
        45           O   tau(  45) = (  0.5048017  0.0015068  0.3099459  )
        46           O   tau(  46) = (  0.5048017  0.0015068  0.4932477  )
        47           O   tau(  47) = (  0.2621260  0.0059111  0.5980003  )
        48           O   tau(  48) = (  0.2591051  0.0041689  0.4015968  )
        49           H   tau(  49) = (  0.1421646  0.8529874  0.8534850  )

     number of k points=    10  Gaussian smearing, width (Ry)=  0.0700
                       cart. coord. in units 2pi/alat
        k(    1) = (   0.0000000   0.0000000   0.0000000), wk =   0.1250000
        k(    2) = (   0.0000000   0.2500000   0.0000000), wk =   0.2500000
        k(    3) = (   0.0000000  -0.5000000   0.0000000), wk =   0.1250000
        k(    4) = (   0.2500000   0.2500000   0.0000000), wk =   0.2500000
        k(    5) = (   0.2500000  -0.5000000   0.0000000), wk =   0.2500000
        k(    6) = (  -0.5000000  -0.5000000   0.0000000), wk =   0.1250000
        k(    7) = (   0.2500000   0.0000000   0.0000000), wk =   0.2500000
        k(    8) = (  -0.5000000   0.0000000   0.0000000), wk =   0.1250000
        k(    9) = (  -0.2500000   0.2500000   0.0000000), wk =   0.2500000
        k(   10) = (  -0.5000000   0.2500000   0.0000000), wk =   0.2500000

                       cryst. coord.
        k(    1) = (   0.0000000   0.0000000   0.0000000), wk =   0.1250000
        k(    2) = (   0.0000000   0.2500000   0.0000000), wk =   0.2500000
        k(    3) = (   0.0000000  -0.5000000   0.0000000), wk =   0.1250000
        k(    4) = (   0.2500000   0.2500000   0.0000000), wk =   0.2500000
        k(    5) = (   0.2500000  -0.5000000   0.0000000), wk =   0.2500000
        k(    6) = (  -0.5000000  -0.5000000   0.0000000), wk =   0.1250000
        k(    7) = (   0.2500000   0.0000000   0.0000000), wk =   0.2500000
        k(    8) = (  -0.5000000   0.0000000   0.0000000), wk =   0.1250000
        k(    9) = (  -0.2500000   0.2500000   0.0000000), wk =   0.2500000
        k(   10) = (  -0.5000000   0.2500000   0.0000000), wk =   0.2500000

     Dense  grid:  1474595 G-vectors     FFT dimensions: ( 108, 108, 270)

     Smooth grid:   521381 G-vectors     FFT dimensions: (  75,  75, 192)

     Dynamical RAM for                 wfc:      10.61 MB

     Dynamical RAM for     wfc (w. buffer):      63.63 MB

     Dynamical RAM for           str. fact:       3.75 MB

     Dynamical RAM for           local pot:       0.00 MB

     Dynamical RAM for          nlocal pot:      24.28 MB

     Dynamical RAM for                qrad:       7.03 MB

     Dynamical RAM for          rho,v,vnew:       6.02 MB

     Dynamical RAM for               rhoin:       2.01 MB

     Dynamical RAM for            rho*nmix:      15.00 MB

     Dynamical RAM for           G-vectors:       3.68 MB

     Dynamical RAM for          h,s,v(r/c):       1.32 MB

     Dynamical RAM for          <psi|beta>:       2.29 MB

     Dynamical RAM for                 psi:      21.21 MB

     Dynamical RAM for                hpsi:      21.21 MB

     Dynamical RAM for                spsi:      21.21 MB

     Dynamical RAM for      wfcinit/wfcrot:      34.09 MB

     Dynamical RAM for           addusdens:     100.79 MB

     Estimated static dynamical RAM per process >     120.42 MB

     Estimated max dynamical RAM per process >     236.21 MB

     Estimated total dynamical RAM >      10.72 GB

     Check: negative core charge=   -0.000004

     Initial potential from superposition of free atoms

     starting charge     416.5961, renormalised to     425.0000

     negative rho (up, down):  7.826E-01 0.000E+00
     Starting wfcs are  373 randomized atomic wfcs
     Checking if some PAW data can be deallocated... 
       PAW data deallocated on   20 nodes for type:  2

     total cpu time spent up to now is        8.5 secs

     Self-consistent Calculation

     iteration #  1     ecut=    60.00 Ry     beta= 0.15
     Davidson diagonalization with overlap

---- Real-time Memory Report at c_bands before calling an iterative solver
             0 MiB given to the printing process from OS
             0 MiB allocation reported by mallinfo(arena+hblkhd)
        170500 MiB available memory on the node where the printing process lives
------------------
     ethr =  1.00E-02,  avg # of iterations =  2.0

     negative rho (up, down):  7.718E-01 0.000E+00

     total cpu time spent up to now is       23.4 secs

     total energy              =   -4404.75706228 Ry
     estimated scf accuracy    <      42.18962850 Ry

     iteration #  2     ecut=    60.00 Ry     beta= 0.15
     Davidson diagonalization with overlap

---- Real-time Memory Report at c_bands before calling an iterative solver
             0 MiB given to the printing process from OS
             0 MiB allocation reported by mallinfo(arena+hblkhd)
        170720 MiB available memory on the node where the printing process lives
------------------
     ethr =  9.93E-03,  avg # of iterations =  1.0

     negative rho (up, down):  7.532E-01 0.000E+00

     total cpu time spent up to now is       35.7 secs

     total energy              =   -4400.02288142 Ry
     estimated scf accuracy    <      26.65200972 Ry

     iteration #  3     ecut=    60.00 Ry     beta= 0.15
     Davidson diagonalization with overlap

---- Real-time Memory Report at c_bands before calling an iterative solver
             0 MiB given to the printing process from OS
             0 MiB allocation reported by mallinfo(arena+hblkhd)
        169986 MiB available memory on the node where the printing process lives
------------------
     ethr =  6.27E-03,  avg # of iterations =  2.0

     negative rho (up, down):  7.544E-01 0.000E+00

     total cpu time spent up to now is       49.1 secs

     total energy              =   -4402.38891126 Ry
     estimated scf accuracy    <      49.38837030 Ry

     iteration #  4     ecut=    60.00 Ry     beta= 0.15
     Davidson diagonalization with overlap

---- Real-time Memory Report at c_bands before calling an iterative solver
             0 MiB given to the printing process from OS
             0 MiB allocation reported by mallinfo(arena+hblkhd)
        169853 MiB available memory on the node where the printing process lives
------------------
     ethr =  6.27E-03,  avg # of iterations =  1.0

     negative rho (up, down):  7.410E-01 0.000E+00

     total cpu time spent up to now is       61.1 secs

     total energy              =   -4401.65283263 Ry
     estimated scf accuracy    <      29.49849364 Ry

     iteration #  5     ecut=    60.00 Ry     beta= 0.15
     Davidson diagonalization with overlap

---- Real-time Memory Report at c_bands before calling an iterative solver
             0 MiB given to the printing process from OS
             0 MiB allocation reported by mallinfo(arena+hblkhd)
        169834 MiB available memory on the node where the printing process lives
------------------
     ethr =  6.27E-03,  avg # of iterations =  1.0

     negative rho (up, down):  7.471E-01 0.000E+00

     total cpu time spent up to now is       73.1 secs

     total energy              =   -4399.83312613 Ry
     estimated scf accuracy    <      44.13137062 Ry

     iteration #  6     ecut=    60.00 Ry     beta= 0.15
     Davidson diagonalization with overlap

---- Real-time Memory Report at c_bands before calling an iterative solver
             0 MiB given to the printing process from OS
             0 MiB allocation reported by mallinfo(arena+hblkhd)
        169817 MiB available memory on the node where the printing process lives
------------------
     ethr =  6.27E-03,  avg # of iterations =  1.0

     negative rho (up, down):  7.423E-01 0.000E+00

     total cpu time spent up to now is       85.0 secs

     total energy              =   -4400.66129290 Ry
     estimated scf accuracy    <      11.87385561 Ry

     iteration #  7     ecut=    60.00 Ry     beta= 0.15
     Davidson diagonalization with overlap

---- Real-time Memory Report at c_bands before calling an iterative solver
             0 MiB given to the printing process from OS
             0 MiB allocation reported by mallinfo(arena+hblkhd)
        169799 MiB available memory on the node where the printing process lives
------------------
     ethr =  2.79E-03,  avg # of iterations =  1.1

     negative rho (up, down):  7.444E-01 0.000E+00

     total cpu time spent up to now is       97.0 secs

     total energy              =   -4400.81622387 Ry
     estimated scf accuracy    <       4.04300431 Ry

     iteration #  8     ecut=    60.00 Ry     beta= 0.15
     Davidson diagonalization with overlap

---- Real-time Memory Report at c_bands before calling an iterative solver
             0 MiB given to the printing process from OS
             0 MiB allocation reported by mallinfo(arena+hblkhd)
        169779 MiB available memory on the node where the printing process lives
------------------
     ethr =  9.51E-04,  avg # of iterations =  1.9

     negative rho (up, down):  7.537E-01 0.000E+00

     total cpu time spent up to now is      109.7 secs

     total energy              =   -4400.30569313 Ry
     estimated scf accuracy    <       3.39319315 Ry

     iteration #  9     ecut=    60.00 Ry     beta= 0.15
     Davidson diagonalization with overlap

---- Real-time Memory Report at c_bands before calling an iterative solver
             0 MiB given to the printing process from OS
             0 MiB allocation reported by mallinfo(arena+hblkhd)
        169744 MiB available memory on the node where the printing process lives
------------------
     ethr =  7.98E-04,  avg # of iterations =  3.8

     negative rho (up, down):  7.759E-01 0.000E+00

     total cpu time spent up to now is      125.2 secs

     total energy              =   -4399.76860231 Ry
     estimated scf accuracy    <      44.22916249 Ry

     iteration # 10     ecut=    60.00 Ry     beta= 0.15
     Davidson diagonalization with overlap

---- Real-time Memory Report at c_bands before calling an iterative solver
             0 MiB given to the printing process from OS
             0 MiB allocation reported by mallinfo(arena+hblkhd)
        169655 MiB available memory on the node where the printing process lives
------------------
     ethr =  7.98E-04,  avg # of iterations =  9.9

     negative rho (up, down):  7.778E-01 0.000E+00

     total cpu time spent up to now is      144.1 secs

     total energy              =   -4399.84275605 Ry
     estimated scf accuracy    <      11.65649552 Ry

     iteration # 11     ecut=    60.00 Ry     beta= 0.15
     Davidson diagonalization with overlap

---- Real-time Memory Report at c_bands before calling an iterative solver
             0 MiB given to the printing process from OS
             0 MiB allocation reported by mallinfo(arena+hblkhd)
        169275 MiB available memory on the node where the printing process lives
------------------
     ethr =  7.98E-04,  avg # of iterations =  1.1

     negative rho (up, down):  7.811E-01 0.000E+00

     total cpu time spent up to now is      157.0 secs

     total energy              =   -4400.12228532 Ry
     estimated scf accuracy    <       1.40449977 Ry

     iteration # 12     ecut=    60.00 Ry     beta= 0.15
     Davidson diagonalization with overlap

---- Real-time Memory Report at c_bands before calling an iterative solver
             0 MiB given to the printing process from OS
             0 MiB allocation reported by mallinfo(arena+hblkhd)
        169303 MiB available memory on the node where the printing process lives
------------------
     ethr =  3.30E-04,  avg # of iterations =  1.0

     negative rho (up, down):  7.882E-01 0.000E+00

     total cpu time spent up to now is      169.4 secs

     total energy              =   -4400.10949974 Ry
     estimated scf accuracy    <       0.82057717 Ry

     iteration # 13     ecut=    60.00 Ry     beta= 0.15
     Davidson diagonalization with overlap

---- Real-time Memory Report at c_bands before calling an iterative solver
             0 MiB given to the printing process from OS
             0 MiB allocation reported by mallinfo(arena+hblkhd)
        169314 MiB available memory on the node where the printing process lives
------------------
     ethr =  1.93E-04,  avg # of iterations =  3.3

     negative rho (up, down):  8.007E-01 0.000E+00

     total cpu time spent up to now is      184.0 secs

     total energy              =   -4400.10595078 Ry
     estimated scf accuracy    <       1.56706427 Ry

     iteration # 14     ecut=    60.00 Ry     beta= 0.15
     Davidson diagonalization with overlap

---- Real-time Memory Report at c_bands before calling an iterative solver
             0 MiB given to the printing process from OS
             0 MiB allocation reported by mallinfo(arena+hblkhd)
        169313 MiB available memory on the node where the printing process lives
------------------
     ethr =  1.93E-04,  avg # of iterations =  6.4

     negative rho (up, down):  8.033E-01 0.000E+00

     total cpu time spent up to now is      198.9 secs

     total energy              =   -4400.01282976 Ry
     estimated scf accuracy    <       2.12129787 Ry

     iteration # 15     ecut=    60.00 Ry     beta= 0.15
     Davidson diagonalization with overlap

---- Real-time Memory Report at c_bands before calling an iterative solver
             0 MiB given to the printing process from OS
             0 MiB allocation reported by mallinfo(arena+hblkhd)
        169298 MiB available memory on the node where the printing process lives
------------------
     ethr =  1.93E-04,  avg # of iterations =  3.6

     negative rho (up, down):  8.074E-01 0.000E+00

     total cpu time spent up to now is      212.9 secs

     total energy              =   -4400.05129841 Ry
     estimated scf accuracy    <       0.38349423 Ry

     iteration # 16     ecut=    60.00 Ry     beta= 0.15
     Davidson diagonalization with overlap

---- Real-time Memory Report at c_bands before calling an iterative solver
             0 MiB given to the printing process from OS
             0 MiB allocation reported by mallinfo(arena+hblkhd)
        169287 MiB available memory on the node where the printing process lives
------------------
     c_bands:  2 eigenvalues not converged
     ethr =  9.02E-05,  avg # of iterations = 10.6

     negative rho (up, down):  8.116E-01 0.000E+00

     total cpu time spent up to now is      229.9 secs

     total energy              =   -4400.02751947 Ry
     estimated scf accuracy    <       0.31705645 Ry

     iteration # 17     ecut=    60.00 Ry     beta= 0.15
     Davidson diagonalization with overlap

---- Real-time Memory Report at c_bands before calling an iterative solver
             0 MiB given to the printing process from OS
             0 MiB allocation reported by mallinfo(arena+hblkhd)
        169256 MiB available memory on the node where the printing process lives
------------------
     ethr =  7.46E-05,  avg # of iterations =  6.7

     negative rho (up, down):  8.192E-01 0.000E+00

     total cpu time spent up to now is      245.5 secs

     total energy              =   -4399.95056244 Ry
     estimated scf accuracy    <       0.27179976 Ry

     iteration # 18     ecut=    60.00 Ry     beta= 0.15
     Davidson diagonalization with overlap

---- Real-time Memory Report at c_bands before calling an iterative solver
             0 MiB given to the printing process from OS
             0 MiB allocation reported by mallinfo(arena+hblkhd)
        169251 MiB available memory on the node where the printing process lives
------------------
     c_bands:  1 eigenvalues not converged
     ethr =  6.40E-05,  avg # of iterations = 13.1

     negative rho (up, down):  8.227E-01 0.000E+00

     total cpu time spent up to now is      264.4 secs

     total energy              =   -4399.94514134 Ry
     estimated scf accuracy    <       0.20894899 Ry

     iteration # 19     ecut=    60.00 Ry     beta= 0.15
     Davidson diagonalization with overlap

---- Real-time Memory Report at c_bands before calling an iterative solver
             0 MiB given to the printing process from OS
             0 MiB allocation reported by mallinfo(arena+hblkhd)
        169176 MiB available memory on the node where the printing process lives
------------------
     ethr =  4.92E-05,  avg # of iterations =  3.5

     negative rho (up, down):  8.224E-01 0.000E+00

     total cpu time spent up to now is      278.9 secs

     total energy              =   -4399.94713331 Ry
     estimated scf accuracy    <       0.12151298 Ry

     iteration # 20     ecut=    60.00 Ry     beta= 0.15
     Davidson diagonalization with overlap

---- Real-time Memory Report at c_bands before calling an iterative solver
             0 MiB given to the printing process from OS
             0 MiB allocation reported by mallinfo(arena+hblkhd)
        169193 MiB available memory on the node where the printing process lives
------------------
     ethr =  2.86E-05,  avg # of iterations =  3.6

     negative rho (up, down):  8.098E-01 0.000E+00

     total cpu time spent up to now is      292.8 secs

     total energy              =   -4399.93229380 Ry
     estimated scf accuracy    <       0.09334085 Ry

     iteration # 21     ecut=    60.00 Ry     beta= 0.15
     Davidson diagonalization with overlap

---- Real-time Memory Report at c_bands before calling an iterative solver
             0 MiB given to the printing process from OS
             0 MiB allocation reported by mallinfo(arena+hblkhd)
        169187 MiB available memory on the node where the printing process lives
------------------
     ethr =  2.20E-05,  avg # of iterations =  9.5

     negative rho (up, down):  8.082E-01 0.000E+00

     total cpu time spent up to now is      309.5 secs

     total energy              =   -4399.92146343 Ry
     estimated scf accuracy    <       0.05922166 Ry

     iteration # 22     ecut=    60.00 Ry     beta= 0.15
     Davidson diagonalization with overlap

---- Real-time Memory Report at c_bands before calling an iterative solver
             0 MiB given to the printing process from OS
             0 MiB allocation reported by mallinfo(arena+hblkhd)
        169244 MiB available memory on the node where the printing process lives
------------------
     ethr =  1.39E-05,  avg # of iterations = 11.7

     negative rho (up, down):  8.077E-01 0.000E+00

     total cpu time spent up to now is      328.0 secs

     total energy              =   -4399.92139961 Ry
     estimated scf accuracy    <       0.02809661 Ry

     iteration # 23     ecut=    60.00 Ry     beta= 0.15
     Davidson diagonalization with overlap

---- Real-time Memory Report at c_bands before calling an iterative solver
             0 MiB given to the printing process from OS
             0 MiB allocation reported by mallinfo(arena+hblkhd)
        169044 MiB available memory on the node where the printing process lives
------------------
     ethr =  6.61E-06,  avg # of iterations =  5.6

     negative rho (up, down):  8.035E-01 0.000E+00

     total cpu time spent up to now is      342.7 secs

     total energy              =   -4399.91962284 Ry
     estimated scf accuracy    <       0.02113515 Ry

     iteration # 24     ecut=    60.00 Ry     beta= 0.15
     Davidson diagonalization with overlap

---- Real-time Memory Report at c_bands before calling an iterative solver
             0 MiB given to the printing process from OS
             0 MiB allocation reported by mallinfo(arena+hblkhd)
        169050 MiB available memory on the node where the printing process lives
------------------
     ethr =  4.97E-06,  avg # of iterations = 10.5

     negative rho (up, down):  7.967E-01 0.000E+00

     total cpu time spent up to now is      360.0 secs

     total energy              =   -4399.91911502 Ry
     estimated scf accuracy    <       0.01250386 Ry

     iteration # 25     ecut=    60.00 Ry     beta= 0.15
     Davidson diagonalization with overlap

---- Real-time Memory Report at c_bands before calling an iterative solver
             0 MiB given to the printing process from OS
             0 MiB allocation reported by mallinfo(arena+hblkhd)
        169029 MiB available memory on the node where the printing process lives
------------------
     ethr =  2.94E-06,  avg # of iterations =  3.6

     negative rho (up, down):  7.925E-01 0.000E+00

     total cpu time spent up to now is      374.3 secs

     total energy              =   -4399.91824062 Ry
     estimated scf accuracy    <       0.00943632 Ry

     iteration # 26     ecut=    60.00 Ry     beta= 0.15
     Davidson diagonalization with overlap

---- Real-time Memory Report at c_bands before calling an iterative solver
             0 MiB given to the printing process from OS
             0 MiB allocation reported by mallinfo(arena+hblkhd)
        169049 MiB available memory on the node where the printing process lives
------------------
     c_bands:  1 eigenvalues not converged
     ethr =  2.22E-06,  avg # of iterations =  8.9

     negative rho (up, down):  7.914E-01 0.000E+00

     total cpu time spent up to now is      391.8 secs

     total energy              =   -4399.91788959 Ry
     estimated scf accuracy    <       0.00454103 Ry

     iteration # 27     ecut=    60.00 Ry     beta= 0.15
     Davidson diagonalization with overlap

---- Real-time Memory Report at c_bands before calling an iterative solver
             0 MiB given to the printing process from OS
             0 MiB allocation reported by mallinfo(arena+hblkhd)
        169038 MiB available memory on the node where the printing process lives
------------------
     ethr =  1.07E-06,  avg # of iterations =  8.3

     negative rho (up, down):  7.966E-01 0.000E+00

     total cpu time spent up to now is      408.6 secs

     total energy              =   -4399.91837630 Ry
     estimated scf accuracy    <       0.00225738 Ry

     iteration # 28     ecut=    60.00 Ry     beta= 0.15
     Davidson diagonalization with overlap

---- Real-time Memory Report at c_bands before calling an iterative solver
             0 MiB given to the printing process from OS
             0 MiB allocation reported by mallinfo(arena+hblkhd)
        169036 MiB available memory on the node where the printing process lives
------------------
     ethr =  5.31E-07,  avg # of iterations =  5.8

     negative rho (up, down):  7.944E-01 0.000E+00

     total cpu time spent up to now is      423.8 secs

     total energy              =   -4399.91809777 Ry
     estimated scf accuracy    <       0.00144136 Ry

     iteration # 29     ecut=    60.00 Ry     beta= 0.15
     Davidson diagonalization with overlap

---- Real-time Memory Report at c_bands before calling an iterative solver
             0 MiB given to the printing process from OS
             0 MiB allocation reported by mallinfo(arena+hblkhd)
        169020 MiB available memory on the node where the printing process lives
------------------
     c_bands:  1 eigenvalues not converged
     ethr =  3.39E-07,  avg # of iterations =  9.2

     negative rho (up, down):  7.948E-01 0.000E+00

     total cpu time spent up to now is      440.2 secs

     total energy              =   -4399.91797526 Ry
     estimated scf accuracy    <       0.00069196 Ry

     iteration # 30     ecut=    60.00 Ry     beta= 0.15
     Davidson diagonalization with overlap

---- Real-time Memory Report at c_bands before calling an iterative solver
             0 MiB given to the printing process from OS
             0 MiB allocation reported by mallinfo(arena+hblkhd)
        169009 MiB available memory on the node where the printing process lives
------------------
     ethr =  1.63E-07,  avg # of iterations =  6.7

     negative rho (up, down):  7.946E-01 0.000E+00

     total cpu time spent up to now is      455.8 secs

     total energy              =   -4399.91797203 Ry
     estimated scf accuracy    <       0.00025924 Ry

     iteration # 31     ecut=    60.00 Ry     beta= 0.15
     Davidson diagonalization with overlap

---- Real-time Memory Report at c_bands before calling an iterative solver
             0 MiB given to the printing process from OS
             0 MiB allocation reported by mallinfo(arena+hblkhd)
        168992 MiB available memory on the node where the printing process lives
------------------
     ethr =  6.10E-08,  avg # of iterations =  2.5

     negative rho (up, down):  7.934E-01 0.000E+00

     total cpu time spent up to now is      470.5 secs

     total energy              =   -4399.91797482 Ry
     estimated scf accuracy    <       0.00009803 Ry

     iteration # 32     ecut=    60.00 Ry     beta= 0.15
     Davidson diagonalization with overlap

---- Real-time Memory Report at c_bands before calling an iterative solver
             0 MiB given to the printing process from OS
             0 MiB allocation reported by mallinfo(arena+hblkhd)
        169033 MiB available memory on the node where the printing process lives
------------------
     ethr =  2.31E-08,  avg # of iterations =  3.4

     negative rho (up, down):  7.930E-01 0.000E+00

     total cpu time spent up to now is      484.6 secs

     total energy              =   -4399.91798039 Ry
     estimated scf accuracy    <       0.00005452 Ry

     iteration # 33     ecut=    60.00 Ry     beta= 0.15
     Davidson diagonalization with overlap

---- Real-time Memory Report at c_bands before calling an iterative solver
             0 MiB given to the printing process from OS
             0 MiB allocation reported by mallinfo(arena+hblkhd)
        169049 MiB available memory on the node where the printing process lives
------------------
     ethr =  1.28E-08,  avg # of iterations =  2.3

     negative rho (up, down):  7.929E-01 0.000E+00

     total cpu time spent up to now is      498.4 secs

     total energy              =   -4399.91798267 Ry
     estimated scf accuracy    <       0.00003437 Ry

     iteration # 34     ecut=    60.00 Ry     beta= 0.15
     Davidson diagonalization with overlap

---- Real-time Memory Report at c_bands before calling an iterative solver
             0 MiB given to the printing process from OS
             0 MiB allocation reported by mallinfo(arena+hblkhd)
        169061 MiB available memory on the node where the printing process lives
------------------
     ethr =  8.09E-09,  avg # of iterations =  2.1

     negative rho (up, down):  7.927E-01 0.000E+00

     total cpu time spent up to now is      512.1 secs

     total energy              =   -4399.91798676 Ry
     estimated scf accuracy    <       0.00002621 Ry

     iteration # 35     ecut=    60.00 Ry     beta= 0.15
     Davidson diagonalization with overlap

---- Real-time Memory Report at c_bands before calling an iterative solver
             0 MiB given to the printing process from OS
             0 MiB allocation reported by mallinfo(arena+hblkhd)
        169069 MiB available memory on the node where the printing process lives
------------------
     ethr =  6.17E-09,  avg # of iterations =  2.1

     negative rho (up, down):  7.924E-01 0.000E+00

     total cpu time spent up to now is      525.8 secs

     total energy              =   -4399.91799343 Ry
     estimated scf accuracy    <       0.00002031 Ry

     iteration # 36     ecut=    60.00 Ry     beta= 0.15
     Davidson diagonalization with overlap

---- Real-time Memory Report at c_bands before calling an iterative solver
             0 MiB given to the printing process from OS
             0 MiB allocation reported by mallinfo(arena+hblkhd)
        169080 MiB available memory on the node where the printing process lives
------------------
     ethr =  4.78E-09,  avg # of iterations =  2.3

     negative rho (up, down):  7.923E-01 0.000E+00

     total cpu time spent up to now is      539.7 secs

     total energy              =   -4399.91799529 Ry
     estimated scf accuracy    <       0.00000878 Ry

     iteration # 37     ecut=    60.00 Ry     beta= 0.15
     Davidson diagonalization with overlap

---- Real-time Memory Report at c_bands before calling an iterative solver
             0 MiB given to the printing process from OS
             0 MiB allocation reported by mallinfo(arena+hblkhd)
        169077 MiB available memory on the node where the printing process lives
------------------
     ethr =  2.07E-09,  avg # of iterations =  2.7

     negative rho (up, down):  7.923E-01 0.000E+00

     total cpu time spent up to now is      553.6 secs

     total energy              =   -4399.91799493 Ry
     estimated scf accuracy    <       0.00000629 Ry

     iteration # 38     ecut=    60.00 Ry     beta= 0.15
     Davidson diagonalization with overlap

---- Real-time Memory Report at c_bands before calling an iterative solver
             0 MiB given to the printing process from OS
             0 MiB allocation reported by mallinfo(arena+hblkhd)
        169111 MiB available memory on the node where the printing process lives
------------------
     ethr =  1.48E-09,  avg # of iterations =  2.3

     negative rho (up, down):  7.923E-01 0.000E+00

     total cpu time spent up to now is      567.3 secs

     total energy              =   -4399.91799394 Ry
     estimated scf accuracy    <       0.00000412 Ry

     iteration # 39     ecut=    60.00 Ry     beta= 0.15
     Davidson diagonalization with overlap

---- Real-time Memory Report at c_bands before calling an iterative solver
             0 MiB given to the printing process from OS
             0 MiB allocation reported by mallinfo(arena+hblkhd)
        169113 MiB available memory on the node where the printing process lives
------------------
     ethr =  9.70E-10,  avg # of iterations =  2.4

     negative rho (up, down):  7.923E-01 0.000E+00

     total cpu time spent up to now is      581.1 secs

     total energy              =   -4399.91799364 Ry
     estimated scf accuracy    <       0.00000250 Ry

     iteration # 40     ecut=    60.00 Ry     beta= 0.15
     Davidson diagonalization with overlap

---- Real-time Memory Report at c_bands before calling an iterative solver
             0 MiB given to the printing process from OS
             0 MiB allocation reported by mallinfo(arena+hblkhd)
        169114 MiB available memory on the node where the printing process lives
------------------
     ethr =  5.89E-10,  avg # of iterations =  2.0

     negative rho (up, down):  7.923E-01 0.000E+00

     total cpu time spent up to now is      594.6 secs

     total energy              =   -4399.91799435 Ry
     estimated scf accuracy    <       0.00000153 Ry

     iteration # 41     ecut=    60.00 Ry     beta= 0.15
     Davidson diagonalization with overlap

---- Real-time Memory Report at c_bands before calling an iterative solver
             0 MiB given to the printing process from OS
             0 MiB allocation reported by mallinfo(arena+hblkhd)
        169116 MiB available memory on the node where the printing process lives
------------------
     ethr =  3.61E-10,  avg # of iterations =  2.2

     negative rho (up, down):  7.924E-01 0.000E+00

     total cpu time spent up to now is      608.1 secs

     total energy              =   -4399.91799485 Ry
     estimated scf accuracy    <       0.00000099 Ry

     iteration # 42     ecut=    60.00 Ry     beta= 0.15
     Davidson diagonalization with overlap

---- Real-time Memory Report at c_bands before calling an iterative solver
             0 MiB given to the printing process from OS
             0 MiB allocation reported by mallinfo(arena+hblkhd)
        169114 MiB available memory on the node where the printing process lives
------------------
     ethr =  2.33E-10,  avg # of iterations =  2.5

     negative rho (up, down):  7.924E-01 0.000E+00

     total cpu time spent up to now is      621.6 secs

     total energy              =   -4399.91799548 Ry
     estimated scf accuracy    <       0.00000070 Ry

     iteration # 43     ecut=    60.00 Ry     beta= 0.15
     Davidson diagonalization with overlap

---- Real-time Memory Report at c_bands before calling an iterative solver
             0 MiB given to the printing process from OS
             0 MiB allocation reported by mallinfo(arena+hblkhd)
        169117 MiB available memory on the node where the printing process lives
------------------
     ethr =  1.64E-10,  avg # of iterations =  3.9

     negative rho (up, down):  7.924E-01 0.000E+00

     total cpu time spent up to now is      636.8 secs

     total energy              =   -4399.91799557 Ry
     estimated scf accuracy    <       0.00000031 Ry

     iteration # 44     ecut=    60.00 Ry     beta= 0.15
     Davidson diagonalization with overlap

---- Real-time Memory Report at c_bands before calling an iterative solver
             0 MiB given to the printing process from OS
             0 MiB allocation reported by mallinfo(arena+hblkhd)
        169104 MiB available memory on the node where the printing process lives
------------------
     ethr =  7.29E-11,  avg # of iterations =  3.7

     negative rho (up, down):  7.924E-01 0.000E+00

     total cpu time spent up to now is      651.4 secs

     total energy              =   -4399.91799553 Ry
     estimated scf accuracy    <       0.00000016 Ry

     iteration # 45     ecut=    60.00 Ry     beta= 0.15
     Davidson diagonalization with overlap

---- Real-time Memory Report at c_bands before calling an iterative solver
             0 MiB given to the printing process from OS
             0 MiB allocation reported by mallinfo(arena+hblkhd)
        169101 MiB available memory on the node where the printing process lives
------------------
     ethr =  3.80E-11,  avg # of iterations =  3.0

     negative rho (up, down):  7.924E-01 0.000E+00

     total cpu time spent up to now is      665.8 secs

     total energy              =   -4399.91799550 Ry
     estimated scf accuracy    <       0.00000011 Ry

     iteration # 46     ecut=    60.00 Ry     beta= 0.15
     Davidson diagonalization with overlap

---- Real-time Memory Report at c_bands before calling an iterative solver
             0 MiB given to the printing process from OS
             0 MiB allocation reported by mallinfo(arena+hblkhd)
        169100 MiB available memory on the node where the printing process lives
------------------
     ethr =  2.55E-11,  avg # of iterations =  2.2

     negative rho (up, down):  7.924E-01 0.000E+00

     total cpu time spent up to now is      679.7 secs

     total energy              =   -4399.91799550 Ry
     estimated scf accuracy    <       0.00000006 Ry

     iteration # 47     ecut=    60.00 Ry     beta= 0.15
     Davidson diagonalization with overlap

---- Real-time Memory Report at c_bands before calling an iterative solver
             0 MiB given to the printing process from OS
             0 MiB allocation reported by mallinfo(arena+hblkhd)
        169104 MiB available memory on the node where the printing process lives
------------------
     ethr =  1.49E-11,  avg # of iterations =  2.1

     negative rho (up, down):  7.924E-01 0.000E+00

     total cpu time spent up to now is      693.5 secs

     total energy              =   -4399.91799554 Ry
     estimated scf accuracy    <       0.00000003 Ry

     iteration # 48     ecut=    60.00 Ry     beta= 0.15
     Davidson diagonalization with overlap

---- Real-time Memory Report at c_bands before calling an iterative solver
             0 MiB given to the printing process from OS
             0 MiB allocation reported by mallinfo(arena+hblkhd)
        169113 MiB available memory on the node where the printing process lives
------------------
     ethr =  8.04E-12,  avg # of iterations =  2.8

     negative rho (up, down):  7.924E-01 0.000E+00

     total cpu time spent up to now is      707.7 secs

     total energy              =   -4399.91799556 Ry
     estimated scf accuracy    <       0.00000001 Ry

     iteration # 49     ecut=    60.00 Ry     beta= 0.15
     Davidson diagonalization with overlap

---- Real-time Memory Report at c_bands before calling an iterative solver
             0 MiB given to the printing process from OS
             0 MiB allocation reported by mallinfo(arena+hblkhd)
        169112 MiB available memory on the node where the printing process lives
------------------
     ethr =  3.44E-12,  avg # of iterations =  2.8

     negative rho (up, down):  7.924E-01 0.000E+00

     total cpu time spent up to now is      722.0 secs

     End of self-consistent calculation

          k = 0.0000 0.0000 0.0000 ( 65197 PWs)   bands (ev):

   -92.7247 -92.6722 -92.5787 -92.5306 -92.4727 -92.4310 -92.4141 -92.2903
   -56.0782 -56.0589 -55.9361 -55.9254 -55.9185 -55.9123 -55.8773 -55.8479
   -55.8328 -55.8305 -55.8220 -55.7805 -55.7609 -55.7243 -55.7052 -55.6724
   -55.6662 -55.6196 -55.6164 -55.6162 -55.6079 -55.5641 -55.5444 -55.4580
   -31.3006 -31.2807 -31.1402 -31.1278 -31.0939 -31.0528 -30.8243 -30.7044
   -29.8724 -29.8288 -29.8047 -29.6952 -15.1052 -15.0623 -14.9818 -14.8513
   -14.6607 -14.5367 -14.2425 -14.2258 -14.1934 -14.1504 -14.1075 -14.0971
   -14.0820 -14.0663 -14.0372 -14.0141 -13.9540 -13.8046 -13.6284 -13.5927
   -13.5611 -13.5322 -13.5139 -13.4632 -13.4280 -13.3449 -13.2739 -13.1717
   -13.1465 -13.1331 -13.1165 -13.0980 -13.0811 -13.0488 -13.0282 -13.0109
   -12.9856 -12.9599 -12.9479 -12.9411 -12.9274 -12.9183 -12.8232 -12.7926
   -12.7867 -12.6446 -12.6137 -12.6063 -12.3655 -12.2198 -12.0557 -11.9826
   -11.8859 -11.8115 -11.8010 -11.7779 -11.7606 -11.6967 -11.6798 -11.6444
   -11.6161 -11.5044 -11.4244 -11.4207  -2.9661  -2.7335  -2.5040  -2.3573
    -2.2941  -2.1517  -1.8448  -1.8307  -1.8106  -1.7267  -1.7073  -1.6394
    -1.6233  -1.5819  -1.5365  -1.3560  -1.1318  -1.1026  -0.9548  -0.9407
    -0.8940  -0.8776  -0.8317  -0.8151  -0.7579  -0.7316  -0.6604  -0.6474
    -0.5711  -0.4399  -0.4265  -0.3985  -0.3169  -0.3005  -0.2921  -0.2247
    -0.1522  -0.1157  -0.0563  -0.0321   0.0278   0.1103   0.1555   0.1792
     0.1874   0.4442   0.4606   0.6322   0.6984   0.7627   0.8092   0.8979
     0.9119   0.9296   0.9971   1.0241   1.0598   1.1166   1.2493   1.3063
     1.3281   1.3488   1.3581   1.4247   1.4973   1.6000   1.6138   1.6746
     1.6886   1.7306   1.7518   1.7583   1.8142   1.8668   1.8776   1.9127
     1.9506   2.0015   2.1317   2.2140   2.2593   2.2798   2.4258   2.4415
     2.4854   2.4890   2.5979   2.6326   2.6593   2.6782   2.6918   2.7517
     2.7957   2.8818   2.9153   2.9276   2.9344   3.0010   3.0050   3.0292
     3.0375   3.0465   3.0634   3.0650   3.0786   3.0837   3.0968   3.1064
     3.1125   3.1328   3.1535   3.1589   3.1707   3.1977   3.3115   3.4176
     4.0884   4.4005   4.7445   4.8570   5.0128   5.8229   5.9059   5.9614
     5.9971   6.2903   6.3375   6.4709   6.4806   6.7370   6.9945   7.0829
     7.1650   7.2942   7.4735   7.5685   7.6368   7.6462   7.6715   7.8829
     7.9430   8.0926   8.1022   8.1627   8.4391   8.5837   8.8010   8.8549

     occupation numbers 
     1.0000   1.0000   1.0000   1.0000   1.0000   1.0000   1.0000   1.0000
     1.0000   1.0000   1.0000   1.0000   1.0000   1.0000   1.0000   1.0000
     1.0000   1.0000   1.0000   1.0000   1.0000   1.0000   1.0000   1.0000
     1.0000   1.0000   1.0000   1.0000   1.0000   1.0000   1.0000   1.0000
     1.0000   1.0000   1.0000   1.0000   1.0000   1.0000   1.0000   1.0000
     1.0000   1.0000   1.0000   1.0000   1.0000   1.0000   1.0000   1.0000
     1.0000   1.0000   1.0000   1.0000   1.0000   1.0000   1.0000   1.0000
     1.0000   1.0000   1.0000   1.0000   1.0000   1.0000   1.0000   1.0000
     1.0000   1.0000   1.0000   1.0000   1.0000   1.0000   1.0000   1.0000
     1.0000   1.0000   1.0000   1.0000   1.0000   1.0000   1.0000   1.0000
     1.0000   1.0000   1.0000   1.0000   1.0000   1.0000   1.0000   1.0000
     1.0000   1.0000   1.0000   1.0000   1.0000   1.0000   1.0000   1.0000
     1.0000   1.0000   1.0000   1.0000   1.0000   1.0000   1.0000   1.0000
     1.0000   1.0000   1.0000   1.0000   1.0000   1.0000   1.0000   1.0000
     1.0000   1.0000   1.0000   1.0000   1.0000   1.0000   1.0000   1.0000
     1.0000   1.0000   1.0000   1.0000   1.0000   1.0000   1.0000   1.0000
     1.0000   1.0000   1.0000   1.0000   1.0000   1.0000   1.0000   1.0000
     1.0000   1.0000   1.0000   1.0000   1.0000   1.0000   1.0000   1.0000
     1.0000   1.0000   1.0000   1.0000   1.0000   1.0000   1.0000   1.0000
     1.0000   1.0000   1.0000   1.0000   0.9999   0.9999   0.9999   0.9998
     0.9998   0.9998   0.9997   0.9996   0.9996   0.9994   0.9989   0.9985
     0.9983   0.9981   0.9981   0.9974   0.9963   0.9943   0.9939   0.9922
     0.9917   0.9902   0.9894   0.9891   0.9865   0.9835   0.9828   0.9805
     0.9777   0.9733   0.9590   0.9470   0.9394   0.9356   0.9036   0.8996
     0.8876   0.8866   0.8524   0.8402   0.8304   0.8232   0.8179   0.7935
     0.7743   0.7341   0.7175   0.7113   0.7079   0.6731   0.6709   0.6578
     0.6532   0.6483   0.6389   0.6380   0.6304   0.6276   0.6202   0.6148
     0.6113   0.5997   0.5878   0.5846   0.5778   0.5621   0.4949   0.4324
     0.1217   0.0516   0.0162   0.0105   0.0056   0.0001   0.0001   0.0000
     0.0000   0.0000   0.0000   0.0000   0.0000   0.0000   0.0000   0.0000
     0.0000   0.0000   0.0000   0.0000   0.0000   0.0000   0.0000   0.0000
     0.0000   0.0000   0.0000   0.0000   0.0000   0.0000   0.0000   0.0000

          k = 0.0000 0.2500 0.0000 ( 65257 PWs)   bands (ev):

   -92.7247 -92.6722 -92.5787 -92.5306 -92.4727 -92.4310 -92.4141 -92.2903
   -56.0782 -56.0589 -55.9361 -55.9254 -55.9185 -55.9123 -55.8773 -55.8479
   -55.8328 -55.8305 -55.8220 -55.7805 -55.7609 -55.7243 -55.7052 -55.6724
   -55.6662 -55.6196 -55.6164 -55.6162 -55.6079 -55.5641 -55.5444 -55.4580
   -31.3004 -31.2806 -31.1404 -31.1269 -31.0948 -31.0529 -30.8240 -30.7047
   -29.8718 -29.8285 -29.8053 -29.6955 -15.0686 -15.0362 -14.9567 -14.8219
   -14.7004 -14.5279 -14.3891 -14.2095 -14.1747 -14.1550 -14.1267 -14.0683
   -14.0617 -14.0470 -14.0271 -13.9869 -13.8733 -13.8342 -13.6716 -13.6530
   -13.6026 -13.5676 -13.5233 -13.4805 -13.4435 -13.3666 -13.3310 -13.2853
   -13.2140 -13.1706 -13.1336 -13.1259 -13.1027 -13.0274 -13.0023 -12.9725
   -12.9557 -12.9251 -12.8900 -12.8770 -12.8527 -12.8227 -12.8166 -12.7926
   -12.7628 -12.6258 -12.5423 -12.4827 -12.4269 -12.2710 -12.1130 -12.0502
   -11.8514 -11.8083 -11.7808 -11.7530 -11.7363 -11.6884 -11.6774 -11.6550
   -11.6199 -11.5189 -11.4661 -11.4553  -2.8308  -2.6092  -2.4716  -2.2895
    -2.2462  -2.0824  -1.8634  -1.7784  -1.7654  -1.7078  -1.6055  -1.5891
    -1.5549  -1.5291  -1.4850  -1.2874  -1.1587  -1.1467  -1.0701  -1.0596
    -0.9556  -0.9257  -0.8696  -0.8438  -0.8024  -0.7381  -0.7118  -0.6797
    -0.6490  -0.6320  -0.5982  -0.5255  -0.4736  -0.4076  -0.2977  -0.2764
    -0.2354  -0.1185  -0.0846  -0.0183   0.0277   0.0943   0.1083   0.1345
     0.1919   0.4918   0.5802   0.6101   0.7008   0.7460   0.7641   0.8862
     0.9041   0.9968   1.0241   1.0513   1.1664   1.2584   1.2812   1.3055
     1.3242   1.3502   1.4096   1.4375   1.4637   1.5126   1.5466   1.5758
     1.6568   1.6921   1.7279   1.7813   1.8338   1.8720   1.9022   1.9332
     1.9496   2.0351   2.1670   2.2403   2.2633   2.3352   2.3809   2.4195
     2.4286   2.4915   2.5304   2.6146   2.6523   2.6668   2.7717   2.8447
     2.8715   2.8952   2.9176   2.9354   2.9430   2.9502   2.9616   2.9905
     2.9922   3.0105   3.0175   3.0249   3.0440   3.0551   3.0611   3.0837
     3.0949   3.1000   3.1344   3.1513   3.2128   3.5756   3.6279   3.8595
     4.2775   4.3980   4.6827   5.0065   5.0450   5.6179   5.7652   5.9119
     5.9543   6.0675   6.0985   6.1647   6.5876   6.8828   6.9261   7.1004
     7.3155   7.4472   7.4666   7.4835   7.6265   7.7477   7.7934   7.9866
     8.0262   8.0954   8.1751   8.2886   8.3913   8.5870   8.7213   8.9204

     occupation numbers 
     1.0000   1.0000   1.0000   1.0000   1.0000   1.0000   1.0000   1.0000
     1.0000   1.0000   1.0000   1.0000   1.0000   1.0000   1.0000   1.0000
     1.0000   1.0000   1.0000   1.0000   1.0000   1.0000   1.0000   1.0000
     1.0000   1.0000   1.0000   1.0000   1.0000   1.0000   1.0000   1.0000
     1.0000   1.0000   1.0000   1.0000   1.0000   1.0000   1.0000   1.0000
     1.0000   1.0000   1.0000   1.0000   1.0000   1.0000   1.0000   1.0000
     1.0000   1.0000   1.0000   1.0000   1.0000   1.0000   1.0000   1.0000
     1.0000   1.0000   1.0000   1.0000   1.0000   1.0000   1.0000   1.0000
     1.0000   1.0000   1.0000   1.0000   1.0000   1.0000   1.0000   1.0000
     1.0000   1.0000   1.0000   1.0000   1.0000   1.0000   1.0000   1.0000
     1.0000   1.0000   1.0000   1.0000   1.0000   1.0000   1.0000   1.0000
     1.0000   1.0000   1.0000   1.0000   1.0000   1.0000   1.0000   1.0000
     1.0000   1.0000   1.0000   1.0000   1.0000   1.0000   1.0000   1.0000
     1.0000   1.0000   1.0000   1.0000   1.0000   1.0000   1.0000   1.0000
     1.0000   1.0000   1.0000   1.0000   1.0000   1.0000   1.0000   1.0000
     1.0000   1.0000   1.0000   1.0000   1.0000   1.0000   1.0000   1.0000
     1.0000   1.0000   1.0000   1.0000   1.0000   1.0000   1.0000   1.0000
     1.0000   1.0000   1.0000   1.0000   1.0000   1.0000   1.0000   1.0000
     1.0000   1.0000   1.0000   1.0000   1.0000   1.0000   1.0000   1.0000
     1.0000   1.0000   1.0000   1.0000   0.9999   0.9999   0.9999   0.9998
     0.9998   0.9997   0.9996   0.9996   0.9992   0.9988   0.9987   0.9985
     0.9983   0.9981   0.9975   0.9972   0.9968   0.9961   0.9954   0.9948
     0.9927   0.9916   0.9903   0.9881   0.9854   0.9832   0.9812   0.9790
     0.9778   0.9701   0.9542   0.9427   0.9387   0.9246   0.9145   0.9052
     0.9029   0.8859   0.8743   0.8466   0.8330   0.8276   0.7849   0.7519
     0.7391   0.7275   0.7164   0.7074   0.7035   0.6998   0.6938   0.6786
     0.6777   0.6679   0.6642   0.6601   0.6497   0.6436   0.6402   0.6276
     0.6213   0.6184   0.5988   0.5891   0.5532   0.3427   0.3147   0.2043
     0.0739   0.0520   0.0202   0.0057   0.0048   0.0003   0.0001   0.0001
     0.0000   0.0000   0.0000   0.0000   0.0000   0.0000   0.0000   0.0000
     0.0000   0.0000   0.0000   0.0000   0.0000   0.0000   0.0000   0.0000
     0.0000   0.0000   0.0000   0.0000   0.0000   0.0000   0.0000   0.0000

          k = 0.0000-0.5000 0.0000 ( 65180 PWs)   bands (ev):

   -92.7247 -92.6722 -92.5787 -92.5306 -92.4727 -92.4310 -92.4141 -92.2903
   -56.0782 -56.0589 -55.9361 -55.9254 -55.9185 -55.9123 -55.8773 -55.8479
   -55.8328 -55.8305 -55.8220 -55.7805 -55.7609 -55.7243 -55.7052 -55.6724
   -55.6662 -55.6196 -55.6164 -55.6162 -55.6079 -55.5641 -55.5444 -55.4580
   -31.3002 -31.2805 -31.1406 -31.1260 -31.0958 -31.0531 -30.8238 -30.7050
   -29.8712 -29.8282 -29.8060 -29.6958 -15.0339 -14.9850 -14.9337 -14.8029
   -14.7218 -14.5807 -14.4358 -14.3028 -14.1811 -14.1158 -14.0686 -14.0620
   -14.0112 -13.9945 -13.9494 -13.9267 -13.9034 -13.8644 -13.8260 -13.7966
   -13.6075 -13.5495 -13.5311 -13.4801 -13.4506 -13.3818 -13.3548 -13.3057
   -13.2936 -13.2408 -13.1340 -13.1239 -13.0731 -13.0666 -12.9921 -12.9765
   -12.9521 -12.9052 -12.8594 -12.8459 -12.8157 -12.7855 -12.7447 -12.7283
   -12.6750 -12.6241 -12.5379 -12.4079 -12.3461 -12.2662 -12.2268 -12.1963
   -11.8052 -11.8030 -11.7759 -11.7393 -11.7047 -11.6936 -11.6498 -11.6460
   -11.6009 -11.5409 -11.5270 -11.5125  -2.6163  -2.5565  -2.4060  -2.3339
    -2.0527  -1.9691  -1.8423  -1.7041  -1.6673  -1.6478  -1.5685  -1.5366
    -1.4565  -1.4204  -1.3434  -1.3031  -1.2640  -1.2368  -1.1797  -1.1433
    -1.0937  -1.0595  -1.0273  -0.9912  -0.8831  -0.8378  -0.8034  -0.8024
    -0.7157  -0.6824  -0.6607  -0.6120  -0.5262  -0.4565  -0.3713  -0.3445
    -0.2396  -0.1968  -0.0533  -0.0142   0.0089   0.0679   0.1847   0.2345
     0.3679   0.4362   0.4430   0.5713   0.6184   0.7241   0.8496   0.9574
     0.9887   1.0270   1.0316   1.0739   1.0874   1.1238   1.1404   1.1495
     1.2609   1.3213   1.3522   1.3785   1.6381   1.6678   1.6875   1.7851
     1.8106   1.8407   1.8564   1.8864   1.8975   1.9092   1.9409   1.9795
     2.0070   2.0355   2.0432   2.0734   2.1281   2.2108   2.2385   2.4213
     2.5783   2.5884   2.6066   2.6422   2.6474   2.6583   2.7035   2.7197
     2.7632   2.7772   2.8040   2.8848   2.8927   2.9546   2.9696   2.9852
     2.9901   3.0072   3.0140   3.0161   3.0201   3.0261   3.0396   3.0534
     3.0613   3.1193   3.1250   3.1408   3.1949   4.1055   4.1241   4.1542
     4.2383   4.7237   4.8740   5.0097   5.1358   5.4021   5.4433   5.5712
     5.6896   5.9883   6.0203   6.0393   6.7200   6.8444   6.9390   7.2085
     7.3126   7.3293   7.4273   7.5277   7.7329   7.8237   7.8305   7.8885
     8.1275   8.2209   8.4060   8.4764   8.6442   8.7552   8.7973   8.8517

     occupation numbers 
     1.0000   1.0000   1.0000   1.0000   1.0000   1.0000   1.0000   1.0000
     1.0000   1.0000   1.0000   1.0000   1.0000   1.0000   1.0000   1.0000
     1.0000   1.0000   1.0000   1.0000   1.0000   1.0000   1.0000   1.0000
     1.0000   1.0000   1.0000   1.0000   1.0000   1.0000   1.0000   1.0000
     1.0000   1.0000   1.0000   1.0000   1.0000   1.0000   1.0000   1.0000
     1.0000   1.0000   1.0000   1.0000   1.0000   1.0000   1.0000   1.0000
     1.0000   1.0000   1.0000   1.0000   1.0000   1.0000   1.0000   1.0000
     1.0000   1.0000   1.0000   1.0000   1.0000   1.0000   1.0000   1.0000
     1.0000   1.0000   1.0000   1.0000   1.0000   1.0000   1.0000   1.0000
     1.0000   1.0000   1.0000   1.0000   1.0000   1.0000   1.0000   1.0000
     1.0000   1.0000   1.0000   1.0000   1.0000   1.0000   1.0000   1.0000
     1.0000   1.0000   1.0000   1.0000   1.0000   1.0000   1.0000   1.0000
     1.0000   1.0000   1.0000   1.0000   1.0000   1.0000   1.0000   1.0000
     1.0000   1.0000   1.0000   1.0000   1.0000   1.0000   1.0000   1.0000
     1.0000   1.0000   1.0000   1.0000   1.0000   1.0000   1.0000   1.0000
     1.0000   1.0000   1.0000   1.0000   1.0000   1.0000   1.0000   1.0000
     1.0000   1.0000   1.0000   1.0000   1.0000   1.0000   1.0000   1.0000
     1.0000   1.0000   1.0000   1.0000   1.0000   1.0000   1.0000   1.0000
     1.0000   1.0000   1.0000   1.0000   1.0000   1.0000   1.0000   1.0000
     1.0000   1.0000   1.0000   1.0000   1.0000   0.9999   0.9999   0.9998
     0.9997   0.9996   0.9996   0.9995   0.9995   0.9994   0.9993   0.9993
     0.9988   0.9984   0.9981   0.9979   0.9933   0.9924   0.9918   0.9879
     0.9867   0.9850   0.9841   0.9823   0.9816   0.9808   0.9784   0.9753
     0.9728   0.9701   0.9693   0.9661   0.9595   0.9476   0.9430   0.9047
     0.8590   0.8557   0.8494   0.8367   0.8348   0.8308   0.8133   0.8068
     0.7885   0.7825   0.7706   0.7327   0.7288   0.6975   0.6897   0.6815
     0.6789   0.6697   0.6661   0.6649   0.6627   0.6595   0.6521   0.6445
     0.6401   0.6074   0.6042   0.5951   0.5637   0.1167   0.1114   0.1031
     0.0824   0.0174   0.0098   0.0056   0.0032   0.0009   0.0007   0.0004
     0.0002   0.0000   0.0000   0.0000   0.0000   0.0000   0.0000   0.0000
     0.0000   0.0000   0.0000   0.0000   0.0000   0.0000   0.0000   0.0000
     0.0000   0.0000   0.0000   0.0000   0.0000   0.0000   0.0000   0.0000

          k = 0.2500 0.2500 0.0000 ( 65198 PWs)   bands (ev):

   -92.7247 -92.6722 -92.5787 -92.5306 -92.4727 -92.4310 -92.4141 -92.2903
   -56.0782 -56.0589 -55.9361 -55.9254 -55.9185 -55.9123 -55.8773 -55.8479
   -55.8328 -55.8305 -55.8220 -55.7805 -55.7609 -55.7243 -55.7052 -55.6724
   -55.6662 -55.6196 -55.6164 -55.6162 -55.6079 -55.5641 -55.5444 -55.4580
   -31.2988 -31.2822 -31.1400 -31.1268 -31.0947 -31.0533 -30.8242 -30.7048
   -29.8709 -29.8295 -29.8049 -29.6959 -15.0400 -15.0008 -14.9290 -14.8114
   -14.6932 -14.5683 -14.4948 -14.2889 -14.1329 -14.1199 -14.0841 -14.0546
   -14.0320 -14.0069 -13.9715 -13.9521 -13.8652 -13.8480 -13.6880 -13.6732
   -13.6450 -13.6238 -13.5746 -13.5349 -13.4814 -13.4498 -13.3367 -13.2998
   -13.2530 -13.1651 -13.1257 -13.0900 -13.0733 -13.0427 -13.0227 -12.9798
   -12.9700 -12.9444 -12.9122 -12.8810 -12.7965 -12.7666 -12.7537 -12.7370
   -12.6996 -12.6252 -12.4873 -12.4754 -12.4325 -12.3001 -12.1488 -12.0868
   -11.8237 -11.7919 -11.7811 -11.7743 -11.7113 -11.6774 -11.6703 -11.6344
   -11.6273 -11.5353 -11.4943 -11.4767  -2.6926  -2.4834  -2.3657  -2.2716
    -2.1506  -2.0855  -1.8882  -1.7432  -1.7237  -1.6945  -1.6002  -1.5651
    -1.4718  -1.4446  -1.3943  -1.2632  -1.2148  -1.1418  -1.0969  -1.0532
    -1.0293  -1.0049  -0.9629  -0.9468  -0.8562  -0.8066  -0.7412  -0.6924
    -0.6629  -0.6125  -0.5987  -0.5360  -0.4858  -0.4287  -0.3953  -0.3091
    -0.2569  -0.2279  -0.1892  -0.1338  -0.0647  -0.0239   0.0035   0.0761
     0.1169   0.3839   0.5306   0.5668   0.6237   0.6645   0.7248   0.7781
     0.8386   0.8741   1.1481   1.2157   1.2887   1.3137   1.3629   1.3943
     1.4302   1.4664   1.4839   1.5116   1.5536   1.5639   1.5790   1.6244
     1.6655   1.7017   1.7537   1.7967   1.8066   1.8376   1.8740   1.9291
     1.9572   2.0791   2.1484   2.1846   2.2108   2.2783   2.3422   2.3708
     2.4064   2.4311   2.4433   2.5584   2.5930   2.6786   2.7912   2.8525
     2.8718   2.8756   2.8924   2.9055   2.9191   2.9334   2.9391   2.9511
     2.9643   2.9775   2.9953   3.0006   3.0123   3.0333   3.0454   3.0547
     3.0866   3.3874   3.4812   3.5237   3.5888   3.6254   3.8410   3.9306
     4.2795   4.4885   4.6931   4.9525   5.1596   5.6220   5.6747   5.7289
     5.8102   5.8713   6.0052   6.1599   6.2007   6.8048   6.8859   7.0529
     7.1600   7.5368   7.5862   7.6933   7.8305   7.8556   7.9355   8.0909
     8.1753   8.1968   8.2533   8.3098   8.4225   8.4533   8.6974   8.8183

     occupation numbers 
     1.0000   1.0000   1.0000   1.0000   1.0000   1.0000   1.0000   1.0000
     1.0000   1.0000   1.0000   1.0000   1.0000   1.0000   1.0000   1.0000
     1.0000   1.0000   1.0000   1.0000   1.0000   1.0000   1.0000   1.0000
     1.0000   1.0000   1.0000   1.0000   1.0000   1.0000   1.0000   1.0000
     1.0000   1.0000   1.0000   1.0000   1.0000   1.0000   1.0000   1.0000
     1.0000   1.0000   1.0000   1.0000   1.0000   1.0000   1.0000   1.0000
     1.0000   1.0000   1.0000   1.0000   1.0000   1.0000   1.0000   1.0000
     1.0000   1.0000   1.0000   1.0000   1.0000   1.0000   1.0000   1.0000
     1.0000   1.0000   1.0000   1.0000   1.0000   1.0000   1.0000   1.0000
     1.0000   1.0000   1.0000   1.0000   1.0000   1.0000   1.0000   1.0000
     1.0000   1.0000   1.0000   1.0000   1.0000   1.0000   1.0000   1.0000
     1.0000   1.0000   1.0000   1.0000   1.0000   1.0000   1.0000   1.0000
     1.0000   1.0000   1.0000   1.0000   1.0000   1.0000   1.0000   1.0000
     1.0000   1.0000   1.0000   1.0000   1.0000   1.0000   1.0000   1.0000
     1.0000   1.0000   1.0000   1.0000   1.0000   1.0000   1.0000   1.0000
     1.0000   1.0000   1.0000   1.0000   1.0000   1.0000   1.0000   1.0000
     1.0000   1.0000   1.0000   1.0000   1.0000   1.0000   1.0000   1.0000
     1.0000   1.0000   1.0000   1.0000   1.0000   1.0000   1.0000   1.0000
     1.0000   1.0000   1.0000   1.0000   1.0000   1.0000   1.0000   1.0000
     1.0000   1.0000   1.0000   1.0000   1.0000   1.0000   0.9999   0.9999
     0.9999   0.9998   0.9993   0.9990   0.9986   0.9984   0.9980   0.9977
     0.9973   0.9968   0.9965   0.9961   0.9953   0.9951   0.9948   0.9937
     0.9925   0.9913   0.9893   0.9873   0.9869   0.9852   0.9831   0.9793
     0.9772   0.9654   0.9568   0.9516   0.9476   0.9359   0.9231   0.9168
     0.9084   0.9023   0.8991   0.8655   0.8541   0.8231   0.7763   0.7482
     0.7389   0.7371   0.7289   0.7224   0.7156   0.7084   0.7055   0.6993
     0.6925   0.6855   0.6761   0.6733   0.6670   0.6556   0.6489   0.6438
     0.6260   0.4501   0.3956   0.3715   0.3356   0.3160   0.2122   0.1757
     0.0735   0.0392   0.0195   0.0072   0.0029   0.0003   0.0002   0.0002
     0.0001   0.0001   0.0000   0.0000   0.0000   0.0000   0.0000   0.0000
     0.0000   0.0000   0.0000   0.0000   0.0000   0.0000   0.0000   0.0000
     0.0000   0.0000   0.0000   0.0000   0.0000   0.0000   0.0000   0.0000

          k = 0.2500-0.5000 0.0000 ( 65138 PWs)   bands (ev):

   -92.7247 -92.6722 -92.5787 -92.5306 -92.4727 -92.4310 -92.4141 -92.2903
   -56.0782 -56.0589 -55.9361 -55.9254 -55.9185 -55.9123 -55.8773 -55.8479
   -55.8328 -55.8305 -55.8220 -55.7805 -55.7609 -55.7243 -55.7052 -55.6724
   -55.6662 -55.6196 -55.6164 -55.6162 -55.6079 -55.5641 -55.5444 -55.4580
   -31.2986 -31.2821 -31.1402 -31.1259 -31.0956 -31.0535 -30.8239 -30.7050
   -29.8702 -29.8292 -29.8056 -29.6962 -15.0033 -14.9580 -14.8904 -14.7724
   -14.7450 -14.6221 -14.5374 -14.4021 -14.0976 -14.0467 -14.0178 -13.9974
   -13.9813 -13.9671 -13.9336 -13.9151 -13.8815 -13.8425 -13.8159 -13.7860
   -13.6900 -13.6408 -13.5921 -13.5619 -13.5045 -13.4881 -13.3945 -13.3504
   -13.2293 -13.1653 -13.1450 -13.0652 -13.0533 -13.0382 -13.0105 -12.9924
   -12.9664 -12.9354 -12.8695 -12.8537 -12.8015 -12.7752 -12.7599 -12.6787
   -12.6476 -12.6273 -12.5443 -12.3962 -12.3435 -12.2549 -12.2136 -12.1913
   -11.7992 -11.7872 -11.7765 -11.7497 -11.7176 -11.6901 -11.6476 -11.6209
   -11.5980 -11.5537 -11.5281 -11.5164  -2.4745  -2.4085  -2.2799  -2.2027
    -2.0731  -1.9890  -1.8667  -1.7154  -1.6623  -1.6396  -1.5761  -1.5634
    -1.4674  -1.3991  -1.3143  -1.2651  -1.2556  -1.1923  -1.1499  -1.1154
    -1.0681  -1.0303  -0.9958  -0.9561  -0.9455  -0.8989  -0.8698  -0.8283
    -0.7975  -0.7300  -0.6285  -0.5890  -0.5110  -0.4460  -0.3981  -0.3558
    -0.3339  -0.2823  -0.1210  -0.1114  -0.0026   0.0321   0.0393   0.0853
     0.1139   0.1535   0.1798   0.2509   0.5200   0.6155   0.6890   0.7455
     1.0073   1.0323   1.1215   1.1448   1.3128   1.3469   1.3880   1.4098
     1.4265   1.4472   1.5090   1.5559   1.5918   1.6712   1.7578   1.7978
     1.8203   1.8280   1.8655   1.8802   1.8841   1.9299   1.9423   1.9602
     1.9981   2.0120   2.0346   2.0684   2.1271   2.1649   2.2434   2.3826
     2.5314   2.5482   2.5674   2.5942   2.6189   2.6446   2.6670   2.6801
     2.6999   2.7733   2.8139   2.8590   2.8707   2.8822   2.8956   2.9091
     2.9229   2.9419   2.9528   2.9814   2.9943   3.0078   3.0181   3.0258
     3.0370   3.5646   3.5732   3.7188   3.7688   4.1085   4.1573   4.1714
     4.2941   4.7422   4.8965   5.0446   5.1078   5.2817   5.4138   5.5976
     5.6058   5.7456   5.7651   6.1244   6.3870   6.4758   6.6329   7.0048
     7.4490   7.5400   7.6875   7.7943   7.8571   7.8739   8.0220   8.1288
     8.3389   8.3746   8.4394   8.5238   8.5353   8.5981   8.6951   8.7495

     occupation numbers 
     1.0000   1.0000   1.0000   1.0000   1.0000   1.0000   1.0000   1.0000
     1.0000   1.0000   1.0000   1.0000   1.0000   1.0000   1.0000   1.0000
     1.0000   1.0000   1.0000   1.0000   1.0000   1.0000   1.0000   1.0000
     1.0000   1.0000   1.0000   1.0000   1.0000   1.0000   1.0000   1.0000
     1.0000   1.0000   1.0000   1.0000   1.0000   1.0000   1.0000   1.0000
     1.0000   1.0000   1.0000   1.0000   1.0000   1.0000   1.0000   1.0000
     1.0000   1.0000   1.0000   1.0000   1.0000   1.0000   1.0000   1.0000
     1.0000   1.0000   1.0000   1.0000   1.0000   1.0000   1.0000   1.0000
     1.0000   1.0000   1.0000   1.0000   1.0000   1.0000   1.0000   1.0000
     1.0000   1.0000   1.0000   1.0000   1.0000   1.0000   1.0000   1.0000
     1.0000   1.0000   1.0000   1.0000   1.0000   1.0000   1.0000   1.0000
     1.0000   1.0000   1.0000   1.0000   1.0000   1.0000   1.0000   1.0000
     1.0000   1.0000   1.0000   1.0000   1.0000   1.0000   1.0000   1.0000
     1.0000   1.0000   1.0000   1.0000   1.0000   1.0000   1.0000   1.0000
     1.0000   1.0000   1.0000   1.0000   1.0000   1.0000   1.0000   1.0000
     1.0000   1.0000   1.0000   1.0000   1.0000   1.0000   1.0000   1.0000
     1.0000   1.0000   1.0000   1.0000   1.0000   1.0000   1.0000   1.0000
     1.0000   1.0000   1.0000   1.0000   1.0000   1.0000   1.0000   1.0000
     1.0000   1.0000   1.0000   1.0000   1.0000   1.0000   1.0000   1.0000
     1.0000   1.0000   1.0000   1.0000   1.0000   1.0000   0.9999   0.9999
     0.9997   0.9996   0.9994   0.9993   0.9984   0.9982   0.9978   0.9975
     0.9973   0.9971   0.9961   0.9953   0.9945   0.9923   0.9891   0.9873
     0.9862   0.9857   0.9836   0.9827   0.9824   0.9793   0.9783   0.9769
     0.9737   0.9724   0.9702   0.9666   0.9596   0.9545   0.9422   0.9141
     0.8740   0.8688   0.8626   0.8537   0.8451   0.8358   0.8275   0.8225
     0.8147   0.7842   0.7661   0.7451   0.7395   0.7339   0.7273   0.7206
     0.7137   0.7040   0.6984   0.6835   0.6766   0.6694   0.6638   0.6597
     0.6535   0.3488   0.3441   0.2684   0.2446   0.1158   0.1023   0.0986
     0.0705   0.0163   0.0090   0.0049   0.0037   0.0017   0.0009   0.0003
     0.0003   0.0001   0.0001   0.0000   0.0000   0.0000   0.0000   0.0000
     0.0000   0.0000   0.0000   0.0000   0.0000   0.0000   0.0000   0.0000
     0.0000   0.0000   0.0000   0.0000   0.0000   0.0000   0.0000   0.0000

          k =-0.5000-0.5000 0.0000 ( 65132 PWs)   bands (ev):

   -92.7247 -92.6722 -92.5787 -92.5306 -92.4727 -92.4310 -92.4141 -92.2903
   -56.0782 -56.0589 -55.9361 -55.9254 -55.9185 -55.9123 -55.8773 -55.8479
   -55.8328 -55.8305 -55.8220 -55.7805 -55.7609 -55.7243 -55.7052 -55.6724
   -55.6662 -55.6196 -55.6164 -55.6162 -55.6079 -55.5641 -55.5444 -55.4580
   -31.2965 -31.2842 -31.1399 -31.1258 -31.0955 -31.0539 -30.8240 -30.7051
   -29.8692 -29.8302 -29.8052 -29.6966 -14.9565 -14.9311 -14.8127 -14.8021
   -14.7099 -14.6695 -14.6380 -14.5033 -14.0081 -13.9966 -13.9621 -13.9451
   -13.9263 -13.9149 -13.8820 -13.8726 -13.8624 -13.8488 -13.8357 -13.7584
   -13.7492 -13.7238 -13.6859 -13.6796 -13.5818 -13.5650 -13.4376 -13.3956
   -13.1789 -13.1432 -13.0760 -13.0490 -13.0401 -13.0252 -13.0074 -13.0002
   -12.9956 -12.9775 -12.8769 -12.8546 -12.7987 -12.7774 -12.7542 -12.6415
   -12.6263 -12.6201 -12.5604 -12.3847 -12.3398 -12.2426 -12.1993 -12.1876
   -11.7959 -11.7836 -11.7655 -11.7491 -11.7136 -11.6953 -11.6630 -11.6015
   -11.5812 -11.5755 -11.5255 -11.5220  -2.2504  -2.1747  -2.1651  -2.0918
    -2.0537  -1.9756  -1.9079  -1.7818  -1.6661  -1.6358  -1.5961  -1.5391
    -1.4672  -1.4536  -1.3817  -1.3393  -1.2228  -1.1939  -1.1449  -1.1162
    -1.0520  -1.0062  -0.9873  -0.9752  -0.9216  -0.8767  -0.8621  -0.7482
    -0.6894  -0.6450  -0.5953  -0.5675  -0.5562  -0.5220  -0.4799  -0.4449
    -0.4345  -0.3468  -0.2811  -0.2344  -0.2102  -0.1353  -0.0811  -0.0672
    -0.0103   0.0190   0.0277   0.0448   0.4912   0.5324   0.6357   0.6594
     1.0389   1.0532   1.0844   1.1245   1.3975   1.4172   1.4228   1.4635
     1.5919   1.6888   1.7146   1.7509   1.7691   1.7949   1.8016   1.8340
     1.8421   1.8559   1.8692   1.9236   1.9250   1.9545   1.9684   1.9886
     2.0020   2.0390   2.0667   2.0792   2.1111   2.1417   2.2070   2.2735
     2.5417   2.5755   2.5940   2.6138   2.6257   2.6545   2.6558   2.6760
     2.6847   2.7035   2.7158   2.7368   2.7796   2.8066   2.8117   2.8296
     2.8500   2.8596   2.8772   2.8835   2.9004   2.9901   2.9942   3.0230
     3.0332   3.9923   4.0142   4.0419   4.0434   4.2961   4.3731   4.3947
     4.6349   4.7573   4.8403   4.9694   5.0548   5.0738   5.1821   5.2795
     5.3768   5.8402   5.8880   5.9399   6.0185   6.3645   6.5617   6.5725
     7.7734   7.8509   7.9104   7.9236   7.9575   7.9733   8.0033   8.0690
     8.2425   8.2855   8.5559   8.5648   8.6005   8.6327   8.6379   8.6993

     occupation numbers 
     1.0000   1.0000   1.0000   1.0000   1.0000   1.0000   1.0000   1.0000
     1.0000   1.0000   1.0000   1.0000   1.0000   1.0000   1.0000   1.0000
     1.0000   1.0000   1.0000   1.0000   1.0000   1.0000   1.0000   1.0000
     1.0000   1.0000   1.0000   1.0000   1.0000   1.0000   1.0000   1.0000
     1.0000   1.0000   1.0000   1.0000   1.0000   1.0000   1.0000   1.0000
     1.0000   1.0000   1.0000   1.0000   1.0000   1.0000   1.0000   1.0000
     1.0000   1.0000   1.0000   1.0000   1.0000   1.0000   1.0000   1.0000
     1.0000   1.0000   1.0000   1.0000   1.0000   1.0000   1.0000   1.0000
     1.0000   1.0000   1.0000   1.0000   1.0000   1.0000   1.0000   1.0000
     1.0000   1.0000   1.0000   1.0000   1.0000   1.0000   1.0000   1.0000
     1.0000   1.0000   1.0000   1.0000   1.0000   1.0000   1.0000   1.0000
     1.0000   1.0000   1.0000   1.0000   1.0000   1.0000   1.0000   1.0000
     1.0000   1.0000   1.0000   1.0000   1.0000   1.0000   1.0000   1.0000
     1.0000   1.0000   1.0000   1.0000   1.0000   1.0000   1.0000   1.0000
     1.0000   1.0000   1.0000   1.0000   1.0000   1.0000   1.0000   1.0000
     1.0000   1.0000   1.0000   1.0000   1.0000   1.0000   1.0000   1.0000
     1.0000   1.0000   1.0000   1.0000   1.0000   1.0000   1.0000   1.0000
     1.0000   1.0000   1.0000   1.0000   1.0000   1.0000   1.0000   1.0000
     1.0000   1.0000   1.0000   1.0000   1.0000   1.0000   1.0000   1.0000
     1.0000   1.0000   1.0000   1.0000   1.0000   1.0000   1.0000   1.0000
     0.9996   0.9996   0.9995   0.9994   0.9977   0.9974   0.9974   0.9968
     0.9945   0.9917   0.9908   0.9894   0.9886   0.9874   0.9871   0.9854
     0.9850   0.9842   0.9834   0.9797   0.9796   0.9774   0.9762   0.9745
     0.9733   0.9697   0.9668   0.9654   0.9616   0.9577   0.9482   0.9368
     0.8708   0.8600   0.8537   0.8469   0.8427   0.8322   0.8317   0.8241
     0.8207   0.8133   0.8084   0.7997   0.7815   0.7694   0.7671   0.7589
     0.7494   0.7448   0.7363   0.7333   0.7250   0.6789   0.6767   0.6612
     0.6556   0.1530   0.1454   0.1363   0.1358   0.0701   0.0560   0.0525
     0.0240   0.0154   0.0112   0.0067   0.0046   0.0043   0.0026   0.0017
     0.0010   0.0001   0.0001   0.0000   0.0000   0.0000   0.0000   0.0000
     0.0000   0.0000   0.0000   0.0000   0.0000   0.0000   0.0000   0.0000
     0.0000   0.0000   0.0000   0.0000   0.0000   0.0000   0.0000   0.0000

          k = 0.2500 0.0000 0.0000 ( 65257 PWs)   bands (ev):

   -92.7247 -92.6722 -92.5787 -92.5306 -92.4727 -92.4310 -92.4141 -92.2903
   -56.0782 -56.0589 -55.9361 -55.9254 -55.9185 -55.9123 -55.8773 -55.8479
   -55.8328 -55.8305 -55.8220 -55.7805 -55.7609 -55.7243 -55.7052 -55.6724
[...]
     0.7425   0.7310   0.7177   0.7147   0.7041   0.6988   0.6913   0.6791
     0.6777   0.6630   0.6578   0.6535   0.6468   0.6358   0.6216   0.6194
     0.6151   0.6102   0.6054   0.5998   0.5273   0.3518   0.3188   0.2048
     0.0788   0.0464   0.0220   0.0056   0.0049   0.0003   0.0001   0.0001
     0.0000   0.0000   0.0000   0.0000   0.0000   0.0000   0.0000   0.0000
     0.0000   0.0000   0.0000   0.0000   0.0000   0.0000   0.0000   0.0000
     0.0000   0.0000   0.0000   0.0000   0.0000   0.0000   0.0000   0.0000

          k =-0.5000 0.0000 0.0000 ( 65180 PWs)   bands (ev):

   -92.7247 -92.6722 -92.5787 -92.5306 -92.4727 -92.4310 -92.4141 -92.2903
   -56.0782 -56.0589 -55.9361 -55.9254 -55.9185 -55.9123 -55.8773 -55.8479
   -55.8328 -55.8305 -55.8220 -55.7805 -55.7609 -55.7243 -55.7052 -55.6724
   -55.6662 -55.6196 -55.6164 -55.6162 -55.6079 -55.5641 -55.5444 -55.4580
   -31.2969 -31.2844 -31.1395 -31.1277 -31.0937 -31.0536 -30.8245 -30.7046
   -29.8705 -29.8308 -29.8039 -29.6960 -15.0388 -14.9867 -14.9248 -14.8202
   -14.7126 -14.5695 -14.4216 -14.2876 -14.1558 -14.1484 -14.1319 -14.0671
   -14.0156 -13.9826 -13.9336 -13.9316 -13.9146 -13.8621 -13.8529 -13.7420
   -13.5786 -13.5519 -13.5180 -13.5113 -13.4609 -13.3878 -13.3350 -13.2909
   -13.2672 -13.2617 -13.1328 -13.0776 -13.0678 -13.0472 -13.0339 -13.0098
   -12.9728 -12.9566 -12.9478 -12.9314 -12.7827 -12.6638 -12.6570 -12.6507
   -12.6213 -12.6139 -12.5639 -12.5069 -12.3824 -12.3499 -12.1931 -12.1470
   -11.8029 -11.7811 -11.7746 -11.7596 -11.7415 -11.6999 -11.6383 -11.6211
   -11.5885 -11.5423 -11.5330 -11.5177  -2.6060  -2.5676  -2.4036  -2.3647
    -2.0514  -1.9763  -1.8273  -1.7104  -1.6714  -1.6250  -1.5771  -1.5525
    -1.4296  -1.3851  -1.3693  -1.2870  -1.2522  -1.2361  -1.2050  -1.1476
    -1.0785  -1.0493  -1.0218  -0.9266  -0.8783  -0.8284  -0.7967  -0.7755
    -0.7453  -0.6980  -0.6731  -0.6345  -0.5365  -0.4642  -0.3987  -0.3374
    -0.1779  -0.1341  -0.0807  -0.0494   0.0096   0.0314   0.1666   0.2017
     0.2465   0.4159   0.5149   0.5616   0.6477   0.7101   0.8348   0.8453
     0.9782   1.0056   1.0605   1.0880   1.1284   1.1374   1.1826   1.2083
     1.2746   1.3222   1.3699   1.3773   1.6758   1.6814   1.7006   1.7178
     1.8305   1.8434   1.8526   1.8657   1.8965   1.9085   1.9470   1.9736
     1.9930   2.0536   2.0653   2.1183   2.1395   2.1958   2.3089   2.4020
     2.4771   2.4909   2.5745   2.6027   2.6242   2.6885   2.7055   2.7147
     2.7445   2.7817   2.8323   2.8636   2.9056   2.9315   2.9777   2.9802
     2.9858   2.9928   3.0098   3.0218   3.0348   3.0419   3.0582   3.0636
     3.0852   3.1057   3.1102   3.2379   3.2500   4.0646   4.1034   4.1595
     4.2923   4.7679   4.8389   5.0261   5.0282   5.4772   5.4912   5.5809
     5.6217   5.9819   6.0089   6.0494   6.7128   6.7843   6.9954   7.2647
     7.3005   7.3589   7.3836   7.5127   7.7271   7.7550   7.8504   7.8687
     8.1120   8.2957   8.4676   8.4981   8.6179   8.7278   8.7415   8.8397

     occupation numbers 
     1.0000   1.0000   1.0000   1.0000   1.0000   1.0000   1.0000   1.0000
     1.0000   1.0000   1.0000   1.0000   1.0000   1.0000   1.0000   1.0000
     1.0000   1.0000   1.0000   1.0000   1.0000   1.0000   1.0000   1.0000
     1.0000   1.0000   1.0000   1.0000   1.0000   1.0000   1.0000   1.0000
     1.0000   1.0000   1.0000   1.0000   1.0000   1.0000   1.0000   1.0000
     1.0000   1.0000   1.0000   1.0000   1.0000   1.0000   1.0000   1.0000
     1.0000   1.0000   1.0000   1.0000   1.0000   1.0000   1.0000   1.0000
     1.0000   1.0000   1.0000   1.0000   1.0000   1.0000   1.0000   1.0000
     1.0000   1.0000   1.0000   1.0000   1.0000   1.0000   1.0000   1.0000
     1.0000   1.0000   1.0000   1.0000   1.0000   1.0000   1.0000   1.0000
     1.0000   1.0000   1.0000   1.0000   1.0000   1.0000   1.0000   1.0000
     1.0000   1.0000   1.0000   1.0000   1.0000   1.0000   1.0000   1.0000
     1.0000   1.0000   1.0000   1.0000   1.0000   1.0000   1.0000   1.0000
     1.0000   1.0000   1.0000   1.0000   1.0000   1.0000   1.0000   1.0000
     1.0000   1.0000   1.0000   1.0000   1.0000   1.0000   1.0000   1.0000
     1.0000   1.0000   1.0000   1.0000   1.0000   1.0000   1.0000   1.0000
     1.0000   1.0000   1.0000   1.0000   1.0000   1.0000   1.0000   1.0000
     1.0000   1.0000   1.0000   1.0000   1.0000   1.0000   1.0000   1.0000
     1.0000   1.0000   1.0000   1.0000   1.0000   1.0000   1.0000   1.0000
     1.0000   1.0000   1.0000   1.0000   1.0000   0.9999   0.9999   0.9999
     0.9997   0.9997   0.9996   0.9995   0.9994   0.9993   0.9992   0.9991
     0.9987   0.9984   0.9979   0.9979   0.9922   0.9920   0.9913   0.9907
     0.9856   0.9849   0.9844   0.9836   0.9816   0.9808   0.9780   0.9758
     0.9741   0.9682   0.9669   0.9607   0.9580   0.9499   0.9300   0.9095
     0.8899   0.8861   0.8603   0.8508   0.8432   0.8192   0.8125   0.8088
     0.7965   0.7805   0.7577   0.7429   0.7224   0.7093   0.6854   0.6841
     0.6811   0.6774   0.6683   0.6618   0.6547   0.6508   0.6419   0.6388
     0.6268   0.6152   0.6126   0.5385   0.5313   0.1290   0.1173   0.1017
     0.0709   0.0148   0.0113   0.0053   0.0052   0.0006   0.0006   0.0004
     0.0003   0.0000   0.0000   0.0000   0.0000   0.0000   0.0000   0.0000
     0.0000   0.0000   0.0000   0.0000   0.0000   0.0000   0.0000   0.0000
     0.0000   0.0000   0.0000   0.0000   0.0000   0.0000   0.0000   0.0000

          k =-0.2500 0.2500 0.0000 ( 65198 PWs)   bands (ev):

   -92.7247 -92.6722 -92.5787 -92.5306 -92.4727 -92.4310 -92.4141 -92.2903
   -56.0782 -56.0589 -55.9361 -55.9254 -55.9185 -55.9123 -55.8773 -55.8479
   -55.8328 -55.8305 -55.8220 -55.7805 -55.7609 -55.7243 -55.7052 -55.6724
   -55.6662 -55.6196 -55.6164 -55.6162 -55.6079 -55.5641 -55.5444 -55.4580
   -31.2988 -31.2822 -31.1400 -31.1268 -31.0947 -31.0533 -30.8242 -30.7048
   -29.8709 -29.8295 -29.8049 -29.6959 -15.0413 -14.9998 -14.9273 -14.8099
   -14.6997 -14.5718 -14.4871 -14.2807 -14.1396 -14.1093 -14.0992 -14.0491
   -14.0278 -14.0084 -13.9877 -13.9494 -13.8617 -13.8492 -13.6959 -13.6703
   -13.6412 -13.6208 -13.5778 -13.5218 -13.4764 -13.4587 -13.3476 -13.2919
   -13.2466 -13.1691 -13.1279 -13.0861 -13.0637 -13.0388 -13.0168 -12.9931
   -12.9613 -12.9503 -12.9153 -12.8860 -12.7977 -12.7896 -12.7470 -12.7197
   -12.7130 -12.6233 -12.5145 -12.4650 -12.3992 -12.3058 -12.1378 -12.1008
   -11.8228 -11.8012 -11.7744 -11.7622 -11.7208 -11.6871 -11.6630 -11.6424
   -11.6194 -11.5350 -11.4897 -11.4799  -2.6910  -2.4824  -2.3614  -2.2734
    -2.1548  -2.0882  -1.8858  -1.7401  -1.7214  -1.6925  -1.6008  -1.5639
    -1.4715  -1.4377  -1.4120  -1.2687  -1.2130  -1.1452  -1.1168  -1.0562
    -1.0350  -0.9948  -0.9659  -0.9257  -0.8626  -0.8154  -0.7526  -0.6838
    -0.6588  -0.6073  -0.5787  -0.5333  -0.4759  -0.4323  -0.3891  -0.2908
    -0.2565  -0.2473  -0.2020  -0.1358  -0.0670  -0.0215   0.0107   0.0791
     0.1151   0.3645   0.5337   0.5751   0.6127   0.6712   0.7264   0.7793
     0.8437   0.8737   1.1555   1.2659   1.3052   1.3385   1.3446   1.3882
     1.4037   1.4487   1.4793   1.4943   1.5201   1.5637   1.5773   1.6230
     1.6412   1.6856   1.7681   1.7861   1.8050   1.8420   1.8711   1.9086
     1.9665   2.0683   2.1783   2.2087   2.2562   2.2758   2.3400   2.3830
     2.4089   2.4317   2.4550   2.5575   2.5915   2.6814   2.7893   2.8596
     2.8673   2.8822   2.8914   2.9018   2.9154   2.9245   2.9396   2.9532
     2.9640   2.9741   2.9859   2.9965   3.0021   3.0353   3.0461   3.0540
     3.0882   3.3807   3.4628   3.5254   3.6019   3.6262   3.8256   3.9390
     4.2775   4.4873   4.6929   4.9649   5.1599   5.6229   5.6739   5.7365
     5.8091   5.8725   6.0033   6.1717   6.1837   6.7496   6.8861   7.0668
     7.2226   7.5501   7.5943   7.6546   7.8163   7.8673   7.9052   8.1181
     8.1559   8.1888   8.2969   8.3554   8.4266   8.4608   8.6057   8.8113

     occupation numbers 
     1.0000   1.0000   1.0000   1.0000   1.0000   1.0000   1.0000   1.0000
     1.0000   1.0000   1.0000   1.0000   1.0000   1.0000   1.0000   1.0000
     1.0000   1.0000   1.0000   1.0000   1.0000   1.0000   1.0000   1.0000
     1.0000   1.0000   1.0000   1.0000   1.0000   1.0000   1.0000   1.0000
     1.0000   1.0000   1.0000   1.0000   1.0000   1.0000   1.0000   1.0000
     1.0000   1.0000   1.0000   1.0000   1.0000   1.0000   1.0000   1.0000
     1.0000   1.0000   1.0000   1.0000   1.0000   1.0000   1.0000   1.0000
     1.0000   1.0000   1.0000   1.0000   1.0000   1.0000   1.0000   1.0000
     1.0000   1.0000   1.0000   1.0000   1.0000   1.0000   1.0000   1.0000
     1.0000   1.0000   1.0000   1.0000   1.0000   1.0000   1.0000   1.0000
     1.0000   1.0000   1.0000   1.0000   1.0000   1.0000   1.0000   1.0000
     1.0000   1.0000   1.0000   1.0000   1.0000   1.0000   1.0000   1.0000
     1.0000   1.0000   1.0000   1.0000   1.0000   1.0000   1.0000   1.0000
     1.0000   1.0000   1.0000   1.0000   1.0000   1.0000   1.0000   1.0000
     1.0000   1.0000   1.0000   1.0000   1.0000   1.0000   1.0000   1.0000
     1.0000   1.0000   1.0000   1.0000   1.0000   1.0000   1.0000   1.0000
     1.0000   1.0000   1.0000   1.0000   1.0000   1.0000   1.0000   1.0000
     1.0000   1.0000   1.0000   1.0000   1.0000   1.0000   1.0000   1.0000
     1.0000   1.0000   1.0000   1.0000   1.0000   1.0000   1.0000   1.0000
     1.0000   1.0000   1.0000   1.0000   1.0000   1.0000   0.9999   0.9999
     0.9999   0.9998   0.9993   0.9988   0.9985   0.9982   0.9982   0.9978
     0.9976   0.9970   0.9966   0.9964   0.9959   0.9951   0.9948   0.9937
     0.9932   0.9918   0.9887   0.9879   0.9869   0.9850   0.9833   0.9808
     0.9764   0.9666   0.9525   0.9479   0.9399   0.9364   0.9236   0.9140
     0.9078   0.9021   0.8960   0.8658   0.8546   0.8220   0.7772   0.7448
     0.7411   0.7339   0.7294   0.7243   0.7175   0.7129   0.7052   0.6982
     0.6926   0.6873   0.6811   0.6754   0.6724   0.6544   0.6485   0.6442
     0.6251   0.4540   0.4062   0.3706   0.3285   0.3156   0.2188   0.1725
     0.0739   0.0393   0.0195   0.0068   0.0029   0.0003   0.0002   0.0002
     0.0001   0.0001   0.0000   0.0000   0.0000   0.0000   0.0000   0.0000
     0.0000   0.0000   0.0000   0.0000   0.0000   0.0000   0.0000   0.0000
     0.0000   0.0000   0.0000   0.0000   0.0000   0.0000   0.0000   0.0000

          k =-0.5000 0.2500 0.0000 ( 65138 PWs)   bands (ev):

   -92.7247 -92.6722 -92.5787 -92.5306 -92.4727 -92.4310 -92.4141 -92.2903
   -56.0782 -56.0589 -55.9361 -55.9254 -55.9185 -55.9123 -55.8773 -55.8479
   -55.8328 -55.8305 -55.8220 -55.7805 -55.7609 -55.7243 -55.7052 -55.6724
   -55.6662 -55.6196 -55.6164 -55.6162 -55.6079 -55.5641 -55.5444 -55.4580
   -31.2967 -31.2843 -31.1397 -31.1268 -31.0946 -31.0537 -30.8243 -30.7048
   -29.8698 -29.8305 -29.8045 -29.6963 -15.0059 -14.9607 -14.8818 -14.7852
   -14.7433 -14.6157 -14.5261 -14.4013 -14.0904 -14.0593 -14.0471 -14.0011
   -13.9819 -13.9565 -13.9196 -13.9173 -13.8917 -13.8552 -13.8424 -13.7334
   -13.6614 -13.6127 -13.6099 -13.5954 -13.5145 -13.4917 -13.3815 -13.3389
   -13.2224 -13.1878 -13.0937 -13.0831 -13.0504 -13.0392 -13.0235 -12.9916
   -12.9686 -12.9600 -12.9411 -12.8896 -12.7895 -12.7143 -12.6962 -12.6456
   -12.6410 -12.6228 -12.5619 -12.4352 -12.3453 -12.3139 -12.1922 -12.1621
   -11.7957 -11.7828 -11.7685 -11.7569 -11.7351 -11.7048 -11.6255 -11.6169
   -11.5938 -11.5568 -11.5287 -11.5203  -2.4638  -2.4218  -2.2733  -2.2314
    -2.0707  -1.9948  -1.8516  -1.7167  -1.6597  -1.6326  -1.5934  -1.5550
    -1.4743  -1.3593  -1.3021  -1.2792  -1.2533  -1.1760  -1.1485  -1.1093
    -1.0923  -1.0311  -1.0034  -0.9629  -0.9279  -0.8991  -0.8415  -0.8148
    -0.7738  -0.7387  -0.6341  -0.6077  -0.5193  -0.4585  -0.4252  -0.3697
    -0.2841  -0.2526  -0.1498  -0.1158  -0.0542  -0.0075   0.0196   0.0937
     0.1242   0.1573   0.2078   0.2458   0.5586   0.6115   0.6837   0.7035
     0.9885   1.0487   1.1208   1.1482   1.3254   1.3616   1.3989   1.4123
     1.4297   1.4478   1.5178   1.5596   1.6003   1.6296   1.7456   1.7840
     1.8191   1.8296   1.8656   1.8910   1.9053   1.9208   1.9412   1.9635
     2.0086   2.0273   2.0612   2.0849   2.1147   2.1751   2.2968   2.3946
     2.4222   2.4899   2.5292   2.5902   2.6258   2.6335   2.6705   2.7047
     2.7290   2.7718   2.8341   2.8600   2.8708   2.8752   2.8941   2.9192
     2.9319   2.9483   2.9565   2.9775   2.9914   3.0017   3.0103   3.0205
     3.0323   3.5650   3.5991   3.7537   3.7710   4.0675   4.1182   4.1737
     4.3783   4.7625   4.8559   5.0246   5.0534   5.3820   5.4090   5.5702
     5.6152   5.7245   5.7629   6.1264   6.3787   6.4782   6.6345   7.0132
     7.4733   7.5137   7.6983   7.7781   7.8578   7.8769   8.0066   8.1016
     8.3210   8.4226   8.4643   8.5029   8.5511   8.6101   8.6878   8.7309

     occupation numbers 
     1.0000   1.0000   1.0000   1.0000   1.0000   1.0000   1.0000   1.0000
     1.0000   1.0000   1.0000   1.0000   1.0000   1.0000   1.0000   1.0000
     1.0000   1.0000   1.0000   1.0000   1.0000   1.0000   1.0000   1.0000
     1.0000   1.0000   1.0000   1.0000   1.0000   1.0000   1.0000   1.0000
     1.0000   1.0000   1.0000   1.0000   1.0000   1.0000   1.0000   1.0000
     1.0000   1.0000   1.0000   1.0000   1.0000   1.0000   1.0000   1.0000
     1.0000   1.0000   1.0000   1.0000   1.0000   1.0000   1.0000   1.0000
     1.0000   1.0000   1.0000   1.0000   1.0000   1.0000   1.0000   1.0000
     1.0000   1.0000   1.0000   1.0000   1.0000   1.0000   1.0000   1.0000
     1.0000   1.0000   1.0000   1.0000   1.0000   1.0000   1.0000   1.0000
     1.0000   1.0000   1.0000   1.0000   1.0000   1.0000   1.0000   1.0000
     1.0000   1.0000   1.0000   1.0000   1.0000   1.0000   1.0000   1.0000
     1.0000   1.0000   1.0000   1.0000   1.0000   1.0000   1.0000   1.0000
     1.0000   1.0000   1.0000   1.0000   1.0000   1.0000   1.0000   1.0000
     1.0000   1.0000   1.0000   1.0000   1.0000   1.0000   1.0000   1.0000
     1.0000   1.0000   1.0000   1.0000   1.0000   1.0000   1.0000   1.0000
     1.0000   1.0000   1.0000   1.0000   1.0000   1.0000   1.0000   1.0000
     1.0000   1.0000   1.0000   1.0000   1.0000   1.0000   1.0000   1.0000
     1.0000   1.0000   1.0000   1.0000   1.0000   1.0000   1.0000   1.0000
     1.0000   1.0000   1.0000   1.0000   1.0000   1.0000   0.9999   0.9999
     0.9997   0.9996   0.9994   0.9993   0.9983   0.9980   0.9977   0.9975
     0.9973   0.9971   0.9960   0.9952   0.9943   0.9935   0.9896   0.9879
     0.9862   0.9857   0.9836   0.9820   0.9810   0.9799   0.9784   0.9766
     0.9727   0.9709   0.9674   0.9647   0.9612   0.9530   0.9324   0.9113
     0.9045   0.8863   0.8747   0.8550   0.8427   0.8399   0.8262   0.8128
     0.8030   0.7848   0.7568   0.7446   0.7395   0.7373   0.7281   0.7156
     0.7092   0.7008   0.6965   0.6855   0.6782   0.6727   0.6681   0.6625
     0.6561   0.3486   0.3300   0.2516   0.2435   0.1281   0.1130   0.0980
     0.0552   0.0151   0.0106   0.0053   0.0047   0.0010   0.0009   0.0004
     0.0003   0.0002   0.0001   0.0000   0.0000   0.0000   0.0000   0.0000
     0.0000   0.0000   0.0000   0.0000   0.0000   0.0000   0.0000   0.0000
     0.0000   0.0000   0.0000   0.0000   0.0000   0.0000   0.0000   0.0000

     the Fermi energy is     3.3029 ev

!    total energy              =   -4399.91799559 Ry
     estimated scf accuracy    <          7.9E-09 Ry
     smearing contrib. (-TS)   =      -1.14662136 Ry
     internal energy E=F+TS    =   -4398.77137422 Ry

     The total energy is F=E-TS. E is the sum of the following terms:
     one-electron contribution =  -21252.58220220 Ry
     hartree contribution      =   10754.06209585 Ry
     xc contribution           =    -686.72966706 Ry
     ewald contribution        =    7053.12349739 Ry
     one-center paw contrib.   =    -266.64509819 Ry
      -> PAW hartree energy AE =      25.17471427 Ry
      -> PAW hartree energy PS =     -25.05849716 Ry
      -> PAW xc energy AE      =     -16.51914841 Ry
      -> PAW xc energy PS      =       6.87870034 Ry
      -> total E_H with PAW    =   10754.17831296 Ry
      -> total E_XC with PAW   =    -696.37011514 Ry

     convergence has been achieved in  49 iterations

     Writing all to output data dir /bsuhome/zayahcortright/scratch/pwscf.save/
 
     init_run     :      7.64s CPU      7.87s WALL (       1 calls)
     electrons    :    702.08s CPU    713.66s WALL (       1 calls)

     Called by init_run:
     wfcinit      :      5.86s CPU      5.97s WALL (       1 calls)
     wfcinit:atom :      0.06s CPU      0.07s WALL (       5 calls)
     wfcinit:wfcr :      5.50s CPU      5.57s WALL (       5 calls)
     potinit      :      0.16s CPU      0.18s WALL (       1 calls)
     hinit0       :      0.74s CPU      0.77s WALL (       1 calls)

     Called by electrons:
     c_bands      :    554.00s CPU    558.15s WALL (      49 calls)
     sum_band     :    111.28s CPU    115.57s WALL (      49 calls)
     v_of_rho     :      5.47s CPU      5.74s WALL (      50 calls)
     v_h          :      0.49s CPU      0.49s WALL (      50 calls)
     v_xc         :      4.98s CPU      5.24s WALL (      50 calls)
     newd         :     16.75s CPU     19.25s WALL (      50 calls)
     PAW_pot      :      1.61s CPU      1.63s WALL (      50 calls)
     mix_rho      :     12.69s CPU     12.96s WALL (      49 calls)

     Called by c_bands:
     init_us_2    :      7.01s CPU      7.05s WALL (     495 calls)
     init_us_2:cp :      7.00s CPU      7.05s WALL (     495 calls)
     cegterg      :    521.37s CPU    525.34s WALL (     245 calls)

     Called by sum_band:
     sum_band:wei :      0.35s CPU      0.35s WALL (      49 calls)
     sum_band:loo :     91.22s CPU     91.96s WALL (      49 calls)
     sum_band:buf :      1.47s CPU      1.49s WALL (     245 calls)
     sum_band:ini :      3.36s CPU      3.37s WALL (     245 calls)
     sum_band:cal :     18.44s CPU     18.50s WALL (     245 calls)
     sum_band:bec :      0.54s CPU      0.55s WALL (     245 calls)
     addusdens    :     18.26s CPU     21.79s WALL (      49 calls)
                                        0.00s GPU  (      49 calls)
     addusd:skk   :      0.33s CPU      0.65s WALL (     196 calls)
                                        0.00s GPU  (     196 calls)

     Called by *egterg:
     cdiaghg      :     54.36s CPU     54.55s WALL (    1297 calls)
     cegterg:over :     37.94s CPU     38.05s WALL (    1052 calls)
     cegterg:upda :     27.72s CPU     28.02s WALL (    1052 calls)
     cegterg:last :     56.67s CPU     56.91s WALL (     445 calls)
     cdiaghg:chol :      3.10s CPU      3.11s WALL (    1297 calls)
     cdiaghg:inve :      3.23s CPU      3.24s WALL (    1297 calls)
     cdiaghg:para :      6.89s CPU      6.92s WALL (    2594 calls)
     h_psi        :    290.31s CPU    292.90s WALL (    1302 calls)
     s_psi        :     38.51s CPU     38.61s WALL (    1302 calls)
     g_psi        :      1.12s CPU      1.12s WALL (    1052 calls)

     Called by h_psi:
     h_psi:calbec :     42.37s CPU     42.50s WALL (    1302 calls)
     vloc_psi     :    206.39s CPU    208.50s WALL (    1302 calls)
     add_vuspsi   :     38.23s CPU     38.36s WALL (    1302 calls)

     General routines
     calbec       :     60.80s CPU     61.00s WALL (    1547 calls)
     fft          :      3.68s CPU      3.72s WALL (     648 calls)
     ffts         :      4.67s CPU      4.71s WALL (    5275 calls)
     fftw         :    175.16s CPU    176.71s WALL (  328344 calls)
     interpolate  :      0.41s CPU      0.41s WALL (      50 calls)
 
     Parallel routines

     PAW routines
     PAW_pot      :      1.61s CPU      1.63s WALL (      50 calls)
 
     PWSCF        :  11m51.66s CPU  12m 6.31s WALL

 
   This run was terminated on:  14:59:40  21Jun2024            

=------------------------------------------------------------------------------=
   JOB DONE.
=------------------------------------------------------------------------------=
