
     Program PWSCF v.7.2 starts on 20Jun2024 at 20:34: 9 

     This program is part of the open-source Quantum ESPRESSO suite
     for quantum simulation of materials; please cite
         "P. Giannozzi et al., J. Phys.:Condens. Matter 21 395502 (2009);
         "P. Giannozzi et al., J. Phys.:Condens. Matter 29 465901 (2017);
         "P. Giannozzi et al., J. Chem. Phys. 152 154105 (2020);
          URL http://www.quantum-espresso.org", 
     in publications or presentations arising from this work. More details at
     http://www.quantum-espresso.org/quote

     Parallel version (MPI & OpenMP), running on      48 processor cores
     Number of MPI processes:                48
     Threads/MPI process:                     1

     MPI processes distributed on     1 nodes
     41852 MiB available memory on the printing compute node when the environment starts
 
     Reading input from espresso.pwi
Warning: card &CELL ignored
Warning: card / ignored
Warning: card &FCP ignored
Warning: card / ignored
Warning: card &RISM ignored
Warning: card / ignored

     Current dimensions of program PWSCF are:
     Max number of different atomic species (ntypx) = 10
     Max number of k-points (npk) =  40000
     Max angular momentum in pseudopotentials (lmaxx) =  4
     file O.pbe-n-kjpaw_psl.0.1.UPF: wavefunction(s)  2P renormalized
     signal trapping enabled: kill the code with -SIGUSR1 to stop cleanly the simulation 
 
     K-points division:     npool     =       2
     R & G space division:  proc/nbgrp/npool/nimage =      24
     Subspace diagonalization in iterative solution of the eigenvalue problem:
     one sub-group per band group will be used
     scalapack distributed-memory algorithm (size of sub-group:  3*  3 procs)

 
     Parallelization info
     --------------------
     sticks:   dense  smooth     PW     G-vecs:    dense   smooth      PW
     Min         350     175     47                61430    21716    3036
     Max         351     177     48                61449    21727    3041
     Sum        8421    4205   1137              1474595   521381   72913
 
     Using Slab Decomposition
 


     bravais-lattice index     =            0
     lattice parameter (alat)  =      14.8599  a.u.
     unit-cell volume          =    8305.1283 (a.u.)^3
     number of atoms/cell      =           51
     number of atomic types    =            4
     number of electrons       =       437.00
     number of Kohn-Sham states=          263
     kinetic-energy cutoff     =      60.0000  Ry
     charge density cutoff     =     480.0000  Ry
     scf convergence threshold =      1.0E-08
     mixing beta               =       0.1500
     number of iterations used =            8  local-TF  mixing
     Exchange-correlation= PBE
                           (   1   4   3   4   0   0   0)

     celldm(1)=  14.859904  celldm(2)=   0.000000  celldm(3)=   0.000000
     celldm(4)=   0.000000  celldm(5)=   0.000000  celldm(6)=   0.000000

     crystal axes: (cart. coord. in units of alat)
               a(1) = (   1.000000   0.000000   0.000000 )  
               a(2) = (   0.000000   1.000000   0.000000 )  
               a(3) = (   0.000000   0.000000   2.531036 )  

     reciprocal axes: (cart. coord. in units 2 pi/alat)
               b(1) = (  1.000000  0.000000  0.000000 )  
               b(2) = (  0.000000  1.000000  0.000000 )  
               b(3) = (  0.000000  0.000000  0.395095 )  


     PseudoPot. # 1 for Sr read from file:
     /bsuhome/zayahcortright/q-e/pseudo/Sr_pbe_v1.uspp.F.UPF
     MD5 check sum: 6b418c05fbe9db5448babca5e47b7a5b
     Pseudo is Ultrasoft + core correction, Zval = 10.0
     Generated by new atomic code, or converted to UPF format
     Using radial grid of  883 points,  6 beta functions with: 
                l(1) =   0
                l(2) =   0
                l(3) =   1
                l(4) =   1
                l(5) =   2
                l(6) =   2
     Q(r) pseudized with  6 coefficients,  rinner =    1.400   1.400   1.400
                                                       1.400   1.400

     PseudoPot. # 2 for O  read from file:
     /bsuhome/zayahcortright/q-e/pseudo/O.pbe-n-kjpaw_psl.0.1.UPF
     MD5 check sum: 0234752ac141de4415c5fc33072bef88
     Pseudo is Projector augmented-wave + core cor, Zval =  6.0
     Generated using "atomic" code by A. Dal Corso  v.5.0.99 svn rev. 10869
     Shape of augmentation charge: BESSEL
     Using radial grid of 1095 points,  4 beta functions with: 
                l(1) =   0
                l(2) =   0
                l(3) =   1
                l(4) =   1
     Q(r) pseudized with 0 coefficients 


     PseudoPot. # 3 for Co read from file:
     /bsuhome/zayahcortright/q-e/pseudo/Co_pbe_v1.2.uspp.F.UPF
     MD5 check sum: 5f91765df6ddd3222702df6e7b74a16d
     Pseudo is Ultrasoft + core correction, Zval = 17.0
     Generated by new atomic code, or converted to UPF format
     Using radial grid of  863 points,  6 beta functions with: 
                l(1) =   0
                l(2) =   0
                l(3) =   1
                l(4) =   1
                l(5) =   2
                l(6) =   2
     Q(r) pseudized with  8 coefficients,  rinner =    1.200   1.200   1.200
                                                       1.200   1.200

     PseudoPot. # 4 for H  read from file:
     /bsuhome/zayahcortright/q-e/pseudo/H.pbe-rrkjus_psl.1.0.0.UPF
     MD5 check sum: f52b6d4d1c606e5624b1dc7b2218f220
     Pseudo is Ultrasoft, Zval =  1.0
     Generated using "atomic" code by A. Dal Corso  v.5.1
     Using radial grid of  929 points,  2 beta functions with: 
                l(1) =   0
                l(2) =   0
     Q(r) pseudized with 0 coefficients 


     atomic species   valence    mass     pseudopotential
        Sr            10.00    87.62000     Sr( 1.00)
        O              6.00    15.99900     O ( 1.00)
        Co            17.00    58.93319     Co( 1.00)
        H              1.00     1.00800     H ( 1.00)

     No symmetry found


                                    s                        frac. trans.

      isym =  1     identity                                     

 cryst.   s( 1) = (     1          0          0      )
                  (     0          1          0      )
                  (     0          0          1      )

 cart.    s( 1) = (  1.0000000  0.0000000  0.0000000 )
                  (  0.0000000  1.0000000  0.0000000 )
                  (  0.0000000  0.0000000  1.0000000 )


   Cartesian axes

     site n.     atom                  positions (alat units)
         1           Sr  tau(   1) = (   0.2508693   0.7491307   1.7574407  )
         2           O   tau(   2) = (   0.4985141   0.5014859   1.7715967  )
         3           Sr  tau(   3) = (   0.7482398   0.7454518   1.7648669  )
         4           Sr  tau(   4) = (   0.7441748   0.2558252   1.7667843  )
         5           Sr  tau(   5) = (   0.2508693   0.7491307   1.2696799  )
         6           Sr  tau(   6) = (   0.2508693   0.7491307   0.7632319  )
         7           Co  tau(   7) = (   0.4998914   0.5001086   1.0164559  )
         8           Co  tau(   8) = (   0.4936915   0.5063085   1.5135603  )
         9           O   tau(   9) = (   0.4988895   0.7610401   1.0164559  )
        10           O   tau(  10) = (   0.2389599   0.5011105   1.0164559  )
        11           O   tau(  11) = (   0.0070918   0.7374880   1.0164559  )
        12           O   tau(  12) = (   0.0088340   0.7405089   1.5135603  )
        13           O   tau(  13) = (   0.5066944   0.7415376   1.5135603  )
        14           O   tau(  14) = (   0.2584624   0.4933056   1.5135603  )
        15           O   tau(  15) = (   0.4985141   0.5014859   0.7773880  )
        16           O   tau(  16) = (   0.4985141   0.5014859   1.2555238  )
        17           Sr  tau(  17) = (   0.7482398   0.7454518   0.7706582  )
        18           Sr  tau(  18) = (   0.7482398   0.7454518   1.2622536  )
        19           Sr  tau(  19) = (   0.7441748   0.2558252   0.7725755  )
        20           Sr  tau(  20) = (   0.7441748   0.2558252   1.2603363  )
        21           O   tau(  21) = (   0.7322655   0.0078049   1.5135603  )
        22           O   tau(  22) = (   0.7558175   0.4996027   1.5135603  )
        23           O   tau(  23) = (   0.5003973   0.2441825   1.5135603  )
        24           O   tau(  24) = (   0.7527966   0.4978604   1.0164559  )
        25           O   tau(  25) = (   0.5021396   0.2472034   1.0164559  )
        26           O   tau(  26) = (   0.7517679   0.0000000   1.0164559  )
        27           O   tau(  27) = (   0.0114961   0.4948124   1.7455321  )
        28           O   tau(  28) = (   0.0048226   0.0077944   1.7715967  )
        29           Sr  tau(  29) = (   0.2545482   0.2517602   1.7648669  )
        30           O   tau(  30) = (   0.5048017   0.0015068   1.7786929  )
        31           Co  tau(  31) = (   0.0056869   0.5006215   1.0164559  )
        32           Co  tau(  32) = (   0.0065315   0.4997770   1.5135603  )
        33           Co  tau(  33) = (   0.0061999   0.0064171   1.0164559  )
        34           Co  tau(  34) = (   0.0000000   0.0126169   1.5135603  )
        35           O   tau(  35) = (   0.0114961   0.4948124   1.2815885  )
        36           O   tau(  36) = (   0.0114961   0.4948124   0.7513233  )
        37           O   tau(  37) = (   0.0051979   0.2673486   1.0164559  )
        38           O   tau(  38) = (   0.0130029   0.2478461   1.5135603  )
        39           O   tau(  39) = (   0.0048226   0.0077944   0.7773880  )
        40           O   tau(  40) = (   0.0048226   0.0077944   1.2555238  )
        41           Sr  tau(  41) = (   0.2545482   0.2517602   0.7706582  )
        42           Sr  tau(  42) = (   0.2545482   0.2517602   1.2622536  )
        43           Co  tau(  43) = (   0.4989925   0.0073160   1.5135603  )
        44           Co  tau(  44) = (   0.4998370   0.0064714   1.0164559  )
        45           O   tau(  45) = (   0.5048017   0.0015068   0.7844841  )
        46           O   tau(  46) = (   0.5048017   0.0015068   1.2484277  )
        47           O   tau(  47) = (   0.2621260   0.0059111   1.5135603  )
        48           O   tau(  48) = (   0.2591051   0.0041689   1.0164559  )
        49           O   tau(  49) = (   0.9951520   0.8529874   2.1602013  )
        50           O   tau(  50) = (   0.9951520   0.8529874   2.3186489  )
        51           H   tau(  51) = (   0.9951520   0.8529874   2.4431567  )

   Crystallographic axes

     site n.     atom                  positions (cryst. coord.)
         1           Sr  tau(   1) = (  0.2508693  0.7491307  0.6943562  )
         2           O   tau(   2) = (  0.4985141  0.5014859  0.6999492  )
         3           Sr  tau(   3) = (  0.7482398  0.7454518  0.6972903  )
         4           Sr  tau(   4) = (  0.7441748  0.2558252  0.6980478  )
         5           Sr  tau(   5) = (  0.2508693  0.7491307  0.5016443  )
         6           Sr  tau(   6) = (  0.2508693  0.7491307  0.3015492  )
         7           Co  tau(   7) = (  0.4998914  0.5001086  0.4015968  )
         8           Co  tau(   8) = (  0.4936915  0.5063085  0.5980003  )
         9           O   tau(   9) = (  0.4988895  0.7610401  0.4015968  )
        10           O   tau(  10) = (  0.2389599  0.5011105  0.4015968  )
        11           O   tau(  11) = (  0.0070918  0.7374880  0.4015968  )
        12           O   tau(  12) = (  0.0088340  0.7405089  0.5980003  )
        13           O   tau(  13) = (  0.5066944  0.7415376  0.5980003  )
        14           O   tau(  14) = (  0.2584624  0.4933056  0.5980003  )
        15           O   tau(  15) = (  0.4985141  0.5014859  0.3071422  )
        16           O   tau(  16) = (  0.4985141  0.5014859  0.4960513  )
        17           Sr  tau(  17) = (  0.7482398  0.7454518  0.3044833  )
        18           Sr  tau(  18) = (  0.7482398  0.7454518  0.4987103  )
        19           Sr  tau(  19) = (  0.7441748  0.2558252  0.3052408  )
        20           Sr  tau(  20) = (  0.7441748  0.2558252  0.4979527  )
        21           O   tau(  21) = (  0.7322655  0.0078049  0.5980003  )
        22           O   tau(  22) = (  0.7558175  0.4996027  0.5980003  )
        23           O   tau(  23) = (  0.5003973  0.2441825  0.5980003  )
        24           O   tau(  24) = (  0.7527966  0.4978604  0.4015968  )
        25           O   tau(  25) = (  0.5021396  0.2472034  0.4015968  )
        26           O   tau(  26) = (  0.7517679  0.0000000  0.4015968  )
        27           O   tau(  27) = (  0.0114961  0.4948124  0.6896512  )
        28           O   tau(  28) = (  0.0048226  0.0077944  0.6999492  )
        29           Sr  tau(  29) = (  0.2545482  0.2517602  0.6972903  )
        30           O   tau(  30) = (  0.5048017  0.0015068  0.7027529  )
        31           Co  tau(  31) = (  0.0056869  0.5006215  0.4015968  )
        32           Co  tau(  32) = (  0.0065315  0.4997770  0.5980003  )
        33           Co  tau(  33) = (  0.0061999  0.0064171  0.4015968  )
        34           Co  tau(  34) = (  0.0000000  0.0126169  0.5980003  )
        35           O   tau(  35) = (  0.0114961  0.4948124  0.5063494  )
        36           O   tau(  36) = (  0.0114961  0.4948124  0.2968442  )
        37           O   tau(  37) = (  0.0051979  0.2673486  0.4015968  )
        38           O   tau(  38) = (  0.0130029  0.2478461  0.5980003  )
        39           O   tau(  39) = (  0.0048226  0.0077944  0.3071422  )
        40           O   tau(  40) = (  0.0048226  0.0077944  0.4960513  )
        41           Sr  tau(  41) = (  0.2545482  0.2517602  0.3044833  )
        42           Sr  tau(  42) = (  0.2545482  0.2517602  0.4987103  )
        43           Co  tau(  43) = (  0.4989925  0.0073160  0.5980003  )
        44           Co  tau(  44) = (  0.4998370  0.0064714  0.4015968  )
        45           O   tau(  45) = (  0.5048017  0.0015068  0.3099459  )
        46           O   tau(  46) = (  0.5048017  0.0015068  0.4932477  )
        47           O   tau(  47) = (  0.2621260  0.0059111  0.5980003  )
        48           O   tau(  48) = (  0.2591051  0.0041689  0.4015968  )
        49           O   tau(  49) = (  0.9951520  0.8529874  0.8534850  )
        50           O   tau(  50) = (  0.9951520  0.8529874  0.9160869  )
        51           H   tau(  51) = (  0.9951520  0.8529874  0.9652793  )

     number of k points=    10  Gaussian smearing, width (Ry)=  0.0700
                       cart. coord. in units 2pi/alat
        k(    1) = (   0.0000000   0.0000000   0.0000000), wk =   0.1250000
        k(    2) = (   0.0000000   0.2500000   0.0000000), wk =   0.2500000
        k(    3) = (   0.0000000  -0.5000000   0.0000000), wk =   0.1250000
        k(    4) = (   0.2500000   0.2500000   0.0000000), wk =   0.2500000
        k(    5) = (   0.2500000  -0.5000000   0.0000000), wk =   0.2500000
        k(    6) = (  -0.5000000  -0.5000000   0.0000000), wk =   0.1250000
        k(    7) = (   0.2500000   0.0000000   0.0000000), wk =   0.2500000
        k(    8) = (  -0.5000000   0.0000000   0.0000000), wk =   0.1250000
        k(    9) = (  -0.2500000   0.2500000   0.0000000), wk =   0.2500000
        k(   10) = (  -0.5000000   0.2500000   0.0000000), wk =   0.2500000

                       cryst. coord.
        k(    1) = (   0.0000000   0.0000000   0.0000000), wk =   0.1250000
        k(    2) = (   0.0000000   0.2500000   0.0000000), wk =   0.2500000
        k(    3) = (   0.0000000  -0.5000000   0.0000000), wk =   0.1250000
        k(    4) = (   0.2500000   0.2500000   0.0000000), wk =   0.2500000
        k(    5) = (   0.2500000  -0.5000000   0.0000000), wk =   0.2500000
        k(    6) = (  -0.5000000  -0.5000000   0.0000000), wk =   0.1250000
        k(    7) = (   0.2500000   0.0000000   0.0000000), wk =   0.2500000
        k(    8) = (  -0.5000000   0.0000000   0.0000000), wk =   0.1250000
        k(    9) = (  -0.2500000   0.2500000   0.0000000), wk =   0.2500000
        k(   10) = (  -0.5000000   0.2500000   0.0000000), wk =   0.2500000

     Dense  grid:  1474595 G-vectors     FFT dimensions: ( 108, 108, 270)

     Smooth grid:   521381 G-vectors     FFT dimensions: (  75,  75, 192)

     Dynamical RAM for                 wfc:      10.90 MB

     Dynamical RAM for     wfc (w. buffer):      65.37 MB

     Dynamical RAM for           str. fact:       3.75 MB

     Dynamical RAM for           local pot:       0.00 MB

     Dynamical RAM for          nlocal pot:      24.94 MB

     Dynamical RAM for                qrad:       7.03 MB

     Dynamical RAM for          rho,v,vnew:       6.02 MB

     Dynamical RAM for               rhoin:       2.01 MB

     Dynamical RAM for            rho*nmix:      15.00 MB

     Dynamical RAM for           G-vectors:       3.68 MB

     Dynamical RAM for          h,s,v(r/c):       1.40 MB

     Dynamical RAM for          <psi|beta>:       2.42 MB

     Dynamical RAM for                 psi:      21.79 MB

     Dynamical RAM for                hpsi:      21.79 MB

     Dynamical RAM for                spsi:      21.79 MB

     Dynamical RAM for      wfcinit/wfcrot:      34.89 MB

     Dynamical RAM for           addusdens:     101.73 MB

     Estimated static dynamical RAM per process >     122.82 MB

     Estimated max dynamical RAM per process >     239.55 MB

     Estimated total dynamical RAM >      10.88 GB

     Check: negative core charge=   -0.000004

     Initial potential from superposition of free atoms

     starting charge     428.5961, renormalised to     437.0000

     negative rho (up, down):  7.813E-01 0.000E+00
     Starting wfcs are  381 randomized atomic wfcs
     Checking if some PAW data can be deallocated... 
       PAW data deallocated on   18 nodes for type:  2

     total cpu time spent up to now is        9.8 secs

     Self-consistent Calculation

     iteration #  1     ecut=    60.00 Ry     beta= 0.15
     Davidson diagonalization with overlap

---- Real-time Memory Report at c_bands before calling an iterative solver
             0 MiB given to the printing process from OS
             0 MiB allocation reported by mallinfo(arena+hblkhd)
         32108 MiB available memory on the node where the printing process lives
------------------
     ethr =  1.00E-02,  avg # of iterations =  2.0

     negative rho (up, down):  7.715E-01 0.000E+00

     total cpu time spent up to now is       25.7 secs

     total energy              =   -4489.29179263 Ry
     estimated scf accuracy    <      49.74852010 Ry

     iteration #  2     ecut=    60.00 Ry     beta= 0.15
     Davidson diagonalization with overlap

---- Real-time Memory Report at c_bands before calling an iterative solver
             0 MiB given to the printing process from OS
             0 MiB allocation reported by mallinfo(arena+hblkhd)
         32464 MiB available memory on the node where the printing process lives
------------------
     ethr =  1.00E-02,  avg # of iterations =  1.0

     negative rho (up, down):  7.613E-01 0.000E+00

     total cpu time spent up to now is       38.8 secs

     total energy              =   -4486.81604744 Ry
     estimated scf accuracy    <      35.32281560 Ry

     iteration #  3     ecut=    60.00 Ry     beta= 0.15
     Davidson diagonalization with overlap

---- Real-time Memory Report at c_bands before calling an iterative solver
             0 MiB given to the printing process from OS
             0 MiB allocation reported by mallinfo(arena+hblkhd)
         31686 MiB available memory on the node where the printing process lives
------------------
     ethr =  8.08E-03,  avg # of iterations =  1.0

     negative rho (up, down):  7.562E-01 0.000E+00

     total cpu time spent up to now is       52.0 secs

     total energy              =   -4486.76504066 Ry
     estimated scf accuracy    <      35.22148637 Ry

     iteration #  4     ecut=    60.00 Ry     beta= 0.15
     Davidson diagonalization with overlap

---- Real-time Memory Report at c_bands before calling an iterative solver
             0 MiB given to the printing process from OS
             0 MiB allocation reported by mallinfo(arena+hblkhd)
         31659 MiB available memory on the node where the printing process lives
------------------
     ethr =  8.06E-03,  avg # of iterations =  1.0

     negative rho (up, down):  7.574E-01 0.000E+00

     total cpu time spent up to now is       65.0 secs

     total energy              =   -4486.61542935 Ry
     estimated scf accuracy    <      34.23384728 Ry

     iteration #  5     ecut=    60.00 Ry     beta= 0.15
     Davidson diagonalization with overlap

---- Real-time Memory Report at c_bands before calling an iterative solver
             0 MiB given to the printing process from OS
             0 MiB allocation reported by mallinfo(arena+hblkhd)
         31646 MiB available memory on the node where the printing process lives
------------------
     ethr =  7.83E-03,  avg # of iterations =  1.0

     negative rho (up, down):  7.339E-01 0.000E+00

     total cpu time spent up to now is       78.4 secs

     total energy              =   -4482.65508629 Ry
     estimated scf accuracy    <      22.89533687 Ry

     iteration #  6     ecut=    60.00 Ry     beta= 0.15
     Davidson diagonalization with overlap

---- Real-time Memory Report at c_bands before calling an iterative solver
             0 MiB given to the printing process from OS
             0 MiB allocation reported by mallinfo(arena+hblkhd)
         31633 MiB available memory on the node where the printing process lives
------------------
     ethr =  5.24E-03,  avg # of iterations =  2.0

     negative rho (up, down):  7.484E-01 0.000E+00

     total cpu time spent up to now is       92.9 secs

     total energy              =   -4483.75790463 Ry
     estimated scf accuracy    <      36.36770193 Ry

     iteration #  7     ecut=    60.00 Ry     beta= 0.15
     Davidson diagonalization with overlap

---- Real-time Memory Report at c_bands before calling an iterative solver
             0 MiB given to the printing process from OS
             0 MiB allocation reported by mallinfo(arena+hblkhd)
         31617 MiB available memory on the node where the printing process lives
------------------
     ethr =  5.24E-03,  avg # of iterations =  1.0

     negative rho (up, down):  7.532E-01 0.000E+00

     total cpu time spent up to now is      105.8 secs

     total energy              =   -4483.63508218 Ry
     estimated scf accuracy    <      37.11029023 Ry

     iteration #  8     ecut=    60.00 Ry     beta= 0.15
     Davidson diagonalization with overlap

---- Real-time Memory Report at c_bands before calling an iterative solver
             0 MiB given to the printing process from OS
             0 MiB allocation reported by mallinfo(arena+hblkhd)
         31595 MiB available memory on the node where the printing process lives
------------------
     ethr =  5.24E-03,  avg # of iterations =  1.0

     negative rho (up, down):  7.508E-01 0.000E+00

     total cpu time spent up to now is      118.7 secs

     total energy              =   -4483.80039338 Ry
     estimated scf accuracy    <       5.99671477 Ry

     iteration #  9     ecut=    60.00 Ry     beta= 0.15
     Davidson diagonalization with overlap

---- Real-time Memory Report at c_bands before calling an iterative solver
             0 MiB given to the printing process from OS
             0 MiB allocation reported by mallinfo(arena+hblkhd)
         31573 MiB available memory on the node where the printing process lives
------------------
     ethr =  1.37E-03,  avg # of iterations =  5.0

     negative rho (up, down):  7.651E-01 0.000E+00

     total cpu time spent up to now is      134.7 secs

     total energy              =   -4483.72548389 Ry
     estimated scf accuracy    <       3.57005597 Ry

     iteration # 10     ecut=    60.00 Ry     beta= 0.15
     Davidson diagonalization with overlap

---- Real-time Memory Report at c_bands before calling an iterative solver
             0 MiB given to the printing process from OS
             0 MiB allocation reported by mallinfo(arena+hblkhd)
         31559 MiB available memory on the node where the printing process lives
------------------
     ethr =  8.17E-04,  avg # of iterations = 10.2

     negative rho (up, down):  7.868E-01 0.000E+00

     total cpu time spent up to now is      153.8 secs

     total energy              =   -4483.53152880 Ry
     estimated scf accuracy    <       4.55220434 Ry

     iteration # 11     ecut=    60.00 Ry     beta= 0.15
     Davidson diagonalization with overlap

---- Real-time Memory Report at c_bands before calling an iterative solver
             0 MiB given to the printing process from OS
             0 MiB allocation reported by mallinfo(arena+hblkhd)
         31178 MiB available memory on the node where the printing process lives
------------------
     ethr =  8.17E-04,  avg # of iterations =  6.6

     negative rho (up, down):  7.897E-01 0.000E+00

     total cpu time spent up to now is      170.6 secs

     total energy              =   -4483.20701412 Ry
     estimated scf accuracy    <       4.43500939 Ry

     iteration # 12     ecut=    60.00 Ry     beta= 0.15
     Davidson diagonalization with overlap

---- Real-time Memory Report at c_bands before calling an iterative solver
             0 MiB given to the printing process from OS
             0 MiB allocation reported by mallinfo(arena+hblkhd)
         31105 MiB available memory on the node where the printing process lives
------------------
     ethr =  8.17E-04,  avg # of iterations =  6.3

     negative rho (up, down):  8.010E-01 0.000E+00

     total cpu time spent up to now is      187.1 secs

     total energy              =   -4483.20688428 Ry
     estimated scf accuracy    <       2.12824882 Ry

     iteration # 13     ecut=    60.00 Ry     beta= 0.15
     Davidson diagonalization with overlap

---- Real-time Memory Report at c_bands before calling an iterative solver
             0 MiB given to the printing process from OS
             0 MiB allocation reported by mallinfo(arena+hblkhd)
         31099 MiB available memory on the node where the printing process lives
------------------
     ethr =  4.87E-04,  avg # of iterations =  4.1

     negative rho (up, down):  8.015E-01 0.000E+00

     total cpu time spent up to now is      202.7 secs

     total energy              =   -4483.26200027 Ry
     estimated scf accuracy    <       1.19990698 Ry

     iteration # 14     ecut=    60.00 Ry     beta= 0.15
     Davidson diagonalization with overlap

---- Real-time Memory Report at c_bands before calling an iterative solver
             0 MiB given to the printing process from OS
             0 MiB allocation reported by mallinfo(arena+hblkhd)
         31081 MiB available memory on the node where the printing process lives
------------------
     ethr =  2.75E-04,  avg # of iterations =  7.5

     negative rho (up, down):  8.139E-01 0.000E+00

     total cpu time spent up to now is      220.4 secs

     total energy              =   -4483.11736353 Ry
     estimated scf accuracy    <       0.77118472 Ry

     iteration # 15     ecut=    60.00 Ry     beta= 0.15
     Davidson diagonalization with overlap

---- Real-time Memory Report at c_bands before calling an iterative solver
             0 MiB given to the printing process from OS
             0 MiB allocation reported by mallinfo(arena+hblkhd)
         31040 MiB available memory on the node where the printing process lives
------------------
     ethr =  1.76E-04,  avg # of iterations =  5.2

     negative rho (up, down):  8.173E-01 0.000E+00

     total cpu time spent up to now is      236.9 secs

     total energy              =   -4483.14541762 Ry
     estimated scf accuracy    <       3.36057582 Ry

     iteration # 16     ecut=    60.00 Ry     beta= 0.15
     Davidson diagonalization with overlap

---- Real-time Memory Report at c_bands before calling an iterative solver
             0 MiB given to the printing process from OS
             0 MiB allocation reported by mallinfo(arena+hblkhd)
         31075 MiB available memory on the node where the printing process lives
------------------
     ethr =  1.76E-04,  avg # of iterations =  4.7

     negative rho (up, down):  8.135E-01 0.000E+00

     total cpu time spent up to now is      253.1 secs

     total energy              =   -4483.11047209 Ry
     estimated scf accuracy    <       1.43373235 Ry

     iteration # 17     ecut=    60.00 Ry     beta= 0.15
     Davidson diagonalization with overlap

---- Real-time Memory Report at c_bands before calling an iterative solver
             0 MiB given to the printing process from OS
             0 MiB allocation reported by mallinfo(arena+hblkhd)
         31082 MiB available memory on the node where the printing process lives
------------------
     ethr =  1.76E-04,  avg # of iterations =  3.1

     negative rho (up, down):  8.186E-01 0.000E+00

     total cpu time spent up to now is      267.7 secs

     total energy              =   -4483.05582201 Ry
     estimated scf accuracy    <       0.43155820 Ry

     iteration # 18     ecut=    60.00 Ry     beta= 0.15
     Davidson diagonalization with overlap

---- Real-time Memory Report at c_bands before calling an iterative solver
             0 MiB given to the printing process from OS
             0 MiB allocation reported by mallinfo(arena+hblkhd)
         31099 MiB available memory on the node where the printing process lives
------------------
     ethr =  9.88E-05,  avg # of iterations =  9.8

     negative rho (up, down):  8.207E-01 0.000E+00

     total cpu time spent up to now is      287.0 secs

     total energy              =   -4483.03850624 Ry
     estimated scf accuracy    <       1.27850668 Ry

     iteration # 19     ecut=    60.00 Ry     beta= 0.15
     Davidson diagonalization with overlap

---- Real-time Memory Report at c_bands before calling an iterative solver
             0 MiB given to the printing process from OS
             0 MiB allocation reported by mallinfo(arena+hblkhd)
         31090 MiB available memory on the node where the printing process lives
------------------
     ethr =  9.88E-05,  avg # of iterations = 11.1

     negative rho (up, down):  8.258E-01 0.000E+00

     total cpu time spent up to now is      306.2 secs

     total energy              =   -4483.03151501 Ry
     estimated scf accuracy    <       0.51470281 Ry

     iteration # 20     ecut=    60.00 Ry     beta= 0.15
     Davidson diagonalization with overlap

---- Real-time Memory Report at c_bands before calling an iterative solver
             0 MiB given to the printing process from OS
             0 MiB allocation reported by mallinfo(arena+hblkhd)
         31079 MiB available memory on the node where the printing process lives
------------------
     ethr =  9.88E-05,  avg # of iterations =  2.1

     negative rho (up, down):  8.266E-01 0.000E+00

     total cpu time spent up to now is      321.0 secs

     total energy              =   -4482.99222722 Ry
     estimated scf accuracy    <       0.60587042 Ry

     iteration # 21     ecut=    60.00 Ry     beta= 0.15
     Davidson diagonalization with overlap

---- Real-time Memory Report at c_bands before calling an iterative solver
             0 MiB given to the printing process from OS
             0 MiB allocation reported by mallinfo(arena+hblkhd)
         31083 MiB available memory on the node where the printing process lives
------------------
     ethr =  9.88E-05,  avg # of iterations =  7.4

     negative rho (up, down):  8.413E-01 0.000E+00

     total cpu time spent up to now is      338.2 secs

     total energy              =   -4482.97981577 Ry
     estimated scf accuracy    <       0.18828095 Ry

     iteration # 22     ecut=    60.00 Ry     beta= 0.15
     Davidson diagonalization with overlap

---- Real-time Memory Report at c_bands before calling an iterative solver
             0 MiB given to the printing process from OS
             0 MiB allocation reported by mallinfo(arena+hblkhd)
         31082 MiB available memory on the node where the printing process lives
------------------
     ethr =  4.31E-05,  avg # of iterations = 11.0

     negative rho (up, down):  8.430E-01 0.000E+00

     total cpu time spent up to now is      358.0 secs

     total energy              =   -4482.97955104 Ry
     estimated scf accuracy    <       0.05145851 Ry

     iteration # 23     ecut=    60.00 Ry     beta= 0.15
     Davidson diagonalization with overlap

---- Real-time Memory Report at c_bands before calling an iterative solver
             0 MiB given to the printing process from OS
             0 MiB allocation reported by mallinfo(arena+hblkhd)
         30924 MiB available memory on the node where the printing process lives
------------------
     ethr =  1.18E-05,  avg # of iterations =  9.8

     negative rho (up, down):  8.309E-01 0.000E+00

     total cpu time spent up to now is      376.8 secs

     total energy              =   -4482.97485746 Ry
     estimated scf accuracy    <       0.03194797 Ry

     iteration # 24     ecut=    60.00 Ry     beta= 0.15
     Davidson diagonalization with overlap

---- Real-time Memory Report at c_bands before calling an iterative solver
             0 MiB given to the printing process from OS
             0 MiB allocation reported by mallinfo(arena+hblkhd)
         30897 MiB available memory on the node where the printing process lives
------------------
     ethr =  7.31E-06,  avg # of iterations = 13.8

     negative rho (up, down):  8.227E-01 0.000E+00

     total cpu time spent up to now is      397.4 secs

     total energy              =   -4482.97443278 Ry
     estimated scf accuracy    <       0.01638365 Ry

     iteration # 25     ecut=    60.00 Ry     beta= 0.15
     Davidson diagonalization with overlap

---- Real-time Memory Report at c_bands before calling an iterative solver
             0 MiB given to the printing process from OS
             0 MiB allocation reported by mallinfo(arena+hblkhd)
         30862 MiB available memory on the node where the printing process lives
------------------
     ethr =  3.75E-06,  avg # of iterations =  3.2

     negative rho (up, down):  8.203E-01 0.000E+00

     total cpu time spent up to now is      412.6 secs

     total energy              =   -4482.97343531 Ry
     estimated scf accuracy    <       0.01068691 Ry

     iteration # 26     ecut=    60.00 Ry     beta= 0.15
     Davidson diagonalization with overlap

---- Real-time Memory Report at c_bands before calling an iterative solver
             0 MiB given to the printing process from OS
             0 MiB allocation reported by mallinfo(arena+hblkhd)
         30875 MiB available memory on the node where the printing process lives
------------------
     ethr =  2.45E-06,  avg # of iterations = 10.3

     negative rho (up, down):  7.944E-01 0.000E+00

     total cpu time spent up to now is      431.9 secs

     total energy              =   -4482.97191656 Ry
     estimated scf accuracy    <       0.00621838 Ry

     iteration # 27     ecut=    60.00 Ry     beta= 0.15
     Davidson diagonalization with overlap

---- Real-time Memory Report at c_bands before calling an iterative solver
             0 MiB given to the printing process from OS
             0 MiB allocation reported by mallinfo(arena+hblkhd)
         30914 MiB available memory on the node where the printing process lives
------------------
     ethr =  1.42E-06,  avg # of iterations = 10.6

     negative rho (up, down):  7.965E-01 0.000E+00

     total cpu time spent up to now is      451.8 secs

     total energy              =   -4482.97210911 Ry
     estimated scf accuracy    <       0.00248308 Ry

     iteration # 28     ecut=    60.00 Ry     beta= 0.15
     Davidson diagonalization with overlap

---- Real-time Memory Report at c_bands before calling an iterative solver
             0 MiB given to the printing process from OS
             0 MiB allocation reported by mallinfo(arena+hblkhd)
         30848 MiB available memory on the node where the printing process lives
------------------
     ethr =  5.68E-07,  avg # of iterations =  5.6

     negative rho (up, down):  7.941E-01 0.000E+00

     total cpu time spent up to now is      468.3 secs

     total energy              =   -4482.97201232 Ry
     estimated scf accuracy    <       0.00125920 Ry

     iteration # 29     ecut=    60.00 Ry     beta= 0.15
     Davidson diagonalization with overlap

---- Real-time Memory Report at c_bands before calling an iterative solver
             0 MiB given to the printing process from OS
             0 MiB allocation reported by mallinfo(arena+hblkhd)
         30845 MiB available memory on the node where the printing process lives
------------------
     ethr =  2.88E-07,  avg # of iterations =  7.3

     negative rho (up, down):  7.935E-01 0.000E+00

     total cpu time spent up to now is      486.5 secs

     total energy              =   -4482.97203802 Ry
     estimated scf accuracy    <       0.00057034 Ry

     iteration # 30     ecut=    60.00 Ry     beta= 0.15
     Davidson diagonalization with overlap

---- Real-time Memory Report at c_bands before calling an iterative solver
             0 MiB given to the printing process from OS
             0 MiB allocation reported by mallinfo(arena+hblkhd)
         30795 MiB available memory on the node where the printing process lives
------------------
     ethr =  1.31E-07,  avg # of iterations =  4.0

     negative rho (up, down):  7.932E-01 0.000E+00

     total cpu time spent up to now is      502.3 secs

     total energy              =   -4482.97205422 Ry
     estimated scf accuracy    <       0.00020900 Ry

     iteration # 31     ecut=    60.00 Ry     beta= 0.15
     Davidson diagonalization with overlap

---- Real-time Memory Report at c_bands before calling an iterative solver
             0 MiB given to the printing process from OS
             0 MiB allocation reported by mallinfo(arena+hblkhd)
         30797 MiB available memory on the node where the printing process lives
------------------
     ethr =  4.78E-08,  avg # of iterations =  2.0

     negative rho (up, down):  7.930E-01 0.000E+00

     total cpu time spent up to now is      516.8 secs

     total energy              =   -4482.97203849 Ry
     estimated scf accuracy    <       0.00017456 Ry

     iteration # 32     ecut=    60.00 Ry     beta= 0.15
     Davidson diagonalization with overlap

---- Real-time Memory Report at c_bands before calling an iterative solver
             0 MiB given to the printing process from OS
             0 MiB allocation reported by mallinfo(arena+hblkhd)
         30803 MiB available memory on the node where the printing process lives
------------------
     ethr =  3.99E-08,  avg # of iterations =  2.4

     negative rho (up, down):  7.924E-01 0.000E+00

     total cpu time spent up to now is      531.4 secs

     total energy              =   -4482.97201016 Ry
     estimated scf accuracy    <       0.00012774 Ry

     iteration # 33     ecut=    60.00 Ry     beta= 0.15
     Davidson diagonalization with overlap

---- Real-time Memory Report at c_bands before calling an iterative solver
             0 MiB given to the printing process from OS
             0 MiB allocation reported by mallinfo(arena+hblkhd)
         30800 MiB available memory on the node where the printing process lives
------------------
     ethr =  2.92E-08,  avg # of iterations =  3.6

     negative rho (up, down):  7.922E-01 0.000E+00

     total cpu time spent up to now is      546.8 secs

     total energy              =   -4482.97202152 Ry
     estimated scf accuracy    <       0.00005206 Ry

     iteration # 34     ecut=    60.00 Ry     beta= 0.15
     Davidson diagonalization with overlap

---- Real-time Memory Report at c_bands before calling an iterative solver
             0 MiB given to the printing process from OS
             0 MiB allocation reported by mallinfo(arena+hblkhd)
         30799 MiB available memory on the node where the printing process lives
------------------
     ethr =  1.19E-08,  avg # of iterations =  3.0

     negative rho (up, down):  7.922E-01 0.000E+00

     total cpu time spent up to now is      561.7 secs

     total energy              =   -4482.97202850 Ry
     estimated scf accuracy    <       0.00003234 Ry

     iteration # 35     ecut=    60.00 Ry     beta= 0.15
     Davidson diagonalization with overlap

---- Real-time Memory Report at c_bands before calling an iterative solver
             0 MiB given to the printing process from OS
             0 MiB allocation reported by mallinfo(arena+hblkhd)
         30814 MiB available memory on the node where the printing process lives
------------------
     ethr =  7.40E-09,  avg # of iterations =  2.5

     negative rho (up, down):  7.922E-01 0.000E+00

     total cpu time spent up to now is      576.4 secs

     total energy              =   -4482.97203558 Ry
     estimated scf accuracy    <       0.00002341 Ry

     iteration # 36     ecut=    60.00 Ry     beta= 0.15
     Davidson diagonalization with overlap

---- Real-time Memory Report at c_bands before calling an iterative solver
             0 MiB given to the printing process from OS
             0 MiB allocation reported by mallinfo(arena+hblkhd)
         30880 MiB available memory on the node where the printing process lives
------------------
     ethr =  5.36E-09,  avg # of iterations =  2.5

     negative rho (up, down):  7.922E-01 0.000E+00

     total cpu time spent up to now is      591.1 secs

     total energy              =   -4482.97204155 Ry
     estimated scf accuracy    <       0.00001758 Ry

     iteration # 37     ecut=    60.00 Ry     beta= 0.15
     Davidson diagonalization with overlap

---- Real-time Memory Report at c_bands before calling an iterative solver
             0 MiB given to the printing process from OS
             0 MiB allocation reported by mallinfo(arena+hblkhd)
         30866 MiB available memory on the node where the printing process lives
------------------
     ethr =  4.02E-09,  avg # of iterations =  3.4

     negative rho (up, down):  7.924E-01 0.000E+00

     total cpu time spent up to now is      606.2 secs

     total energy              =   -4482.97204699 Ry
     estimated scf accuracy    <       0.00001362 Ry

     iteration # 38     ecut=    60.00 Ry     beta= 0.15
     Davidson diagonalization with overlap

---- Real-time Memory Report at c_bands before calling an iterative solver
             0 MiB given to the printing process from OS
             0 MiB allocation reported by mallinfo(arena+hblkhd)
         30915 MiB available memory on the node where the printing process lives
------------------
     ethr =  3.12E-09,  avg # of iterations =  4.5

     negative rho (up, down):  7.925E-01 0.000E+00

     total cpu time spent up to now is      621.8 secs

     total energy              =   -4482.97204780 Ry
     estimated scf accuracy    <       0.00000684 Ry

     iteration # 39     ecut=    60.00 Ry     beta= 0.15
     Davidson diagonalization with overlap

---- Real-time Memory Report at c_bands before calling an iterative solver
             0 MiB given to the printing process from OS
             0 MiB allocation reported by mallinfo(arena+hblkhd)
         30922 MiB available memory on the node where the printing process lives
------------------
     ethr =  1.57E-09,  avg # of iterations =  5.3

     negative rho (up, down):  7.925E-01 0.000E+00

     total cpu time spent up to now is      637.9 secs

     total energy              =   -4482.97204822 Ry
     estimated scf accuracy    <       0.00000411 Ry

     iteration # 40     ecut=    60.00 Ry     beta= 0.15
     Davidson diagonalization with overlap

---- Real-time Memory Report at c_bands before calling an iterative solver
             0 MiB given to the printing process from OS
             0 MiB allocation reported by mallinfo(arena+hblkhd)
         30908 MiB available memory on the node where the printing process lives
------------------
     ethr =  9.40E-10,  avg # of iterations =  3.3

     negative rho (up, down):  7.925E-01 0.000E+00

     total cpu time spent up to now is      652.8 secs

     total energy              =   -4482.97204841 Ry
     estimated scf accuracy    <       0.00000328 Ry

     iteration # 41     ecut=    60.00 Ry     beta= 0.15
     Davidson diagonalization with overlap

---- Real-time Memory Report at c_bands before calling an iterative solver
             0 MiB given to the printing process from OS
             0 MiB allocation reported by mallinfo(arena+hblkhd)
         30904 MiB available memory on the node where the printing process lives
------------------
     ethr =  7.51E-10,  avg # of iterations =  3.7

     negative rho (up, down):  7.924E-01 0.000E+00

     total cpu time spent up to now is      668.1 secs

     total energy              =   -4482.97204854 Ry
     estimated scf accuracy    <       0.00000256 Ry

     iteration # 42     ecut=    60.00 Ry     beta= 0.15
     Davidson diagonalization with overlap

---- Real-time Memory Report at c_bands before calling an iterative solver
             0 MiB given to the printing process from OS
             0 MiB allocation reported by mallinfo(arena+hblkhd)
         30915 MiB available memory on the node where the printing process lives
------------------
     ethr =  5.86E-10,  avg # of iterations =  3.8

     negative rho (up, down):  7.924E-01 0.000E+00

     total cpu time spent up to now is      683.5 secs

     total energy              =   -4482.97204854 Ry
     estimated scf accuracy    <       0.00000181 Ry

     iteration # 43     ecut=    60.00 Ry     beta= 0.15
     Davidson diagonalization with overlap

---- Real-time Memory Report at c_bands before calling an iterative solver
             0 MiB given to the printing process from OS
             0 MiB allocation reported by mallinfo(arena+hblkhd)
         30914 MiB available memory on the node where the printing process lives
------------------
     ethr =  4.15E-10,  avg # of iterations =  2.4

     negative rho (up, down):  7.924E-01 0.000E+00

     total cpu time spent up to now is      698.2 secs

     total energy              =   -4482.97204853 Ry
     estimated scf accuracy    <       0.00000096 Ry

     iteration # 44     ecut=    60.00 Ry     beta= 0.15
     Davidson diagonalization with overlap

---- Real-time Memory Report at c_bands before calling an iterative solver
             0 MiB given to the printing process from OS
             0 MiB allocation reported by mallinfo(arena+hblkhd)
         30912 MiB available memory on the node where the printing process lives
------------------
     ethr =  2.20E-10,  avg # of iterations =  4.2

     negative rho (up, down):  7.924E-01 0.000E+00

     total cpu time spent up to now is      714.0 secs

     total energy              =   -4482.97204851 Ry
     estimated scf accuracy    <       0.00000039 Ry

     iteration # 45     ecut=    60.00 Ry     beta= 0.15
     Davidson diagonalization with overlap

---- Real-time Memory Report at c_bands before calling an iterative solver
             0 MiB given to the printing process from OS
             0 MiB allocation reported by mallinfo(arena+hblkhd)
         30902 MiB available memory on the node where the printing process lives
------------------
     ethr =  8.83E-11,  avg # of iterations =  3.6

     negative rho (up, down):  7.923E-01 0.000E+00

     total cpu time spent up to now is      729.3 secs

     total energy              =   -4482.97204848 Ry
     estimated scf accuracy    <       0.00000027 Ry

     iteration # 46     ecut=    60.00 Ry     beta= 0.15
     Davidson diagonalization with overlap

---- Real-time Memory Report at c_bands before calling an iterative solver
             0 MiB given to the printing process from OS
             0 MiB allocation reported by mallinfo(arena+hblkhd)
         30904 MiB available memory on the node where the printing process lives
------------------
     ethr =  6.21E-11,  avg # of iterations =  4.0

     negative rho (up, down):  7.923E-01 0.000E+00

     total cpu time spent up to now is      745.0 secs

     total energy              =   -4482.97204846 Ry
     estimated scf accuracy    <       0.00000013 Ry

     iteration # 47     ecut=    60.00 Ry     beta= 0.15
     Davidson diagonalization with overlap

---- Real-time Memory Report at c_bands before calling an iterative solver
             0 MiB given to the printing process from OS
             0 MiB allocation reported by mallinfo(arena+hblkhd)
         30917 MiB available memory on the node where the printing process lives
------------------
     ethr =  3.08E-11,  avg # of iterations =  4.0

     negative rho (up, down):  7.923E-01 0.000E+00

     total cpu time spent up to now is      760.8 secs

     total energy              =   -4482.97204851 Ry
     estimated scf accuracy    <       0.00000006 Ry

     iteration # 48     ecut=    60.00 Ry     beta= 0.15
     Davidson diagonalization with overlap

---- Real-time Memory Report at c_bands before calling an iterative solver
             0 MiB given to the printing process from OS
             0 MiB allocation reported by mallinfo(arena+hblkhd)
         30932 MiB available memory on the node where the printing process lives
------------------
     ethr =  1.28E-11,  avg # of iterations =  4.5

     negative rho (up, down):  7.923E-01 0.000E+00

     total cpu time spent up to now is      776.8 secs

     total energy              =   -4482.97204852 Ry
     estimated scf accuracy    <       0.00000002 Ry

     iteration # 49     ecut=    60.00 Ry     beta= 0.15
     Davidson diagonalization with overlap

---- Real-time Memory Report at c_bands before calling an iterative solver
             0 MiB given to the printing process from OS
             0 MiB allocation reported by mallinfo(arena+hblkhd)
         30859 MiB available memory on the node where the printing process lives
------------------
     ethr =  5.34E-12,  avg # of iterations =  4.2

     negative rho (up, down):  7.923E-01 0.000E+00

     total cpu time spent up to now is      791.9 secs

     End of self-consistent calculation

          k = 0.0000 0.0000 0.0000 ( 65197 PWs)   bands (ev):

   -92.3353 -92.2809 -92.1892 -92.1396 -92.0810 -92.0415 -92.0245 -91.9019
   -55.6884 -55.6674 -55.5470 -55.5364 -55.5285 -55.5231 -55.4863 -55.4588
   -55.4427 -55.4404 -55.4316 -55.3898 -55.3704 -55.3331 -55.3151 -55.2804
   -55.2750 -55.2306 -55.2280 -55.2274 -55.2188 -55.1766 -55.1552 -55.0688
   -30.9224 -30.9033 -30.7626 -30.7361 -30.7168 -30.6759 -30.5379 -30.5043
   -29.4867 -29.4431 -29.4178 -29.3093 -22.2513 -14.7206 -14.6847 -14.5989
   -14.4683 -14.2854 -14.1625 -13.8608 -13.8432 -13.8113 -13.7718 -13.7689
   -13.7295 -13.7223 -13.7038 -13.6889 -13.6654 -13.6331 -13.5695 -13.4225
   -13.2517 -13.2117 -13.1792 -13.1519 -13.1338 -13.0895 -13.0493 -12.9694
   -12.8967 -12.8073 -12.7750 -12.7552 -12.7438 -12.7199 -12.7031 -12.6778
   -12.6512 -12.6376 -12.6094 -12.5764 -12.5719 -12.5597 -12.5585 -12.5418
   -12.4919 -12.4800 -12.4543 -12.4152 -12.3728 -12.3594 -11.9876 -11.8428
   -11.7296 -11.6531 -11.5007 -11.4259 -11.4148 -11.3928 -11.3751 -11.3110
   -11.2939 -11.2590 -11.2302 -11.1194 -11.0384 -11.0349  -5.8487  -3.1574
    -3.1519  -2.5810  -2.3474  -2.1179  -1.9723  -1.9078  -1.7649  -1.4589
    -1.4447  -1.4232  -1.3414  -1.3229  -1.2549  -1.2392  -1.1970  -1.1510
    -0.9717  -0.7482  -0.7198  -0.5686  -0.5551  -0.5114  -0.4937  -0.4496
    -0.4338  -0.3720  -0.3460  -0.2793  -0.2663  -0.1849  -0.0597  -0.0443
    -0.0151   0.0668   0.0708   0.0828   0.1527   0.2315   0.2512   0.3256
     0.3450   0.3996   0.4905   0.5398   0.5627   0.5688   0.8235   0.8380
     1.0086   1.0785   1.1399   1.1843   1.2794   1.2930   1.3097   1.3778
     1.4063   1.4412   1.4997   1.6354   1.6866   1.7107   1.7268   1.7356
     1.8063   1.8849   1.9765   1.9911   2.0455   2.0691   2.1064   2.1307
     2.1364   2.1921   2.2420   2.2521   2.2865   2.3139   2.3828   2.5121
     2.5888   2.6409   2.6584   2.8029   2.8174   2.8651   2.8769   2.9742
     3.0161   3.0348   3.0554   3.0663   3.0715   3.0876   3.1550   3.2661
     3.2997   3.3140   3.3211   3.3872   3.3913   3.4161   3.4247   3.4323
     3.4439   3.4505   3.4635   3.4687   3.4834   3.4918   3.4990   3.5195
     3.5406   3.5460   3.5574   3.5743   3.6982   3.7519   4.4239   4.7622
     4.7894   5.1427   5.3854   5.4874   5.7123   6.2807   6.3218   6.3599
     6.6217   6.6234   6.6775   6.7264   6.9818   7.2068   7.2306   7.3917
     7.4766   7.6540   7.7849   7.9292   7.9372   7.9612   8.0406   8.0578
     8.3066   8.3400   8.3746   8.4541   8.5323   8.5520   8.6089

     occupation numbers 
     1.0000   1.0000   1.0000   1.0000   1.0000   1.0000   1.0000   1.0000
     1.0000   1.0000   1.0000   1.0000   1.0000   1.0000   1.0000   1.0000
     1.0000   1.0000   1.0000   1.0000   1.0000   1.0000   1.0000   1.0000
     1.0000   1.0000   1.0000   1.0000   1.0000   1.0000   1.0000   1.0000
     1.0000   1.0000   1.0000   1.0000   1.0000   1.0000   1.0000   1.0000
     1.0000   1.0000   1.0000   1.0000   1.0000   1.0000   1.0000   1.0000
     1.0000   1.0000   1.0000   1.0000   1.0000   1.0000   1.0000   1.0000
     1.0000   1.0000   1.0000   1.0000   1.0000   1.0000   1.0000   1.0000
     1.0000   1.0000   1.0000   1.0000   1.0000   1.0000   1.0000   1.0000
     1.0000   1.0000   1.0000   1.0000   1.0000   1.0000   1.0000   1.0000
     1.0000   1.0000   1.0000   1.0000   1.0000   1.0000   1.0000   1.0000
     1.0000   1.0000   1.0000   1.0000   1.0000   1.0000   1.0000   1.0000
     1.0000   1.0000   1.0000   1.0000   1.0000   1.0000   1.0000   1.0000
     1.0000   1.0000   1.0000   1.0000   1.0000   1.0000   1.0000   1.0000
     1.0000   1.0000   1.0000   1.0000   1.0000   1.0000   1.0000   1.0000
     1.0000   1.0000   1.0000   1.0000   1.0000   1.0000   1.0000   1.0000
     1.0000   1.0000   1.0000   1.0000   1.0000   1.0000   1.0000   1.0000
     1.0000   1.0000   1.0000   1.0000   1.0000   1.0000   1.0000   1.0000
     1.0000   1.0000   1.0000   1.0000   1.0000   1.0000   1.0000   1.0000
     1.0000   1.0000   1.0000   1.0000   1.0000   1.0000   1.0000   1.0000
     1.0000   0.9999   0.9999   0.9999   0.9998   0.9998   0.9998   0.9997
     0.9997   0.9996   0.9994   0.9989   0.9985   0.9984   0.9982   0.9982
     0.9974   0.9963   0.9946   0.9942   0.9927   0.9920   0.9907   0.9897
     0.9895   0.9870   0.9843   0.9837   0.9815   0.9796   0.9740   0.9600
     0.9492   0.9405   0.9374   0.9064   0.9027   0.8900   0.8866   0.8564
     0.8419   0.8351   0.8274   0.8232   0.8212   0.8149   0.7870   0.7360
     0.7194   0.7122   0.7086   0.6741   0.6718   0.6584   0.6538   0.6496
     0.6432   0.6395   0.6323   0.6294   0.6211   0.6163   0.6122   0.6005
     0.5884   0.5852   0.5787   0.5688   0.4957   0.4640   0.1383   0.0559
     0.0514   0.0156   0.0059   0.0038   0.0013   0.0001   0.0000   0.0000
     0.0000   0.0000   0.0000   0.0000   0.0000   0.0000   0.0000   0.0000
     0.0000   0.0000   0.0000   0.0000   0.0000   0.0000   0.0000   0.0000
     0.0000   0.0000   0.0000   0.0000   0.0000   0.0000   0.0000

          k = 0.0000 0.2500 0.0000 ( 65257 PWs)   bands (ev):

   -92.3353 -92.2809 -92.1892 -92.1396 -92.0810 -92.0415 -92.0245 -91.9019
   -55.6884 -55.6674 -55.5470 -55.5364 -55.5285 -55.5231 -55.4863 -55.4588
   -55.4427 -55.4404 -55.4316 -55.3898 -55.3704 -55.3331 -55.3151 -55.2804
   -55.2750 -55.2306 -55.2280 -55.2274 -55.2188 -55.1766 -55.1552 -55.0688
   -30.9222 -30.9032 -30.7628 -30.7344 -30.7185 -30.6761 -30.5369 -30.5053
   -29.4861 -29.4428 -29.4184 -29.3096 -22.2514 -14.6835 -14.6588 -14.5740
   -14.4390 -14.3237 -14.1523 -14.0065 -13.8267 -13.7968 -13.7745 -13.7705
   -13.7460 -13.6887 -13.6838 -13.6694 -13.6516 -13.6160 -13.4898 -13.4528
   -13.2911 -13.2767 -13.2210 -13.1869 -13.1439 -13.1056 -13.0688 -12.9882
   -12.9556 -12.9211 -12.8504 -12.7931 -12.7549 -12.7501 -12.7363 -12.6523
   -12.6263 -12.6014 -12.5793 -12.5485 -12.5186 -12.5121 -12.5059 -12.4795
   -12.4674 -12.4510 -12.4406 -12.4054 -12.2705 -12.1907 -12.0490 -11.8941
   -11.7871 -11.7217 -11.4662 -11.4227 -11.3954 -11.3669 -11.3503 -11.3030
   -11.2916 -11.2692 -11.2349 -11.1336 -11.0802 -11.0695  -5.8487  -3.1574
    -3.1521  -2.4458  -2.2231  -2.0860  -1.9039  -1.8604  -1.6958  -1.4786
    -1.3913  -1.3782  -1.3223  -1.2198  -1.2046  -1.1696  -1.1448  -1.1009
    -0.9029  -0.7748  -0.7624  -0.6863  -0.6752  -0.5705  -0.5399  -0.4856
    -0.4607  -0.4165  -0.3543  -0.3294  -0.2957  -0.2674  -0.2502  -0.2156
    -0.1440  -0.0898  -0.0293   0.0783   0.0996   0.1406   0.2575   0.2929
     0.3564   0.4066   0.4721   0.4879   0.5173   0.5719   0.8704   0.9596
     0.9875   1.0781   1.1204   1.1372   1.2686   1.2860   1.3788   1.4041
     1.4354   1.5509   1.6356   1.6630   1.6864   1.7033   1.7333   1.7944
     1.8205   1.8462   1.8963   1.9255   1.9549   2.0317   2.0634   2.0993
     2.1578   2.2065   2.2369   2.2680   2.3051   2.3261   2.4197   2.5464
     2.6188   2.6416   2.7197   2.7616   2.7982   2.8049   2.8736   2.9165
     2.9897   3.0318   3.0484   3.0635   3.0768   3.2281   3.2491   3.2806
     3.3025   3.3205   3.3296   3.3369   3.3451   3.3750   3.3777   3.3944
     3.3986   3.4109   3.4274   3.4375   3.4480   3.4708   3.4812   3.4862
     3.5211   3.5379   3.5988   3.9447   3.9829   4.2408   4.6078   4.7509
     4.9086   5.0878   5.4160   5.5353   5.8371   5.9062   6.1656   6.3159
     6.3399   6.4613   6.5277   6.7368   6.9127   7.0828   7.2761   7.4775
     7.5483   7.7065   7.8011   7.8980   7.9423   7.9611   8.1114   8.2126
     8.2520   8.4125   8.5338   8.5500   8.6053   8.6839   8.9474

     occupation numbers 
     1.0000   1.0000   1.0000   1.0000   1.0000   1.0000   1.0000   1.0000
     1.0000   1.0000   1.0000   1.0000   1.0000   1.0000   1.0000   1.0000
     1.0000   1.0000   1.0000   1.0000   1.0000   1.0000   1.0000   1.0000
     1.0000   1.0000   1.0000   1.0000   1.0000   1.0000   1.0000   1.0000
     1.0000   1.0000   1.0000   1.0000   1.0000   1.0000   1.0000   1.0000
     1.0000   1.0000   1.0000   1.0000   1.0000   1.0000   1.0000   1.0000
     1.0000   1.0000   1.0000   1.0000   1.0000   1.0000   1.0000   1.0000
     1.0000   1.0000   1.0000   1.0000   1.0000   1.0000   1.0000   1.0000
     1.0000   1.0000   1.0000   1.0000   1.0000   1.0000   1.0000   1.0000
     1.0000   1.0000   1.0000   1.0000   1.0000   1.0000   1.0000   1.0000
     1.0000   1.0000   1.0000   1.0000   1.0000   1.0000   1.0000   1.0000
     1.0000   1.0000   1.0000   1.0000   1.0000   1.0000   1.0000   1.0000
     1.0000   1.0000   1.0000   1.0000   1.0000   1.0000   1.0000   1.0000
     1.0000   1.0000   1.0000   1.0000   1.0000   1.0000   1.0000   1.0000
     1.0000   1.0000   1.0000   1.0000   1.0000   1.0000   1.0000   1.0000
     1.0000   1.0000   1.0000   1.0000   1.0000   1.0000   1.0000   1.0000
     1.0000   1.0000   1.0000   1.0000   1.0000   1.0000   1.0000   1.0000
     1.0000   1.0000   1.0000   1.0000   1.0000   1.0000   1.0000   1.0000
     1.0000   1.0000   1.0000   1.0000   1.0000   1.0000   1.0000   1.0000
     1.0000   1.0000   1.0000   1.0000   1.0000   1.0000   1.0000   1.0000
     1.0000   0.9999   0.9999   0.9999   0.9998   0.9998   0.9997   0.9997
     0.9996   0.9993   0.9989   0.9987   0.9985   0.9984   0.9982   0.9976
     0.9973   0.9969   0.9962   0.9956   0.9950   0.9931   0.9922   0.9910
     0.9886   0.9863   0.9846   0.9827   0.9802   0.9787   0.9705   0.9554
     0.9443   0.9404   0.9254   0.9162   0.9075   0.9059   0.8876   0.8750
     0.8512   0.8362   0.8300   0.8243   0.8191   0.7541   0.7442   0.7289
     0.7180   0.7089   0.7043   0.7005   0.6963   0.6806   0.6791   0.6702
     0.6680   0.6613   0.6523   0.6467   0.6409   0.6282   0.6223   0.6195
     0.5996   0.5899   0.5545   0.3532   0.3323   0.2072   0.0867   0.0578
     0.0353   0.0190   0.0052   0.0031   0.0007   0.0005   0.0001   0.0000
     0.0000   0.0000   0.0000   0.0000   0.0000   0.0000   0.0000   0.0000
     0.0000   0.0000   0.0000   0.0000   0.0000   0.0000   0.0000   0.0000
     0.0000   0.0000   0.0000   0.0000   0.0000   0.0000   0.0000

          k = 0.0000-0.5000 0.0000 ( 65180 PWs)   bands (ev):

   -92.3353 -92.2809 -92.1892 -92.1396 -92.0810 -92.0415 -92.0245 -91.9019
   -55.6884 -55.6674 -55.5470 -55.5364 -55.5285 -55.5231 -55.4863 -55.4588
   -55.4427 -55.4404 -55.4316 -55.3898 -55.3704 -55.3331 -55.3151 -55.2804
   -55.2750 -55.2306 -55.2280 -55.2274 -55.2188 -55.1766 -55.1552 -55.0688
   -30.9220 -30.9031 -30.7630 -30.7322 -30.7207 -30.6762 -30.5359 -30.5063
   -29.4854 -29.4425 -29.4190 -29.3100 -22.2514 -14.6518 -14.6027 -14.5523
   -14.4253 -14.3385 -14.1991 -14.0577 -13.9283 -13.7968 -13.7714 -13.7363
   -13.6904 -13.6776 -13.6328 -13.6128 -13.5683 -13.5493 -13.5235 -13.4861
   -13.4618 -13.4253 -13.2238 -13.1677 -13.1531 -13.0975 -13.0849 -13.0008
   -12.9875 -12.9293 -12.9285 -12.8641 -12.7548 -12.7415 -12.7233 -12.6959
   -12.6175 -12.6020 -12.5747 -12.5267 -12.5209 -12.4972 -12.4779 -12.4622
   -12.4242 -12.4153 -12.3499 -12.2966 -12.1601 -12.1227 -11.9695 -11.9564
   -11.9027 -11.8610 -11.4196 -11.4178 -11.3906 -11.3526 -11.3185 -11.3075
   -11.2645 -11.2607 -11.2165 -11.1552 -11.1411 -11.1266  -5.8487  -3.1574
    -3.1523  -2.2313  -2.1713  -2.0201  -1.9473  -1.6677  -1.5845  -1.4562
    -1.3174  -1.2820  -1.2618  -1.1823  -1.1512  -1.0709  -1.0351  -0.9594
    -0.9177  -0.8778  -0.8511  -0.7964  -0.7581  -0.7116  -0.6749  -0.6419
    -0.6074  -0.4974  -0.4519  -0.4201  -0.4187  -0.3329  -0.2989  -0.2774
    -0.2301  -0.1441  -0.0782   0.0046   0.0310   0.1332   0.1783   0.3314
     0.3618   0.3896   0.4443   0.5572   0.6053   0.7536   0.8185   0.8259
     0.9546   0.9925   1.0969   1.2312   1.3385   1.3705   1.4041   1.4105
     1.4511   1.4688   1.5058   1.5225   1.5324   1.6411   1.6996   1.7302
     1.7572   2.0128   2.0431   2.0641   2.1532   2.1810   2.2138   2.2283
     2.2654   2.2729   2.2855   2.3151   2.3613   2.3862   2.4158   2.4268
     2.4556   2.5095   2.5885   2.6129   2.7956   2.9646   2.9722   2.9819
     3.0274   3.0315   3.0440   3.0595   3.0713   3.0959   3.1067   3.1620
     3.1826   3.2585   3.2704   3.3391   3.3477   3.3720   3.3741   3.3936
     3.3965   3.4004   3.4049   3.4083   3.4204   3.4408   3.4422   3.5062
     3.5125   3.5275   3.5817   4.4757   4.4880   4.5225   4.5938   4.9599
     5.1330   5.2326   5.4194   5.5328   5.6155   5.8121   5.9300   6.0145
     6.2231   6.3773   6.4002   6.4627   6.9993   7.0875   7.1425   7.4183
     7.6067   7.6183   7.7259   7.9997   8.0458   8.0748   8.2107   8.3441
     8.5048   8.5802   8.6886   8.7256   8.7607   8.8597   8.9664

     occupation numbers 
     1.0000   1.0000   1.0000   1.0000   1.0000   1.0000   1.0000   1.0000
     1.0000   1.0000   1.0000   1.0000   1.0000   1.0000   1.0000   1.0000
     1.0000   1.0000   1.0000   1.0000   1.0000   1.0000   1.0000   1.0000
     1.0000   1.0000   1.0000   1.0000   1.0000   1.0000   1.0000   1.0000
     1.0000   1.0000   1.0000   1.0000   1.0000   1.0000   1.0000   1.0000
     1.0000   1.0000   1.0000   1.0000   1.0000   1.0000   1.0000   1.0000
     1.0000   1.0000   1.0000   1.0000   1.0000   1.0000   1.0000   1.0000
     1.0000   1.0000   1.0000   1.0000   1.0000   1.0000   1.0000   1.0000
     1.0000   1.0000   1.0000   1.0000   1.0000   1.0000   1.0000   1.0000
     1.0000   1.0000   1.0000   1.0000   1.0000   1.0000   1.0000   1.0000
     1.0000   1.0000   1.0000   1.0000   1.0000   1.0000   1.0000   1.0000
     1.0000   1.0000   1.0000   1.0000   1.0000   1.0000   1.0000   1.0000
     1.0000   1.0000   1.0000   1.0000   1.0000   1.0000   1.0000   1.0000
     1.0000   1.0000   1.0000   1.0000   1.0000   1.0000   1.0000   1.0000
     1.0000   1.0000   1.0000   1.0000   1.0000   1.0000   1.0000   1.0000
     1.0000   1.0000   1.0000   1.0000   1.0000   1.0000   1.0000   1.0000
     1.0000   1.0000   1.0000   1.0000   1.0000   1.0000   1.0000   1.0000
     1.0000   1.0000   1.0000   1.0000   1.0000   1.0000   1.0000   1.0000
     1.0000   1.0000   1.0000   1.0000   1.0000   1.0000   1.0000   1.0000
     1.0000   1.0000   1.0000   1.0000   1.0000   1.0000   1.0000   1.0000
     1.0000   1.0000   0.9999   0.9999   0.9998   0.9997   0.9997   0.9996
     0.9996   0.9995   0.9994   0.9994   0.9993   0.9988   0.9984   0.9982
     0.9980   0.9936   0.9928   0.9921   0.9888   0.9875   0.9859   0.9851
     0.9829   0.9824   0.9816   0.9795   0.9758   0.9737   0.9709   0.9698
     0.9667   0.9603   0.9492   0.9453   0.9082   0.8596   0.8571   0.8538
     0.8378   0.8363   0.8317   0.8258   0.8213   0.8116   0.8072   0.7839
     0.7749   0.7397   0.7339   0.6994   0.6949   0.6822   0.6811   0.6706
     0.6691   0.6670   0.6645   0.6627   0.6561   0.6449   0.6441   0.6081
     0.6045   0.5959   0.5645   0.1220   0.1183   0.1085   0.0900   0.0298
     0.0161   0.0110   0.0051   0.0031   0.0021   0.0008   0.0004   0.0003
     0.0001   0.0000   0.0000   0.0000   0.0000   0.0000   0.0000   0.0000
     0.0000   0.0000   0.0000   0.0000   0.0000   0.0000   0.0000   0.0000
     0.0000   0.0000   0.0000   0.0000   0.0000   0.0000   0.0000

          k = 0.2500 0.2500 0.0000 ( 65198 PWs)   bands (ev):

   -92.3353 -92.2809 -92.1892 -92.1396 -92.0810 -92.0415 -92.0245 -91.9019
   -55.6884 -55.6674 -55.5470 -55.5364 -55.5285 -55.5231 -55.4863 -55.4588
   -55.4427 -55.4404 -55.4315 -55.3898 -55.3704 -55.3331 -55.3151 -55.2804
   -55.2750 -55.2306 -55.2280 -55.2273 -55.2188 -55.1766 -55.1552 -55.0688
   -30.9205 -30.9049 -30.7624 -30.7342 -30.7184 -30.6764 -30.5371 -30.5054
   -29.4851 -29.4438 -29.4180 -29.3100 -22.2514 -14.6556 -14.6230 -14.5462
   -14.4285 -14.3153 -14.1915 -14.1115 -13.9110 -13.7718 -13.7499 -13.7386
   -13.7046 -13.6732 -13.6536 -13.6315 -13.5979 -13.5765 -13.4825 -13.4670
   -13.3071 -13.2938 -13.2630 -13.2431 -13.2018 -13.1558 -13.1187 -13.0706
   -12.9813 -12.9380 -12.8761 -12.7876 -12.7475 -12.7101 -12.6963 -12.6651
   -12.6442 -12.6054 -12.5933 -12.5726 -12.5487 -12.5138 -12.4845 -12.4555
   -12.4095 -12.4000 -12.3874 -12.3588 -12.2093 -12.0976 -12.0946 -11.9233
   -11.8183 -11.7702 -11.4383 -11.4063 -11.3958 -11.3885 -11.3260 -11.2912
   -11.2846 -11.2492 -11.2414 -11.1501 -11.1084 -11.0909  -5.8487  -3.1576
    -3.1521  -2.3077  -2.0974  -1.9802  -1.8869  -1.7645  -1.6991  -1.5036
    -1.3568  -1.3363  -1.3090  -1.2145  -1.1794  -1.0870  -1.0605  -1.0104
    -0.8777  -0.8306  -0.7582  -0.7127  -0.6689  -0.6440  -0.6188  -0.5779
    -0.5613  -0.4716  -0.4221  -0.3597  -0.3101  -0.2813  -0.2278  -0.2179
    -0.1544  -0.1033  -0.0491  -0.0133   0.0698   0.1216   0.1517   0.1933
     0.2472   0.3055   0.3542   0.3829   0.4482   0.4947   0.7648   0.9093
     0.9497   0.9993   1.0435   1.0989   1.1543   1.2122   1.2510   1.5256
     1.5976   1.6717   1.6973   1.7419   1.7776   1.8123   1.8483   1.8667
     1.8951   1.9312   1.9435   1.9620   2.0032   2.0441   2.0831   2.1241
     2.1630   2.1793   2.2063   2.2475   2.2981   2.3264   2.4602   2.5262
     2.5674   2.5974   2.6561   2.7221   2.7532   2.7913   2.8111   2.8260
     2.9368   2.9753   3.0517   3.0617   3.0813   3.2384   3.2563   3.2625
     3.2776   3.2916   3.3052   3.3175   3.3253   3.3354   3.3492   3.3607
     3.3803   3.3862   3.3980   3.4180   3.4321   3.4417   3.4727   3.7746
     3.8651   3.9027   3.9640   3.9847   4.2120   4.3162   4.6425   4.8029
     4.9833   5.1421   5.3295   5.5625   5.9390   5.9674   6.0036   6.1232
     6.2030   6.2528   6.3620   6.4015   6.9516   7.0073   7.0714   7.2027
     7.7241   7.7988   7.8477   7.9086   8.0254   8.1367   8.2085   8.2932
     8.3870   8.4580   8.5631   8.6905   8.7147   8.7884   8.8481

     occupation numbers 
     1.0000   1.0000   1.0000   1.0000   1.0000   1.0000   1.0000   1.0000
     1.0000   1.0000   1.0000   1.0000   1.0000   1.0000   1.0000   1.0000
     1.0000   1.0000   1.0000   1.0000   1.0000   1.0000   1.0000   1.0000
     1.0000   1.0000   1.0000   1.0000   1.0000   1.0000   1.0000   1.0000
     1.0000   1.0000   1.0000   1.0000   1.0000   1.0000   1.0000   1.0000
     1.0000   1.0000   1.0000   1.0000   1.0000   1.0000   1.0000   1.0000
     1.0000   1.0000   1.0000   1.0000   1.0000   1.0000   1.0000   1.0000
     1.0000   1.0000   1.0000   1.0000   1.0000   1.0000   1.0000   1.0000
     1.0000   1.0000   1.0000   1.0000   1.0000   1.0000   1.0000   1.0000
     1.0000   1.0000   1.0000   1.0000   1.0000   1.0000   1.0000   1.0000
     1.0000   1.0000   1.0000   1.0000   1.0000   1.0000   1.0000   1.0000
     1.0000   1.0000   1.0000   1.0000   1.0000   1.0000   1.0000   1.0000
     1.0000   1.0000   1.0000   1.0000   1.0000   1.0000   1.0000   1.0000
     1.0000   1.0000   1.0000   1.0000   1.0000   1.0000   1.0000   1.0000
     1.0000   1.0000   1.0000   1.0000   1.0000   1.0000   1.0000   1.0000
     1.0000   1.0000   1.0000   1.0000   1.0000   1.0000   1.0000   1.0000
     1.0000   1.0000   1.0000   1.0000   1.0000   1.0000   1.0000   1.0000
     1.0000   1.0000   1.0000   1.0000   1.0000   1.0000   1.0000   1.0000
     1.0000   1.0000   1.0000   1.0000   1.0000   1.0000   1.0000   1.0000
     1.0000   1.0000   1.0000   1.0000   1.0000   1.0000   1.0000   1.0000
     1.0000   1.0000   1.0000   0.9999   0.9999   0.9999   0.9999   0.9993
     0.9991   0.9986   0.9985   0.9981   0.9978   0.9974   0.9969   0.9966
     0.9962   0.9955   0.9953   0.9949   0.9939   0.9928   0.9915   0.9900
     0.9884   0.9876   0.9863   0.9840   0.9807   0.9786   0.9662   0.9582
     0.9524   0.9478   0.9378   0.9249   0.9181   0.9092   0.9043   0.9005
     0.8686   0.8561   0.8288   0.8250   0.8174   0.7492   0.7407   0.7377
     0.7304   0.7235   0.7167   0.7104   0.7065   0.7013   0.6941   0.6881
     0.6778   0.6746   0.6683   0.6574   0.6497   0.6444   0.6271   0.4506
     0.3980   0.3767   0.3426   0.3314   0.2196   0.1766   0.0788   0.0494
     0.0275   0.0156   0.0075   0.0027   0.0004   0.0004   0.0003   0.0002
     0.0001   0.0001   0.0000   0.0000   0.0000   0.0000   0.0000   0.0000
     0.0000   0.0000   0.0000   0.0000   0.0000   0.0000   0.0000   0.0000
     0.0000   0.0000   0.0000   0.0000   0.0000   0.0000   0.0000

          k = 0.2500-0.5000 0.0000 ( 65138 PWs)   bands (ev):

   -92.3353 -92.2809 -92.1892 -92.1396 -92.0810 -92.0415 -92.0245 -91.9019
   -55.6884 -55.6674 -55.5470 -55.5364 -55.5285 -55.5231 -55.4863 -55.4588
   -55.4427 -55.4404 -55.4315 -55.3898 -55.3704 -55.3331 -55.3151 -55.2804
   -55.2750 -55.2306 -55.2280 -55.2273 -55.2188 -55.1766 -55.1552 -55.0688
   -30.9203 -30.9048 -30.7626 -30.7320 -30.7206 -30.6766 -30.5360 -30.5065
   -29.4845 -29.4435 -29.4186 -29.3104 -22.2514 -14.6216 -14.5757 -14.5092
   -14.3937 -14.3627 -14.2396 -14.1580 -14.0255 -13.7715 -13.7138 -13.6672
   -13.6360 -13.6185 -13.5997 -13.5849 -13.5533 -13.5370 -13.5024 -13.4620
   -13.4418 -13.4192 -13.3075 -13.2591 -13.2203 -13.1801 -13.1420 -13.1110
   -13.0348 -12.9926 -12.8518 -12.7877 -12.7658 -12.6941 -12.6805 -12.6536
   -12.6340 -12.6163 -12.5890 -12.5577 -12.5204 -12.5052 -12.4847 -12.4654
   -12.4345 -12.4164 -12.3005 -12.2691 -12.1668 -12.1056 -11.9671 -11.9361
   -11.8927 -11.8608 -11.4137 -11.4019 -11.3909 -11.3638 -11.3321 -11.3040
   -11.2624 -11.2351 -11.2127 -11.1682 -11.1421 -11.1307  -5.8487  -3.1576
    -3.1523  -2.0899  -2.0236  -1.8942  -1.8163  -1.6883  -1.6046  -1.4808
    -1.3290  -1.2766  -1.2540  -1.1905  -1.1773  -1.0817  -1.0136  -0.9282
    -0.8811  -0.8713  -0.8062  -0.7660  -0.7300  -0.6828  -0.6459  -0.6113
    -0.5706  -0.5605  -0.5142  -0.4862  -0.4447  -0.4142  -0.3463  -0.2459
    -0.2079  -0.1301  -0.0663  -0.0199   0.0247   0.0476   0.0939   0.2568
     0.2653   0.3742   0.4109   0.4210   0.4678   0.4911   0.5314   0.5591
     0.6355   0.8938   0.9851   1.0601   1.1222   1.3815   1.4077   1.4984
     1.5227   1.6943   1.7262   1.7691   1.7927   1.8106   1.8308   1.8907
     1.9354   1.9732   2.0498   2.1271   2.1675   2.1930   2.2060   2.2380
     2.2537   2.2644   2.3013   2.3192   2.3363   2.3775   2.3894   2.4185
     2.4477   2.5076   2.5446   2.6205   2.7641   2.9167   2.9314   2.9511
     2.9773   3.0020   3.0299   3.0479   3.0545   3.0613   3.0804   3.0938
     3.1888   3.2367   3.2567   3.2596   3.2754   3.2958   3.3099   3.3283
     3.3364   3.3659   3.3784   3.3940   3.4029   3.4114   3.4227   3.9372
     3.9456   4.1057   4.1537   4.4826   4.5325   4.5378   4.6604   5.0237
     5.1663   5.2611   5.4412   5.5019   5.6572   5.6778   5.8780   5.9178
     6.0947   6.1289   6.2981   6.5090   6.6024   6.6380   7.1391   7.2538
     7.5318   7.6384   7.9557   8.0793   8.1771   8.2161   8.3391   8.4082
     8.5188   8.6353   8.7013   8.8106   8.8371   8.8953   8.9400

     occupation numbers 
     1.0000   1.0000   1.0000   1.0000   1.0000   1.0000   1.0000   1.0000
     1.0000   1.0000   1.0000   1.0000   1.0000   1.0000   1.0000   1.0000
     1.0000   1.0000   1.0000   1.0000   1.0000   1.0000   1.0000   1.0000
     1.0000   1.0000   1.0000   1.0000   1.0000   1.0000   1.0000   1.0000
     1.0000   1.0000   1.0000   1.0000   1.0000   1.0000   1.0000   1.0000
     1.0000   1.0000   1.0000   1.0000   1.0000   1.0000   1.0000   1.0000
     1.0000   1.0000   1.0000   1.0000   1.0000   1.0000   1.0000   1.0000
     1.0000   1.0000   1.0000   1.0000   1.0000   1.0000   1.0000   1.0000
     1.0000   1.0000   1.0000   1.0000   1.0000   1.0000   1.0000   1.0000
     1.0000   1.0000   1.0000   1.0000   1.0000   1.0000   1.0000   1.0000
     1.0000   1.0000   1.0000   1.0000   1.0000   1.0000   1.0000   1.0000
     1.0000   1.0000   1.0000   1.0000   1.0000   1.0000   1.0000   1.0000
     1.0000   1.0000   1.0000   1.0000   1.0000   1.0000   1.0000   1.0000
     1.0000   1.0000   1.0000   1.0000   1.0000   1.0000   1.0000   1.0000
     1.0000   1.0000   1.0000   1.0000   1.0000   1.0000   1.0000   1.0000
     1.0000   1.0000   1.0000   1.0000   1.0000   1.0000   1.0000   1.0000
     1.0000   1.0000   1.0000   1.0000   1.0000   1.0000   1.0000   1.0000
     1.0000   1.0000   1.0000   1.0000   1.0000   1.0000   1.0000   1.0000
     1.0000   1.0000   1.0000   1.0000   1.0000   1.0000   1.0000   1.0000
     1.0000   1.0000   1.0000   1.0000   1.0000   1.0000   1.0000   1.0000
     1.0000   1.0000   1.0000   1.0000   0.9999   0.9997   0.9997   0.9994
     0.9994   0.9985   0.9982   0.9978   0.9976   0.9974   0.9971   0.9962
     0.9954   0.9946   0.9926   0.9899   0.9882   0.9869   0.9863   0.9845
     0.9836   0.9829   0.9805   0.9792   0.9779   0.9744   0.9734   0.9706
     0.9676   0.9606   0.9556   0.9440   0.9157   0.8749   0.8703   0.8641
     0.8554   0.8469   0.8369   0.8302   0.8277   0.8251   0.8177   0.8124
     0.7721   0.7501   0.7405   0.7391   0.7314   0.7214   0.7143   0.7049
     0.7008   0.6854   0.6787   0.6704   0.6656   0.6610   0.6548   0.3574
     0.3527   0.2690   0.2460   0.1199   0.1057   0.1043   0.0750   0.0239
     0.0142   0.0099   0.0047   0.0036   0.0018   0.0016   0.0006   0.0005
     0.0002   0.0001   0.0001   0.0000   0.0000   0.0000   0.0000   0.0000
     0.0000   0.0000   0.0000   0.0000   0.0000   0.0000   0.0000   0.0000
     0.0000   0.0000   0.0000   0.0000   0.0000   0.0000   0.0000

          k =-0.5000-0.5000 0.0000 ( 65132 PWs)   bands (ev):

   -92.3353 -92.2809 -92.1892 -92.1396 -92.0810 -92.0415 -92.0245 -91.9019
   -55.6884 -55.6674 -55.5470 -55.5364 -55.5285 -55.5231 -55.4863 -55.4588
   -55.4427 -55.4404 -55.4315 -55.3898 -55.3704 -55.3331 -55.3151 -55.2804
   -55.2750 -55.2306 -55.2280 -55.2273 -55.2188 -55.1766 -55.1552 -55.0688
   -30.9180 -30.9071 -30.7623 -30.7319 -30.7204 -30.6770 -30.5362 -30.5066
   -29.4834 -29.4445 -29.4182 -29.3108 -22.2513 -14.5762 -14.5482 -14.4310
   -14.4206 -14.3292 -14.2874 -14.2589 -14.1253 -13.7715 -13.6261 -13.6164
   -13.5789 -13.5621 -13.5442 -13.5363 -13.4997 -13.4919 -13.4810 -13.4692
   -13.4535 -13.3764 -13.3701 -13.3459 -13.3194 -13.3067 -13.2145 -13.2032
   -13.0858 -13.0429 -12.8029 -12.7628 -12.6992 -12.6725 -12.6660 -12.6335
   -12.6304 -12.6201 -12.6164 -12.5988 -12.5175 -12.4914 -12.4864 -12.4700
   -12.4563 -12.4304 -12.2503 -12.2427 -12.1831 -12.0893 -11.9636 -11.9130
   -11.8845 -11.8613 -11.4102 -11.3979 -11.3800 -11.3634 -11.3286 -11.3106
   -11.2764 -11.2156 -11.1950 -11.1902 -11.1397 -11.1366  -5.8487  -3.1577
    -3.1523  -1.8664  -1.7904  -1.7810  -1.7066  -1.6685  -1.5903  -1.5226
    -1.3967  -1.2793  -1.2498  -1.2104  -1.1529  -1.0808  -1.0678  -0.9955
    -0.9530  -0.8373  -0.8104  -0.7610  -0.7291  -0.6652  -0.6223  -0.6024
    -0.5915  -0.5386  -0.4902  -0.4784  -0.3638  -0.3065  -0.2609  -0.2112
    -0.1861  -0.1749  -0.1389  -0.0997  -0.0654  -0.0507   0.0352   0.0996
     0.1513   0.1702   0.2479   0.2961   0.3068   0.3674   0.3937   0.4056
     0.4215   0.8614   0.8978   1.0019   1.0361   1.4153   1.4278   1.4596
     1.5003   1.7768   1.7964   1.8030   1.8420   1.9755   2.0725   2.0975
     2.1324   2.1422   2.1701   2.1817   2.2133   2.2184   2.2253   2.2417
     2.3065   2.3079   2.3328   2.3374   2.3656   2.3737   2.4143   2.4457
     2.4564   2.4915   2.5197   2.5906   2.6591   2.9256   2.9613   2.9783
     3.0009   3.0071   3.0350   3.0398   3.0534   3.0613   3.0690   3.0839
     3.0928   3.1120   3.1239   3.1900   3.1933   3.2136   3.2282   3.2393
     3.2589   3.2627   3.2731   3.3744   3.3783   3.4071   3.4175   4.3656
     4.3813   4.3977   4.4120   4.6828   4.7552   4.7824   5.0221   5.1424
     5.1676   5.2287   5.3429   5.3989   5.4998   5.5604   5.5675   5.7506
     5.9943   6.0828   6.1284   6.2088   6.5622   6.6863   6.7946   7.1262
     7.5415   7.5637   7.6776   8.2845   8.3068   8.3792   8.4450   8.5722
     8.6241   8.8832   8.8942   8.9063   8.9280   8.9670   9.0153

     occupation numbers 
     1.0000   1.0000   1.0000   1.0000   1.0000   1.0000   1.0000   1.0000
     1.0000   1.0000   1.0000   1.0000   1.0000   1.0000   1.0000   1.0000
     1.0000   1.0000   1.0000   1.0000   1.0000   1.0000   1.0000   1.0000
     1.0000   1.0000   1.0000   1.0000   1.0000   1.0000   1.0000   1.0000
     1.0000   1.0000   1.0000   1.0000   1.0000   1.0000   1.0000   1.0000
     1.0000   1.0000   1.0000   1.0000   1.0000   1.0000   1.0000   1.0000
     1.0000   1.0000   1.0000   1.0000   1.0000   1.0000   1.0000   1.0000
     1.0000   1.0000   1.0000   1.0000   1.0000   1.0000   1.0000   1.0000
     1.0000   1.0000   1.0000   1.0000   1.0000   1.0000   1.0000   1.0000
     1.0000   1.0000   1.0000   1.0000   1.0000   1.0000   1.0000   1.0000
     1.0000   1.0000   1.0000   1.0000   1.0000   1.0000   1.0000   1.0000
     1.0000   1.0000   1.0000   1.0000   1.0000   1.0000   1.0000   1.0000
     1.0000   1.0000   1.0000   1.0000   1.0000   1.0000   1.0000   1.0000
     1.0000   1.0000   1.0000   1.0000   1.0000   1.0000   1.0000   1.0000
     1.0000   1.0000   1.0000   1.0000   1.0000   1.0000   1.0000   1.0000
     1.0000   1.0000   1.0000   1.0000   1.0000   1.0000   1.0000   1.0000
     1.0000   1.0000   1.0000   1.0000   1.0000   1.0000   1.0000   1.0000
     1.0000   1.0000   1.0000   1.0000   1.0000   1.0000   1.0000   1.0000
     1.0000   1.0000   1.0000   1.0000   1.0000   1.0000   1.0000   1.0000
     1.0000   1.0000   1.0000   1.0000   1.0000   1.0000   1.0000   1.0000
     1.0000   1.0000   1.0000   1.0000   1.0000   0.9996   0.9996   0.9995
     0.9994   0.9978   0.9975   0.9975   0.9970   0.9946   0.9919   0.9910
     0.9897   0.9893   0.9880   0.9875   0.9859   0.9856   0.9852   0.9843
     0.9801   0.9800   0.9781   0.9778   0.9755   0.9748   0.9710   0.9678
[...]
     0.0000   0.0000   0.0000   0.0000   0.0000   0.0000   0.0000   0.0000
     0.0000   0.0000   0.0000   0.0000   0.0000   0.0000   0.0000

          k =-0.5000 0.0000 0.0000 ( 65180 PWs)   bands (ev):

   -92.3353 -92.2809 -92.1892 -92.1396 -92.0810 -92.0415 -92.0245 -91.9019
   -55.6884 -55.6674 -55.5470 -55.5364 -55.5285 -55.5231 -55.4863 -55.4588
   -55.4427 -55.4404 -55.4315 -55.3898 -55.3704 -55.3331 -55.3151 -55.2804
   -55.2750 -55.2306 -55.2280 -55.2273 -55.2188 -55.1766 -55.1552 -55.0688
   -30.9184 -30.9073 -30.7619 -30.7358 -30.7165 -30.6767 -30.5382 -30.5046
   -29.4847 -29.4452 -29.4170 -29.3101 -22.2514 -14.6553 -14.6070 -14.5444
   -14.4389 -14.3305 -14.1862 -14.0486 -13.9075 -13.7741 -13.7715 -13.7676
   -13.7471 -13.6946 -13.6361 -13.6032 -13.5563 -13.5526 -13.5367 -13.4810
   -13.4722 -13.3790 -13.1954 -13.1765 -13.1359 -13.1272 -13.0955 -13.0066
   -12.9844 -12.9145 -12.8942 -12.8908 -12.7571 -12.6993 -12.6900 -12.6680
   -12.6652 -12.6563 -12.5946 -12.5776 -12.5652 -12.5467 -12.4616 -12.4339
   -12.3749 -12.3587 -12.2850 -12.2760 -12.1861 -12.1626 -12.0105 -11.9734
   -11.8805 -11.8420 -11.4171 -11.3960 -11.3890 -11.3742 -11.3562 -11.3149
   -11.2520 -11.2346 -11.2021 -11.1574 -11.1479 -11.1320  -5.8487  -3.1578
    -3.1519  -2.2211  -2.1820  -2.0174  -1.9784  -1.6670  -1.5916  -1.4423
    -1.3241  -1.2857  -1.2393  -1.1914  -1.1654  -1.0443  -0.9985  -0.9850
    -0.9015  -0.8659  -0.8530  -0.8189  -0.7639  -0.6941  -0.6635  -0.6381
    -0.5435  -0.4935  -0.4449  -0.4133  -0.3914  -0.3617  -0.3140  -0.2889
    -0.2530  -0.1570  -0.0843  -0.0217   0.0416   0.1903   0.2436   0.3034
     0.3256   0.3784   0.4145   0.5409   0.5827   0.6253   0.8010   0.8991
     0.9450   1.0251   1.0755   1.2140   1.2270   1.3543   1.3874   1.4419
     1.4658   1.5091   1.5188   1.5662   1.5903   1.6537   1.7009   1.7483
     1.7573   2.0489   2.0595   2.0636   2.0909   2.2084   2.2166   2.2233
     2.2419   2.2748   2.2876   2.3219   2.3541   2.3701   2.4390   2.4428
     2.5008   2.5140   2.5799   2.6873   2.7759   2.8605   2.8752   2.9542
     2.9901   3.0133   3.0526   3.0722   3.0861   3.0933   3.1021   3.1304
     3.1985   3.2419   3.2872   3.3149   3.3631   3.3661   3.3675   3.3797
     3.3940   3.4067   3.4209   3.4236   3.4435   3.4500   3.4724   3.4927
     3.4970   3.6229   3.6311   4.4327   4.4658   4.5285   4.6492   5.0095
     5.1463   5.2061   5.3181   5.4454   5.7238   5.8726   5.9573   5.9896
     6.2413   6.3207   6.3851   6.4376   6.9878   7.0900   7.1481   7.4755
     7.4859   7.7123   7.7655   7.9884   8.0906   8.1288   8.2034   8.3428
     8.4400   8.5915   8.6492   8.7219   8.7707   8.8611   8.9228

     occupation numbers 
     1.0000   1.0000   1.0000   1.0000   1.0000   1.0000   1.0000   1.0000
     1.0000   1.0000   1.0000   1.0000   1.0000   1.0000   1.0000   1.0000
     1.0000   1.0000   1.0000   1.0000   1.0000   1.0000   1.0000   1.0000
     1.0000   1.0000   1.0000   1.0000   1.0000   1.0000   1.0000   1.0000
     1.0000   1.0000   1.0000   1.0000   1.0000   1.0000   1.0000   1.0000
     1.0000   1.0000   1.0000   1.0000   1.0000   1.0000   1.0000   1.0000
     1.0000   1.0000   1.0000   1.0000   1.0000   1.0000   1.0000   1.0000
     1.0000   1.0000   1.0000   1.0000   1.0000   1.0000   1.0000   1.0000
     1.0000   1.0000   1.0000   1.0000   1.0000   1.0000   1.0000   1.0000
     1.0000   1.0000   1.0000   1.0000   1.0000   1.0000   1.0000   1.0000
     1.0000   1.0000   1.0000   1.0000   1.0000   1.0000   1.0000   1.0000
     1.0000   1.0000   1.0000   1.0000   1.0000   1.0000   1.0000   1.0000
     1.0000   1.0000   1.0000   1.0000   1.0000   1.0000   1.0000   1.0000
     1.0000   1.0000   1.0000   1.0000   1.0000   1.0000   1.0000   1.0000
     1.0000   1.0000   1.0000   1.0000   1.0000   1.0000   1.0000   1.0000
     1.0000   1.0000   1.0000   1.0000   1.0000   1.0000   1.0000   1.0000
     1.0000   1.0000   1.0000   1.0000   1.0000   1.0000   1.0000   1.0000
     1.0000   1.0000   1.0000   1.0000   1.0000   1.0000   1.0000   1.0000
     1.0000   1.0000   1.0000   1.0000   1.0000   1.0000   1.0000   1.0000
     1.0000   1.0000   1.0000   1.0000   1.0000   1.0000   1.0000   1.0000
     1.0000   1.0000   0.9999   0.9999   0.9999   0.9997   0.9997   0.9996
     0.9995   0.9994   0.9994   0.9992   0.9991   0.9988   0.9984   0.9980
     0.9980   0.9926   0.9923   0.9922   0.9912   0.9861   0.9857   0.9853
     0.9843   0.9823   0.9814   0.9790   0.9764   0.9751   0.9685   0.9681
     0.9614   0.9598   0.9505   0.9319   0.9129   0.8912   0.8871   0.8631
     0.8510   0.8429   0.8284   0.8209   0.8155   0.8126   0.8091   0.7974
     0.7677   0.7476   0.7256   0.7117   0.6868   0.6853   0.6845   0.6781
     0.6704   0.6636   0.6558   0.6544   0.6434   0.6398   0.6273   0.6158
     0.6134   0.5403   0.5354   0.1354   0.1250   0.1068   0.0774   0.0251
     0.0154   0.0122   0.0078   0.0046   0.0013   0.0006   0.0004   0.0003
     0.0001   0.0000   0.0000   0.0000   0.0000   0.0000   0.0000   0.0000
     0.0000   0.0000   0.0000   0.0000   0.0000   0.0000   0.0000   0.0000
     0.0000   0.0000   0.0000   0.0000   0.0000   0.0000   0.0000

          k =-0.2500 0.2500 0.0000 ( 65198 PWs)   bands (ev):

   -92.3353 -92.2809 -92.1892 -92.1396 -92.0810 -92.0415 -92.0245 -91.9019
   -55.6884 -55.6674 -55.5470 -55.5364 -55.5285 -55.5231 -55.4863 -55.4588
   -55.4427 -55.4404 -55.4315 -55.3898 -55.3704 -55.3331 -55.3151 -55.2804
   -55.2750 -55.2306 -55.2280 -55.2274 -55.2188 -55.1766 -55.1552 -55.0688
   -30.9205 -30.9049 -30.7624 -30.7342 -30.7184 -30.6764 -30.5371 -30.5054
   -29.4851 -29.4438 -29.4180 -29.3100 -22.2514 -14.6571 -14.6219 -14.5446
   -14.4267 -14.3218 -14.1957 -14.1035 -13.9024 -13.7718 -13.7575 -13.7276
   -13.7176 -13.6697 -13.6453 -13.6312 -13.6187 -13.5751 -13.4790 -13.4674
   -13.3161 -13.2890 -13.2616 -13.2406 -13.2060 -13.1412 -13.1087 -13.0803
   -12.9883 -12.9397 -12.8695 -12.7916 -12.7491 -12.7114 -12.6856 -12.6607
   -12.6371 -12.6160 -12.5874 -12.5746 -12.5608 -12.5179 -12.4872 -12.4485
   -12.4173 -12.4139 -12.3921 -12.3369 -12.2009 -12.1046 -12.0872 -11.9291
   -11.8203 -11.7673 -11.4376 -11.4157 -11.3888 -11.3764 -11.3356 -11.3009
   -11.2778 -11.2564 -11.2338 -11.1499 -11.1038 -11.0942  -5.8487  -3.1576
    -3.1521  -2.3061  -2.0964  -1.9759  -1.8887  -1.7687  -1.7017  -1.5013
    -1.3535  -1.3340  -1.3069  -1.2151  -1.1782  -1.0870  -1.0537  -1.0278
    -0.8836  -0.8285  -0.7611  -0.7326  -0.6729  -0.6495  -0.6091  -0.5802
    -0.5404  -0.4779  -0.4315  -0.3702  -0.3018  -0.2776  -0.2243  -0.1956
    -0.1513  -0.0938  -0.0524  -0.0075   0.0879   0.1248   0.1297   0.1807
     0.2440   0.3061   0.3558   0.3870   0.4525   0.4929   0.7460   0.9130
     0.9573   0.9917   1.0482   1.0969   1.1570   1.2200   1.2484   1.5326
     1.6494   1.6873   1.7187   1.7276   1.7694   1.7868   1.8314   1.8612
     1.8781   1.9044   1.9429   1.9552   2.0044   2.0201   2.0643   2.1336
     2.1555   2.1786   2.2116   2.2449   2.2792   2.3333   2.4487   2.5548
     2.5935   2.6381   2.6572   2.7203   2.7655   2.7922   2.8127   2.8368
     2.9374   2.9741   3.0524   3.0624   3.0800   3.2453   3.2538   3.2674
     3.2777   3.2879   3.3011   3.3081   3.3258   3.3342   3.3498   3.3595
     3.3721   3.3816   3.3875   3.4202   3.4317   3.4407   3.4745   3.7677
     3.8483   3.9056   3.9658   3.9944   4.1969   4.3246   4.6416   4.8031
     4.9793   5.1453   5.3392   5.5633   5.9365   5.9643   6.0073   6.1269
     6.1996   6.2532   6.3541   6.4103   6.9335   7.0025   7.0909   7.2191
     7.7265   7.7958   7.8330   7.9046   7.9865   8.1677   8.2181   8.2974
     8.3734   8.4629   8.5838   8.6899   8.7212   8.7723   8.8508

     occupation numbers 
     1.0000   1.0000   1.0000   1.0000   1.0000   1.0000   1.0000   1.0000
     1.0000   1.0000   1.0000   1.0000   1.0000   1.0000   1.0000   1.0000
     1.0000   1.0000   1.0000   1.0000   1.0000   1.0000   1.0000   1.0000
     1.0000   1.0000   1.0000   1.0000   1.0000   1.0000   1.0000   1.0000
     1.0000   1.0000   1.0000   1.0000   1.0000   1.0000   1.0000   1.0000
     1.0000   1.0000   1.0000   1.0000   1.0000   1.0000   1.0000   1.0000
     1.0000   1.0000   1.0000   1.0000   1.0000   1.0000   1.0000   1.0000
     1.0000   1.0000   1.0000   1.0000   1.0000   1.0000   1.0000   1.0000
     1.0000   1.0000   1.0000   1.0000   1.0000   1.0000   1.0000   1.0000
     1.0000   1.0000   1.0000   1.0000   1.0000   1.0000   1.0000   1.0000
     1.0000   1.0000   1.0000   1.0000   1.0000   1.0000   1.0000   1.0000
     1.0000   1.0000   1.0000   1.0000   1.0000   1.0000   1.0000   1.0000
     1.0000   1.0000   1.0000   1.0000   1.0000   1.0000   1.0000   1.0000
     1.0000   1.0000   1.0000   1.0000   1.0000   1.0000   1.0000   1.0000
     1.0000   1.0000   1.0000   1.0000   1.0000   1.0000   1.0000   1.0000
     1.0000   1.0000   1.0000   1.0000   1.0000   1.0000   1.0000   1.0000
     1.0000   1.0000   1.0000   1.0000   1.0000   1.0000   1.0000   1.0000
     1.0000   1.0000   1.0000   1.0000   1.0000   1.0000   1.0000   1.0000
     1.0000   1.0000   1.0000   1.0000   1.0000   1.0000   1.0000   1.0000
     1.0000   1.0000   1.0000   1.0000   1.0000   1.0000   1.0000   1.0000
     1.0000   1.0000   1.0000   0.9999   0.9999   0.9999   0.9999   0.9993
     0.9988   0.9985   0.9983   0.9982   0.9978   0.9977   0.9971   0.9967
     0.9964   0.9960   0.9953   0.9950   0.9939   0.9935   0.9921   0.9896
     0.9887   0.9876   0.9860   0.9841   0.9820   0.9781   0.9675   0.9542
     0.9484   0.9410   0.9376   0.9253   0.9153   0.9090   0.9039   0.8977
     0.8684   0.8565   0.8285   0.8247   0.8179   0.7460   0.7419   0.7353
     0.7303   0.7253   0.7187   0.7152   0.7062   0.7019   0.6938   0.6887
     0.6821   0.6770   0.6739   0.6562   0.6499   0.6450   0.6261   0.4547
     0.4077   0.3750   0.3416   0.3262   0.2263   0.1734   0.0790   0.0493
     0.0279   0.0154   0.0072   0.0027   0.0004   0.0004   0.0003   0.0001
     0.0001   0.0001   0.0000   0.0000   0.0000   0.0000   0.0000   0.0000
     0.0000   0.0000   0.0000   0.0000   0.0000   0.0000   0.0000   0.0000
     0.0000   0.0000   0.0000   0.0000   0.0000   0.0000   0.0000

          k =-0.5000 0.2500 0.0000 ( 65138 PWs)   bands (ev):

   -92.3353 -92.2809 -92.1892 -92.1396 -92.0810 -92.0415 -92.0245 -91.9019
   -55.6884 -55.6674 -55.5470 -55.5364 -55.5285 -55.5231 -55.4863 -55.4588
   -55.4427 -55.4404 -55.4315 -55.3898 -55.3704 -55.3331 -55.3151 -55.2804
   -55.2750 -55.2306 -55.2280 -55.2273 -55.2188 -55.1766 -55.1552 -55.0688
   -30.9182 -30.9072 -30.7621 -30.7341 -30.7182 -30.6768 -30.5372 -30.5055
   -29.4841 -29.4449 -29.4176 -29.3105 -22.2514 -14.6231 -14.5803 -14.5016
   -14.4041 -14.3605 -14.2325 -14.1510 -14.0216 -13.7715 -13.7079 -13.6778
   -13.6658 -13.6230 -13.6040 -13.5760 -13.5419 -13.5370 -13.5142 -13.4743
   -13.4603 -13.3653 -13.2798 -13.2373 -13.2288 -13.2182 -13.1552 -13.1130
   -13.0310 -12.9758 -12.8458 -12.8090 -12.7156 -12.7038 -12.6732 -12.6608
   -12.6425 -12.6158 -12.6016 -12.5855 -12.5752 -12.5089 -12.4746 -12.4542
   -12.4061 -12.3936 -12.2673 -12.2598 -12.1843 -12.1224 -11.9692 -11.9669
   -11.8757 -11.8512 -11.4100 -11.3974 -11.3831 -11.3714 -11.3500 -11.3197
   -11.2393 -11.2307 -11.2073 -11.1718 -11.1434 -11.1345  -5.8487  -3.1578
    -3.1521  -2.0792  -2.0367  -1.8873  -1.8454  -1.6864  -1.6103  -1.4665
    -1.3304  -1.2742  -1.2465  -1.2075  -1.1680  -1.0882  -0.9735  -0.9169
    -0.8934  -0.8680  -0.7933  -0.7626  -0.7264  -0.7067  -0.6463  -0.6193
    -0.5780  -0.5427  -0.5142  -0.4572  -0.4313  -0.3896  -0.3555  -0.2511
    -0.2262  -0.1402  -0.0775  -0.0455   0.0109   0.0971   0.1260   0.2319
     0.2575   0.3224   0.3640   0.3950   0.4740   0.5073   0.5379   0.5924
     0.6293   0.9351   0.9797   1.0516   1.0793   1.3633   1.4246   1.4989
     1.5247   1.7064   1.7423   1.7800   1.7961   1.8136   1.8312   1.8994
     1.9418   1.9769   2.0078   2.1109   2.1553   2.1959   2.2055   2.2354
     2.2663   2.2820   2.2960   2.3178   2.3427   2.3851   2.4106   2.4412
     2.4647   2.4893   2.5588   2.6780   2.7750   2.8043   2.8740   2.9168
     2.9704   3.0125   3.0196   3.0492   3.0576   3.0780   3.0913   3.1144
     3.1984   3.2395   3.2526   3.2598   3.2806   3.3037   3.3166   3.3306
     3.3432   3.3629   3.3769   3.3878   3.3956   3.4055   3.4175   3.9420
     3.9717   4.1375   4.1571   4.4382   4.4900   4.5430   4.7451   5.0627
     5.1641   5.2284   5.3427   5.4543   5.7280   5.7672   5.8379   5.9614
     6.0515   6.1231   6.3377   6.4448   6.5663   6.6493   7.1393   7.3449
     7.4816   7.6543   7.9690   8.0580   8.1881   8.2181   8.3215   8.4035
     8.5268   8.6674   8.6913   8.8152   8.8583   8.8710   8.9325

     occupation numbers 
     1.0000   1.0000   1.0000   1.0000   1.0000   1.0000   1.0000   1.0000
     1.0000   1.0000   1.0000   1.0000   1.0000   1.0000   1.0000   1.0000
     1.0000   1.0000   1.0000   1.0000   1.0000   1.0000   1.0000   1.0000
     1.0000   1.0000   1.0000   1.0000   1.0000   1.0000   1.0000   1.0000
     1.0000   1.0000   1.0000   1.0000   1.0000   1.0000   1.0000   1.0000
     1.0000   1.0000   1.0000   1.0000   1.0000   1.0000   1.0000   1.0000
     1.0000   1.0000   1.0000   1.0000   1.0000   1.0000   1.0000   1.0000
     1.0000   1.0000   1.0000   1.0000   1.0000   1.0000   1.0000   1.0000
     1.0000   1.0000   1.0000   1.0000   1.0000   1.0000   1.0000   1.0000
     1.0000   1.0000   1.0000   1.0000   1.0000   1.0000   1.0000   1.0000
     1.0000   1.0000   1.0000   1.0000   1.0000   1.0000   1.0000   1.0000
     1.0000   1.0000   1.0000   1.0000   1.0000   1.0000   1.0000   1.0000
     1.0000   1.0000   1.0000   1.0000   1.0000   1.0000   1.0000   1.0000
     1.0000   1.0000   1.0000   1.0000   1.0000   1.0000   1.0000   1.0000
     1.0000   1.0000   1.0000   1.0000   1.0000   1.0000   1.0000   1.0000
     1.0000   1.0000   1.0000   1.0000   1.0000   1.0000   1.0000   1.0000
     1.0000   1.0000   1.0000   1.0000   1.0000   1.0000   1.0000   1.0000
     1.0000   1.0000   1.0000   1.0000   1.0000   1.0000   1.0000   1.0000
     1.0000   1.0000   1.0000   1.0000   1.0000   1.0000   1.0000   1.0000
     1.0000   1.0000   1.0000   1.0000   1.0000   1.0000   1.0000   1.0000
     1.0000   1.0000   1.0000   1.0000   0.9999   0.9997   0.9996   0.9994
     0.9994   0.9984   0.9981   0.9977   0.9976   0.9973   0.9971   0.9961
     0.9953   0.9945   0.9938   0.9905   0.9887   0.9868   0.9863   0.9847
     0.9828   0.9818   0.9808   0.9793   0.9774   0.9738   0.9714   0.9683
     0.9657   0.9628   0.9536   0.9337   0.9131   0.9060   0.8875   0.8748
     0.8577   0.8431   0.8406   0.8297   0.8266   0.8187   0.8134   0.8041
     0.7678   0.7487   0.7425   0.7390   0.7289   0.7174   0.7109   0.7038
     0.6972   0.6869   0.6795   0.6738   0.6695   0.6642   0.6577   0.3547
     0.3384   0.2537   0.2445   0.1336   0.1177   0.1029   0.0588   0.0208
     0.0144   0.0112   0.0071   0.0044   0.0012   0.0010   0.0007   0.0004
     0.0002   0.0002   0.0000   0.0000   0.0000   0.0000   0.0000   0.0000
     0.0000   0.0000   0.0000   0.0000   0.0000   0.0000   0.0000   0.0000
     0.0000   0.0000   0.0000   0.0000   0.0000   0.0000   0.0000

     the Fermi energy is     3.6910 ev

!    total energy              =   -4482.97204852 Ry
     estimated scf accuracy    <          9.0E-09 Ry
     smearing contrib. (-TS)   =      -1.17243257 Ry
     internal energy E=F+TS    =   -4481.79961595 Ry

     The total energy is F=E-TS. E is the sum of the following terms:
     one-electron contribution =  -20251.44122839 Ry
     hartree contribution      =   10265.42531977 Ry
     xc contribution           =    -701.58098880 Ry
     ewald contribution        =    6491.45408675 Ry
     one-center paw contrib.   =    -285.65680528 Ry
      -> PAW hartree energy AE =      25.18744619 Ry
      -> PAW hartree energy PS =     -25.07112027 Ry
      -> PAW xc energy AE      =     -16.52089881 Ry
      -> PAW xc energy PS      =       6.88055628 Ry
      -> total E_H with PAW    =   10265.54164569 Ry
      -> total E_XC with PAW   =    -711.22133133 Ry

     convergence has been achieved in  49 iterations

     Writing all to output data dir /bsuhome/zayahcortright/scratch/pwscf.save/
 
     init_run     :      8.41s CPU      9.17s WALL (       1 calls)
     electrons    :    757.91s CPU    782.34s WALL (       1 calls)

     Called by init_run:
     wfcinit      :      7.00s CPU      7.14s WALL (       1 calls)
     wfcinit:atom :      0.06s CPU      0.08s WALL (       5 calls)
     wfcinit:wfcr :      6.64s CPU      6.73s WALL (       5 calls)
     potinit      :      0.18s CPU      0.20s WALL (       1 calls)
     hinit0       :      0.32s CPU      0.83s WALL (       1 calls)

     Called by electrons:
     c_bands      :    609.36s CPU    615.72s WALL (      49 calls)
     sum_band     :    112.38s CPU    122.22s WALL (      49 calls)
     v_of_rho     :      5.45s CPU      5.82s WALL (      50 calls)
     v_h          :      0.47s CPU      0.47s WALL (      50 calls)
     v_xc         :      4.98s CPU      5.35s WALL (      50 calls)
     newd         :     16.27s CPU     23.68s WALL (      50 calls)
     PAW_pot      :      1.58s CPU      1.62s WALL (      50 calls)
     mix_rho      :     12.55s CPU     12.88s WALL (      49 calls)

     Called by c_bands:
     init_us_2    :      6.40s CPU      6.48s WALL (     495 calls)
     init_us_2:cp :      6.39s CPU      6.48s WALL (     495 calls)
     cegterg      :    573.70s CPU    579.74s WALL (     245 calls)

     Called by sum_band:
     sum_band:wei :      0.33s CPU      0.34s WALL (      49 calls)
     sum_band:loo :     95.63s CPU     96.41s WALL (      49 calls)
     sum_band:buf :      1.57s CPU      1.64s WALL (     245 calls)
     sum_band:ini :      3.11s CPU      3.12s WALL (     245 calls)
     sum_band:cal :     20.51s CPU     20.56s WALL (     245 calls)
     sum_band:bec :      0.56s CPU      0.59s WALL (     245 calls)
     addusdens    :     15.49s CPU     24.50s WALL (      49 calls)
                                        0.00s GPU  (      49 calls)
     addusd:skk   :      0.31s CPU      0.86s WALL (     196 calls)
                                        0.00s GPU  (     196 calls)

     Called by *egterg:
     cdiaghg      :     61.54s CPU     61.81s WALL (    1438 calls)
     cegterg:over :     41.20s CPU     41.36s WALL (    1193 calls)
     cegterg:upda :     31.64s CPU     32.20s WALL (    1193 calls)
     cegterg:last :     66.07s CPU     66.29s WALL (     458 calls)
     cdiaghg:chol :      3.53s CPU      3.55s WALL (    1438 calls)
     cdiaghg:inve :      3.48s CPU      3.49s WALL (    1438 calls)
     cdiaghg:para :      7.90s CPU      7.95s WALL (    2876 calls)
     h_psi        :    313.86s CPU    316.87s WALL (    1443 calls)
     s_psi        :     43.86s CPU     43.98s WALL (    1443 calls)
     g_psi        :      1.19s CPU      1.19s WALL (    1193 calls)

     Called by h_psi:
     h_psi:calbec :     47.38s CPU     47.53s WALL (    1443 calls)
     vloc_psi     :    219.53s CPU    221.64s WALL (    1443 calls)
     add_vuspsi   :     43.80s CPU     43.96s WALL (    1443 calls)

     General routines
     calbec       :     67.87s CPU     68.08s WALL (    1688 calls)
     fft          :      3.48s CPU      3.53s WALL (     648 calls)
     ffts         :      4.43s CPU      4.46s WALL (    5077 calls)
     fftw         :    186.33s CPU    187.77s WALL (  337933 calls)
     interpolate  :      0.40s CPU      0.42s WALL (      50 calls)
 
     Parallel routines

     PAW routines
     PAW_pot      :      1.58s CPU      1.62s WALL (      50 calls)
 
     PWSCF        :  12m48.08s CPU  13m16.19s WALL

 
   This run was terminated on:  20:47:25  20Jun2024            

=------------------------------------------------------------------------------=
   JOB DONE.
=------------------------------------------------------------------------------=
