
     Program PWSCF v.7.2 starts on 22Jun2024 at  3:49: 5 

     This program is part of the open-source Quantum ESPRESSO suite
     for quantum simulation of materials; please cite
         "P. Giannozzi et al., J. Phys.:Condens. Matter 21 395502 (2009);
         "P. Giannozzi et al., J. Phys.:Condens. Matter 29 465901 (2017);
         "P. Giannozzi et al., J. Chem. Phys. 152 154105 (2020);
          URL http://www.quantum-espresso.org", 
     in publications or presentations arising from this work. More details at
     http://www.quantum-espresso.org/quote

     Parallel version (MPI & OpenMP), running on      48 processor cores
     Number of MPI processes:                48
     Threads/MPI process:                     1

     MPI processes distributed on     1 nodes
     33220 MiB available memory on the printing compute node when the environment starts
 
     Reading input from espresso.pwi
Warning: card &CELL ignored
Warning: card / ignored
Warning: card &FCP ignored
Warning: card / ignored
Warning: card &RISM ignored
Warning: card / ignored

     Current dimensions of program PWSCF are:
     Max number of different atomic species (ntypx) = 10
     Max number of k-points (npk) =  40000
     Max angular momentum in pseudopotentials (lmaxx) =  4
     file O.pbe-n-kjpaw_psl.0.1.UPF: wavefunction(s)  2P renormalized
     signal trapping enabled: kill the code with -SIGUSR1 to stop cleanly the simulation 
 
     K-points division:     npool     =       2
     R & G space division:  proc/nbgrp/npool/nimage =      24
     Subspace diagonalization in iterative solution of the eigenvalue problem:
     one sub-group per band group will be used
     scalapack distributed-memory algorithm (size of sub-group:  3*  3 procs)

 
     Parallelization info
     --------------------
     sticks:   dense  smooth     PW     G-vecs:    dense   smooth      PW
     Min         350     175     47                61430    21716    3036
     Max         351     177     48                61449    21727    3041
     Sum        8421    4205   1137              1474595   521381   72913
 
     Using Slab Decomposition
 


     bravais-lattice index     =            0
     lattice parameter (alat)  =      14.8599  a.u.
     unit-cell volume          =    8305.1283 (a.u.)^3
     number of atoms/cell      =           50
     number of atomic types    =            4
     number of electrons       =       431.00
     number of Kohn-Sham states=          259
     kinetic-energy cutoff     =      60.0000  Ry
     charge density cutoff     =     480.0000  Ry
     scf convergence threshold =      1.0E-08
     mixing beta               =       0.1500
     number of iterations used =            8  local-TF  mixing
     Exchange-correlation= PBE
                           (   1   4   3   4   0   0   0)

     celldm(1)=  14.859904  celldm(2)=   0.000000  celldm(3)=   0.000000
     celldm(4)=   0.000000  celldm(5)=   0.000000  celldm(6)=   0.000000

     crystal axes: (cart. coord. in units of alat)
               a(1) = (   1.000000   0.000000   0.000000 )  
               a(2) = (   0.000000   1.000000   0.000000 )  
               a(3) = (   0.000000   0.000000   2.531036 )  

     reciprocal axes: (cart. coord. in units 2 pi/alat)
               b(1) = (  1.000000  0.000000  0.000000 )  
               b(2) = (  0.000000  1.000000  0.000000 )  
               b(3) = (  0.000000  0.000000  0.395095 )  


     PseudoPot. # 1 for Sr read from file:
     /bsuhome/zayahcortright/q-e/pseudo/Sr_pbe_v1.uspp.F.UPF
     MD5 check sum: 6b418c05fbe9db5448babca5e47b7a5b
     Pseudo is Ultrasoft + core correction, Zval = 10.0
     Generated by new atomic code, or converted to UPF format
     Using radial grid of  883 points,  6 beta functions with: 
                l(1) =   0
                l(2) =   0
                l(3) =   1
                l(4) =   1
                l(5) =   2
                l(6) =   2
     Q(r) pseudized with  6 coefficients,  rinner =    1.400   1.400   1.400
                                                       1.400   1.400

     PseudoPot. # 2 for O  read from file:
     /bsuhome/zayahcortright/q-e/pseudo/O.pbe-n-kjpaw_psl.0.1.UPF
     MD5 check sum: 0234752ac141de4415c5fc33072bef88
     Pseudo is Projector augmented-wave + core cor, Zval =  6.0
     Generated using "atomic" code by A. Dal Corso  v.5.0.99 svn rev. 10869
     Shape of augmentation charge: BESSEL
     Using radial grid of 1095 points,  4 beta functions with: 
                l(1) =   0
                l(2) =   0
                l(3) =   1
                l(4) =   1
     Q(r) pseudized with 0 coefficients 


     PseudoPot. # 3 for Co read from file:
     /bsuhome/zayahcortright/q-e/pseudo/Co_pbe_v1.2.uspp.F.UPF
     MD5 check sum: 5f91765df6ddd3222702df6e7b74a16d
     Pseudo is Ultrasoft + core correction, Zval = 17.0
     Generated by new atomic code, or converted to UPF format
     Using radial grid of  863 points,  6 beta functions with: 
                l(1) =   0
                l(2) =   0
                l(3) =   1
                l(4) =   1
                l(5) =   2
                l(6) =   2
     Q(r) pseudized with  8 coefficients,  rinner =    1.200   1.200   1.200
                                                       1.200   1.200

     PseudoPot. # 4 for H  read from file:
     /bsuhome/zayahcortright/q-e/pseudo/H.pbe-rrkjus_psl.1.0.0.UPF
     MD5 check sum: f52b6d4d1c606e5624b1dc7b2218f220
     Pseudo is Ultrasoft, Zval =  1.0
     Generated using "atomic" code by A. Dal Corso  v.5.1
     Using radial grid of  929 points,  2 beta functions with: 
                l(1) =   0
                l(2) =   0
     Q(r) pseudized with 0 coefficients 


     atomic species   valence    mass     pseudopotential
        Sr            10.00    87.62000     Sr( 1.00)
        O              6.00    15.99900     O ( 1.00)
        Co            17.00    58.93319     Co( 1.00)
        H              1.00     1.00800     H ( 1.00)

     No symmetry found


                                    s                        frac. trans.

      isym =  1     identity                                     

 cryst.   s( 1) = (     1          0          0      )
                  (     0          1          0      )
                  (     0          0          1      )

 cart.    s( 1) = (  1.0000000  0.0000000  0.0000000 )
                  (  0.0000000  1.0000000  0.0000000 )
                  (  0.0000000  0.0000000  1.0000000 )


   Cartesian axes

     site n.     atom                  positions (alat units)
         1           Sr  tau(   1) = (   0.2508693   0.7491307   1.7574407  )
         2           O   tau(   2) = (   0.4985141   0.5014859   1.7715967  )
         3           Sr  tau(   3) = (   0.7482398   0.7454518   1.7648669  )
         4           Sr  tau(   4) = (   0.7441748   0.2558252   1.7667843  )
         5           Sr  tau(   5) = (   0.2508693   0.7491307   1.2696799  )
         6           Sr  tau(   6) = (   0.2508693   0.7491307   0.7632319  )
         7           Co  tau(   7) = (   0.4998914   0.5001086   1.0164559  )
         8           Co  tau(   8) = (   0.4936915   0.5063085   1.5135603  )
         9           O   tau(   9) = (   0.4988895   0.7610401   1.0164559  )
        10           O   tau(  10) = (   0.2389599   0.5011105   1.0164559  )
        11           O   tau(  11) = (   0.0070918   0.7374880   1.0164559  )
        12           O   tau(  12) = (   0.0088340   0.7405089   1.5135603  )
        13           O   tau(  13) = (   0.5066944   0.7415376   1.5135603  )
        14           O   tau(  14) = (   0.2584624   0.4933056   1.5135603  )
        15           O   tau(  15) = (   0.4985141   0.5014859   0.7773880  )
        16           O   tau(  16) = (   0.4985141   0.5014859   1.2555238  )
        17           Sr  tau(  17) = (   0.7482398   0.7454518   0.7706582  )
        18           Sr  tau(  18) = (   0.7482398   0.7454518   1.2622536  )
        19           Sr  tau(  19) = (   0.7441748   0.2558252   0.7725755  )
        20           Sr  tau(  20) = (   0.7441748   0.2558252   1.2603363  )
        21           O   tau(  21) = (   0.7322655   0.0078049   1.5135603  )
        22           O   tau(  22) = (   0.7558175   0.4996027   1.5135603  )
        23           O   tau(  23) = (   0.5003973   0.2441825   1.5135603  )
        24           O   tau(  24) = (   0.7527966   0.4978604   1.0164559  )
        25           O   tau(  25) = (   0.5021396   0.2472034   1.0164559  )
        26           O   tau(  26) = (   0.7517679   0.0000000   1.0164559  )
        27           O   tau(  27) = (   0.0114961   0.4948124   1.7455321  )
        28           O   tau(  28) = (   0.0048226   0.0077944   1.7715967  )
        29           Sr  tau(  29) = (   0.2545482   0.2517602   1.7648669  )
        30           O   tau(  30) = (   0.5048017   0.0015068   1.7786929  )
        31           Co  tau(  31) = (   0.0056869   0.5006215   1.0164559  )
        32           Co  tau(  32) = (   0.0065315   0.4997770   1.5135603  )
        33           Co  tau(  33) = (   0.0061999   0.0064171   1.0164559  )
        34           Co  tau(  34) = (   0.0000000   0.0126169   1.5135603  )
        35           O   tau(  35) = (   0.0114961   0.4948124   1.2815885  )
        36           O   tau(  36) = (   0.0114961   0.4948124   0.7513233  )
        37           O   tau(  37) = (   0.0051979   0.2673486   1.0164559  )
        38           O   tau(  38) = (   0.0130029   0.2478461   1.5135603  )
        39           O   tau(  39) = (   0.0048226   0.0077944   0.7773880  )
        40           O   tau(  40) = (   0.0048226   0.0077944   1.2555238  )
        41           Sr  tau(  41) = (   0.2545482   0.2517602   0.7706582  )
        42           Sr  tau(  42) = (   0.2545482   0.2517602   1.2622536  )
        43           Co  tau(  43) = (   0.4989925   0.0073160   1.5135603  )
        44           Co  tau(  44) = (   0.4998370   0.0064714   1.0164559  )
        45           O   tau(  45) = (   0.5048017   0.0015068   0.7844841  )
        46           O   tau(  46) = (   0.5048017   0.0015068   1.2484277  )
        47           O   tau(  47) = (   0.2621260   0.0059111   1.5135603  )
        48           O   tau(  48) = (   0.2591051   0.0041689   1.0164559  )
        49           O   tau(  49) = (   0.9951520   0.0000000   2.1602013  )
        50           H   tau(  50) = (   0.9951520   0.0000000   2.2847091  )

   Crystallographic axes

     site n.     atom                  positions (cryst. coord.)
         1           Sr  tau(   1) = (  0.2508693  0.7491307  0.6943562  )
         2           O   tau(   2) = (  0.4985141  0.5014859  0.6999492  )
         3           Sr  tau(   3) = (  0.7482398  0.7454518  0.6972903  )
         4           Sr  tau(   4) = (  0.7441748  0.2558252  0.6980478  )
         5           Sr  tau(   5) = (  0.2508693  0.7491307  0.5016443  )
         6           Sr  tau(   6) = (  0.2508693  0.7491307  0.3015492  )
         7           Co  tau(   7) = (  0.4998914  0.5001086  0.4015968  )
         8           Co  tau(   8) = (  0.4936915  0.5063085  0.5980003  )
         9           O   tau(   9) = (  0.4988895  0.7610401  0.4015968  )
        10           O   tau(  10) = (  0.2389599  0.5011105  0.4015968  )
        11           O   tau(  11) = (  0.0070918  0.7374880  0.4015968  )
        12           O   tau(  12) = (  0.0088340  0.7405089  0.5980003  )
        13           O   tau(  13) = (  0.5066944  0.7415376  0.5980003  )
        14           O   tau(  14) = (  0.2584624  0.4933056  0.5980003  )
        15           O   tau(  15) = (  0.4985141  0.5014859  0.3071422  )
        16           O   tau(  16) = (  0.4985141  0.5014859  0.4960513  )
        17           Sr  tau(  17) = (  0.7482398  0.7454518  0.3044833  )
        18           Sr  tau(  18) = (  0.7482398  0.7454518  0.4987103  )
        19           Sr  tau(  19) = (  0.7441748  0.2558252  0.3052408  )
        20           Sr  tau(  20) = (  0.7441748  0.2558252  0.4979527  )
        21           O   tau(  21) = (  0.7322655  0.0078049  0.5980003  )
        22           O   tau(  22) = (  0.7558175  0.4996027  0.5980003  )
        23           O   tau(  23) = (  0.5003973  0.2441825  0.5980003  )
        24           O   tau(  24) = (  0.7527966  0.4978604  0.4015968  )
        25           O   tau(  25) = (  0.5021396  0.2472034  0.4015968  )
        26           O   tau(  26) = (  0.7517679  0.0000000  0.4015968  )
        27           O   tau(  27) = (  0.0114961  0.4948124  0.6896512  )
        28           O   tau(  28) = (  0.0048226  0.0077944  0.6999492  )
        29           Sr  tau(  29) = (  0.2545482  0.2517602  0.6972903  )
        30           O   tau(  30) = (  0.5048017  0.0015068  0.7027529  )
        31           Co  tau(  31) = (  0.0056869  0.5006215  0.4015968  )
        32           Co  tau(  32) = (  0.0065315  0.4997770  0.5980003  )
        33           Co  tau(  33) = (  0.0061999  0.0064171  0.4015968  )
        34           Co  tau(  34) = (  0.0000000  0.0126169  0.5980003  )
        35           O   tau(  35) = (  0.0114961  0.4948124  0.5063494  )
        36           O   tau(  36) = (  0.0114961  0.4948124  0.2968442  )
        37           O   tau(  37) = (  0.0051979  0.2673486  0.4015968  )
        38           O   tau(  38) = (  0.0130029  0.2478461  0.5980003  )
        39           O   tau(  39) = (  0.0048226  0.0077944  0.3071422  )
        40           O   tau(  40) = (  0.0048226  0.0077944  0.4960513  )
        41           Sr  tau(  41) = (  0.2545482  0.2517602  0.3044833  )
        42           Sr  tau(  42) = (  0.2545482  0.2517602  0.4987103  )
        43           Co  tau(  43) = (  0.4989925  0.0073160  0.5980003  )
        44           Co  tau(  44) = (  0.4998370  0.0064714  0.4015968  )
        45           O   tau(  45) = (  0.5048017  0.0015068  0.3099459  )
        46           O   tau(  46) = (  0.5048017  0.0015068  0.4932477  )
        47           O   tau(  47) = (  0.2621260  0.0059111  0.5980003  )
        48           O   tau(  48) = (  0.2591051  0.0041689  0.4015968  )
        49           O   tau(  49) = (  0.9951520  0.0000000  0.8534850  )
        50           H   tau(  50) = (  0.9951520  0.0000000  0.9026774  )

     number of k points=    10  Gaussian smearing, width (Ry)=  0.0700
                       cart. coord. in units 2pi/alat
        k(    1) = (   0.0000000   0.0000000   0.0000000), wk =   0.1250000
        k(    2) = (   0.0000000   0.2500000   0.0000000), wk =   0.2500000
        k(    3) = (   0.0000000  -0.5000000   0.0000000), wk =   0.1250000
        k(    4) = (   0.2500000   0.2500000   0.0000000), wk =   0.2500000
        k(    5) = (   0.2500000  -0.5000000   0.0000000), wk =   0.2500000
        k(    6) = (  -0.5000000  -0.5000000   0.0000000), wk =   0.1250000
        k(    7) = (   0.2500000   0.0000000   0.0000000), wk =   0.2500000
        k(    8) = (  -0.5000000   0.0000000   0.0000000), wk =   0.1250000
        k(    9) = (  -0.2500000   0.2500000   0.0000000), wk =   0.2500000
        k(   10) = (  -0.5000000   0.2500000   0.0000000), wk =   0.2500000

                       cryst. coord.
        k(    1) = (   0.0000000   0.0000000   0.0000000), wk =   0.1250000
        k(    2) = (   0.0000000   0.2500000   0.0000000), wk =   0.2500000
        k(    3) = (   0.0000000  -0.5000000   0.0000000), wk =   0.1250000
        k(    4) = (   0.2500000   0.2500000   0.0000000), wk =   0.2500000
        k(    5) = (   0.2500000  -0.5000000   0.0000000), wk =   0.2500000
        k(    6) = (  -0.5000000  -0.5000000   0.0000000), wk =   0.1250000
        k(    7) = (   0.2500000   0.0000000   0.0000000), wk =   0.2500000
        k(    8) = (  -0.5000000   0.0000000   0.0000000), wk =   0.1250000
        k(    9) = (  -0.2500000   0.2500000   0.0000000), wk =   0.2500000
        k(   10) = (  -0.5000000   0.2500000   0.0000000), wk =   0.2500000

     Dense  grid:  1474595 G-vectors     FFT dimensions: ( 108, 108, 270)

     Smooth grid:   521381 G-vectors     FFT dimensions: (  75,  75, 192)

     Dynamical RAM for                 wfc:      10.73 MB

     Dynamical RAM for     wfc (w. buffer):      64.38 MB

     Dynamical RAM for           str. fact:       3.75 MB

     Dynamical RAM for           local pot:       0.00 MB

     Dynamical RAM for          nlocal pot:      24.61 MB

     Dynamical RAM for                qrad:       7.03 MB

     Dynamical RAM for          rho,v,vnew:       6.02 MB

     Dynamical RAM for               rhoin:       2.01 MB

     Dynamical RAM for            rho*nmix:      15.00 MB

     Dynamical RAM for           G-vectors:       3.68 MB

     Dynamical RAM for          h,s,v(r/c):       1.35 MB

     Dynamical RAM for          <psi|beta>:       2.35 MB

     Dynamical RAM for                 psi:      21.46 MB

     Dynamical RAM for                hpsi:      21.46 MB

     Dynamical RAM for                spsi:      21.46 MB

     Dynamical RAM for      wfcinit/wfcrot:      34.49 MB

     Dynamical RAM for           addusdens:     101.26 MB

     Estimated static dynamical RAM per process >     121.50 MB

     Estimated max dynamical RAM per process >     237.76 MB

     Estimated total dynamical RAM >      10.79 GB

     Check: negative core charge=   -0.000004

     Initial potential from superposition of free atoms

     starting charge     422.5961, renormalised to     431.0000

     negative rho (up, down):  7.820E-01 0.000E+00
     Starting wfcs are  377 randomized atomic wfcs
     Checking if some PAW data can be deallocated... 
       PAW data deallocated on   19 nodes for type:  2

     total cpu time spent up to now is        9.2 secs

     Self-consistent Calculation

     iteration #  1     ecut=    60.00 Ry     beta= 0.15
     Davidson diagonalization with overlap

---- Real-time Memory Report at c_bands before calling an iterative solver
             0 MiB given to the printing process from OS
             0 MiB allocation reported by mallinfo(arena+hblkhd)
         23993 MiB available memory on the node where the printing process lives
------------------
     ethr =  1.00E-02,  avg # of iterations =  2.0

     negative rho (up, down):  7.716E-01 0.000E+00

     total cpu time spent up to now is       26.0 secs

     total energy              =   -4446.63252298 Ry
     estimated scf accuracy    <      44.93835203 Ry

     iteration #  2     ecut=    60.00 Ry     beta= 0.15
     Davidson diagonalization with overlap

---- Real-time Memory Report at c_bands before calling an iterative solver
             0 MiB given to the printing process from OS
             0 MiB allocation reported by mallinfo(arena+hblkhd)
         24241 MiB available memory on the node where the printing process lives
------------------
     ethr =  1.00E-02,  avg # of iterations =  1.0

     negative rho (up, down):  7.579E-01 0.000E+00

     total cpu time spent up to now is       40.6 secs

     total energy              =   -4443.20149745 Ry
     estimated scf accuracy    <      29.64264953 Ry

     iteration #  3     ecut=    60.00 Ry     beta= 0.15
     Davidson diagonalization with overlap

---- Real-time Memory Report at c_bands before calling an iterative solver
             0 MiB given to the printing process from OS
             0 MiB allocation reported by mallinfo(arena+hblkhd)
         23417 MiB available memory on the node where the printing process lives
------------------
     ethr =  6.88E-03,  avg # of iterations =  1.0

     negative rho (up, down):  7.553E-01 0.000E+00

     total cpu time spent up to now is       55.6 secs

     total energy              =   -4444.25972972 Ry
     estimated scf accuracy    <      29.64439010 Ry

     iteration #  4     ecut=    60.00 Ry     beta= 0.15
     Davidson diagonalization with overlap

---- Real-time Memory Report at c_bands before calling an iterative solver
             0 MiB given to the printing process from OS
             0 MiB allocation reported by mallinfo(arena+hblkhd)
         23391 MiB available memory on the node where the printing process lives
------------------
     ethr =  6.88E-03,  avg # of iterations =  1.0

     negative rho (up, down):  7.491E-01 0.000E+00

     total cpu time spent up to now is       70.6 secs

     total energy              =   -4443.04430627 Ry
     estimated scf accuracy    <      21.34640298 Ry

     iteration #  5     ecut=    60.00 Ry     beta= 0.15
     Davidson diagonalization with overlap

---- Real-time Memory Report at c_bands before calling an iterative solver
             0 MiB given to the printing process from OS
             0 MiB allocation reported by mallinfo(arena+hblkhd)
         23375 MiB available memory on the node where the printing process lives
------------------
     ethr =  4.95E-03,  avg # of iterations =  1.0

     negative rho (up, down):  7.410E-01 0.000E+00

     total cpu time spent up to now is       85.6 secs

     total energy              =   -4442.63472564 Ry
     estimated scf accuracy    <       9.82127159 Ry

     iteration #  6     ecut=    60.00 Ry     beta= 0.15
     Davidson diagonalization with overlap

---- Real-time Memory Report at c_bands before calling an iterative solver
             0 MiB given to the printing process from OS
             0 MiB allocation reported by mallinfo(arena+hblkhd)
         23356 MiB available memory on the node where the printing process lives
------------------
     ethr =  2.28E-03,  avg # of iterations =  1.1

     negative rho (up, down):  7.430E-01 0.000E+00

     total cpu time spent up to now is      100.8 secs

     total energy              =   -4442.80020274 Ry
     estimated scf accuracy    <       4.87988543 Ry

     iteration #  7     ecut=    60.00 Ry     beta= 0.15
     Davidson diagonalization with overlap

---- Real-time Memory Report at c_bands before calling an iterative solver
             0 MiB given to the printing process from OS
             0 MiB allocation reported by mallinfo(arena+hblkhd)
         23338 MiB available memory on the node where the printing process lives
------------------
     ethr =  1.13E-03,  avg # of iterations =  1.7

     negative rho (up, down):  7.663E-01 0.000E+00

     total cpu time spent up to now is      116.4 secs

     total energy              =   -4441.65909999 Ry
     estimated scf accuracy    <       3.94451163 Ry

     iteration #  8     ecut=    60.00 Ry     beta= 0.15
     Davidson diagonalization with overlap

---- Real-time Memory Report at c_bands before calling an iterative solver
             0 MiB given to the printing process from OS
             0 MiB allocation reported by mallinfo(arena+hblkhd)
         23319 MiB available memory on the node where the printing process lives
------------------
     ethr =  9.15E-04,  avg # of iterations =  4.2

     negative rho (up, down):  7.724E-01 0.000E+00

     total cpu time spent up to now is      135.9 secs

     total energy              =   -4441.61288640 Ry
     estimated scf accuracy    <      14.09304385 Ry

     iteration #  9     ecut=    60.00 Ry     beta= 0.15
     Davidson diagonalization with overlap

---- Real-time Memory Report at c_bands before calling an iterative solver
             0 MiB given to the printing process from OS
             0 MiB allocation reported by mallinfo(arena+hblkhd)
         23179 MiB available memory on the node where the printing process lives
------------------
     ethr =  9.15E-04,  avg # of iterations = 10.1

     negative rho (up, down):  7.706E-01 0.000E+00

     total cpu time spent up to now is      157.8 secs

     total energy              =   -4441.79059592 Ry
     estimated scf accuracy    <       2.24762253 Ry

     iteration # 10     ecut=    60.00 Ry     beta= 0.15
     Davidson diagonalization with overlap

---- Real-time Memory Report at c_bands before calling an iterative solver
             0 MiB given to the printing process from OS
             0 MiB allocation reported by mallinfo(arena+hblkhd)
         22852 MiB available memory on the node where the printing process lives
------------------
     ethr =  5.21E-04,  avg # of iterations =  1.8

     negative rho (up, down):  7.779E-01 0.000E+00

     total cpu time spent up to now is      174.3 secs

     total energy              =   -4441.91983549 Ry
     estimated scf accuracy    <       1.07357999 Ry

     iteration # 11     ecut=    60.00 Ry     beta= 0.15
     Davidson diagonalization with overlap

---- Real-time Memory Report at c_bands before calling an iterative solver
             0 MiB given to the printing process from OS
             0 MiB allocation reported by mallinfo(arena+hblkhd)
         22835 MiB available memory on the node where the printing process lives
------------------
     ethr =  2.49E-04,  avg # of iterations =  3.3

     negative rho (up, down):  8.141E-01 0.000E+00

     total cpu time spent up to now is      192.2 secs

     total energy              =   -4441.70442275 Ry
     estimated scf accuracy    <       1.22495738 Ry

     iteration # 12     ecut=    60.00 Ry     beta= 0.15
     Davidson diagonalization with overlap

---- Real-time Memory Report at c_bands before calling an iterative solver
             0 MiB given to the printing process from OS
             0 MiB allocation reported by mallinfo(arena+hblkhd)
         22836 MiB available memory on the node where the printing process lives
------------------
     ethr =  2.49E-04,  avg # of iterations =  9.0

     negative rho (up, down):  8.171E-01 0.000E+00

     total cpu time spent up to now is      213.1 secs

     total energy              =   -4441.83312803 Ry
     estimated scf accuracy    <       1.08694010 Ry

     iteration # 13     ecut=    60.00 Ry     beta= 0.15
     Davidson diagonalization with overlap

---- Real-time Memory Report at c_bands before calling an iterative solver
             0 MiB given to the printing process from OS
             0 MiB allocation reported by mallinfo(arena+hblkhd)
         22788 MiB available memory on the node where the printing process lives
------------------
     ethr =  2.49E-04,  avg # of iterations =  1.2

     negative rho (up, down):  8.173E-01 0.000E+00

     total cpu time spent up to now is      228.5 secs

     total energy              =   -4441.78461763 Ry
     estimated scf accuracy    <       0.66425138 Ry

     iteration # 14     ecut=    60.00 Ry     beta= 0.15
     Davidson diagonalization with overlap

---- Real-time Memory Report at c_bands before calling an iterative solver
             0 MiB given to the printing process from OS
             0 MiB allocation reported by mallinfo(arena+hblkhd)
         22733 MiB available memory on the node where the printing process lives
------------------
     ethr =  1.54E-04,  avg # of iterations =  4.4

     negative rho (up, down):  8.253E-01 0.000E+00

     total cpu time spent up to now is      246.7 secs

     total energy              =   -4441.71944603 Ry
     estimated scf accuracy    <       0.35013494 Ry

     iteration # 15     ecut=    60.00 Ry     beta= 0.15
     Davidson diagonalization with overlap

---- Real-time Memory Report at c_bands before calling an iterative solver
             0 MiB given to the printing process from OS
             0 MiB allocation reported by mallinfo(arena+hblkhd)
         22723 MiB available memory on the node where the printing process lives
------------------
     c_bands:  2 eigenvalues not converged
     ethr =  8.12E-05,  avg # of iterations = 10.9

     negative rho (up, down):  8.331E-01 0.000E+00

     total cpu time spent up to now is      268.9 secs

     total energy              =   -4441.71652309 Ry
     estimated scf accuracy    <       0.30484079 Ry

     iteration # 16     ecut=    60.00 Ry     beta= 0.15
     Davidson diagonalization with overlap

---- Real-time Memory Report at c_bands before calling an iterative solver
             0 MiB given to the printing process from OS
             0 MiB allocation reported by mallinfo(arena+hblkhd)
         22674 MiB available memory on the node where the printing process lives
------------------
     ethr =  7.07E-05,  avg # of iterations =  5.8

     negative rho (up, down):  8.316E-01 0.000E+00

     total cpu time spent up to now is      288.1 secs

     total energy              =   -4441.70981797 Ry
     estimated scf accuracy    <       0.26366460 Ry

     iteration # 17     ecut=    60.00 Ry     beta= 0.15
     Davidson diagonalization with overlap

---- Real-time Memory Report at c_bands before calling an iterative solver
             0 MiB given to the printing process from OS
             0 MiB allocation reported by mallinfo(arena+hblkhd)
         22684 MiB available memory on the node where the printing process lives
------------------
     ethr =  6.12E-05,  avg # of iterations =  2.1

     negative rho (up, down):  8.168E-01 0.000E+00

     total cpu time spent up to now is      304.1 secs

     total energy              =   -4441.68756036 Ry
     estimated scf accuracy    <       0.20453166 Ry

     iteration # 18     ecut=    60.00 Ry     beta= 0.15
     Davidson diagonalization with overlap

---- Real-time Memory Report at c_bands before calling an iterative solver
             0 MiB given to the printing process from OS
             0 MiB allocation reported by mallinfo(arena+hblkhd)
         22682 MiB available memory on the node where the printing process lives
------------------
     ethr =  4.75E-05,  avg # of iterations =  6.3

     negative rho (up, down):  8.134E-01 0.000E+00

     total cpu time spent up to now is      323.0 secs

     total energy              =   -4441.67501193 Ry
     estimated scf accuracy    <       0.14450293 Ry

     iteration # 19     ecut=    60.00 Ry     beta= 0.15
     Davidson diagonalization with overlap

---- Real-time Memory Report at c_bands before calling an iterative solver
             0 MiB given to the printing process from OS
             0 MiB allocation reported by mallinfo(arena+hblkhd)
         22687 MiB available memory on the node where the printing process lives
------------------
     ethr =  3.35E-05,  avg # of iterations =  7.6

     negative rho (up, down):  8.031E-01 0.000E+00

     total cpu time spent up to now is      343.1 secs

     total energy              =   -4441.65829976 Ry
     estimated scf accuracy    <       0.10546333 Ry

     iteration # 20     ecut=    60.00 Ry     beta= 0.15
     Davidson diagonalization with overlap

---- Real-time Memory Report at c_bands before calling an iterative solver
             0 MiB given to the printing process from OS
             0 MiB allocation reported by mallinfo(arena+hblkhd)
         22662 MiB available memory on the node where the printing process lives
------------------
     ethr =  2.45E-05,  avg # of iterations =  8.1

     negative rho (up, down):  8.301E-01 0.000E+00

     total cpu time spent up to now is      363.8 secs

     total energy              =   -4441.65045478 Ry
     estimated scf accuracy    <       0.05470944 Ry

     iteration # 21     ecut=    60.00 Ry     beta= 0.15
     Davidson diagonalization with overlap

---- Real-time Memory Report at c_bands before calling an iterative solver
             0 MiB given to the printing process from OS
             0 MiB allocation reported by mallinfo(arena+hblkhd)
         22643 MiB available memory on the node where the printing process lives
------------------
     ethr =  1.27E-05,  avg # of iterations = 11.1

     negative rho (up, down):  8.223E-01 0.000E+00

     total cpu time spent up to now is      387.6 secs

     total energy              =   -4441.65361931 Ry
     estimated scf accuracy    <       0.02159223 Ry

     iteration # 22     ecut=    60.00 Ry     beta= 0.15
     Davidson diagonalization with overlap

---- Real-time Memory Report at c_bands before calling an iterative solver
             0 MiB given to the printing process from OS
             0 MiB allocation reported by mallinfo(arena+hblkhd)
         22541 MiB available memory on the node where the printing process lives
------------------
     ethr =  5.01E-06,  avg # of iterations =  1.7

     negative rho (up, down):  7.913E-01 0.000E+00

     total cpu time spent up to now is      403.7 secs

     total energy              =   -4441.64953161 Ry
     estimated scf accuracy    <       0.01854928 Ry

     iteration # 23     ecut=    60.00 Ry     beta= 0.15
     Davidson diagonalization with overlap

---- Real-time Memory Report at c_bands before calling an iterative solver
             0 MiB given to the printing process from OS
             0 MiB allocation reported by mallinfo(arena+hblkhd)
         22557 MiB available memory on the node where the printing process lives
------------------
     c_bands:  1 eigenvalues not converged
     ethr =  4.30E-06,  avg # of iterations =  8.4

     negative rho (up, down):  7.898E-01 0.000E+00

     total cpu time spent up to now is      424.4 secs

     total energy              =   -4441.64904826 Ry
     estimated scf accuracy    <       0.00991472 Ry

     iteration # 24     ecut=    60.00 Ry     beta= 0.15
     Davidson diagonalization with overlap

---- Real-time Memory Report at c_bands before calling an iterative solver
             0 MiB given to the printing process from OS
             0 MiB allocation reported by mallinfo(arena+hblkhd)
         22529 MiB available memory on the node where the printing process lives
------------------
     ethr =  2.30E-06,  avg # of iterations =  8.4

     negative rho (up, down):  7.942E-01 0.000E+00

     total cpu time spent up to now is      444.8 secs

     total energy              =   -4441.64829252 Ry
     estimated scf accuracy    <       0.00543792 Ry

     iteration # 25     ecut=    60.00 Ry     beta= 0.15
     Davidson diagonalization with overlap

---- Real-time Memory Report at c_bands before calling an iterative solver
             0 MiB given to the printing process from OS
             0 MiB allocation reported by mallinfo(arena+hblkhd)
         22519 MiB available memory on the node where the printing process lives
------------------
     ethr =  1.26E-06,  avg # of iterations =  8.5

     negative rho (up, down):  7.996E-01 0.000E+00

     total cpu time spent up to now is      466.1 secs

     total energy              =   -4441.64849723 Ry
     estimated scf accuracy    <       0.00287544 Ry

     iteration # 26     ecut=    60.00 Ry     beta= 0.15
     Davidson diagonalization with overlap

---- Real-time Memory Report at c_bands before calling an iterative solver
             0 MiB given to the printing process from OS
             0 MiB allocation reported by mallinfo(arena+hblkhd)
         22505 MiB available memory on the node where the printing process lives
------------------
     ethr =  6.67E-07,  avg # of iterations =  8.1

     negative rho (up, down):  7.982E-01 0.000E+00

     total cpu time spent up to now is      486.2 secs

     total energy              =   -4441.64836796 Ry
     estimated scf accuracy    <       0.00150507 Ry

     iteration # 27     ecut=    60.00 Ry     beta= 0.15
     Davidson diagonalization with overlap

---- Real-time Memory Report at c_bands before calling an iterative solver
             0 MiB given to the printing process from OS
             0 MiB allocation reported by mallinfo(arena+hblkhd)
         22498 MiB available memory on the node where the printing process lives
------------------
     ethr =  3.49E-07,  avg # of iterations = 10.6

     negative rho (up, down):  7.984E-01 0.000E+00

     total cpu time spent up to now is      508.9 secs

     total energy              =   -4441.64848092 Ry
     estimated scf accuracy    <       0.00046789 Ry

     iteration # 28     ecut=    60.00 Ry     beta= 0.15
     Davidson diagonalization with overlap

---- Real-time Memory Report at c_bands before calling an iterative solver
             0 MiB given to the printing process from OS
             0 MiB allocation reported by mallinfo(arena+hblkhd)
         22521 MiB available memory on the node where the printing process lives
------------------
     ethr =  1.09E-07,  avg # of iterations =  2.1

     negative rho (up, down):  7.957E-01 0.000E+00

     total cpu time spent up to now is      525.7 secs

     total energy              =   -4441.64841920 Ry
     estimated scf accuracy    <       0.00024748 Ry

     iteration # 29     ecut=    60.00 Ry     beta= 0.15
     Davidson diagonalization with overlap

---- Real-time Memory Report at c_bands before calling an iterative solver
             0 MiB given to the printing process from OS
             0 MiB allocation reported by mallinfo(arena+hblkhd)
         22545 MiB available memory on the node where the printing process lives
------------------
     c_bands:  1 eigenvalues not converged
     ethr =  5.74E-08,  avg # of iterations =  5.7

     negative rho (up, down):  7.947E-01 0.000E+00

     total cpu time spent up to now is      545.9 secs

     total energy              =   -4441.64843245 Ry
     estimated scf accuracy    <       0.00009535 Ry

     iteration # 30     ecut=    60.00 Ry     beta= 0.15
     Davidson diagonalization with overlap

---- Real-time Memory Report at c_bands before calling an iterative solver
             0 MiB given to the printing process from OS
             0 MiB allocation reported by mallinfo(arena+hblkhd)
         22561 MiB available memory on the node where the printing process lives
------------------
     ethr =  2.21E-08,  avg # of iterations =  2.2

     negative rho (up, down):  7.937E-01 0.000E+00

     total cpu time spent up to now is      562.7 secs

     total energy              =   -4441.64842692 Ry
     estimated scf accuracy    <       0.00006076 Ry

     iteration # 31     ecut=    60.00 Ry     beta= 0.15
     Davidson diagonalization with overlap

---- Real-time Memory Report at c_bands before calling an iterative solver
             0 MiB given to the printing process from OS
             0 MiB allocation reported by mallinfo(arena+hblkhd)
         22570 MiB available memory on the node where the printing process lives
------------------
     ethr =  1.41E-08,  avg # of iterations =  2.1

     negative rho (up, down):  7.924E-01 0.000E+00

     total cpu time spent up to now is      579.8 secs

     total energy              =   -4441.64842805 Ry
     estimated scf accuracy    <       0.00002737 Ry

     iteration # 32     ecut=    60.00 Ry     beta= 0.15
     Davidson diagonalization with overlap

---- Real-time Memory Report at c_bands before calling an iterative solver
             0 MiB given to the printing process from OS
             0 MiB allocation reported by mallinfo(arena+hblkhd)
         22578 MiB available memory on the node where the printing process lives
------------------
     ethr =  6.35E-09,  avg # of iterations =  3.3

     negative rho (up, down):  7.922E-01 0.000E+00

     total cpu time spent up to now is      598.6 secs

     total energy              =   -4441.64843092 Ry
     estimated scf accuracy    <       0.00000681 Ry

     iteration # 33     ecut=    60.00 Ry     beta= 0.15
     Davidson diagonalization with overlap

---- Real-time Memory Report at c_bands before calling an iterative solver
             0 MiB given to the printing process from OS
             0 MiB allocation reported by mallinfo(arena+hblkhd)
         22582 MiB available memory on the node where the printing process lives
------------------
     ethr =  1.58E-09,  avg # of iterations =  3.0

     negative rho (up, down):  7.924E-01 0.000E+00

     total cpu time spent up to now is      616.3 secs

     total energy              =   -4441.64843083 Ry
     estimated scf accuracy    <       0.00000532 Ry

     iteration # 34     ecut=    60.00 Ry     beta= 0.15
     Davidson diagonalization with overlap

---- Real-time Memory Report at c_bands before calling an iterative solver
             0 MiB given to the printing process from OS
             0 MiB allocation reported by mallinfo(arena+hblkhd)
         22588 MiB available memory on the node where the printing process lives
------------------
     ethr =  1.23E-09,  avg # of iterations =  2.1

     negative rho (up, down):  7.925E-01 0.000E+00

     total cpu time spent up to now is      633.4 secs

     total energy              =   -4441.64843074 Ry
     estimated scf accuracy    <       0.00000349 Ry

     iteration # 35     ecut=    60.00 Ry     beta= 0.15
     Davidson diagonalization with overlap

---- Real-time Memory Report at c_bands before calling an iterative solver
             0 MiB given to the printing process from OS
             0 MiB allocation reported by mallinfo(arena+hblkhd)
         22593 MiB available memory on the node where the printing process lives
------------------
     ethr =  8.10E-10,  avg # of iterations =  2.6

     negative rho (up, down):  7.925E-01 0.000E+00

     total cpu time spent up to now is      651.0 secs

     total energy              =   -4441.64843090 Ry
     estimated scf accuracy    <       0.00000186 Ry

     iteration # 36     ecut=    60.00 Ry     beta= 0.15
     Davidson diagonalization with overlap

---- Real-time Memory Report at c_bands before calling an iterative solver
             0 MiB given to the printing process from OS
             0 MiB allocation reported by mallinfo(arena+hblkhd)
         22592 MiB available memory on the node where the printing process lives
------------------
     ethr =  4.31E-10,  avg # of iterations =  2.0

     negative rho (up, down):  7.925E-01 0.000E+00

     total cpu time spent up to now is      668.2 secs

     total energy              =   -4441.64843135 Ry
     estimated scf accuracy    <       0.00000141 Ry

     iteration # 37     ecut=    60.00 Ry     beta= 0.15
     Davidson diagonalization with overlap

---- Real-time Memory Report at c_bands before calling an iterative solver
             0 MiB given to the printing process from OS
             0 MiB allocation reported by mallinfo(arena+hblkhd)
         22601 MiB available memory on the node where the printing process lives
------------------
     ethr =  3.26E-10,  avg # of iterations =  2.9

     negative rho (up, down):  7.925E-01 0.000E+00

     total cpu time spent up to now is      686.1 secs

     total energy              =   -4441.64843156 Ry
     estimated scf accuracy    <       0.00000066 Ry

     iteration # 38     ecut=    60.00 Ry     beta= 0.15
     Davidson diagonalization with overlap

---- Real-time Memory Report at c_bands before calling an iterative solver
             0 MiB given to the printing process from OS
             0 MiB allocation reported by mallinfo(arena+hblkhd)
         22599 MiB available memory on the node where the printing process lives
------------------
     ethr =  1.53E-10,  avg # of iterations =  3.1

     negative rho (up, down):  7.925E-01 0.000E+00

     total cpu time spent up to now is      704.2 secs

     total energy              =   -4441.64843169 Ry
     estimated scf accuracy    <       0.00000028 Ry

     iteration # 39     ecut=    60.00 Ry     beta= 0.15
     Davidson diagonalization with overlap

---- Real-time Memory Report at c_bands before calling an iterative solver
             0 MiB given to the printing process from OS
             0 MiB allocation reported by mallinfo(arena+hblkhd)
         22593 MiB available memory on the node where the printing process lives
------------------
     ethr =  6.48E-11,  avg # of iterations =  3.2

     negative rho (up, down):  7.925E-01 0.000E+00

     total cpu time spent up to now is      722.3 secs

     total energy              =   -4441.64843171 Ry
     estimated scf accuracy    <       0.00000014 Ry

     iteration # 40     ecut=    60.00 Ry     beta= 0.15
     Davidson diagonalization with overlap

---- Real-time Memory Report at c_bands before calling an iterative solver
             0 MiB given to the printing process from OS
             0 MiB allocation reported by mallinfo(arena+hblkhd)
         22593 MiB available memory on the node where the printing process lives
------------------
     ethr =  3.24E-11,  avg # of iterations =  2.0

     negative rho (up, down):  7.925E-01 0.000E+00

     total cpu time spent up to now is      739.6 secs

     total energy              =   -4441.64843173 Ry
     estimated scf accuracy    <       0.00000008 Ry

     iteration # 41     ecut=    60.00 Ry     beta= 0.15
     Davidson diagonalization with overlap

---- Real-time Memory Report at c_bands before calling an iterative solver
             0 MiB given to the printing process from OS
             0 MiB allocation reported by mallinfo(arena+hblkhd)
         22640 MiB available memory on the node where the printing process lives
------------------
     ethr =  1.90E-11,  avg # of iterations =  2.9

     negative rho (up, down):  7.925E-01 0.000E+00

     total cpu time spent up to now is      757.3 secs

     total energy              =   -4441.64843173 Ry
     estimated scf accuracy    <       0.00000004 Ry

     iteration # 42     ecut=    60.00 Ry     beta= 0.15
     Davidson diagonalization with overlap

---- Real-time Memory Report at c_bands before calling an iterative solver
             0 MiB given to the printing process from OS
             0 MiB allocation reported by mallinfo(arena+hblkhd)
         22622 MiB available memory on the node where the printing process lives
------------------
     ethr =  9.31E-12,  avg # of iterations =  2.0

     negative rho (up, down):  7.925E-01 0.000E+00

     total cpu time spent up to now is      774.3 secs

     total energy              =   -4441.64843171 Ry
     estimated scf accuracy    <       0.00000003 Ry

     iteration # 43     ecut=    60.00 Ry     beta= 0.15
     Davidson diagonalization with overlap

---- Real-time Memory Report at c_bands before calling an iterative solver
             0 MiB given to the printing process from OS
             0 MiB allocation reported by mallinfo(arena+hblkhd)
         22621 MiB available memory on the node where the printing process lives
------------------
     ethr =  6.85E-12,  avg # of iterations =  3.0

     negative rho (up, down):  7.925E-01 0.000E+00

     total cpu time spent up to now is      792.0 secs

     total energy              =   -4441.64843170 Ry
     estimated scf accuracy    <       0.00000002 Ry

     iteration # 44     ecut=    60.00 Ry     beta= 0.15
     Davidson diagonalization with overlap

---- Real-time Memory Report at c_bands before calling an iterative solver
             0 MiB given to the printing process from OS
             0 MiB allocation reported by mallinfo(arena+hblkhd)
         22619 MiB available memory on the node where the printing process lives
------------------
     ethr =  4.50E-12,  avg # of iterations =  2.8

     negative rho (up, down):  7.925E-01 0.000E+00

     total cpu time spent up to now is      809.4 secs

     total energy              =   -4441.64843169 Ry
     estimated scf accuracy    <       0.00000001 Ry

     iteration # 45     ecut=    60.00 Ry     beta= 0.15
     Davidson diagonalization with overlap

---- Real-time Memory Report at c_bands before calling an iterative solver
             0 MiB given to the printing process from OS
             0 MiB allocation reported by mallinfo(arena+hblkhd)
         22637 MiB available memory on the node where the printing process lives
------------------
     ethr =  3.16E-12,  avg # of iterations =  3.1

     negative rho (up, down):  7.925E-01 0.000E+00

     total cpu time spent up to now is      827.2 secs

     End of self-consistent calculation

          k = 0.0000 0.0000 0.0000 ( 65197 PWs)   bands (ev):

   -92.6817 -92.6295 -92.5357 -92.4887 -92.4293 -92.3880 -92.3715 -92.2522
   -56.0352 -56.0164 -55.8931 -55.8825 -55.8763 -55.8693 -55.8344 -55.8049
   -55.7904 -55.7874 -55.7793 -55.7373 -55.7189 -55.6807 -55.6621 -55.6291
   -55.6246 -55.5769 -55.5758 -55.5734 -55.5649 -55.5272 -55.5017 -55.4189
   -31.2593 -31.2400 -31.0983 -31.0340 -31.0114 -30.9501 -30.8464 -30.7304
   -29.8293 -29.7860 -29.7603 -29.6520 -15.0625 -15.0194 -14.9383 -14.8077
   -14.6164 -14.4927 -14.2003 -14.1795 -14.1514 -14.1048 -14.0601 -14.0508
   -14.0389 -14.0216 -14.0007 -13.9623 -13.9278 -13.9106 -13.7602 -13.5833
   -13.5481 -13.5182 -13.4864 -13.4700 -13.4156 -13.3826 -13.3040 -13.2321
   -13.1116 -13.0916 -13.0814 -13.0563 -13.0420 -13.0376 -12.9842 -12.9800
   -12.9484 -12.9356 -12.9043 -12.8851 -12.8677 -12.8399 -12.8288 -12.7714
   -12.7573 -12.7397 -12.6713 -12.6379 -12.6236 -12.3238 -12.1783 -12.0158
   -11.9337 -11.8429 -11.7686 -11.7575 -11.7349 -11.7173 -11.6536 -11.6363
   -11.6016 -11.5725 -11.4610 -11.3811 -11.3774  -2.9226  -2.6904  -2.4605
    -2.3143  -2.2509  -2.1088  -1.8018  -1.7877  -1.7676  -1.6838  -1.6643
    -1.5960  -1.5798  -1.5390  -1.4928  -1.3130  -1.0889  -1.0596  -1.0328
    -0.9119  -0.8975  -0.8516  -0.8330  -0.7878  -0.7713  -0.7146  -0.6884
    -0.6168  -0.6028  -0.5281  -0.3971  -0.3837  -0.3547  -0.2738  -0.2575
    -0.2446  -0.1769  -0.1093  -0.0713  -0.0101   0.0132   0.0859   0.1705
     0.2001   0.2256   0.2646   0.4905   0.5049   0.6808   0.7426   0.8075
     0.8792   0.9521   0.9676   0.9811   1.0407   1.0679   1.1029   1.1605
     1.2924   1.3500   1.3743   1.3958   1.4039   1.4688   1.5403   1.6442
     1.6596   1.7189   1.7323   1.7748   1.7985   1.8034   1.8663   1.9158
     1.9373   1.9706   2.0045   2.0475   2.1776   2.2572   2.3022   2.3248
     2.4601   2.4798   2.5005   2.5092   2.5320   2.5388   2.6570   2.6776
     2.7079   2.7257   2.7382   2.8178   2.9260   2.9578   2.9701   2.9769
     3.0439   3.0476   3.0730   3.0804   3.0895   3.1037   3.1081   3.1224
     3.1272   3.1415   3.1493   3.1563   3.1754   3.1964   3.2023   3.2133
     3.2369   3.3545   3.4401   4.1306   4.4468   4.7840   4.8786   5.0669
     5.7514   5.9509   6.0017   6.0404   6.3330   6.3804   6.4953   6.5049
     6.7469   7.0208   7.1115   7.3338   7.4557   7.5589   7.6577   7.6806
     7.6959   7.8542   7.9291   8.1205   8.1277   8.1940   8.4157   8.4932
     8.6769   8.7782   8.8903

     occupation numbers 
     1.0000   1.0000   1.0000   1.0000   1.0000   1.0000   1.0000   1.0000
     1.0000   1.0000   1.0000   1.0000   1.0000   1.0000   1.0000   1.0000
     1.0000   1.0000   1.0000   1.0000   1.0000   1.0000   1.0000   1.0000
     1.0000   1.0000   1.0000   1.0000   1.0000   1.0000   1.0000   1.0000
     1.0000   1.0000   1.0000   1.0000   1.0000   1.0000   1.0000   1.0000
     1.0000   1.0000   1.0000   1.0000   1.0000   1.0000   1.0000   1.0000
     1.0000   1.0000   1.0000   1.0000   1.0000   1.0000   1.0000   1.0000
     1.0000   1.0000   1.0000   1.0000   1.0000   1.0000   1.0000   1.0000
     1.0000   1.0000   1.0000   1.0000   1.0000   1.0000   1.0000   1.0000
     1.0000   1.0000   1.0000   1.0000   1.0000   1.0000   1.0000   1.0000
     1.0000   1.0000   1.0000   1.0000   1.0000   1.0000   1.0000   1.0000
     1.0000   1.0000   1.0000   1.0000   1.0000   1.0000   1.0000   1.0000
     1.0000   1.0000   1.0000   1.0000   1.0000   1.0000   1.0000   1.0000
     1.0000   1.0000   1.0000   1.0000   1.0000   1.0000   1.0000   1.0000
     1.0000   1.0000   1.0000   1.0000   1.0000   1.0000   1.0000   1.0000
     1.0000   1.0000   1.0000   1.0000   1.0000   1.0000   1.0000   1.0000
     1.0000   1.0000   1.0000   1.0000   1.0000   1.0000   1.0000   1.0000
     1.0000   1.0000   1.0000   1.0000   1.0000   1.0000   1.0000   1.0000
     1.0000   1.0000   1.0000   1.0000   1.0000   1.0000   1.0000   1.0000
     1.0000   1.0000   1.0000   1.0000   1.0000   1.0000   0.9999   0.9999
     0.9999   0.9998   0.9998   0.9998   0.9997   0.9996   0.9996   0.9994
     0.9989   0.9985   0.9983   0.9981   0.9980   0.9973   0.9963   0.9942
     0.9939   0.9922   0.9917   0.9902   0.9892   0.9890   0.9860   0.9831
     0.9818   0.9794   0.9768   0.9731   0.9586   0.9470   0.9394   0.9353
     0.9058   0.9008   0.8953   0.8930   0.8866   0.8846   0.8468   0.8395
     0.8282   0.8214   0.8165   0.7835   0.7335   0.7177   0.7116   0.7081
     0.6731   0.6711   0.6573   0.6533   0.6483   0.6404   0.6379   0.6300
     0.6273   0.6192   0.6148   0.6108   0.5999   0.5878   0.5844   0.5780
     0.5642   0.4949   0.4444   0.1219   0.0510   0.0164   0.0114   0.0053
     0.0002   0.0001   0.0000   0.0000   0.0000   0.0000   0.0000   0.0000
     0.0000   0.0000   0.0000   0.0000   0.0000   0.0000   0.0000   0.0000
     0.0000   0.0000   0.0000   0.0000   0.0000   0.0000   0.0000   0.0000
     0.0000   0.0000   0.0000

          k = 0.0000 0.2500 0.0000 ( 65257 PWs)   bands (ev):

   -92.6817 -92.6295 -92.5357 -92.4887 -92.4293 -92.3880 -92.3715 -92.2522
   -56.0352 -56.0164 -55.8931 -55.8825 -55.8763 -55.8693 -55.8344 -55.8049
   -55.7904 -55.7874 -55.7793 -55.7373 -55.7189 -55.6808 -55.6621 -55.6291
   -55.6246 -55.5769 -55.5758 -55.5734 -55.5649 -55.5272 -55.5017 -55.4189
   -31.2592 -31.2398 -31.0985 -31.0336 -31.0116 -30.9505 -30.8461 -30.7307
   -29.8287 -29.7857 -29.7609 -29.6523 -15.0259 -14.9933 -14.9132 -14.7784
   -14.6571 -14.4831 -14.3455 -14.1663 -14.1310 -14.1104 -14.0811 -14.0240
   -14.0175 -14.0035 -13.9843 -13.9407 -13.9230 -13.8295 -13.7911 -13.6290
   -13.6085 -13.5594 -13.5234 -13.4776 -13.4352 -13.3923 -13.3242 -13.2894
   -13.2195 -13.1395 -13.1279 -13.0903 -13.0736 -13.0216 -12.9699 -12.9460
   -12.9171 -12.8973 -12.8820 -12.8482 -12.8106 -12.7927 -12.7826 -12.7642
   -12.7240 -12.7004 -12.6643 -12.5527 -12.4732 -12.3852 -12.2295 -12.0722
   -12.0008 -11.8083 -11.7654 -11.7376 -11.7093 -11.6928 -11.6454 -11.6341
   -11.6115 -11.5774 -11.4753 -11.4227 -11.4121  -2.7873  -2.5660  -2.4282
    -2.2466  -2.2030  -2.0393  -1.8202  -1.7353  -1.7224  -1.6647  -1.5625
    -1.5462  -1.5112  -1.4857  -1.4417  -1.2442  -1.1163  -1.1054  -1.0395
    -1.0215  -1.0137  -0.9123  -0.8826  -0.8251  -0.8000  -0.7590  -0.6948
    -0.6684  -0.6365  -0.6048  -0.5877  -0.5555  -0.4818  -0.4301  -0.3607
    -0.2546  -0.2325  -0.1920  -0.0750  -0.0411   0.0299   0.0736   0.1448
     0.1745   0.2040   0.2412   0.5412   0.6256   0.6540   0.7501   0.7948
     0.8466   0.9322   0.9535   1.0480   1.0697   1.0953   1.2114   1.3036
     1.3258   1.3488   1.3705   1.3943   1.4541   1.4819   1.5077   1.5563
     1.5918   1.6220   1.7031   1.7354   1.7784   1.8286   1.8821   1.9254
     1.9526   1.9827   1.9953   2.1000   2.2094   2.2833   2.3087   2.3778
     2.4239   2.4625   2.4737   2.4899   2.5049   2.5440   2.5738   2.6742
     2.7012   2.7157   2.8844   2.9064   2.9385   2.9609   2.9776   2.9861
     2.9932   3.0024   3.0319   3.0357   3.0534   3.0573   3.0678   3.0852
     3.0972   3.1046   3.1272   3.1379   3.1432   3.1771   3.1935   3.2556
     3.6177   3.6640   3.9038   4.3255   4.4399   4.7247   5.0315   5.0930
     5.6570   5.8200   5.9285   5.9997   6.1017   6.1295   6.2014   6.6123
     6.8453   7.0893   7.1519   7.3459   7.4994   7.5102   7.5249   7.6614
     7.8343   7.9537   8.0358   8.1751   8.3246   8.3797   8.3958   8.4301
     8.5229   8.7805   8.9326

     occupation numbers 
     1.0000   1.0000   1.0000   1.0000   1.0000   1.0000   1.0000   1.0000
     1.0000   1.0000   1.0000   1.0000   1.0000   1.0000   1.0000   1.0000
     1.0000   1.0000   1.0000   1.0000   1.0000   1.0000   1.0000   1.0000
     1.0000   1.0000   1.0000   1.0000   1.0000   1.0000   1.0000   1.0000
     1.0000   1.0000   1.0000   1.0000   1.0000   1.0000   1.0000   1.0000
     1.0000   1.0000   1.0000   1.0000   1.0000   1.0000   1.0000   1.0000
     1.0000   1.0000   1.0000   1.0000   1.0000   1.0000   1.0000   1.0000
     1.0000   1.0000   1.0000   1.0000   1.0000   1.0000   1.0000   1.0000
     1.0000   1.0000   1.0000   1.0000   1.0000   1.0000   1.0000   1.0000
     1.0000   1.0000   1.0000   1.0000   1.0000   1.0000   1.0000   1.0000
     1.0000   1.0000   1.0000   1.0000   1.0000   1.0000   1.0000   1.0000
     1.0000   1.0000   1.0000   1.0000   1.0000   1.0000   1.0000   1.0000
     1.0000   1.0000   1.0000   1.0000   1.0000   1.0000   1.0000   1.0000
     1.0000   1.0000   1.0000   1.0000   1.0000   1.0000   1.0000   1.0000
     1.0000   1.0000   1.0000   1.0000   1.0000   1.0000   1.0000   1.0000
     1.0000   1.0000   1.0000   1.0000   1.0000   1.0000   1.0000   1.0000
     1.0000   1.0000   1.0000   1.0000   1.0000   1.0000   1.0000   1.0000
     1.0000   1.0000   1.0000   1.0000   1.0000   1.0000   1.0000   1.0000
     1.0000   1.0000   1.0000   1.0000   1.0000   1.0000   1.0000   1.0000
     1.0000   1.0000   1.0000   1.0000   1.0000   1.0000   0.9999   0.9999
     0.9999   0.9998   0.9998   0.9997   0.9996   0.9996   0.9992   0.9988
     0.9986   0.9985   0.9983   0.9981   0.9975   0.9972   0.9968   0.9961
     0.9954   0.9948   0.9926   0.9916   0.9900   0.9879   0.9851   0.9825
     0.9807   0.9785   0.9775   0.9678   0.9542   0.9427   0.9382   0.9247
     0.9145   0.9052   0.9023   0.8981   0.8941   0.8831   0.8742   0.8407
     0.8308   0.8253   0.7534   0.7430   0.7274   0.7162   0.7077   0.7034
     0.6997   0.6949   0.6795   0.6775   0.6680   0.6659   0.6601   0.6506
     0.6440   0.6399   0.6273   0.6213   0.6183   0.5989   0.5895   0.5533
     0.3432   0.3183   0.2037   0.0729   0.0521   0.0203   0.0062   0.0047
     0.0003   0.0001   0.0001   0.0000   0.0000   0.0000   0.0000   0.0000
     0.0000   0.0000   0.0000   0.0000   0.0000   0.0000   0.0000   0.0000
     0.0000   0.0000   0.0000   0.0000   0.0000   0.0000   0.0000   0.0000
     0.0000   0.0000   0.0000

          k = 0.0000-0.5000 0.0000 ( 65180 PWs)   bands (ev):

   -92.6817 -92.6295 -92.5357 -92.4887 -92.4293 -92.3880 -92.3715 -92.2522
   -56.0352 -56.0164 -55.8931 -55.8825 -55.8763 -55.8693 -55.8344 -55.8049
   -55.7904 -55.7874 -55.7793 -55.7373 -55.7189 -55.6808 -55.6621 -55.6291
   -55.6246 -55.5769 -55.5758 -55.5734 -55.5649 -55.5272 -55.5017 -55.4189
   -31.2590 -31.2397 -31.0987 -31.0333 -31.0117 -30.9508 -30.8458 -30.7310
   -29.8281 -29.7854 -29.7615 -29.6527 -14.9910 -14.9425 -14.8892 -14.7610
   -14.6770 -14.5393 -14.3869 -14.2627 -14.1386 -14.0652 -14.0239 -14.0186
   -13.9689 -13.9522 -13.9305 -13.9026 -13.8819 -13.8574 -13.8232 -13.7851
   -13.7447 -13.5646 -13.5061 -13.4839 -13.4374 -13.3939 -13.3396 -13.2862
   -13.2647 -13.2266 -13.1994 -13.0912 -13.0750 -13.0062 -12.9606 -12.9471
   -12.9290 -12.9102 -12.8634 -12.8082 -12.7880 -12.7651 -12.7098 -12.6869
   -12.6829 -12.6705 -12.6333 -12.4962 -12.4137 -12.3046 -12.2565 -12.1776
   -12.1315 -11.7623 -11.7600 -11.7325 -11.6952 -11.6609 -11.6497 -11.6072
   -11.6032 -11.5590 -11.4970 -11.4834 -11.4692  -2.5731  -2.5127  -2.3631
    -2.2909  -2.0097  -1.9256  -1.7987  -1.6613  -1.6238  -1.6048  -1.5248
    -1.4944  -1.4127  -1.3773  -1.3002  -1.2601  -1.2215  -1.1948  -1.1369
    -1.0999  -1.0542  -1.0281  -1.0162  -0.9836  -0.9492  -0.8394  -0.7947
    -0.7588  -0.7580  -0.6727  -0.6387  -0.6181  -0.5662  -0.4823  -0.4134
    -0.3274  -0.2998  -0.1985  -0.1480  -0.0100   0.0324   0.0519   0.1345
     0.2624   0.2857   0.4109   0.4801   0.4874   0.6140   0.6627   0.8287
     0.8920   1.0044   1.0336   1.0713   1.0755   1.1250   1.1328   1.1681
     1.1874   1.1957   1.3041   1.3658   1.3987   1.4257   1.6819   1.7135
     1.7430   1.8339   1.8639   1.8831   1.8994   1.9297   1.9407   1.9631
     1.9873   2.0220   2.0555   2.0879   2.0934   2.1205   2.1714   2.2562
     2.2822   2.4634   2.4856   2.5020   2.6228   2.6339   2.6730   2.6874
     2.6935   2.7019   2.7528   2.7641   2.8181   2.8401   2.9176   2.9311
     2.9977   3.0073   3.0286   3.0318   3.0497   3.0560   3.0617   3.0621
     3.0672   3.0792   3.0973   3.0985   3.1623   3.1679   3.1831   3.2375
     4.1558   4.1778   4.1936   4.2763   4.7760   4.9171   5.0433   5.1821
     5.4314   5.4824   5.5988   5.7462   6.0449   6.0682   6.2779   6.4903
     6.8677   6.9673   7.2298   7.3393   7.3831   7.4986   7.5908   7.7720
     7.9264   8.0217   8.2180   8.2552   8.3212   8.4143   8.5057   8.6826
     8.8067   8.8301   8.8507

     occupation numbers 
     1.0000   1.0000   1.0000   1.0000   1.0000   1.0000   1.0000   1.0000
     1.0000   1.0000   1.0000   1.0000   1.0000   1.0000   1.0000   1.0000
     1.0000   1.0000   1.0000   1.0000   1.0000   1.0000   1.0000   1.0000
     1.0000   1.0000   1.0000   1.0000   1.0000   1.0000   1.0000   1.0000
     1.0000   1.0000   1.0000   1.0000   1.0000   1.0000   1.0000   1.0000
     1.0000   1.0000   1.0000   1.0000   1.0000   1.0000   1.0000   1.0000
     1.0000   1.0000   1.0000   1.0000   1.0000   1.0000   1.0000   1.0000
     1.0000   1.0000   1.0000   1.0000   1.0000   1.0000   1.0000   1.0000
     1.0000   1.0000   1.0000   1.0000   1.0000   1.0000   1.0000   1.0000
     1.0000   1.0000   1.0000   1.0000   1.0000   1.0000   1.0000   1.0000
     1.0000   1.0000   1.0000   1.0000   1.0000   1.0000   1.0000   1.0000
     1.0000   1.0000   1.0000   1.0000   1.0000   1.0000   1.0000   1.0000
     1.0000   1.0000   1.0000   1.0000   1.0000   1.0000   1.0000   1.0000
     1.0000   1.0000   1.0000   1.0000   1.0000   1.0000   1.0000   1.0000
     1.0000   1.0000   1.0000   1.0000   1.0000   1.0000   1.0000   1.0000
     1.0000   1.0000   1.0000   1.0000   1.0000   1.0000   1.0000   1.0000
     1.0000   1.0000   1.0000   1.0000   1.0000   1.0000   1.0000   1.0000
     1.0000   1.0000   1.0000   1.0000   1.0000   1.0000   1.0000   1.0000
     1.0000   1.0000   1.0000   1.0000   1.0000   1.0000   1.0000   1.0000
     1.0000   1.0000   1.0000   1.0000   1.0000   1.0000   1.0000   0.9999
     0.9999   0.9997   0.9997   0.9996   0.9996   0.9995   0.9995   0.9994
     0.9993   0.9993   0.9988   0.9984   0.9981   0.9978   0.9933   0.9923
     0.9913   0.9876   0.9861   0.9851   0.9841   0.9823   0.9815   0.9800
     0.9782   0.9753   0.9723   0.9691   0.9685   0.9656   0.9594   0.9472
     0.9429   0.9049   0.8993   0.8949   0.8585   0.8548   0.8411   0.8359
     0.8336   0.8305   0.8107   0.8062   0.7834   0.7736   0.7376   0.7310
     0.6974   0.6924   0.6812   0.6795   0.6699   0.6665   0.6634   0.6632
     0.6605   0.6539   0.6440   0.6433   0.6074   0.6042   0.5955   0.5639
     0.1145   0.1084   0.1041   0.0835   0.0169   0.0098   0.0059   0.0032
     0.0010   0.0008   0.0004   0.0002   0.0000   0.0000   0.0000   0.0000
     0.0000   0.0000   0.0000   0.0000   0.0000   0.0000   0.0000   0.0000
     0.0000   0.0000   0.0000   0.0000   0.0000   0.0000   0.0000   0.0000
     0.0000   0.0000   0.0000

          k = 0.2500 0.2500 0.0000 ( 65198 PWs)   bands (ev):

   -92.6817 -92.6295 -92.5357 -92.4887 -92.4293 -92.3880 -92.3715 -92.2522
   -56.0352 -56.0164 -55.8931 -55.8825 -55.8763 -55.8693 -55.8344 -55.8049
   -55.7904 -55.7874 -55.7793 -55.7373 -55.7189 -55.6807 -55.6621 -55.6291
   -55.6246 -55.5769 -55.5758 -55.5734 -55.5649 -55.5272 -55.5017 -55.4189
   -31.2575 -31.2415 -31.0981 -31.0335 -31.0119 -30.9503 -30.8463 -30.7308
   -29.8277 -29.7867 -29.7605 -29.6528 -14.9973 -14.9584 -14.8852 -14.7680
   -14.6493 -14.5237 -14.4511 -14.2446 -14.0897 -14.0765 -14.0401 -14.0110
   -13.9890 -13.9625 -13.9342 -13.9259 -13.8960 -13.8207 -13.8044 -13.6447
   -13.6304 -13.6009 -13.5815 -13.5282 -13.4918 -13.4308 -13.4077 -13.2752
   -13.2228 -13.2081 -13.1235 -13.0832 -13.0322 -13.0005 -12.9867 -12.9599
   -12.9282 -12.9051 -12.8930 -12.8331 -12.7842 -12.7642 -12.7313 -12.7249
   -12.6955 -12.6778 -12.6642 -12.4965 -12.4337 -12.3688 -12.2586 -12.1026
   -12.0499 -11.7806 -11.7490 -11.7380 -11.7308 -11.6685 -11.6335 -11.6271
   -11.5917 -11.5836 -11.4920 -11.4509 -11.4336  -2.6491  -2.4403  -2.3221
    -2.2285  -2.1074  -2.0425  -1.8449  -1.7002  -1.6808  -1.6516  -1.5574
    -1.5214  -1.4287  -1.4014  -1.3511  -1.2207  -1.1720  -1.0998  -1.0545
    -1.0330  -1.0079  -0.9852  -0.9611  -0.9191  -0.9039  -0.8131  -0.7632
    -0.6982  -0.6482  -0.6188  -0.5687  -0.5547  -0.4920  -0.4429  -0.3838
    -0.3502  -0.2654  -0.2138  -0.1841  -0.1452  -0.0893  -0.0202   0.0203
     0.0525   0.1288   0.2032   0.4279   0.5748   0.6102   0.6690   0.7105
     0.8012   0.8601   0.8896   0.9218   1.1940   1.2596   1.3340   1.3577
     1.4078   1.4391   1.4734   1.5097   1.5282   1.5550   1.5982   1.6084
     1.6228   1.6700   1.7130   1.7475   1.7986   1.8426   1.8514   1.8886
     1.9259   1.9803   2.0098   2.1389   2.1932   2.2279   2.2546   2.3217
     2.3873   2.4147   2.4477   2.4687   2.4798   2.5018   2.5091   2.6202
     2.6414   2.7276   2.8955   2.9124   2.9184   2.9342   2.9487   2.9625
     2.9745   2.9818   2.9932   3.0063   3.0190   3.0373   3.0443   3.0555
     3.0777   3.0892   3.0976   3.1305   3.4304   3.5237   3.5656   3.6354
     3.6659   3.8828   3.9739   4.3279   4.5310   4.7355   5.0045   5.1797
     5.6633   5.7196   5.7849   5.8546   5.9132   6.0833   6.1734   6.2282
     6.9123   6.9496   7.0924   7.2418   7.5668   7.6224   7.7297   7.8380
     7.8880   8.0144   8.1657   8.2021   8.2904   8.3502   8.4630   8.5364
     8.6107   8.6555   8.8867

     occupation numbers 
     1.0000   1.0000   1.0000   1.0000   1.0000   1.0000   1.0000   1.0000
     1.0000   1.0000   1.0000   1.0000   1.0000   1.0000   1.0000   1.0000
     1.0000   1.0000   1.0000   1.0000   1.0000   1.0000   1.0000   1.0000
     1.0000   1.0000   1.0000   1.0000   1.0000   1.0000   1.0000   1.0000
     1.0000   1.0000   1.0000   1.0000   1.0000   1.0000   1.0000   1.0000
     1.0000   1.0000   1.0000   1.0000   1.0000   1.0000   1.0000   1.0000
     1.0000   1.0000   1.0000   1.0000   1.0000   1.0000   1.0000   1.0000
     1.0000   1.0000   1.0000   1.0000   1.0000   1.0000   1.0000   1.0000
     1.0000   1.0000   1.0000   1.0000   1.0000   1.0000   1.0000   1.0000
     1.0000   1.0000   1.0000   1.0000   1.0000   1.0000   1.0000   1.0000
     1.0000   1.0000   1.0000   1.0000   1.0000   1.0000   1.0000   1.0000
     1.0000   1.0000   1.0000   1.0000   1.0000   1.0000   1.0000   1.0000
     1.0000   1.0000   1.0000   1.0000   1.0000   1.0000   1.0000   1.0000
     1.0000   1.0000   1.0000   1.0000   1.0000   1.0000   1.0000   1.0000
     1.0000   1.0000   1.0000   1.0000   1.0000   1.0000   1.0000   1.0000
     1.0000   1.0000   1.0000   1.0000   1.0000   1.0000   1.0000   1.0000
     1.0000   1.0000   1.0000   1.0000   1.0000   1.0000   1.0000   1.0000
     1.0000   1.0000   1.0000   1.0000   1.0000   1.0000   1.0000   1.0000
     1.0000   1.0000   1.0000   1.0000   1.0000   1.0000   1.0000   1.0000
     1.0000   1.0000   1.0000   1.0000   1.0000   1.0000   1.0000   1.0000
     0.9999   0.9999   0.9999   0.9998   0.9993   0.9990   0.9986   0.9984
     0.9980   0.9977   0.9973   0.9968   0.9965   0.9961   0.9953   0.9951
     0.9947   0.9936   0.9923   0.9912   0.9892   0.9872   0.9868   0.9848
     0.9825   0.9787   0.9764   0.9634   0.9565   0.9515   0.9474   0.9358
     0.9227   0.9166   0.9088   0.9036   0.9008   0.8950   0.8930   0.8594
     0.8522   0.8207   0.7482   0.7401   0.7372   0.7295   0.7223   0.7154
     0.7093   0.7056   0.6998   0.6930   0.6863   0.6766   0.6728   0.6668
     0.6548   0.6484   0.6438   0.6254   0.4500   0.3959   0.3721   0.3336
     0.3173   0.2126   0.1755   0.0724   0.0392   0.0195   0.0069   0.0032
     0.0003   0.0002   0.0001   0.0001   0.0001   0.0000   0.0000   0.0000
     0.0000   0.0000   0.0000   0.0000   0.0000   0.0000   0.0000   0.0000
     0.0000   0.0000   0.0000   0.0000   0.0000   0.0000   0.0000   0.0000
     0.0000   0.0000   0.0000

          k = 0.2500-0.5000 0.0000 ( 65138 PWs)   bands (ev):

   -92.6817 -92.6295 -92.5357 -92.4887 -92.4293 -92.3880 -92.3715 -92.2522
   -56.0352 -56.0164 -55.8931 -55.8825 -55.8763 -55.8693 -55.8344 -55.8049
   -55.7904 -55.7874 -55.7793 -55.7373 -55.7189 -55.6808 -55.6621 -55.6291
   -55.6246 -55.5769 -55.5758 -55.5734 -55.5649 -55.5272 -55.5017 -55.4189
   -31.2573 -31.2414 -31.0983 -31.0331 -31.0121 -30.9507 -30.8460 -30.7311
   -29.8271 -29.7864 -29.7611 -29.6531 -14.9605 -14.9157 -14.8462 -14.7311
   -14.6997 -14.5798 -14.4895 -14.3600 -14.0540 -14.0005 -13.9748 -13.9532
   -13.9372 -13.9302 -13.9241 -13.8875 -13.8701 -13.8368 -13.8005 -13.7725
   -13.7375 -13.6473 -13.5987 -13.5448 -13.5192 -13.4542 -13.4419 -13.3287
   -13.2733 -13.1883 -13.1237 -13.1019 -13.0163 -12.9732 -12.9678 -12.9577
   -12.9270 -12.9136 -12.8928 -12.8139 -12.7824 -12.7672 -12.7295 -12.6999
   -12.6767 -12.6365 -12.6053 -12.5028 -12.3903 -12.3021 -12.2287 -12.1676
   -12.1362 -11.7562 -11.7442 -11.7332 -11.7060 -11.6746 -11.6461 -11.6048
   -11.5774 -11.5553 -11.5101 -11.4845 -11.4734  -2.4314  -2.3644  -2.2370
    -2.1597  -2.0301  -1.9453  -1.8231  -1.6726  -1.6188  -1.5969  -1.5334
    -1.5202  -1.4233  -1.3567  -1.2718  -1.2221  -1.2126  -1.1497  -1.1075
    -1.0733  -1.0334  -1.0203  -0.9875  -0.9530  -0.9128  -0.9011  -0.8560
    -0.8270  -0.7853  -0.7531  -0.6869  -0.5847  -0.5426  -0.4677  -0.4030
    -0.3538  -0.3112  -0.2897  -0.2389  -0.0774  -0.0664   0.0439   0.0769
     0.0922   0.1401   0.1630   0.2128   0.2302   0.2937   0.5642   0.6580
     0.7677   0.8475   1.0516   1.0808   1.1658   1.1915   1.3568   1.3912
     1.4331   1.4537   1.4705   1.4906   1.5536   1.6000   1.6353   1.7225
     1.8000   1.8438   1.8663   1.8783   1.9103   1.9244   1.9300   1.9754
     1.9884   2.0037   2.0557   2.0635   2.0804   2.1171   2.1719   2.2116
     2.2885   2.4299   2.4853   2.4900   2.5769   2.5985   2.6244   2.6396
     2.6622   2.6903   2.7111   2.7271   2.7496   2.8464   2.8947   2.9141
     2.9189   2.9316   2.9522   2.9663   2.9849   2.9926   3.0247   3.0372
     3.0510   3.0617   3.0716   3.0808   3.6090   3.6143   3.7617   3.8115
     4.1632   4.1998   4.2188   4.3342   4.7936   4.9397   5.0815   5.1535
     5.3238   5.4492   5.6224   5.6569   5.7864   5.8057   6.3768   6.4118
     6.5032   6.6291   7.1995   7.4087   7.5602   7.7203   7.7530   7.8319
     7.8974   8.0575   8.2370   8.4242   8.4807   8.5493   8.5722   8.5858
     8.6934   8.7319   8.7767

     occupation numbers 
     1.0000   1.0000   1.0000   1.0000   1.0000   1.0000   1.0000   1.0000
     1.0000   1.0000   1.0000   1.0000   1.0000   1.0000   1.0000   1.0000
     1.0000   1.0000   1.0000   1.0000   1.0000   1.0000   1.0000   1.0000
     1.0000   1.0000   1.0000   1.0000   1.0000   1.0000   1.0000   1.0000
     1.0000   1.0000   1.0000   1.0000   1.0000   1.0000   1.0000   1.0000
     1.0000   1.0000   1.0000   1.0000   1.0000   1.0000   1.0000   1.0000
     1.0000   1.0000   1.0000   1.0000   1.0000   1.0000   1.0000   1.0000
     1.0000   1.0000   1.0000   1.0000   1.0000   1.0000   1.0000   1.0000
     1.0000   1.0000   1.0000   1.0000   1.0000   1.0000   1.0000   1.0000
     1.0000   1.0000   1.0000   1.0000   1.0000   1.0000   1.0000   1.0000
     1.0000   1.0000   1.0000   1.0000   1.0000   1.0000   1.0000   1.0000
     1.0000   1.0000   1.0000   1.0000   1.0000   1.0000   1.0000   1.0000
     1.0000   1.0000   1.0000   1.0000   1.0000   1.0000   1.0000   1.0000
     1.0000   1.0000   1.0000   1.0000   1.0000   1.0000   1.0000   1.0000
     1.0000   1.0000   1.0000   1.0000   1.0000   1.0000   1.0000   1.0000
     1.0000   1.0000   1.0000   1.0000   1.0000   1.0000   1.0000   1.0000
     1.0000   1.0000   1.0000   1.0000   1.0000   1.0000   1.0000   1.0000
     1.0000   1.0000   1.0000   1.0000   1.0000   1.0000   1.0000   1.0000
     1.0000   1.0000   1.0000   1.0000   1.0000   1.0000   1.0000   1.0000
     1.0000   1.0000   1.0000   1.0000   1.0000   1.0000   1.0000   1.0000
     0.9999   0.9999   0.9997   0.9996   0.9994   0.9993   0.9984   0.9981
     0.9977   0.9975   0.9973   0.9971   0.9961   0.9952   0.9945   0.9920
     0.9891   0.9871   0.9860   0.9853   0.9835   0.9826   0.9822   0.9791
     0.9781   0.9769   0.9723   0.9716   0.9699   0.9660   0.9594   0.9539
     0.9418   0.9131   0.8993   0.8981   0.8732   0.8664   0.8580   0.8528
     0.8450   0.8348   0.8270   0.8209   0.8120   0.7708   0.7485   0.7393
     0.7369   0.7308   0.7206   0.7135   0.7040   0.7001   0.6833   0.6766
     0.6692   0.6634   0.6581   0.6530   0.3480   0.3451   0.2684   0.2447
     0.1124   0.1024   0.0974   0.0711   0.0158   0.0090   0.0050   0.0036
     0.0017   0.0009   0.0004   0.0003   0.0001   0.0001   0.0000   0.0000
     0.0000   0.0000   0.0000   0.0000   0.0000   0.0000   0.0000   0.0000
     0.0000   0.0000   0.0000   0.0000   0.0000   0.0000   0.0000   0.0000
     0.0000   0.0000   0.0000

          k =-0.5000-0.5000 0.0000 ( 65132 PWs)   bands (ev):

   -92.6817 -92.6295 -92.5357 -92.4887 -92.4293 -92.3880 -92.3715 -92.2522
   -56.0352 -56.0164 -55.8931 -55.8825 -55.8763 -55.8693 -55.8344 -55.8049
   -55.7904 -55.7874 -55.7793 -55.7373 -55.7189 -55.6808 -55.6621 -55.6291
   -55.6246 -55.5769 -55.5758 -55.5734 -55.5649 -55.5272 -55.5017 -55.4189
   -31.2551 -31.2436 -31.0979 -31.0330 -31.0125 -30.9506 -30.8462 -30.7313
   -29.8261 -29.7874 -29.7607 -29.6535 -14.9140 -14.8887 -14.7710 -14.7587
   -14.6626 -14.6271 -14.5928 -14.4596 -13.9649 -13.9542 -13.9300 -13.9187
   -13.9008 -13.8828 -13.8678 -13.8411 -13.8280 -13.8140 -13.8075 -13.7909
   -13.7140 -13.7077 -13.6753 -13.6433 -13.6359 -13.5405 -13.5128 -13.3715
   -13.3114 -13.1390 -13.0991 -13.0313 -13.0069 -12.9728 -12.9659 -12.9565
   -12.9435 -12.9363 -12.8885 -12.8009 -12.7825 -12.7707 -12.7497 -12.7148
   -12.6908 -12.5865 -12.5785 -12.5192 -12.3691 -12.2985 -12.1970 -12.1572
   -12.1459 -11.7527 -11.7404 -11.7225 -11.7058 -11.6708 -11.6532 -11.6183
   -11.5577 -11.5376 -11.5324 -11.4822 -11.4792  -2.2072  -2.1321  -2.1217
    -2.0470  -2.0105  -1.9324  -1.8648  -1.7386  -1.6230  -1.5932  -1.5533
    -1.4961  -1.4242  -1.4097  -1.3393  -1.2959  -1.1798  -1.1509  -1.1021
    -1.0733  -1.0309  -1.0086  -0.9632  -0.9443  -0.9323  -0.8766  -0.8338
    -0.8185  -0.7054  -0.6479  -0.6017  -0.5522  -0.5218  -0.5121  -0.4779
    -0.4344  -0.4006  -0.3892  -0.3025  -0.2388  -0.1912  -0.1670  -0.0926
    -0.0374  -0.0230   0.0344   0.0666   0.0740   0.1187   0.5365   0.5732
     0.6953   0.7997   1.0860   1.1002   1.1296   1.1690   1.4423   1.4628
     1.4697   1.5088   1.6354   1.7309   1.7576   1.7933   1.8123   1.8424
     1.8479   1.8774   1.8857   1.9006   1.9156   1.9678   1.9716   2.0009
     2.0147   2.0392   2.0492   2.0858   2.1120   2.1311   2.1597   2.1928
     2.2504   2.3223   2.4852   2.4879   2.5937   2.6201   2.6410   2.6567
     2.6745   2.6986   2.7015   2.7209   2.7322   2.7491   2.7695   2.7807
     2.8472   2.8494   2.8717   2.8858   2.8975   2.9174   2.9213   2.9316
     3.0338   3.0377   3.0687   3.0788   4.0462   4.0691   4.0818   4.0864
     4.3406   4.4179   4.4376   4.6785   4.8005   4.8833   5.0121   5.0962
     5.1232   5.2257   5.3179   5.4310   5.8686   5.8969   5.9744   6.0458
     6.6040   6.8092   6.9981   7.0450   7.8733   7.9222   7.9348   7.9555
     7.9950   8.0387   8.1091   8.2808   8.4000   8.6034   8.6340   8.6767
     8.6954   8.8148   8.8322

     occupation numbers 
     1.0000   1.0000   1.0000   1.0000   1.0000   1.0000   1.0000   1.0000
     1.0000   1.0000   1.0000   1.0000   1.0000   1.0000   1.0000   1.0000
     1.0000   1.0000   1.0000   1.0000   1.0000   1.0000   1.0000   1.0000
     1.0000   1.0000   1.0000   1.0000   1.0000   1.0000   1.0000   1.0000
     1.0000   1.0000   1.0000   1.0000   1.0000   1.0000   1.0000   1.0000
     1.0000   1.0000   1.0000   1.0000   1.0000   1.0000   1.0000   1.0000
     1.0000   1.0000   1.0000   1.0000   1.0000   1.0000   1.0000   1.0000
     1.0000   1.0000   1.0000   1.0000   1.0000   1.0000   1.0000   1.0000
     1.0000   1.0000   1.0000   1.0000   1.0000   1.0000   1.0000   1.0000
     1.0000   1.0000   1.0000   1.0000   1.0000   1.0000   1.0000   1.0000
     1.0000   1.0000   1.0000   1.0000   1.0000   1.0000   1.0000   1.0000
     1.0000   1.0000   1.0000   1.0000   1.0000   1.0000   1.0000   1.0000
     1.0000   1.0000   1.0000   1.0000   1.0000   1.0000   1.0000   1.0000
     1.0000   1.0000   1.0000   1.0000   1.0000   1.0000   1.0000   1.0000
     1.0000   1.0000   1.0000   1.0000   1.0000   1.0000   1.0000   1.0000
     1.0000   1.0000   1.0000   1.0000   1.0000   1.0000   1.0000   1.0000
     1.0000   1.0000   1.0000   1.0000   1.0000   1.0000   1.0000   1.0000
     1.0000   1.0000   1.0000   1.0000   1.0000   1.0000   1.0000   1.0000
     1.0000   1.0000   1.0000   1.0000   1.0000   1.0000   1.0000   1.0000
     1.0000   1.0000   1.0000   1.0000   1.0000   1.0000   1.0000   1.0000
     1.0000   0.9999   0.9996   0.9996   0.9995   0.9994   0.9976   0.9974
     0.9973   0.9968   0.9945   0.9918   0.9908   0.9894   0.9886   0.9872
     0.9869   0.9854   0.9849   0.9841   0.9832   0.9796   0.9794   0.9771
     0.9760   0.9738   0.9729   0.9693   0.9665   0.9644   0.9609   0.9566
     0.9481   0.9357   0.8994   0.8987   0.8680   0.8594   0.8523   0.8469
     0.8406   0.8317   0.8307   0.8233   0.8189   0.8122   0.8039   0.7993
     0.7705   0.7695   0.7593   0.7527   0.7472   0.7377   0.7358   0.7308
     0.6784   0.6763   0.6596   0.6541   0.1492   0.1414   0.1372   0.1357
     0.0698   0.0557   0.0525   0.0239   0.0154   0.0112   0.0067   0.0047
     0.0042   0.0026   0.0017   0.0010   0.0001   0.0001   0.0000   0.0000
     0.0000   0.0000   0.0000   0.0000   0.0000   0.0000   0.0000   0.0000
     0.0000   0.0000   0.0000   0.0000   0.0000   0.0000   0.0000   0.0000
     0.0000   0.0000   0.0000

          k = 0.2500 0.0000 0.0000 ( 65257 PWs)   bands (ev):

   -92.6817 -92.6295 -92.5357 -92.4887 -92.4293 -92.3880 -92.3715 -92.2522
   -56.0352 -56.0164 -55.8931 -55.8825 -55.8763 -55.8693 -55.8344 -55.8049
   -55.7904 -55.7874 -55.7793 -55.7373 -55.7189 -55.6807 -55.6621 -55.6291
   -55.6246 -55.5769 -55.5758 -55.5734 -55.5649 -55.5272 -55.5017 -55.4189
   -31.2576 -31.2417 -31.0979 -31.0338 -31.0118 -30.9500 -30.8466 -30.7305
   -29.8283 -29.7870 -29.7599 -29.6524 -15.0296 -14.9888 -14.9186 -14.7713
   -14.6657 -14.4714 -14.3365 -14.1565 -14.1402 -14.1098 -14.0794 -14.0537
   -14.0218 -14.0053 -13.9841 -13.9441 -13.9242 -13.8205 -13.7904 -13.6407
   -13.5721 -13.5626 -13.5002 -13.4734 -13.4618 -13.4058 -13.3270 -13.2944
   -13.2035 -13.1407 -13.1225 -13.0435 -13.0376 -13.0242 -13.0072 -12.9911
   -12.9544 -12.9177 -12.8931 -12.8409 -12.8271 -12.8012 -12.7650 -12.7516
   -12.6789 -12.6626 -12.6429 -12.5816 -12.4971 -12.3873 -12.2305 -12.0702
   -12.0001 -11.8077 -11.7555 -11.7384 -11.7252 -11.6984 -11.6478 -11.6247
   -11.6166 -11.5658 -11.4769 -11.4209 -11.4151  -2.7868  -2.5652  -2.4349
    -2.2628  -2.1989  -2.0291  -1.8214  -1.7447  -1.7001  -1.6656  -1.5650
    -1.5507  -1.5147  -1.4956  -1.4276  -1.2471  -1.1381  -1.0997  -1.0334
    -1.0011  -0.9900  -0.9102  -0.8835  -0.8333  -0.7922  -0.7394  -0.7116
    -0.6619  -0.6355  -0.6174  -0.5612  -0.5451  -0.4561  -0.4466  -0.3829
    -0.2832  -0.2332  -0.1152  -0.0979  -0.0340   0.0051   0.0651   0.0894
     0.1253   0.2109   0.2571   0.5153   0.6473   0.6914   0.7681   0.7956
     0.8392   0.8738   0.9269   1.0436   1.0856   1.1113   1.1484   1.3005
     1.3305   1.3639   1.3705   1.4095   1.4567   1.4990   1.5338   1.5849
     1.6360   1.6514   1.7089   1.7449   1.7907   1.8112   1.8977   1.9067
     1.9312   1.9801   2.0020   2.1172   2.1803   2.2403   2.3219   2.3316
     2.4130   2.4616   2.4832   2.4964   2.5211   2.5581   2.5678   2.6062
     2.6425   2.7657   2.8773   2.9006   2.9322   2.9561   2.9633   2.9857
     2.9949   3.0093   3.0298   3.0354   3.0624   3.0732   3.0804   3.0921
     3.1118   3.1377   3.1410   3.1485   3.1563   3.1658   3.1757   3.2999
     3.6067   3.6526   3.9001   4.3009   4.4777   4.7052   5.0362   5.0858
     5.6513   5.8229   5.9248   6.0316   6.0873   6.1120   6.2036   6.5993
     6.8805   7.0212   7.1291   7.3490   7.4872   7.5742   7.6094   7.6324
     7.7974   7.9373   8.0772   8.2136   8.2784   8.3692   8.4160   8.4278
     8.5107   8.7953   8.9172

[...]
     0.3493   0.3244   0.2052   0.0781   0.0464   0.0218   0.0060   0.0049
     0.0003   0.0001   0.0001   0.0000   0.0000   0.0000   0.0000   0.0000
     0.0000   0.0000   0.0000   0.0000   0.0000   0.0000   0.0000   0.0000
     0.0000   0.0000   0.0000   0.0000   0.0000   0.0000   0.0000   0.0000
     0.0000   0.0000   0.0000

          k =-0.5000 0.0000 0.0000 ( 65180 PWs)   bands (ev):

   -92.6817 -92.6295 -92.5357 -92.4887 -92.4293 -92.3880 -92.3715 -92.2522
   -56.0352 -56.0164 -55.8931 -55.8825 -55.8763 -55.8693 -55.8344 -55.8049
   -55.7904 -55.7874 -55.7793 -55.7373 -55.7189 -55.6807 -55.6621 -55.6291
   -55.6246 -55.5769 -55.5758 -55.5734 -55.5649 -55.5272 -55.5017 -55.4189
   -31.2555 -31.2439 -31.0975 -31.0337 -31.0122 -30.9498 -30.8467 -30.7307
   -29.8273 -29.7881 -29.7595 -29.6528 -14.9962 -14.9445 -14.8825 -14.7732
   -14.6702 -14.5251 -14.3817 -14.2367 -14.1133 -14.1006 -14.0893 -14.0288
   -13.9736 -13.9410 -13.9301 -13.8912 -13.8849 -13.8670 -13.8189 -13.7973
   -13.6932 -13.5361 -13.5088 -13.4759 -13.4681 -13.4114 -13.3457 -13.2785
   -13.2493 -13.2258 -13.1944 -13.0358 -13.0267 -13.0206 -12.9984 -12.9894
   -12.9408 -12.9246 -12.9061 -12.8421 -12.8271 -12.7516 -12.6783 -12.6532
   -12.6403 -12.6217 -12.6123 -12.5224 -12.4413 -12.3086 -12.2899 -12.1632
   -12.1224 -11.7596 -11.7381 -11.7314 -11.7168 -11.6988 -11.6575 -11.5944
   -11.5769 -11.5440 -11.4995 -11.4902 -11.4746  -2.5627  -2.5241  -2.3605
    -2.3214  -2.0082  -1.9329  -1.7850  -1.6671  -1.6285  -1.5813  -1.5344
    -1.5094  -1.3865  -1.3423  -1.3263  -1.2442  -1.2087  -1.1928  -1.1623
    -1.1042  -1.0416  -1.0256  -1.0065  -0.9772  -0.8824  -0.8353  -0.7862
    -0.7541  -0.7326  -0.7017  -0.6546  -0.6291  -0.5918  -0.4938  -0.4150
    -0.3554  -0.2923  -0.1331  -0.0727  -0.0374  -0.0049   0.0524   0.0772
     0.2167   0.2492   0.3252   0.4587   0.5579   0.6053   0.7241   0.7596
     0.8833   0.9151   1.0216   1.0498   1.1045   1.1381   1.1754   1.1821
     1.2299   1.2518   1.3189   1.3685   1.4150   1.4248   1.7227   1.7381
     1.7446   1.7636   1.8728   1.8872   1.9008   1.9122   1.9433   1.9564
     1.9958   2.0202   2.0440   2.0966   2.1130   2.1633   2.1890   2.2424
     2.3485   2.4462   2.4853   2.5137   2.5223   2.5348   2.6292   2.6456
     2.6787   2.7448   2.7518   2.7584   2.7878   2.8569   2.9005   2.9480
     2.9734   3.0205   3.0234   3.0265   3.0364   3.0537   3.0635   3.0768
     3.0819   3.1019   3.1080   3.1281   3.1483   3.1529   3.2815   3.2903
     4.1251   4.1415   4.2018   4.3411   4.8093   4.8791   5.0637   5.0726
     5.4992   5.5278   5.6145   5.6703   6.0504   6.0535   6.3313   6.4202
     6.8119   7.0192   7.2827   7.3121   7.3496   7.4358   7.7379   7.7943
     7.9018   8.0191   8.1101   8.3115   8.3719   8.4299   8.5352   8.6433
     8.7789   8.8328   8.9001

     occupation numbers 
     1.0000   1.0000   1.0000   1.0000   1.0000   1.0000   1.0000   1.0000
     1.0000   1.0000   1.0000   1.0000   1.0000   1.0000   1.0000   1.0000
     1.0000   1.0000   1.0000   1.0000   1.0000   1.0000   1.0000   1.0000
     1.0000   1.0000   1.0000   1.0000   1.0000   1.0000   1.0000   1.0000
     1.0000   1.0000   1.0000   1.0000   1.0000   1.0000   1.0000   1.0000
     1.0000   1.0000   1.0000   1.0000   1.0000   1.0000   1.0000   1.0000
     1.0000   1.0000   1.0000   1.0000   1.0000   1.0000   1.0000   1.0000
     1.0000   1.0000   1.0000   1.0000   1.0000   1.0000   1.0000   1.0000
     1.0000   1.0000   1.0000   1.0000   1.0000   1.0000   1.0000   1.0000
     1.0000   1.0000   1.0000   1.0000   1.0000   1.0000   1.0000   1.0000
     1.0000   1.0000   1.0000   1.0000   1.0000   1.0000   1.0000   1.0000
     1.0000   1.0000   1.0000   1.0000   1.0000   1.0000   1.0000   1.0000
     1.0000   1.0000   1.0000   1.0000   1.0000   1.0000   1.0000   1.0000
     1.0000   1.0000   1.0000   1.0000   1.0000   1.0000   1.0000   1.0000
     1.0000   1.0000   1.0000   1.0000   1.0000   1.0000   1.0000   1.0000
     1.0000   1.0000   1.0000   1.0000   1.0000   1.0000   1.0000   1.0000
     1.0000   1.0000   1.0000   1.0000   1.0000   1.0000   1.0000   1.0000
     1.0000   1.0000   1.0000   1.0000   1.0000   1.0000   1.0000   1.0000
     1.0000   1.0000   1.0000   1.0000   1.0000   1.0000   1.0000   1.0000
     1.0000   1.0000   1.0000   1.0000   1.0000   1.0000   1.0000   0.9999
     0.9999   0.9998   0.9997   0.9997   0.9996   0.9995   0.9994   0.9993
     0.9992   0.9991   0.9987   0.9983   0.9979   0.9978   0.9920   0.9915
     0.9913   0.9906   0.9856   0.9848   0.9841   0.9834   0.9814   0.9805
     0.9775   0.9755   0.9734   0.9682   0.9664   0.9604   0.9571   0.9493
     0.9307   0.9092   0.8993   0.8917   0.8893   0.8858   0.8564   0.8508
     0.8391   0.8139   0.8111   0.8085   0.7963   0.7661   0.7458   0.7227
     0.7099   0.6855   0.6840   0.6823   0.6771   0.6678   0.6625   0.6552
     0.6524   0.6414   0.6380   0.6268   0.6154   0.6128   0.5380   0.5328
     0.1236   0.1187   0.1018   0.0697   0.0149   0.0114   0.0054   0.0052
     0.0007   0.0006   0.0004   0.0003   0.0000   0.0000   0.0000   0.0000
     0.0000   0.0000   0.0000   0.0000   0.0000   0.0000   0.0000   0.0000
     0.0000   0.0000   0.0000   0.0000   0.0000   0.0000   0.0000   0.0000
     0.0000   0.0000   0.0000

          k =-0.2500 0.2500 0.0000 ( 65198 PWs)   bands (ev):

   -92.6817 -92.6295 -92.5357 -92.4887 -92.4293 -92.3880 -92.3715 -92.2522
   -56.0352 -56.0164 -55.8931 -55.8825 -55.8763 -55.8693 -55.8344 -55.8049
   -55.7904 -55.7874 -55.7793 -55.7373 -55.7189 -55.6807 -55.6621 -55.6291
   -55.6246 -55.5769 -55.5758 -55.5734 -55.5649 -55.5272 -55.5017 -55.4189
   -31.2575 -31.2415 -31.0981 -31.0335 -31.0119 -30.9503 -30.8463 -30.7308
   -29.8277 -29.7867 -29.7605 -29.6528 -14.9986 -14.9573 -14.8837 -14.7664
   -14.6553 -14.5286 -14.4430 -14.2357 -14.0962 -14.0671 -14.0533 -14.0063
   -13.9820 -13.9626 -13.9465 -13.9312 -13.8975 -13.8161 -13.8050 -13.6537
   -13.6267 -13.5982 -13.5776 -13.5318 -13.4782 -13.4239 -13.4163 -13.2835
   -13.2200 -13.2025 -13.1277 -13.0848 -13.0214 -12.9943 -12.9803 -12.9676
   -12.9308 -12.9081 -12.8827 -12.8522 -12.7926 -12.7750 -12.7518 -12.7261
   -12.6795 -12.6696 -12.6536 -12.4759 -12.4234 -12.3889 -12.2643 -12.1060
   -12.0453 -11.7798 -11.7582 -11.7312 -11.7189 -11.6780 -11.6432 -11.6203
   -11.5987 -11.5762 -11.4917 -11.4464 -11.4367  -2.6475  -2.4392  -2.3179
    -2.2302  -2.1116  -2.0453  -1.8425  -1.6971  -1.6785  -1.6495  -1.5580
    -1.5202  -1.4285  -1.3947  -1.3687  -1.2265  -1.1700  -1.1021  -1.0739
    -1.0349  -1.0101  -0.9906  -0.9514  -0.9227  -0.8828  -0.8192  -0.7720
    -0.7092  -0.6399  -0.6147  -0.5634  -0.5346  -0.4891  -0.4325  -0.3876
    -0.3451  -0.2474  -0.2123  -0.2029  -0.1579  -0.0920  -0.0238   0.0243
     0.0572   0.1319   0.2032   0.4090   0.5790   0.6182   0.6570   0.7175
     0.7989   0.8661   0.8940   0.9205   1.2020   1.3104   1.3502   1.3823
     1.3896   1.4316   1.4478   1.4928   1.5227   1.5383   1.5634   1.6072
     1.6224   1.6686   1.6874   1.7320   1.8112   1.8328   1.8519   1.8960
     1.9208   1.9595   2.0191   2.1270   2.2219   2.2531   2.2998   2.3201
     2.3867   2.4272   2.4502   2.4713   2.4807   2.5041   2.5138   2.6203
     2.6398   2.7273   2.9019   2.9107   2.9238   2.9339   2.9446   2.9584
     2.9648   2.9834   2.9930   3.0064   3.0164   3.0285   3.0384   3.0470
     3.0792   3.0892   3.0971   3.1323   3.4238   3.5056   3.5682   3.6454
     3.6676   3.8686   3.9826   4.3273   4.5287   4.7363   5.0145   5.1797
     5.6646   5.7169   5.7876   5.8516   5.9142   6.0843   6.1835   6.2162
     6.9077   6.9615   7.0883   7.2370   7.5813   7.6292   7.6900   7.8475
     7.9129   7.9893   8.1621   8.2085   8.3121   8.3515   8.4659   8.5214
     8.6039   8.6688   8.8865

     occupation numbers 
     1.0000   1.0000   1.0000   1.0000   1.0000   1.0000   1.0000   1.0000
     1.0000   1.0000   1.0000   1.0000   1.0000   1.0000   1.0000   1.0000
     1.0000   1.0000   1.0000   1.0000   1.0000   1.0000   1.0000   1.0000
     1.0000   1.0000   1.0000   1.0000   1.0000   1.0000   1.0000   1.0000
     1.0000   1.0000   1.0000   1.0000   1.0000   1.0000   1.0000   1.0000
     1.0000   1.0000   1.0000   1.0000   1.0000   1.0000   1.0000   1.0000
     1.0000   1.0000   1.0000   1.0000   1.0000   1.0000   1.0000   1.0000
     1.0000   1.0000   1.0000   1.0000   1.0000   1.0000   1.0000   1.0000
     1.0000   1.0000   1.0000   1.0000   1.0000   1.0000   1.0000   1.0000
     1.0000   1.0000   1.0000   1.0000   1.0000   1.0000   1.0000   1.0000
     1.0000   1.0000   1.0000   1.0000   1.0000   1.0000   1.0000   1.0000
     1.0000   1.0000   1.0000   1.0000   1.0000   1.0000   1.0000   1.0000
     1.0000   1.0000   1.0000   1.0000   1.0000   1.0000   1.0000   1.0000
     1.0000   1.0000   1.0000   1.0000   1.0000   1.0000   1.0000   1.0000
     1.0000   1.0000   1.0000   1.0000   1.0000   1.0000   1.0000   1.0000
     1.0000   1.0000   1.0000   1.0000   1.0000   1.0000   1.0000   1.0000
     1.0000   1.0000   1.0000   1.0000   1.0000   1.0000   1.0000   1.0000
     1.0000   1.0000   1.0000   1.0000   1.0000   1.0000   1.0000   1.0000
     1.0000   1.0000   1.0000   1.0000   1.0000   1.0000   1.0000   1.0000
     1.0000   1.0000   1.0000   1.0000   1.0000   1.0000   1.0000   1.0000
     0.9999   0.9999   0.9999   0.9998   0.9993   0.9987   0.9985   0.9982
     0.9982   0.9978   0.9976   0.9970   0.9966   0.9964   0.9959   0.9951
     0.9948   0.9936   0.9931   0.9917   0.9887   0.9877   0.9867   0.9843
     0.9828   0.9802   0.9756   0.9648   0.9524   0.9477   0.9398   0.9361
     0.9228   0.9137   0.9082   0.9030   0.9005   0.8943   0.8917   0.8593
     0.8528   0.8208   0.7451   0.7409   0.7346   0.7296   0.7243   0.7175
     0.7142   0.7048   0.6999   0.6929   0.6876   0.6813   0.6760   0.6714
     0.6539   0.6484   0.6440   0.6244   0.4539   0.4062   0.3706   0.3282
     0.3164   0.2188   0.1722   0.0725   0.0395   0.0195   0.0066   0.0032
     0.0003   0.0002   0.0001   0.0001   0.0001   0.0000   0.0000   0.0000
     0.0000   0.0000   0.0000   0.0000   0.0000   0.0000   0.0000   0.0000
     0.0000   0.0000   0.0000   0.0000   0.0000   0.0000   0.0000   0.0000
     0.0000   0.0000   0.0000

          k =-0.5000 0.2500 0.0000 ( 65138 PWs)   bands (ev):

   -92.6817 -92.6295 -92.5357 -92.4887 -92.4293 -92.3880 -92.3715 -92.2522
   -56.0352 -56.0164 -55.8931 -55.8825 -55.8763 -55.8693 -55.8344 -55.8049
   -55.7904 -55.7874 -55.7793 -55.7373 -55.7189 -55.6807 -55.6621 -55.6291
   -55.6246 -55.5769 -55.5758 -55.5734 -55.5649 -55.5272 -55.5017 -55.4189
   -31.2553 -31.2437 -31.0977 -31.0333 -31.0123 -30.9502 -30.8465 -30.7310
   -29.8267 -29.7878 -29.7601 -29.6532 -14.9634 -14.9183 -14.8396 -14.7397
   -14.6987 -14.5720 -14.4849 -14.3540 -14.0466 -14.0159 -14.0044 -13.9603
   -13.9384 -13.9298 -13.9135 -13.8772 -13.8701 -13.8457 -13.8065 -13.7948
   -13.6856 -13.6188 -13.5698 -13.5667 -13.5528 -13.4638 -13.4499 -13.3215
   -13.2590 -13.1817 -13.1455 -13.0490 -13.0088 -12.9973 -12.9810 -12.9647
   -12.9339 -12.9208 -12.8922 -12.8632 -12.7856 -12.7645 -12.7101 -12.6830
   -12.6656 -12.6035 -12.5956 -12.5206 -12.4017 -12.3038 -12.2473 -12.1573
   -12.1316 -11.7524 -11.7397 -11.7256 -11.7136 -11.6924 -11.6623 -11.5814
   -11.5730 -11.5496 -11.5139 -11.4859 -11.4771  -2.4205  -2.3784  -2.2302
    -2.1880  -2.0274  -1.9513  -1.8091  -1.6732  -1.6168  -1.5890  -1.5507
    -1.5119  -1.4317  -1.3163  -1.2592  -1.2358  -1.2100  -1.1330  -1.1052
    -1.0670  -1.0496  -1.0301  -0.9884  -0.9593  -0.9204  -0.8850  -0.8563
    -0.7981  -0.7715  -0.7299  -0.6949  -0.5900  -0.5648  -0.4753  -0.4112
    -0.3816  -0.3250  -0.2375  -0.2080  -0.1048  -0.0725  -0.0069   0.0383
     0.0653   0.1381   0.1761   0.2252   0.2542   0.2899   0.6069   0.6535
     0.7410   0.8241   1.0326   1.0981   1.1665   1.1932   1.3714   1.4060
     1.4440   1.4564   1.4752   1.4922   1.5605   1.6049   1.6431   1.6748
     1.7887   1.8300   1.8641   1.8798   1.9133   1.9352   1.9525   1.9721
     1.9881   2.0103   2.0600   2.0715   2.1089   2.1317   2.1638   2.2224
     2.3393   2.4381   2.4644   2.4873   2.5052   2.5360   2.5726   2.6461
     2.6722   2.6800   2.7174   2.7488   2.7726   2.8571   2.8985   2.9108
     2.9165   2.9375   2.9603   2.9731   2.9871   2.9997   3.0212   3.0354
     3.0445   3.0526   3.0656   3.0783   3.6090   3.6410   3.7964   3.8145
     4.1246   4.1645   4.2150   4.4249   4.8040   4.8973   5.0661   5.0976
     5.4252   5.4506   5.6041   5.6385   5.7644   5.8118   6.4035   6.4325
     6.5041   6.5481   7.2890   7.3577   7.5699   7.7270   7.7523   7.8153
     7.9084   8.0425   8.2220   8.4466   8.5235   8.5320   8.5884   8.6173
     8.6599   8.6887   8.7708

     occupation numbers 
     1.0000   1.0000   1.0000   1.0000   1.0000   1.0000   1.0000   1.0000
     1.0000   1.0000   1.0000   1.0000   1.0000   1.0000   1.0000   1.0000
     1.0000   1.0000   1.0000   1.0000   1.0000   1.0000   1.0000   1.0000
     1.0000   1.0000   1.0000   1.0000   1.0000   1.0000   1.0000   1.0000
     1.0000   1.0000   1.0000   1.0000   1.0000   1.0000   1.0000   1.0000
     1.0000   1.0000   1.0000   1.0000   1.0000   1.0000   1.0000   1.0000
     1.0000   1.0000   1.0000   1.0000   1.0000   1.0000   1.0000   1.0000
     1.0000   1.0000   1.0000   1.0000   1.0000   1.0000   1.0000   1.0000
     1.0000   1.0000   1.0000   1.0000   1.0000   1.0000   1.0000   1.0000
     1.0000   1.0000   1.0000   1.0000   1.0000   1.0000   1.0000   1.0000
     1.0000   1.0000   1.0000   1.0000   1.0000   1.0000   1.0000   1.0000
     1.0000   1.0000   1.0000   1.0000   1.0000   1.0000   1.0000   1.0000
     1.0000   1.0000   1.0000   1.0000   1.0000   1.0000   1.0000   1.0000
     1.0000   1.0000   1.0000   1.0000   1.0000   1.0000   1.0000   1.0000
     1.0000   1.0000   1.0000   1.0000   1.0000   1.0000   1.0000   1.0000
     1.0000   1.0000   1.0000   1.0000   1.0000   1.0000   1.0000   1.0000
     1.0000   1.0000   1.0000   1.0000   1.0000   1.0000   1.0000   1.0000
     1.0000   1.0000   1.0000   1.0000   1.0000   1.0000   1.0000   1.0000
     1.0000   1.0000   1.0000   1.0000   1.0000   1.0000   1.0000   1.0000
     1.0000   1.0000   1.0000   1.0000   1.0000   1.0000   1.0000   1.0000
     0.9999   0.9999   0.9997   0.9996   0.9994   0.9993   0.9983   0.9980
     0.9976   0.9975   0.9973   0.9970   0.9960   0.9951   0.9943   0.9935
     0.9896   0.9878   0.9861   0.9853   0.9833   0.9819   0.9807   0.9793
     0.9781   0.9763   0.9719   0.9708   0.9669   0.9643   0.9604   0.9524
     0.9325   0.9111   0.9047   0.8988   0.8940   0.8854   0.8745   0.8506
     0.8414   0.8386   0.8246   0.8123   0.8027   0.7660   0.7467   0.7409
     0.7381   0.7278   0.7165   0.7100   0.7029   0.6963   0.6851   0.6776
     0.6727   0.6683   0.6614   0.6544   0.3480   0.3306   0.2518   0.2432
     0.1238   0.1121   0.0984   0.0545   0.0152   0.0106   0.0053   0.0046
     0.0010   0.0009   0.0004   0.0003   0.0002   0.0001   0.0000   0.0000
     0.0000   0.0000   0.0000   0.0000   0.0000   0.0000   0.0000   0.0000
     0.0000   0.0000   0.0000   0.0000   0.0000   0.0000   0.0000   0.0000
     0.0000   0.0000   0.0000

     the Fermi energy is     3.3458 ev

!    total energy              =   -4441.64843172 Ry
     estimated scf accuracy    <          9.1E-09 Ry
     smearing contrib. (-TS)   =      -1.15481941 Ry
     internal energy E=F+TS    =   -4440.49361231 Ry

     The total energy is F=E-TS. E is the sum of the following terms:
     one-electron contribution =  -20804.04328390 Ry
     hartree contribution      =   10534.26588691 Ry
     xc contribution           =    -694.17834720 Ry
     ewald contribution        =    6799.63400151 Ry
     one-center paw contrib.   =    -276.17186964 Ry
      -> PAW hartree energy AE =      25.17887898 Ry
      -> PAW hartree energy PS =     -25.06261672 Ry
      -> PAW xc energy AE      =     -16.51974847 Ry
      -> PAW xc energy PS      =       6.87932555 Ry
      -> total E_H with PAW    =   10534.38214917 Ry
      -> total E_XC with PAW   =    -703.81877012 Ry

     convergence has been achieved in  45 iterations

     Writing all to output data dir /bsuhome/zayahcortright/scratch/pwscf.save/
 
     init_run     :      7.60s CPU      8.59s WALL (       1 calls)
     electrons    :    740.44s CPU    818.30s WALL (       1 calls)

     Called by init_run:
     wfcinit      :      6.16s CPU      6.38s WALL (       1 calls)
     wfcinit:atom :      0.04s CPU      0.07s WALL (       5 calls)
     wfcinit:wfcr :      5.86s CPU      5.97s WALL (       5 calls)
     potinit      :      0.17s CPU      0.20s WALL (       1 calls)
     hinit0       :      0.30s CPU      0.78s WALL (       1 calls)

     Called by electrons:
     c_bands      :    597.78s CPU    609.05s WALL (      45 calls)
     sum_band     :    106.76s CPU    143.63s WALL (      45 calls)
     v_of_rho     :      4.92s CPU      5.31s WALL (      46 calls)
     v_h          :      0.42s CPU      0.42s WALL (      46 calls)
     v_xc         :      4.50s CPU      4.89s WALL (      46 calls)
     newd         :     17.35s CPU     46.24s WALL (      46 calls)
     PAW_pot      :      1.53s CPU      1.56s WALL (      46 calls)
     mix_rho      :     11.74s CPU     12.14s WALL (      45 calls)

     Called by c_bands:
     init_us_2    :      6.22s CPU      6.36s WALL (     455 calls)
     init_us_2:cp :      6.21s CPU      6.36s WALL (     455 calls)
     cegterg      :    565.80s CPU    576.59s WALL (     225 calls)

     Called by sum_band:
     sum_band:wei :      0.33s CPU      0.34s WALL (      45 calls)
     sum_band:loo :     86.75s CPU     87.42s WALL (      45 calls)
     sum_band:buf :      1.27s CPU      1.31s WALL (     225 calls)
     sum_band:ini :      2.69s CPU      2.71s WALL (     225 calls)
     sum_band:cal :     17.56s CPU     17.60s WALL (     225 calls)
     sum_band:bec :      0.53s CPU      0.54s WALL (     225 calls)
     addusdens    :     15.73s CPU     51.78s WALL (      45 calls)
                                        0.00s GPU  (      45 calls)
     addusd:skk   :      0.32s CPU      2.17s WALL (     180 calls)
                                        0.00s GPU  (     180 calls)

     Called by *egterg:
     cdiaghg      :     53.90s CPU     54.12s WALL (    1195 calls)
     cegterg:over :     43.04s CPU     43.23s WALL (     970 calls)
     cegterg:upda :     45.73s CPU     46.65s WALL (     970 calls)
     cegterg:last :     66.05s CPU     66.34s WALL (     406 calls)
     cdiaghg:chol :      3.07s CPU      3.09s WALL (    1195 calls)
     cdiaghg:inve :      3.44s CPU      3.45s WALL (    1195 calls)
     cdiaghg:para :      7.07s CPU      7.12s WALL (    2390 calls)
     h_psi        :    293.36s CPU    298.06s WALL (    1200 calls)
     s_psi        :     39.64s CPU     39.78s WALL (    1200 calls)
     g_psi        :      2.10s CPU      2.11s WALL (     970 calls)

     Called by h_psi:
     h_psi:calbec :     42.49s CPU     42.80s WALL (    1200 calls)
     vloc_psi     :    205.43s CPU    207.55s WALL (    1200 calls)
     add_vuspsi   :     40.73s CPU     41.02s WALL (    1200 calls)

     General routines
     calbec       :     60.04s CPU     60.39s WALL (    1425 calls)
     fft          :      5.54s CPU      5.59s WALL (     596 calls)
     ffts         :      4.39s CPU      4.43s WALL (    4815 calls)
     fftw         :    166.88s CPU    168.38s WALL (  306349 calls)
     interpolate  :      0.39s CPU      0.40s WALL (      46 calls)
 
     Parallel routines

     PAW routines
     PAW_pot      :      1.53s CPU      1.56s WALL (      46 calls)
 
     PWSCF        :  12m29.83s CPU  13m52.36s WALL

 
   This run was terminated on:   4: 2:57  22Jun2024            

=------------------------------------------------------------------------------=
   JOB DONE.
=------------------------------------------------------------------------------=
