
     Program PWSCF v.7.2 starts on 21Jun2024 at 21:30:58 

     This program is part of the open-source Quantum ESPRESSO suite
     for quantum simulation of materials; please cite
         "P. Giannozzi et al., J. Phys.:Condens. Matter 21 395502 (2009);
         "P. Giannozzi et al., J. Phys.:Condens. Matter 29 465901 (2017);
         "P. Giannozzi et al., J. Chem. Phys. 152 154105 (2020);
          URL http://www.quantum-espresso.org", 
     in publications or presentations arising from this work. More details at
     http://www.quantum-espresso.org/quote

     Parallel version (MPI & OpenMP), running on      48 processor cores
     Number of MPI processes:                48
     Threads/MPI process:                     1

     MPI processes distributed on     1 nodes
     33228 MiB available memory on the printing compute node when the environment starts
 
     Reading input from espresso.pwi
Warning: card &CELL ignored
Warning: card / ignored
Warning: card &FCP ignored
Warning: card / ignored
Warning: card &RISM ignored
Warning: card / ignored

     Current dimensions of program PWSCF are:
     Max number of different atomic species (ntypx) = 10
     Max number of k-points (npk) =  40000
     Max angular momentum in pseudopotentials (lmaxx) =  4
     file O.pbe-n-kjpaw_psl.0.1.UPF: wavefunction(s)  2P renormalized
     signal trapping enabled: kill the code with -SIGUSR1 to stop cleanly the simulation 
 
     K-points division:     npool     =       2
     R & G space division:  proc/nbgrp/npool/nimage =      24
     Subspace diagonalization in iterative solution of the eigenvalue problem:
     one sub-group per band group will be used
     scalapack distributed-memory algorithm (size of sub-group:  3*  3 procs)

 
     Parallelization info
     --------------------
     sticks:   dense  smooth     PW     G-vecs:    dense   smooth      PW
     Min         350     175     47                61430    21716    3036
     Max         351     177     48                61449    21727    3041
     Sum        8421    4205   1137              1474595   521381   72913
 
     Using Slab Decomposition
 


     bravais-lattice index     =            0
     lattice parameter (alat)  =      14.8599  a.u.
     unit-cell volume          =    8305.1283 (a.u.)^3
     number of atoms/cell      =           50
     number of atomic types    =            4
     number of electrons       =       431.00
     number of Kohn-Sham states=          259
     kinetic-energy cutoff     =      60.0000  Ry
     charge density cutoff     =     480.0000  Ry
     scf convergence threshold =      1.0E-08
     mixing beta               =       0.1500
     number of iterations used =            8  local-TF  mixing
     Exchange-correlation= PBE
                           (   1   4   3   4   0   0   0)

     celldm(1)=  14.859904  celldm(2)=   0.000000  celldm(3)=   0.000000
     celldm(4)=   0.000000  celldm(5)=   0.000000  celldm(6)=   0.000000

     crystal axes: (cart. coord. in units of alat)
               a(1) = (   1.000000   0.000000   0.000000 )  
               a(2) = (   0.000000   1.000000   0.000000 )  
               a(3) = (   0.000000   0.000000   2.531036 )  

     reciprocal axes: (cart. coord. in units 2 pi/alat)
               b(1) = (  1.000000  0.000000  0.000000 )  
               b(2) = (  0.000000  1.000000  0.000000 )  
               b(3) = (  0.000000  0.000000  0.395095 )  


     PseudoPot. # 1 for Sr read from file:
     /bsuhome/zayahcortright/q-e/pseudo/Sr_pbe_v1.uspp.F.UPF
     MD5 check sum: 6b418c05fbe9db5448babca5e47b7a5b
     Pseudo is Ultrasoft + core correction, Zval = 10.0
     Generated by new atomic code, or converted to UPF format
     Using radial grid of  883 points,  6 beta functions with: 
                l(1) =   0
                l(2) =   0
                l(3) =   1
                l(4) =   1
                l(5) =   2
                l(6) =   2
     Q(r) pseudized with  6 coefficients,  rinner =    1.400   1.400   1.400
                                                       1.400   1.400

     PseudoPot. # 2 for O  read from file:
     /bsuhome/zayahcortright/q-e/pseudo/O.pbe-n-kjpaw_psl.0.1.UPF
     MD5 check sum: 0234752ac141de4415c5fc33072bef88
     Pseudo is Projector augmented-wave + core cor, Zval =  6.0
     Generated using "atomic" code by A. Dal Corso  v.5.0.99 svn rev. 10869
     Shape of augmentation charge: BESSEL
     Using radial grid of 1095 points,  4 beta functions with: 
                l(1) =   0
                l(2) =   0
                l(3) =   1
                l(4) =   1
     Q(r) pseudized with 0 coefficients 


     PseudoPot. # 3 for Co read from file:
     /bsuhome/zayahcortright/q-e/pseudo/Co_pbe_v1.2.uspp.F.UPF
     MD5 check sum: 5f91765df6ddd3222702df6e7b74a16d
     Pseudo is Ultrasoft + core correction, Zval = 17.0
     Generated by new atomic code, or converted to UPF format
     Using radial grid of  863 points,  6 beta functions with: 
                l(1) =   0
                l(2) =   0
                l(3) =   1
                l(4) =   1
                l(5) =   2
                l(6) =   2
     Q(r) pseudized with  8 coefficients,  rinner =    1.200   1.200   1.200
                                                       1.200   1.200

     PseudoPot. # 4 for H  read from file:
     /bsuhome/zayahcortright/q-e/pseudo/H.pbe-rrkjus_psl.1.0.0.UPF
     MD5 check sum: f52b6d4d1c606e5624b1dc7b2218f220
     Pseudo is Ultrasoft, Zval =  1.0
     Generated using "atomic" code by A. Dal Corso  v.5.1
     Using radial grid of  929 points,  2 beta functions with: 
                l(1) =   0
                l(2) =   0
     Q(r) pseudized with 0 coefficients 


     atomic species   valence    mass     pseudopotential
        Sr            10.00    87.62000     Sr( 1.00)
        O              6.00    15.99900     O ( 1.00)
        Co            17.00    58.93319     Co( 1.00)
        H              1.00     1.00800     H ( 1.00)

     No symmetry found


                                    s                        frac. trans.

      isym =  1     identity                                     

 cryst.   s( 1) = (     1          0          0      )
                  (     0          1          0      )
                  (     0          0          1      )

 cart.    s( 1) = (  1.0000000  0.0000000  0.0000000 )
                  (  0.0000000  1.0000000  0.0000000 )
                  (  0.0000000  0.0000000  1.0000000 )


   Cartesian axes

     site n.     atom                  positions (alat units)
         1           Sr  tau(   1) = (   0.2508693   0.7491307   1.7574407  )
         2           O   tau(   2) = (   0.4985141   0.5014859   1.7715967  )
         3           Sr  tau(   3) = (   0.7482398   0.7454518   1.7648669  )
         4           Sr  tau(   4) = (   0.7441748   0.2558252   1.7667843  )
         5           Sr  tau(   5) = (   0.2508693   0.7491307   1.2696799  )
         6           Sr  tau(   6) = (   0.2508693   0.7491307   0.7632319  )
         7           Co  tau(   7) = (   0.4998914   0.5001086   1.0164559  )
         8           Co  tau(   8) = (   0.4936915   0.5063085   1.5135603  )
         9           O   tau(   9) = (   0.4988895   0.7610401   1.0164559  )
        10           O   tau(  10) = (   0.2389599   0.5011105   1.0164559  )
        11           O   tau(  11) = (   0.0070918   0.7374880   1.0164559  )
        12           O   tau(  12) = (   0.0088340   0.7405089   1.5135603  )
        13           O   tau(  13) = (   0.5066944   0.7415376   1.5135603  )
        14           O   tau(  14) = (   0.2584624   0.4933056   1.5135603  )
        15           O   tau(  15) = (   0.4985141   0.5014859   0.7773880  )
        16           O   tau(  16) = (   0.4985141   0.5014859   1.2555238  )
        17           Sr  tau(  17) = (   0.7482398   0.7454518   0.7706582  )
        18           Sr  tau(  18) = (   0.7482398   0.7454518   1.2622536  )
        19           Sr  tau(  19) = (   0.7441748   0.2558252   0.7725755  )
        20           Sr  tau(  20) = (   0.7441748   0.2558252   1.2603363  )
        21           O   tau(  21) = (   0.7322655   0.0078049   1.5135603  )
        22           O   tau(  22) = (   0.7558175   0.4996027   1.5135603  )
        23           O   tau(  23) = (   0.5003973   0.2441825   1.5135603  )
        24           O   tau(  24) = (   0.7527966   0.4978604   1.0164559  )
        25           O   tau(  25) = (   0.5021396   0.2472034   1.0164559  )
        26           O   tau(  26) = (   0.7517679   0.0000000   1.0164559  )
        27           O   tau(  27) = (   0.0114961   0.4948124   1.7455321  )
        28           O   tau(  28) = (   0.0048226   0.0077944   1.7715967  )
        29           Sr  tau(  29) = (   0.2545482   0.2517602   1.7648669  )
        30           O   tau(  30) = (   0.5048017   0.0015068   1.7786929  )
        31           Co  tau(  31) = (   0.0056869   0.5006215   1.0164559  )
        32           Co  tau(  32) = (   0.0065315   0.4997770   1.5135603  )
        33           Co  tau(  33) = (   0.0061999   0.0064171   1.0164559  )
        34           Co  tau(  34) = (   0.0000000   0.0126169   1.5135603  )
        35           O   tau(  35) = (   0.0114961   0.4948124   1.2815885  )
        36           O   tau(  36) = (   0.0114961   0.4948124   0.7513233  )
        37           O   tau(  37) = (   0.0051979   0.2673486   1.0164559  )
        38           O   tau(  38) = (   0.0130029   0.2478461   1.5135603  )
        39           O   tau(  39) = (   0.0048226   0.0077944   0.7773880  )
        40           O   tau(  40) = (   0.0048226   0.0077944   1.2555238  )
        41           Sr  tau(  41) = (   0.2545482   0.2517602   0.7706582  )
        42           Sr  tau(  42) = (   0.2545482   0.2517602   1.2622536  )
        43           Co  tau(  43) = (   0.4989925   0.0073160   1.5135603  )
        44           Co  tau(  44) = (   0.4998370   0.0064714   1.0164559  )
        45           O   tau(  45) = (   0.5048017   0.0015068   0.7844841  )
        46           O   tau(  46) = (   0.5048017   0.0015068   1.2484277  )
        47           O   tau(  47) = (   0.2621260   0.0059111   1.5135603  )
        48           O   tau(  48) = (   0.2591051   0.0041689   1.0164559  )
        49           O   tau(  49) = (   0.4264937   0.8529874   2.1602013  )
        50           H   tau(  50) = (   0.4264937   0.8529874   2.2847091  )

   Crystallographic axes

     site n.     atom                  positions (cryst. coord.)
         1           Sr  tau(   1) = (  0.2508693  0.7491307  0.6943562  )
         2           O   tau(   2) = (  0.4985141  0.5014859  0.6999492  )
         3           Sr  tau(   3) = (  0.7482398  0.7454518  0.6972903  )
         4           Sr  tau(   4) = (  0.7441748  0.2558252  0.6980478  )
         5           Sr  tau(   5) = (  0.2508693  0.7491307  0.5016443  )
         6           Sr  tau(   6) = (  0.2508693  0.7491307  0.3015492  )
         7           Co  tau(   7) = (  0.4998914  0.5001086  0.4015968  )
         8           Co  tau(   8) = (  0.4936915  0.5063085  0.5980003  )
         9           O   tau(   9) = (  0.4988895  0.7610401  0.4015968  )
        10           O   tau(  10) = (  0.2389599  0.5011105  0.4015968  )
        11           O   tau(  11) = (  0.0070918  0.7374880  0.4015968  )
        12           O   tau(  12) = (  0.0088340  0.7405089  0.5980003  )
        13           O   tau(  13) = (  0.5066944  0.7415376  0.5980003  )
        14           O   tau(  14) = (  0.2584624  0.4933056  0.5980003  )
        15           O   tau(  15) = (  0.4985141  0.5014859  0.3071422  )
        16           O   tau(  16) = (  0.4985141  0.5014859  0.4960513  )
        17           Sr  tau(  17) = (  0.7482398  0.7454518  0.3044833  )
        18           Sr  tau(  18) = (  0.7482398  0.7454518  0.4987103  )
        19           Sr  tau(  19) = (  0.7441748  0.2558252  0.3052408  )
        20           Sr  tau(  20) = (  0.7441748  0.2558252  0.4979527  )
        21           O   tau(  21) = (  0.7322655  0.0078049  0.5980003  )
        22           O   tau(  22) = (  0.7558175  0.4996027  0.5980003  )
        23           O   tau(  23) = (  0.5003973  0.2441825  0.5980003  )
        24           O   tau(  24) = (  0.7527966  0.4978604  0.4015968  )
        25           O   tau(  25) = (  0.5021396  0.2472034  0.4015968  )
        26           O   tau(  26) = (  0.7517679  0.0000000  0.4015968  )
        27           O   tau(  27) = (  0.0114961  0.4948124  0.6896512  )
        28           O   tau(  28) = (  0.0048226  0.0077944  0.6999492  )
        29           Sr  tau(  29) = (  0.2545482  0.2517602  0.6972903  )
        30           O   tau(  30) = (  0.5048017  0.0015068  0.7027529  )
        31           Co  tau(  31) = (  0.0056869  0.5006215  0.4015968  )
        32           Co  tau(  32) = (  0.0065315  0.4997770  0.5980003  )
        33           Co  tau(  33) = (  0.0061999  0.0064171  0.4015968  )
        34           Co  tau(  34) = (  0.0000000  0.0126169  0.5980003  )
        35           O   tau(  35) = (  0.0114961  0.4948124  0.5063494  )
        36           O   tau(  36) = (  0.0114961  0.4948124  0.2968442  )
        37           O   tau(  37) = (  0.0051979  0.2673486  0.4015968  )
        38           O   tau(  38) = (  0.0130029  0.2478461  0.5980003  )
        39           O   tau(  39) = (  0.0048226  0.0077944  0.3071422  )
        40           O   tau(  40) = (  0.0048226  0.0077944  0.4960513  )
        41           Sr  tau(  41) = (  0.2545482  0.2517602  0.3044833  )
        42           Sr  tau(  42) = (  0.2545482  0.2517602  0.4987103  )
        43           Co  tau(  43) = (  0.4989925  0.0073160  0.5980003  )
        44           Co  tau(  44) = (  0.4998370  0.0064714  0.4015968  )
        45           O   tau(  45) = (  0.5048017  0.0015068  0.3099459  )
        46           O   tau(  46) = (  0.5048017  0.0015068  0.4932477  )
        47           O   tau(  47) = (  0.2621260  0.0059111  0.5980003  )
        48           O   tau(  48) = (  0.2591051  0.0041689  0.4015968  )
        49           O   tau(  49) = (  0.4264937  0.8529874  0.8534850  )
        50           H   tau(  50) = (  0.4264937  0.8529874  0.9026774  )

     number of k points=    10  Gaussian smearing, width (Ry)=  0.0700
                       cart. coord. in units 2pi/alat
        k(    1) = (   0.0000000   0.0000000   0.0000000), wk =   0.1250000
        k(    2) = (   0.0000000   0.2500000   0.0000000), wk =   0.2500000
        k(    3) = (   0.0000000  -0.5000000   0.0000000), wk =   0.1250000
        k(    4) = (   0.2500000   0.2500000   0.0000000), wk =   0.2500000
        k(    5) = (   0.2500000  -0.5000000   0.0000000), wk =   0.2500000
        k(    6) = (  -0.5000000  -0.5000000   0.0000000), wk =   0.1250000
        k(    7) = (   0.2500000   0.0000000   0.0000000), wk =   0.2500000
        k(    8) = (  -0.5000000   0.0000000   0.0000000), wk =   0.1250000
        k(    9) = (  -0.2500000   0.2500000   0.0000000), wk =   0.2500000
        k(   10) = (  -0.5000000   0.2500000   0.0000000), wk =   0.2500000

                       cryst. coord.
        k(    1) = (   0.0000000   0.0000000   0.0000000), wk =   0.1250000
        k(    2) = (   0.0000000   0.2500000   0.0000000), wk =   0.2500000
        k(    3) = (   0.0000000  -0.5000000   0.0000000), wk =   0.1250000
        k(    4) = (   0.2500000   0.2500000   0.0000000), wk =   0.2500000
        k(    5) = (   0.2500000  -0.5000000   0.0000000), wk =   0.2500000
        k(    6) = (  -0.5000000  -0.5000000   0.0000000), wk =   0.1250000
        k(    7) = (   0.2500000   0.0000000   0.0000000), wk =   0.2500000
        k(    8) = (  -0.5000000   0.0000000   0.0000000), wk =   0.1250000
        k(    9) = (  -0.2500000   0.2500000   0.0000000), wk =   0.2500000
        k(   10) = (  -0.5000000   0.2500000   0.0000000), wk =   0.2500000

     Dense  grid:  1474595 G-vectors     FFT dimensions: ( 108, 108, 270)

     Smooth grid:   521381 G-vectors     FFT dimensions: (  75,  75, 192)

     Dynamical RAM for                 wfc:      10.73 MB

     Dynamical RAM for     wfc (w. buffer):      64.38 MB

     Dynamical RAM for           str. fact:       3.75 MB

     Dynamical RAM for           local pot:       0.00 MB

     Dynamical RAM for          nlocal pot:      24.61 MB

     Dynamical RAM for                qrad:       7.03 MB

     Dynamical RAM for          rho,v,vnew:       6.02 MB

     Dynamical RAM for               rhoin:       2.01 MB

     Dynamical RAM for            rho*nmix:      15.00 MB

     Dynamical RAM for           G-vectors:       3.68 MB

     Dynamical RAM for          h,s,v(r/c):       1.35 MB

     Dynamical RAM for          <psi|beta>:       2.35 MB

     Dynamical RAM for                 psi:      21.46 MB

     Dynamical RAM for                hpsi:      21.46 MB

     Dynamical RAM for                spsi:      21.46 MB

     Dynamical RAM for      wfcinit/wfcrot:      34.49 MB

     Dynamical RAM for           addusdens:     101.26 MB

     Estimated static dynamical RAM per process >     121.50 MB

     Estimated max dynamical RAM per process >     237.76 MB

     Estimated total dynamical RAM >      10.79 GB

     Check: negative core charge=   -0.000004

     Initial potential from superposition of free atoms

     starting charge     422.5961, renormalised to     431.0000

     negative rho (up, down):  7.820E-01 0.000E+00
     Starting wfcs are  377 randomized atomic wfcs
     Checking if some PAW data can be deallocated... 
       PAW data deallocated on   19 nodes for type:  2

     total cpu time spent up to now is        8.9 secs

     Self-consistent Calculation

     iteration #  1     ecut=    60.00 Ry     beta= 0.15
     Davidson diagonalization with overlap

---- Real-time Memory Report at c_bands before calling an iterative solver
             0 MiB given to the printing process from OS
             0 MiB allocation reported by mallinfo(arena+hblkhd)
         23987 MiB available memory on the node where the printing process lives
------------------
     ethr =  1.00E-02,  avg # of iterations =  2.0

     negative rho (up, down):  7.718E-01 0.000E+00

     total cpu time spent up to now is       25.4 secs

     total energy              =   -4446.67889191 Ry
     estimated scf accuracy    <      44.80858590 Ry

     iteration #  2     ecut=    60.00 Ry     beta= 0.15
     Davidson diagonalization with overlap

---- Real-time Memory Report at c_bands before calling an iterative solver
             0 MiB given to the printing process from OS
             0 MiB allocation reported by mallinfo(arena+hblkhd)
         24268 MiB available memory on the node where the printing process lives
------------------
     ethr =  1.00E-02,  avg # of iterations =  1.0

     negative rho (up, down):  7.582E-01 0.000E+00

     total cpu time spent up to now is       39.9 secs

     total energy              =   -4443.26500155 Ry
     estimated scf accuracy    <      29.87924335 Ry

     iteration #  3     ecut=    60.00 Ry     beta= 0.15
     Davidson diagonalization with overlap

---- Real-time Memory Report at c_bands before calling an iterative solver
             0 MiB given to the printing process from OS
             0 MiB allocation reported by mallinfo(arena+hblkhd)
         23427 MiB available memory on the node where the printing process lives
------------------
     ethr =  6.93E-03,  avg # of iterations =  1.0

     negative rho (up, down):  7.555E-01 0.000E+00

     total cpu time spent up to now is       54.6 secs

     total energy              =   -4444.26643722 Ry
     estimated scf accuracy    <      28.88450484 Ry

     iteration #  4     ecut=    60.00 Ry     beta= 0.15
     Davidson diagonalization with overlap

---- Real-time Memory Report at c_bands before calling an iterative solver
             0 MiB given to the printing process from OS
             0 MiB allocation reported by mallinfo(arena+hblkhd)
         23396 MiB available memory on the node where the printing process lives
------------------
     ethr =  6.70E-03,  avg # of iterations =  1.0

     negative rho (up, down):  7.498E-01 0.000E+00

     total cpu time spent up to now is       69.3 secs

     total energy              =   -4443.09094457 Ry
     estimated scf accuracy    <      20.93961141 Ry

     iteration #  5     ecut=    60.00 Ry     beta= 0.15
     Davidson diagonalization with overlap

---- Real-time Memory Report at c_bands before calling an iterative solver
             0 MiB given to the printing process from OS
             0 MiB allocation reported by mallinfo(arena+hblkhd)
         23387 MiB available memory on the node where the printing process lives
------------------
     ethr =  4.86E-03,  avg # of iterations =  1.0

     negative rho (up, down):  7.401E-01 0.000E+00

     total cpu time spent up to now is       84.0 secs

     total energy              =   -4442.51751116 Ry
     estimated scf accuracy    <      10.66937249 Ry

     iteration #  6     ecut=    60.00 Ry     beta= 0.15
     Davidson diagonalization with overlap

---- Real-time Memory Report at c_bands before calling an iterative solver
             0 MiB given to the printing process from OS
             0 MiB allocation reported by mallinfo(arena+hblkhd)
         23361 MiB available memory on the node where the printing process lives
------------------
     ethr =  2.48E-03,  avg # of iterations =  1.1

     negative rho (up, down):  7.429E-01 0.000E+00

     total cpu time spent up to now is       98.9 secs

     total energy              =   -4442.81065326 Ry
     estimated scf accuracy    <       4.98136267 Ry

     iteration #  7     ecut=    60.00 Ry     beta= 0.15
     Davidson diagonalization with overlap

---- Real-time Memory Report at c_bands before calling an iterative solver
             0 MiB given to the printing process from OS
             0 MiB allocation reported by mallinfo(arena+hblkhd)
         23351 MiB available memory on the node where the printing process lives
------------------
     ethr =  1.16E-03,  avg # of iterations =  1.7

     negative rho (up, down):  7.636E-01 0.000E+00

     total cpu time spent up to now is      114.0 secs

     total energy              =   -4441.64556689 Ry
     estimated scf accuracy    <       3.98306000 Ry

     iteration #  8     ecut=    60.00 Ry     beta= 0.15
     Davidson diagonalization with overlap

---- Real-time Memory Report at c_bands before calling an iterative solver
             0 MiB given to the printing process from OS
             0 MiB allocation reported by mallinfo(arena+hblkhd)
         23329 MiB available memory on the node where the printing process lives
------------------
     ethr =  9.24E-04,  avg # of iterations =  5.8

     negative rho (up, down):  7.716E-01 0.000E+00

     total cpu time spent up to now is      134.3 secs

     total energy              =   -4441.42805391 Ry
     estimated scf accuracy    <      15.42306834 Ry

     iteration #  9     ecut=    60.00 Ry     beta= 0.15
     Davidson diagonalization with overlap

---- Real-time Memory Report at c_bands before calling an iterative solver
             0 MiB given to the printing process from OS
             0 MiB allocation reported by mallinfo(arena+hblkhd)
         23132 MiB available memory on the node where the printing process lives
------------------
     ethr =  9.24E-04,  avg # of iterations =  9.9

     negative rho (up, down):  7.700E-01 0.000E+00

     total cpu time spent up to now is      156.1 secs

     total energy              =   -4441.78723694 Ry
     estimated scf accuracy    <       2.45647610 Ry

     iteration # 10     ecut=    60.00 Ry     beta= 0.15
     Davidson diagonalization with overlap

---- Real-time Memory Report at c_bands before calling an iterative solver
             0 MiB given to the printing process from OS
             0 MiB allocation reported by mallinfo(arena+hblkhd)
         22881 MiB available memory on the node where the printing process lives
------------------
     ethr =  5.70E-04,  avg # of iterations =  1.5

     negative rho (up, down):  7.794E-01 0.000E+00

     total cpu time spent up to now is      171.7 secs

     total energy              =   -4441.91462086 Ry
     estimated scf accuracy    <       1.17964025 Ry

     iteration # 11     ecut=    60.00 Ry     beta= 0.15
     Davidson diagonalization with overlap

---- Real-time Memory Report at c_bands before calling an iterative solver
             0 MiB given to the printing process from OS
             0 MiB allocation reported by mallinfo(arena+hblkhd)
         22869 MiB available memory on the node where the printing process lives
------------------
     ethr =  2.74E-04,  avg # of iterations =  3.6

     negative rho (up, down):  8.053E-01 0.000E+00

     total cpu time spent up to now is      190.3 secs

     total energy              =   -4441.72906666 Ry
     estimated scf accuracy    <       1.52149945 Ry

     iteration # 12     ecut=    60.00 Ry     beta= 0.15
     Davidson diagonalization with overlap

---- Real-time Memory Report at c_bands before calling an iterative solver
             0 MiB given to the printing process from OS
             0 MiB allocation reported by mallinfo(arena+hblkhd)
         22851 MiB available memory on the node where the printing process lives
------------------
     ethr =  2.74E-04,  avg # of iterations =  8.4

     negative rho (up, down):  8.118E-01 0.000E+00

     total cpu time spent up to now is      210.4 secs

     total energy              =   -4441.84636327 Ry
     estimated scf accuracy    <       0.87202609 Ry

     iteration # 13     ecut=    60.00 Ry     beta= 0.15
     Davidson diagonalization with overlap

---- Real-time Memory Report at c_bands before calling an iterative solver
             0 MiB given to the printing process from OS
             0 MiB allocation reported by mallinfo(arena+hblkhd)
         22815 MiB available memory on the node where the printing process lives
------------------
     ethr =  2.02E-04,  avg # of iterations =  5.5

     negative rho (up, down):  8.188E-01 0.000E+00

     total cpu time spent up to now is      229.1 secs

     total energy              =   -4441.79031615 Ry
     estimated scf accuracy    <       0.57279762 Ry

     iteration # 14     ecut=    60.00 Ry     beta= 0.15
     Davidson diagonalization with overlap

---- Real-time Memory Report at c_bands before calling an iterative solver
             0 MiB given to the printing process from OS
             0 MiB allocation reported by mallinfo(arena+hblkhd)
         22810 MiB available memory on the node where the printing process lives
------------------
     c_bands:  1 eigenvalues not converged
     ethr =  1.33E-04,  avg # of iterations =  7.7

     negative rho (up, down):  8.279E-01 0.000E+00

     total cpu time spent up to now is      248.4 secs

     total energy              =   -4441.70808117 Ry
     estimated scf accuracy    <       0.35697340 Ry

     iteration # 15     ecut=    60.00 Ry     beta= 0.15
     Davidson diagonalization with overlap

---- Real-time Memory Report at c_bands before calling an iterative solver
             0 MiB given to the printing process from OS
             0 MiB allocation reported by mallinfo(arena+hblkhd)
         22791 MiB available memory on the node where the printing process lives
------------------
     ethr =  8.28E-05,  avg # of iterations = 12.6

     negative rho (up, down):  8.324E-01 0.000E+00

     total cpu time spent up to now is      271.7 secs

     total energy              =   -4441.72314808 Ry
     estimated scf accuracy    <       0.37895263 Ry

     iteration # 16     ecut=    60.00 Ry     beta= 0.15
     Davidson diagonalization with overlap

---- Real-time Memory Report at c_bands before calling an iterative solver
             0 MiB given to the printing process from OS
             0 MiB allocation reported by mallinfo(arena+hblkhd)
         22735 MiB available memory on the node where the printing process lives
------------------
     ethr =  8.28E-05,  avg # of iterations =  1.4

     negative rho (up, down):  8.279E-01 0.000E+00

     total cpu time spent up to now is      287.4 secs

     total energy              =   -4441.70684071 Ry
     estimated scf accuracy    <       0.26098813 Ry

     iteration # 17     ecut=    60.00 Ry     beta= 0.15
     Davidson diagonalization with overlap

---- Real-time Memory Report at c_bands before calling an iterative solver
             0 MiB given to the printing process from OS
             0 MiB allocation reported by mallinfo(arena+hblkhd)
         22742 MiB available memory on the node where the printing process lives
------------------
     ethr =  6.06E-05,  avg # of iterations =  3.3

     negative rho (up, down):  8.062E-01 0.000E+00

     total cpu time spent up to now is      304.8 secs

     total energy              =   -4441.67585522 Ry
     estimated scf accuracy    <       0.17107981 Ry

     iteration # 18     ecut=    60.00 Ry     beta= 0.15
     Davidson diagonalization with overlap

---- Real-time Memory Report at c_bands before calling an iterative solver
             0 MiB given to the printing process from OS
             0 MiB allocation reported by mallinfo(arena+hblkhd)
         22736 MiB available memory on the node where the printing process lives
------------------
     ethr =  3.97E-05,  avg # of iterations =  9.0

     negative rho (up, down):  8.424E-01 0.000E+00

     total cpu time spent up to now is      326.6 secs

     total energy              =   -4441.66230486 Ry
     estimated scf accuracy    <       0.08719372 Ry

     iteration # 19     ecut=    60.00 Ry     beta= 0.15
     Davidson diagonalization with overlap

---- Real-time Memory Report at c_bands before calling an iterative solver
             0 MiB given to the printing process from OS
             0 MiB allocation reported by mallinfo(arena+hblkhd)
         22696 MiB available memory on the node where the printing process lives
------------------
     ethr =  2.02E-05,  avg # of iterations = 10.8

     negative rho (up, down):  8.423E-01 0.000E+00

     total cpu time spent up to now is      350.2 secs

     total energy              =   -4441.66503141 Ry
     estimated scf accuracy    <       0.04332512 Ry

     iteration # 20     ecut=    60.00 Ry     beta= 0.15
     Davidson diagonalization with overlap

---- Real-time Memory Report at c_bands before calling an iterative solver
             0 MiB given to the printing process from OS
             0 MiB allocation reported by mallinfo(arena+hblkhd)
         22647 MiB available memory on the node where the printing process lives
------------------
     ethr =  1.01E-05,  avg # of iterations =  1.9

     negative rho (up, down):  8.058E-01 0.000E+00

     total cpu time spent up to now is      367.3 secs

     total energy              =   -4441.65954385 Ry
     estimated scf accuracy    <       0.03033405 Ry

     iteration # 21     ecut=    60.00 Ry     beta= 0.15
     Davidson diagonalization with overlap

---- Real-time Memory Report at c_bands before calling an iterative solver
             0 MiB given to the printing process from OS
             0 MiB allocation reported by mallinfo(arena+hblkhd)
         22611 MiB available memory on the node where the printing process lives
------------------
     ethr =  7.04E-06,  avg # of iterations =  4.0

     negative rho (up, down):  7.991E-01 0.000E+00

     total cpu time spent up to now is      385.6 secs

     total energy              =   -4441.65665673 Ry
     estimated scf accuracy    <       0.02153170 Ry

     iteration # 22     ecut=    60.00 Ry     beta= 0.15
     Davidson diagonalization with overlap

---- Real-time Memory Report at c_bands before calling an iterative solver
             0 MiB given to the printing process from OS
             0 MiB allocation reported by mallinfo(arena+hblkhd)
         22625 MiB available memory on the node where the printing process lives
------------------
     ethr =  5.00E-06,  avg # of iterations =  8.8

     negative rho (up, down):  8.012E-01 0.000E+00

     total cpu time spent up to now is      406.6 secs

     total energy              =   -4441.65576743 Ry
     estimated scf accuracy    <       0.01208284 Ry

     iteration # 23     ecut=    60.00 Ry     beta= 0.15
     Davidson diagonalization with overlap

---- Real-time Memory Report at c_bands before calling an iterative solver
             0 MiB given to the printing process from OS
             0 MiB allocation reported by mallinfo(arena+hblkhd)
         22624 MiB available memory on the node where the printing process lives
------------------
     c_bands:  1 eigenvalues not converged
     ethr =  2.80E-06,  avg # of iterations = 14.2

     negative rho (up, down):  8.000E-01 0.000E+00

     total cpu time spent up to now is      432.1 secs

     total energy              =   -4441.65497933 Ry
     estimated scf accuracy    <       0.00705815 Ry

     iteration # 24     ecut=    60.00 Ry     beta= 0.15
     Davidson diagonalization with overlap

---- Real-time Memory Report at c_bands before calling an iterative solver
             0 MiB given to the printing process from OS
             0 MiB allocation reported by mallinfo(arena+hblkhd)
         22637 MiB available memory on the node where the printing process lives
------------------
     ethr =  1.64E-06,  avg # of iterations =  3.1

     negative rho (up, down):  8.017E-01 0.000E+00

     total cpu time spent up to now is      450.2 secs

     total energy              =   -4441.65475710 Ry
     estimated scf accuracy    <       0.00376299 Ry

     iteration # 25     ecut=    60.00 Ry     beta= 0.15
     Davidson diagonalization with overlap

---- Real-time Memory Report at c_bands before calling an iterative solver
             0 MiB given to the printing process from OS
             0 MiB allocation reported by mallinfo(arena+hblkhd)
         22564 MiB available memory on the node where the printing process lives
------------------
     ethr =  8.73E-07,  avg # of iterations = 12.0

     negative rho (up, down):  7.995E-01 0.000E+00

     total cpu time spent up to now is      474.0 secs

     total energy              =   -4441.65473157 Ry
     estimated scf accuracy    <       0.00140845 Ry

     iteration # 26     ecut=    60.00 Ry     beta= 0.15
     Davidson diagonalization with overlap

---- Real-time Memory Report at c_bands before calling an iterative solver
             0 MiB given to the printing process from OS
             0 MiB allocation reported by mallinfo(arena+hblkhd)
         22548 MiB available memory on the node where the printing process lives
------------------
     ethr =  3.27E-07,  avg # of iterations =  9.6

     negative rho (up, down):  7.972E-01 0.000E+00

     total cpu time spent up to now is      496.3 secs

     total energy              =   -4441.65465120 Ry
     estimated scf accuracy    <       0.00073580 Ry

     iteration # 27     ecut=    60.00 Ry     beta= 0.15
     Davidson diagonalization with overlap

---- Real-time Memory Report at c_bands before calling an iterative solver
             0 MiB given to the printing process from OS
             0 MiB allocation reported by mallinfo(arena+hblkhd)
         22552 MiB available memory on the node where the printing process lives
------------------
     ethr =  1.71E-07,  avg # of iterations =  8.0

     negative rho (up, down):  7.959E-01 0.000E+00

     total cpu time spent up to now is      517.2 secs

     total energy              =   -4441.65464225 Ry
     estimated scf accuracy    <       0.00036479 Ry

     iteration # 28     ecut=    60.00 Ry     beta= 0.15
     Davidson diagonalization with overlap

---- Real-time Memory Report at c_bands before calling an iterative solver
             0 MiB given to the printing process from OS
             0 MiB allocation reported by mallinfo(arena+hblkhd)
         22529 MiB available memory on the node where the printing process lives
------------------
     ethr =  8.46E-08,  avg # of iterations =  2.2

     negative rho (up, down):  7.947E-01 0.000E+00

     total cpu time spent up to now is      534.5 secs

     total energy              =   -4441.65463572 Ry
     estimated scf accuracy    <       0.00021573 Ry

     iteration # 29     ecut=    60.00 Ry     beta= 0.15
     Davidson diagonalization with overlap

---- Real-time Memory Report at c_bands before calling an iterative solver
             0 MiB given to the printing process from OS
             0 MiB allocation reported by mallinfo(arena+hblkhd)
         22545 MiB available memory on the node where the printing process lives
------------------
     ethr =  5.01E-08,  avg # of iterations =  2.1

     negative rho (up, down):  7.933E-01 0.000E+00

     total cpu time spent up to now is      551.9 secs

     total energy              =   -4441.65463218 Ry
     estimated scf accuracy    <       0.00011489 Ry

     iteration # 30     ecut=    60.00 Ry     beta= 0.15
     Davidson diagonalization with overlap

---- Real-time Memory Report at c_bands before calling an iterative solver
             0 MiB given to the printing process from OS
             0 MiB allocation reported by mallinfo(arena+hblkhd)
         22548 MiB available memory on the node where the printing process lives
------------------
     ethr =  2.67E-08,  avg # of iterations =  3.1

     negative rho (up, down):  7.926E-01 0.000E+00

     total cpu time spent up to now is      569.9 secs

     total energy              =   -4441.65464469 Ry
     estimated scf accuracy    <       0.00003188 Ry

     iteration # 31     ecut=    60.00 Ry     beta= 0.15
     Davidson diagonalization with overlap

---- Real-time Memory Report at c_bands before calling an iterative solver
             0 MiB given to the printing process from OS
             0 MiB allocation reported by mallinfo(arena+hblkhd)
         22548 MiB available memory on the node where the printing process lives
------------------
     ethr =  7.40E-09,  avg # of iterations =  2.8

     negative rho (up, down):  7.926E-01 0.000E+00

     total cpu time spent up to now is      587.7 secs

     total energy              =   -4441.65464888 Ry
     estimated scf accuracy    <       0.00001091 Ry

     iteration # 32     ecut=    60.00 Ry     beta= 0.15
     Davidson diagonalization with overlap

---- Real-time Memory Report at c_bands before calling an iterative solver
             0 MiB given to the printing process from OS
             0 MiB allocation reported by mallinfo(arena+hblkhd)
         22553 MiB available memory on the node where the printing process lives
------------------
     ethr =  2.53E-09,  avg # of iterations =  2.1

     negative rho (up, down):  7.922E-01 0.000E+00

     total cpu time spent up to now is      605.0 secs

     total energy              =   -4441.65465245 Ry
     estimated scf accuracy    <       0.00000642 Ry

     iteration # 33     ecut=    60.00 Ry     beta= 0.15
     Davidson diagonalization with overlap

---- Real-time Memory Report at c_bands before calling an iterative solver
             0 MiB given to the printing process from OS
             0 MiB allocation reported by mallinfo(arena+hblkhd)
         22578 MiB available memory on the node where the printing process lives
------------------
     ethr =  1.49E-09,  avg # of iterations =  3.4

     negative rho (up, down):  7.923E-01 0.000E+00

     total cpu time spent up to now is      622.9 secs

     total energy              =   -4441.65465315 Ry
     estimated scf accuracy    <       0.00000316 Ry

     iteration # 34     ecut=    60.00 Ry     beta= 0.15
     Davidson diagonalization with overlap

---- Real-time Memory Report at c_bands before calling an iterative solver
             0 MiB given to the printing process from OS
             0 MiB allocation reported by mallinfo(arena+hblkhd)
         22570 MiB available memory on the node where the printing process lives
------------------
     ethr =  7.34E-10,  avg # of iterations =  1.9

     negative rho (up, down):  7.923E-01 0.000E+00

     total cpu time spent up to now is      639.6 secs

     total energy              =   -4441.65465408 Ry
     estimated scf accuracy    <       0.00000203 Ry

     iteration # 35     ecut=    60.00 Ry     beta= 0.15
     Davidson diagonalization with overlap

---- Real-time Memory Report at c_bands before calling an iterative solver
             0 MiB given to the printing process from OS
             0 MiB allocation reported by mallinfo(arena+hblkhd)
         22568 MiB available memory on the node where the printing process lives
------------------
     ethr =  4.70E-10,  avg # of iterations =  3.8

     negative rho (up, down):  7.924E-01 0.000E+00

     total cpu time spent up to now is      658.1 secs

     total energy              =   -4441.65465436 Ry
     estimated scf accuracy    <       0.00000106 Ry

     iteration # 36     ecut=    60.00 Ry     beta= 0.15
     Davidson diagonalization with overlap

---- Real-time Memory Report at c_bands before calling an iterative solver
             0 MiB given to the printing process from OS
             0 MiB allocation reported by mallinfo(arena+hblkhd)
         22556 MiB available memory on the node where the printing process lives
------------------
     ethr =  2.47E-10,  avg # of iterations =  2.2

     negative rho (up, down):  7.925E-01 0.000E+00

     total cpu time spent up to now is      675.6 secs

     total energy              =   -4441.65465445 Ry
     estimated scf accuracy    <       0.00000065 Ry

     iteration # 37     ecut=    60.00 Ry     beta= 0.15
     Davidson diagonalization with overlap

---- Real-time Memory Report at c_bands before calling an iterative solver
             0 MiB given to the printing process from OS
             0 MiB allocation reported by mallinfo(arena+hblkhd)
         22564 MiB available memory on the node where the printing process lives
------------------
     ethr =  1.50E-10,  avg # of iterations =  3.5

     negative rho (up, down):  7.925E-01 0.000E+00

     total cpu time spent up to now is      693.8 secs

     total energy              =   -4441.65465437 Ry
     estimated scf accuracy    <       0.00000037 Ry

     iteration # 38     ecut=    60.00 Ry     beta= 0.15
     Davidson diagonalization with overlap

---- Real-time Memory Report at c_bands before calling an iterative solver
             0 MiB given to the printing process from OS
             0 MiB allocation reported by mallinfo(arena+hblkhd)
         22564 MiB available memory on the node where the printing process lives
------------------
     ethr =  8.61E-11,  avg # of iterations =  2.9

     negative rho (up, down):  7.925E-01 0.000E+00

     total cpu time spent up to now is      711.4 secs

     total energy              =   -4441.65465434 Ry
     estimated scf accuracy    <       0.00000034 Ry

     iteration # 39     ecut=    60.00 Ry     beta= 0.15
     Davidson diagonalization with overlap

---- Real-time Memory Report at c_bands before calling an iterative solver
             0 MiB given to the printing process from OS
             0 MiB allocation reported by mallinfo(arena+hblkhd)
         22564 MiB available memory on the node where the printing process lives
------------------
     ethr =  7.79E-11,  avg # of iterations =  2.0

     negative rho (up, down):  7.925E-01 0.000E+00

     total cpu time spent up to now is      728.4 secs

     total energy              =   -4441.65465434 Ry
     estimated scf accuracy    <       0.00000028 Ry

     iteration # 40     ecut=    60.00 Ry     beta= 0.15
     Davidson diagonalization with overlap

---- Real-time Memory Report at c_bands before calling an iterative solver
             0 MiB given to the printing process from OS
             0 MiB allocation reported by mallinfo(arena+hblkhd)
         22569 MiB available memory on the node where the printing process lives
------------------
     ethr =  6.55E-11,  avg # of iterations =  2.2

     negative rho (up, down):  7.925E-01 0.000E+00

     total cpu time spent up to now is      745.8 secs

     total energy              =   -4441.65465433 Ry
     estimated scf accuracy    <       0.00000019 Ry

     iteration # 41     ecut=    60.00 Ry     beta= 0.15
     Davidson diagonalization with overlap

---- Real-time Memory Report at c_bands before calling an iterative solver
             0 MiB given to the printing process from OS
             0 MiB allocation reported by mallinfo(arena+hblkhd)
         22570 MiB available memory on the node where the printing process lives
------------------
     ethr =  4.33E-11,  avg # of iterations =  2.8

     negative rho (up, down):  7.925E-01 0.000E+00

     total cpu time spent up to now is      763.3 secs

     total energy              =   -4441.65465433 Ry
     estimated scf accuracy    <       0.00000011 Ry

     iteration # 42     ecut=    60.00 Ry     beta= 0.15
     Davidson diagonalization with overlap

---- Real-time Memory Report at c_bands before calling an iterative solver
             0 MiB given to the printing process from OS
             0 MiB allocation reported by mallinfo(arena+hblkhd)
         22578 MiB available memory on the node where the printing process lives
------------------
     ethr =  2.62E-11,  avg # of iterations =  1.8

     negative rho (up, down):  7.925E-01 0.000E+00

     total cpu time spent up to now is      780.1 secs

     total energy              =   -4441.65465437 Ry
     estimated scf accuracy    <       0.00000009 Ry

     iteration # 43     ecut=    60.00 Ry     beta= 0.15
     Davidson diagonalization with overlap

---- Real-time Memory Report at c_bands before calling an iterative solver
             0 MiB given to the printing process from OS
             0 MiB allocation reported by mallinfo(arena+hblkhd)
         22580 MiB available memory on the node where the printing process lives
------------------
     ethr =  1.98E-11,  avg # of iterations =  2.1

     negative rho (up, down):  7.925E-01 0.000E+00

     total cpu time spent up to now is      797.4 secs

     total energy              =   -4441.65465443 Ry
     estimated scf accuracy    <       0.00000007 Ry

     iteration # 44     ecut=    60.00 Ry     beta= 0.15
     Davidson diagonalization with overlap

---- Real-time Memory Report at c_bands before calling an iterative solver
             0 MiB given to the printing process from OS
             0 MiB allocation reported by mallinfo(arena+hblkhd)
         22584 MiB available memory on the node where the printing process lives
------------------
     ethr =  1.57E-11,  avg # of iterations =  3.1

     negative rho (up, down):  7.925E-01 0.000E+00

     total cpu time spent up to now is      815.1 secs

     total energy              =   -4441.65465446 Ry
     estimated scf accuracy    <       0.00000005 Ry

     iteration # 45     ecut=    60.00 Ry     beta= 0.15
     Davidson diagonalization with overlap

---- Real-time Memory Report at c_bands before calling an iterative solver
             0 MiB given to the printing process from OS
             0 MiB allocation reported by mallinfo(arena+hblkhd)
         22583 MiB available memory on the node where the printing process lives
------------------
     ethr =  1.14E-11,  avg # of iterations =  3.9

     negative rho (up, down):  7.925E-01 0.000E+00

     total cpu time spent up to now is      833.3 secs

     total energy              =   -4441.65465448 Ry
     estimated scf accuracy    <       0.00000002 Ry

     iteration # 46     ecut=    60.00 Ry     beta= 0.15
     Davidson diagonalization with overlap

---- Real-time Memory Report at c_bands before calling an iterative solver
             0 MiB given to the printing process from OS
             0 MiB allocation reported by mallinfo(arena+hblkhd)
         22577 MiB available memory on the node where the printing process lives
------------------
     ethr =  5.23E-12,  avg # of iterations =  3.8

     negative rho (up, down):  7.925E-01 0.000E+00

     total cpu time spent up to now is      851.6 secs

     total energy              =   -4441.65465447 Ry
     estimated scf accuracy    <       0.00000002 Ry

     iteration # 47     ecut=    60.00 Ry     beta= 0.15
     Davidson diagonalization with overlap

---- Real-time Memory Report at c_bands before calling an iterative solver
             0 MiB given to the printing process from OS
             0 MiB allocation reported by mallinfo(arena+hblkhd)
         22574 MiB available memory on the node where the printing process lives
------------------
     ethr =  3.85E-12,  avg # of iterations =  2.2

     negative rho (up, down):  7.925E-01 0.000E+00

     total cpu time spent up to now is      868.7 secs

     End of self-consistent calculation

          k = 0.0000 0.0000 0.0000 ( 65197 PWs)   bands (ev):

   -92.6808 -92.6271 -92.5341 -92.4878 -92.4307 -92.3869 -92.3693 -92.2477
   -56.0344 -56.0136 -55.8916 -55.8814 -55.8733 -55.8682 -55.8316 -55.8034
   -55.7879 -55.7865 -55.7779 -55.7377 -55.7196 -55.6816 -55.6604 -55.6308
   -55.6229 -55.5751 -55.5733 -55.5722 -55.5637 -55.5227 -55.4997 -55.4144
   -31.2582 -31.2387 -31.0974 -31.0279 -31.0111 -31.0104 -30.7647 -30.6863
   -29.8274 -29.7838 -29.7595 -29.6502 -15.0609 -15.0160 -14.9362 -14.8065
   -14.6136 -14.4896 -14.1982 -14.1787 -14.1479 -14.1034 -14.0597 -14.0504
   -14.0361 -14.0188 -13.9890 -13.9627 -13.9434 -13.9083 -13.7579 -13.5836
   -13.5460 -13.5159 -13.4878 -13.4687 -13.4135 -13.3795 -13.3029 -13.2307
   -13.0959 -13.0869 -13.0791 -13.0544 -13.0461 -13.0372 -12.9887 -12.9822
   -12.9642 -12.9375 -12.9032 -12.8861 -12.8749 -12.8579 -12.8483 -12.7586
   -12.7306 -12.7184 -12.6278 -12.5776 -12.5514 -12.3228 -12.1771 -11.9862
   -11.9267 -11.8408 -11.7665 -11.7559 -11.7328 -11.7154 -11.6517 -11.6347
   -11.5992 -11.5708 -11.4592 -11.3793 -11.3757  -2.9211  -2.6887  -2.4593
    -2.3122  -2.2492  -2.1072  -1.8000  -1.7860  -1.7663  -1.6827  -1.6623
    -1.5946  -1.5780  -1.5370  -1.4937  -1.3111  -1.1106  -1.0826  -1.0571
    -0.9104  -0.8960  -0.8487  -0.8320  -0.7854  -0.7673  -0.7131  -0.6867
    -0.6113  -0.5997  -0.5263  -0.3939  -0.3808  -0.3533  -0.2716  -0.2607
    -0.2488  -0.1807  -0.1072  -0.0415  -0.0102   0.0291   0.0888   0.1543
     0.2023   0.2222   0.2364   0.4928   0.5088   0.6862   0.7479   0.8221
     0.8594   0.9449   0.9628   0.9740   1.0448   1.0704   1.1055   1.1631
     1.2942   1.3574   1.3737   1.3912   1.4055   1.4732   1.5423   1.6498
     1.6588   1.7345   1.7436   1.7826   1.7969   1.8051   1.8639   1.9185
     1.9494   1.9765   2.0281   2.0498   2.1798   2.2677   2.3068   2.3222
     2.4628   2.4848   2.4988   2.5137   2.5346   2.5429   2.6437   2.6782
     2.7039   2.7225   2.7364   2.8182   2.9285   2.9586   2.9716   2.9782
     3.0462   3.0505   3.0737   3.0815   3.0900   3.1041   3.1096   3.1233
     3.1286   3.1414   3.1496   3.1580   3.1776   3.1983   3.2034   3.2157
     3.2508   3.3568   3.4299   4.1259   4.4627   4.7910   4.8784   5.0634
     5.7313   5.9581   6.0092   6.0250   6.3345   6.3816   6.4928   6.5027
     6.7256   7.0199   7.0994   7.3342   7.4300   7.5514   7.6743   7.6778
     7.7121   7.8921   7.9378   8.0335   8.1265   8.1848   8.4025   8.5286
     8.7178   8.8024   8.8815

     occupation numbers 
     1.0000   1.0000   1.0000   1.0000   1.0000   1.0000   1.0000   1.0000
     1.0000   1.0000   1.0000   1.0000   1.0000   1.0000   1.0000   1.0000
     1.0000   1.0000   1.0000   1.0000   1.0000   1.0000   1.0000   1.0000
     1.0000   1.0000   1.0000   1.0000   1.0000   1.0000   1.0000   1.0000
     1.0000   1.0000   1.0000   1.0000   1.0000   1.0000   1.0000   1.0000
     1.0000   1.0000   1.0000   1.0000   1.0000   1.0000   1.0000   1.0000
     1.0000   1.0000   1.0000   1.0000   1.0000   1.0000   1.0000   1.0000
     1.0000   1.0000   1.0000   1.0000   1.0000   1.0000   1.0000   1.0000
     1.0000   1.0000   1.0000   1.0000   1.0000   1.0000   1.0000   1.0000
     1.0000   1.0000   1.0000   1.0000   1.0000   1.0000   1.0000   1.0000
     1.0000   1.0000   1.0000   1.0000   1.0000   1.0000   1.0000   1.0000
     1.0000   1.0000   1.0000   1.0000   1.0000   1.0000   1.0000   1.0000
     1.0000   1.0000   1.0000   1.0000   1.0000   1.0000   1.0000   1.0000
     1.0000   1.0000   1.0000   1.0000   1.0000   1.0000   1.0000   1.0000
     1.0000   1.0000   1.0000   1.0000   1.0000   1.0000   1.0000   1.0000
     1.0000   1.0000   1.0000   1.0000   1.0000   1.0000   1.0000   1.0000
     1.0000   1.0000   1.0000   1.0000   1.0000   1.0000   1.0000   1.0000
     1.0000   1.0000   1.0000   1.0000   1.0000   1.0000   1.0000   1.0000
     1.0000   1.0000   1.0000   1.0000   1.0000   1.0000   1.0000   1.0000
     1.0000   1.0000   1.0000   1.0000   1.0000   1.0000   0.9999   0.9999
     0.9999   0.9998   0.9998   0.9998   0.9997   0.9996   0.9996   0.9994
     0.9989   0.9984   0.9983   0.9982   0.9980   0.9973   0.9963   0.9941
     0.9939   0.9917   0.9914   0.9899   0.9893   0.9890   0.9862   0.9831
     0.9810   0.9791   0.9749   0.9730   0.9585   0.9455   0.9388   0.9360
     0.9054   0.8998   0.8961   0.8921   0.8862   0.8838   0.8519   0.8397
     0.8303   0.8232   0.8178   0.7839   0.7329   0.7180   0.7115   0.7081
     0.6726   0.6702   0.6577   0.6534   0.6488   0.6410   0.6379   0.6302
     0.6272   0.6200   0.6154   0.6107   0.5994   0.5875   0.5846   0.5774
     0.5569   0.4943   0.4512   0.1238   0.0488   0.0160   0.0115   0.0054
     0.0002   0.0001   0.0000   0.0000   0.0000   0.0000   0.0000   0.0000
     0.0000   0.0000   0.0000   0.0000   0.0000   0.0000   0.0000   0.0000
     0.0000   0.0000   0.0000   0.0000   0.0000   0.0000   0.0000   0.0000
     0.0000   0.0000   0.0000

          k = 0.0000 0.2500 0.0000 ( 65257 PWs)   bands (ev):

   -92.6808 -92.6271 -92.5341 -92.4878 -92.4307 -92.3869 -92.3693 -92.2477
   -56.0344 -56.0136 -55.8916 -55.8814 -55.8733 -55.8682 -55.8316 -55.8034
   -55.7879 -55.7865 -55.7779 -55.7377 -55.7196 -55.6816 -55.6604 -55.6308
   -55.6229 -55.5751 -55.5733 -55.5722 -55.5637 -55.5227 -55.4997 -55.4144
   -31.2580 -31.2386 -31.0976 -31.0259 -31.0131 -31.0106 -30.7643 -30.6868
   -29.8267 -29.7835 -29.7601 -29.6505 -15.0243 -14.9900 -14.9110 -14.7771
   -14.6536 -14.4807 -14.3441 -14.1649 -14.1285 -14.1081 -14.0803 -14.0213
   -14.0152 -14.0010 -13.9791 -13.9460 -13.9298 -13.8279 -13.7874 -13.6279
   -13.6061 -13.5567 -13.5231 -13.4798 -13.4324 -13.3868 -13.3223 -13.2880
   -13.2043 -13.1525 -13.1279 -13.0890 -13.0715 -13.0300 -12.9715 -12.9496
   -12.9200 -12.9072 -12.8807 -12.8468 -12.7935 -12.7826 -12.7778 -12.7502
   -12.7197 -12.7033 -12.6085 -12.4863 -12.4394 -12.3842 -12.2284 -12.0424
   -11.9944 -11.8063 -11.7633 -11.7357 -11.7079 -11.6912 -11.6434 -11.6323
   -11.6098 -11.5747 -11.4737 -11.4210 -11.4103  -2.7858  -2.5644  -2.4268
    -2.2447  -2.2012  -2.0376  -1.8186  -1.7337  -1.7207  -1.6641  -1.5605
    -1.5442  -1.5117  -1.4841  -1.4405  -1.2427  -1.1154  -1.1094  -1.0956
    -1.0259  -1.0140  -0.9104  -0.8811  -0.8238  -0.7981  -0.7576  -0.6938
    -0.6664  -0.6349  -0.5991  -0.5843  -0.5515  -0.4779  -0.4283  -0.3668
    -0.2502  -0.2347  -0.1871  -0.0658  -0.0246   0.0366   0.0814   0.1379
     0.1554   0.1833   0.2490   0.5431   0.6281   0.6622   0.7526   0.7997
     0.8183   0.9315   0.9495   1.0482   1.0740   1.0976   1.2111   1.3048
     1.3311   1.3522   1.3678   1.3961   1.4560   1.4829   1.5111   1.5584
     1.5943   1.6251   1.7109   1.7406   1.7870   1.8284   1.8899   1.9438
     1.9629   1.9842   2.0113   2.1006   2.2177   2.2885   2.3050   2.3806
     2.4301   2.4627   2.4760   2.4917   2.5176   2.5381   2.5750   2.6606
     2.6959   2.7127   2.8856   2.9083   2.9413   2.9618   2.9789   2.9872
     2.9952   3.0047   3.0334   3.0352   3.0545   3.0575   3.0684   3.0868
     3.0988   3.1062   3.1282   3.1394   3.1439   3.1791   3.1962   3.2565
     3.6359   3.6573   3.8991   4.3151   4.4610   4.7310   5.0298   5.0869
     5.6596   5.7996   5.9158   6.0080   6.1018   6.1241   6.2036   6.6097
     6.8227   7.0652   7.1203   7.3448   7.5007   7.5130   7.5798   7.6575
     7.8662   7.9347   8.0113   8.1824   8.2381   8.3700   8.4224   8.5068
     8.5802   8.8230   8.9226

     occupation numbers 
     1.0000   1.0000   1.0000   1.0000   1.0000   1.0000   1.0000   1.0000
     1.0000   1.0000   1.0000   1.0000   1.0000   1.0000   1.0000   1.0000
     1.0000   1.0000   1.0000   1.0000   1.0000   1.0000   1.0000   1.0000
     1.0000   1.0000   1.0000   1.0000   1.0000   1.0000   1.0000   1.0000
     1.0000   1.0000   1.0000   1.0000   1.0000   1.0000   1.0000   1.0000
     1.0000   1.0000   1.0000   1.0000   1.0000   1.0000   1.0000   1.0000
     1.0000   1.0000   1.0000   1.0000   1.0000   1.0000   1.0000   1.0000
     1.0000   1.0000   1.0000   1.0000   1.0000   1.0000   1.0000   1.0000
     1.0000   1.0000   1.0000   1.0000   1.0000   1.0000   1.0000   1.0000
     1.0000   1.0000   1.0000   1.0000   1.0000   1.0000   1.0000   1.0000
     1.0000   1.0000   1.0000   1.0000   1.0000   1.0000   1.0000   1.0000
     1.0000   1.0000   1.0000   1.0000   1.0000   1.0000   1.0000   1.0000
     1.0000   1.0000   1.0000   1.0000   1.0000   1.0000   1.0000   1.0000
     1.0000   1.0000   1.0000   1.0000   1.0000   1.0000   1.0000   1.0000
     1.0000   1.0000   1.0000   1.0000   1.0000   1.0000   1.0000   1.0000
     1.0000   1.0000   1.0000   1.0000   1.0000   1.0000   1.0000   1.0000
     1.0000   1.0000   1.0000   1.0000   1.0000   1.0000   1.0000   1.0000
     1.0000   1.0000   1.0000   1.0000   1.0000   1.0000   1.0000   1.0000
     1.0000   1.0000   1.0000   1.0000   1.0000   1.0000   1.0000   1.0000
     1.0000   1.0000   1.0000   1.0000   1.0000   1.0000   0.9999   0.9999
     0.9999   0.9998   0.9998   0.9997   0.9996   0.9996   0.9992   0.9988
     0.9986   0.9985   0.9984   0.9981   0.9975   0.9972   0.9968   0.9960
     0.9954   0.9947   0.9924   0.9915   0.9897   0.9879   0.9848   0.9814
     0.9801   0.9785   0.9764   0.9679   0.9533   0.9420   0.9391   0.9244
     0.9134   0.9055   0.9021   0.8980   0.8910   0.8852   0.8742   0.8460
     0.8333   0.8270   0.7534   0.7427   0.7266   0.7165   0.7078   0.7035
     0.6994   0.6945   0.6794   0.6784   0.6681   0.6665   0.6605   0.6505
     0.6439   0.6398   0.6275   0.6212   0.6186   0.5985   0.5887   0.5536
     0.3341   0.3226   0.2062   0.0753   0.0491   0.0200   0.0062   0.0049
     0.0003   0.0001   0.0001   0.0000   0.0000   0.0000   0.0000   0.0000
     0.0000   0.0000   0.0000   0.0000   0.0000   0.0000   0.0000   0.0000
     0.0000   0.0000   0.0000   0.0000   0.0000   0.0000   0.0000   0.0000
     0.0000   0.0000   0.0000

          k = 0.0000-0.5000 0.0000 ( 65180 PWs)   bands (ev):

   -92.6808 -92.6271 -92.5341 -92.4878 -92.4307 -92.3869 -92.3693 -92.2477
   -56.0344 -56.0136 -55.8916 -55.8814 -55.8733 -55.8682 -55.8316 -55.8034
   -55.7879 -55.7865 -55.7779 -55.7377 -55.7196 -55.6816 -55.6604 -55.6308
   -55.6229 -55.5751 -55.5733 -55.5722 -55.5637 -55.5227 -55.4997 -55.4144
   -31.2578 -31.2384 -31.0978 -31.0228 -31.0162 -31.0107 -30.7639 -30.6872
   -29.8261 -29.7832 -29.7608 -29.6508 -14.9890 -14.9399 -14.8882 -14.7556
   -14.6766 -14.5360 -14.3890 -14.2556 -14.1372 -14.0652 -14.0211 -14.0163
   -13.9665 -13.9499 -13.9454 -13.9029 -13.8816 -13.8568 -13.8198 -13.7720
   -13.7417 -13.5631 -13.5053 -13.4875 -13.4366 -13.3802 -13.3384 -13.2872
   -13.2635 -13.2308 -13.1984 -13.0898 -13.0727 -13.0049 -12.9802 -12.9481
   -12.9319 -12.9093 -12.8622 -12.7872 -12.7678 -12.7488 -12.7132 -12.6866
   -12.6832 -12.6321 -12.6029 -12.4951 -12.3581 -12.3036 -12.2211 -12.1648
   -12.1226 -11.7602 -11.7579 -11.7307 -11.6942 -11.6595 -11.6484 -11.6048
   -11.6010 -11.5556 -11.4958 -11.4819 -11.4675  -2.5715  -2.5114  -2.3613
    -2.2892  -2.0084  -1.9233  -1.7976  -1.6595  -1.6241  -1.6027  -1.5250
    -1.4915  -1.4118  -1.3753  -1.2984  -1.2583  -1.2195  -1.1922  -1.1358
    -1.1079  -1.0970  -1.0457  -1.0142  -0.9825  -0.9450  -0.8383  -0.7931
    -0.7582  -0.7574  -0.6702  -0.6382  -0.6142  -0.5649  -0.4839  -0.4067
    -0.3251  -0.2973  -0.1852  -0.1389  -0.0089   0.0240   0.0581   0.1119
     0.2636   0.2944   0.4124   0.4826   0.4892   0.6175   0.6706   0.7815
     0.8985   1.0045   1.0362   1.0746   1.0784   1.1180   1.1343   1.1714
     1.1965   1.2008   1.3103   1.3709   1.3940   1.4196   1.6827   1.7196
     1.7517   1.8391   1.8669   1.8949   1.9119   1.9351   1.9599   1.9716
     1.9999   2.0244   2.0535   2.0867   2.0888   2.1234   2.1784   2.2588
     2.2929   2.4580   2.4854   2.5069   2.6247   2.6392   2.6529   2.6882
     2.6953   2.7051   2.7539   2.7652   2.8192   2.8408   2.9210   2.9308
     2.9994   3.0083   3.0296   3.0327   3.0512   3.0570   3.0592   3.0640
     3.0667   3.0803   3.0985   3.0998   3.1639   3.1700   3.1859   3.2400
     4.1475   4.1911   4.2196   4.2743   4.7558   4.9247   5.0442   5.1761
     5.4299   5.4821   5.6012   5.7352   6.0391   6.0712   6.2537   6.4736
     6.8658   6.9655   7.2405   7.2937   7.3581   7.4872   7.6642   7.7711
     7.9258   8.0091   8.1700   8.2590   8.3660   8.5010   8.5308   8.6860
     8.8305   8.8409   8.8904

     occupation numbers 
     1.0000   1.0000   1.0000   1.0000   1.0000   1.0000   1.0000   1.0000
     1.0000   1.0000   1.0000   1.0000   1.0000   1.0000   1.0000   1.0000
     1.0000   1.0000   1.0000   1.0000   1.0000   1.0000   1.0000   1.0000
     1.0000   1.0000   1.0000   1.0000   1.0000   1.0000   1.0000   1.0000
     1.0000   1.0000   1.0000   1.0000   1.0000   1.0000   1.0000   1.0000
     1.0000   1.0000   1.0000   1.0000   1.0000   1.0000   1.0000   1.0000
     1.0000   1.0000   1.0000   1.0000   1.0000   1.0000   1.0000   1.0000
     1.0000   1.0000   1.0000   1.0000   1.0000   1.0000   1.0000   1.0000
     1.0000   1.0000   1.0000   1.0000   1.0000   1.0000   1.0000   1.0000
     1.0000   1.0000   1.0000   1.0000   1.0000   1.0000   1.0000   1.0000
     1.0000   1.0000   1.0000   1.0000   1.0000   1.0000   1.0000   1.0000
     1.0000   1.0000   1.0000   1.0000   1.0000   1.0000   1.0000   1.0000
     1.0000   1.0000   1.0000   1.0000   1.0000   1.0000   1.0000   1.0000
     1.0000   1.0000   1.0000   1.0000   1.0000   1.0000   1.0000   1.0000
     1.0000   1.0000   1.0000   1.0000   1.0000   1.0000   1.0000   1.0000
     1.0000   1.0000   1.0000   1.0000   1.0000   1.0000   1.0000   1.0000
     1.0000   1.0000   1.0000   1.0000   1.0000   1.0000   1.0000   1.0000
     1.0000   1.0000   1.0000   1.0000   1.0000   1.0000   1.0000   1.0000
     1.0000   1.0000   1.0000   1.0000   1.0000   1.0000   1.0000   1.0000
     1.0000   1.0000   1.0000   1.0000   1.0000   1.0000   1.0000   0.9999
     0.9999   0.9997   0.9997   0.9996   0.9996   0.9995   0.9995   0.9994
     0.9993   0.9993   0.9988   0.9983   0.9981   0.9979   0.9933   0.9922
     0.9911   0.9874   0.9860   0.9845   0.9835   0.9820   0.9803   0.9795
     0.9773   0.9753   0.9726   0.9694   0.9692   0.9654   0.9587   0.9470
     0.9413   0.9066   0.8997   0.8939   0.8583   0.8534   0.8487   0.8361
     0.8335   0.8298   0.8109   0.8063   0.7835   0.7740   0.7366   0.7318
     0.6973   0.6926   0.6814   0.6798   0.6699   0.6667   0.6656   0.6630
     0.6615   0.6541   0.6440   0.6433   0.6072   0.6038   0.5947   0.5632
     0.1174   0.1051   0.0976   0.0843   0.0182   0.0096   0.0059   0.0033
     0.0010   0.0008   0.0004   0.0002   0.0000   0.0000   0.0000   0.0000
     0.0000   0.0000   0.0000   0.0000   0.0000   0.0000   0.0000   0.0000
     0.0000   0.0000   0.0000   0.0000   0.0000   0.0000   0.0000   0.0000
     0.0000   0.0000   0.0000

          k = 0.2500 0.2500 0.0000 ( 65198 PWs)   bands (ev):

   -92.6808 -92.6271 -92.5341 -92.4878 -92.4307 -92.3869 -92.3693 -92.2477
   -56.0344 -56.0136 -55.8916 -55.8814 -55.8733 -55.8682 -55.8316 -55.8034
   -55.7879 -55.7865 -55.7779 -55.7377 -55.7196 -55.6816 -55.6604 -55.6308
   -55.6229 -55.5751 -55.5733 -55.5722 -55.5637 -55.5227 -55.4997 -55.4144
   -31.2563 -31.2403 -31.0972 -31.0258 -31.0131 -31.0109 -30.7644 -30.6869
   -29.8258 -29.7844 -29.7597 -29.6509 -14.9955 -14.9550 -14.8833 -14.7664
   -14.6468 -14.5206 -14.4498 -14.2419 -14.0883 -14.0746 -14.0380 -14.0084
   -13.9859 -13.9610 -13.9455 -13.9224 -13.8961 -13.8196 -13.8017 -13.6435
   -13.6279 -13.5995 -13.5793 -13.5313 -13.4903 -13.4136 -13.4063 -13.2612
   -13.2372 -13.2089 -13.1217 -13.0821 -13.0306 -13.0034 -12.9972 -12.9642
   -12.9273 -12.9173 -12.8937 -12.8364 -12.7966 -12.7407 -12.7235 -12.6950
   -12.6909 -12.6511 -12.5987 -12.4332 -12.4324 -12.3750 -12.2575 -12.0755
   -12.0348 -11.7786 -11.7469 -11.7360 -11.7292 -11.6662 -11.6322 -11.6252
   -11.5893 -11.5820 -11.4902 -11.4493 -11.4316  -2.6475  -2.4386  -2.3209
    -2.2266  -2.1057  -2.0407  -1.8436  -1.6984  -1.6794  -1.6506  -1.5554
    -1.5219  -1.4269  -1.3997  -1.3495  -1.2188  -1.1703  -1.1107  -1.0917
    -1.0501  -1.0086  -0.9843  -0.9601  -0.9173  -0.9019  -0.8114  -0.7605
    -0.6967  -0.6469  -0.6143  -0.5671  -0.5497  -0.4892  -0.4408  -0.3858
    -0.3503  -0.2652  -0.2082  -0.1810  -0.1432  -0.0885   0.0009   0.0303
     0.0508   0.1363   0.1627   0.4305   0.5778   0.6132   0.6768   0.7186
     0.7737   0.8456   0.8943   0.9226   1.1941   1.2613   1.3351   1.3607
     1.4080   1.4406   1.4757   1.5136   1.5297   1.5573   1.6027   1.6102
     1.6255   1.6680   1.7098   1.7480   1.8146   1.8528   1.8621   1.9078
     1.9313   1.9877   2.0192   2.1418   2.1992   2.2332   2.2556   2.3206
     2.3966   2.4159   2.4515   2.4695   2.4851   2.4909   2.5198   2.6062
     2.6374   2.7256   2.8971   2.9134   2.9202   2.9362   2.9511   2.9633
     2.9775   2.9840   2.9940   3.0074   3.0194   3.0382   3.0438   3.0561
     3.0783   3.0899   3.0994   3.1307   3.4316   3.5264   3.5664   3.6390
     3.6763   3.8744   3.9746   4.3284   4.5452   4.7368   5.0024   5.1769
     5.6654   5.7177   5.7720   5.8569   5.9152   6.0607   6.1738   6.2261
     6.9025   6.9170   7.0847   7.2551   7.5671   7.6186   7.7268   7.8426
     7.8971   8.0207   8.1786   8.2170   8.2991   8.3595   8.4586   8.4718
     8.6150   8.7700   8.8956

     occupation numbers 
     1.0000   1.0000   1.0000   1.0000   1.0000   1.0000   1.0000   1.0000
     1.0000   1.0000   1.0000   1.0000   1.0000   1.0000   1.0000   1.0000
     1.0000   1.0000   1.0000   1.0000   1.0000   1.0000   1.0000   1.0000
     1.0000   1.0000   1.0000   1.0000   1.0000   1.0000   1.0000   1.0000
     1.0000   1.0000   1.0000   1.0000   1.0000   1.0000   1.0000   1.0000
     1.0000   1.0000   1.0000   1.0000   1.0000   1.0000   1.0000   1.0000
     1.0000   1.0000   1.0000   1.0000   1.0000   1.0000   1.0000   1.0000
     1.0000   1.0000   1.0000   1.0000   1.0000   1.0000   1.0000   1.0000
     1.0000   1.0000   1.0000   1.0000   1.0000   1.0000   1.0000   1.0000
     1.0000   1.0000   1.0000   1.0000   1.0000   1.0000   1.0000   1.0000
     1.0000   1.0000   1.0000   1.0000   1.0000   1.0000   1.0000   1.0000
     1.0000   1.0000   1.0000   1.0000   1.0000   1.0000   1.0000   1.0000
     1.0000   1.0000   1.0000   1.0000   1.0000   1.0000   1.0000   1.0000
     1.0000   1.0000   1.0000   1.0000   1.0000   1.0000   1.0000   1.0000
     1.0000   1.0000   1.0000   1.0000   1.0000   1.0000   1.0000   1.0000
     1.0000   1.0000   1.0000   1.0000   1.0000   1.0000   1.0000   1.0000
     1.0000   1.0000   1.0000   1.0000   1.0000   1.0000   1.0000   1.0000
     1.0000   1.0000   1.0000   1.0000   1.0000   1.0000   1.0000   1.0000
     1.0000   1.0000   1.0000   1.0000   1.0000   1.0000   1.0000   1.0000
     1.0000   1.0000   1.0000   1.0000   1.0000   1.0000   1.0000   1.0000
     0.9999   0.9999   0.9999   0.9998   0.9993   0.9990   0.9986   0.9984
     0.9980   0.9977   0.9973   0.9968   0.9965   0.9961   0.9952   0.9951
     0.9947   0.9937   0.9925   0.9912   0.9886   0.9868   0.9863   0.9837
     0.9822   0.9782   0.9757   0.9633   0.9559   0.9510   0.9475   0.9363
     0.9210   0.9167   0.9082   0.9038   0.8997   0.8982   0.8904   0.8644
     0.8541   0.8220   0.7480   0.7403   0.7370   0.7292   0.7218   0.7157
     0.7085   0.7052   0.7000   0.6931   0.6868   0.6768   0.6738   0.6672
     0.6552   0.6488   0.6436   0.6261   0.4501   0.3951   0.3724   0.3324
     0.3125   0.2169   0.1758   0.0726   0.0376   0.0195   0.0070   0.0033
     0.0003   0.0002   0.0002   0.0001   0.0001   0.0000   0.0000   0.0000
     0.0000   0.0000   0.0000   0.0000   0.0000   0.0000   0.0000   0.0000
     0.0000   0.0000   0.0000   0.0000   0.0000   0.0000   0.0000   0.0000
     0.0000   0.0000   0.0000

          k = 0.2500-0.5000 0.0000 ( 65138 PWs)   bands (ev):

   -92.6808 -92.6271 -92.5341 -92.4878 -92.4307 -92.3869 -92.3693 -92.2477
   -56.0344 -56.0136 -55.8916 -55.8814 -55.8733 -55.8682 -55.8316 -55.8034
   -55.7879 -55.7865 -55.7779 -55.7377 -55.7196 -55.6816 -55.6604 -55.6308
   -55.6229 -55.5751 -55.5733 -55.5722 -55.5637 -55.5227 -55.4997 -55.4144
   -31.2561 -31.2401 -31.0974 -31.0227 -31.0162 -31.0111 -30.7640 -30.6873
   -29.8251 -29.7841 -29.7604 -29.6512 -14.9585 -14.9130 -14.8451 -14.7258
   -14.6990 -14.5774 -14.4903 -14.3545 -14.0528 -13.9991 -13.9721 -13.9514
   -13.9454 -13.9345 -13.9224 -13.8872 -13.8704 -13.8344 -13.7989 -13.7676
   -13.7285 -13.6458 -13.5966 -13.5483 -13.5185 -13.4497 -13.4260 -13.3199
   -13.2888 -13.1869 -13.1226 -13.0996 -13.0144 -12.9885 -12.9663 -12.9513
   -12.9459 -12.9226 -12.8918 -12.7895 -12.7745 -12.7421 -12.7157 -12.7004
   -12.6361 -12.6067 -12.6006 -12.5016 -12.3443 -12.3010 -12.2059 -12.1544
   -12.1176 -11.7541 -11.7421 -11.7314 -11.7045 -11.6724 -11.6449 -11.6024
   -11.5758 -11.5528 -11.5087 -11.4830 -11.4714  -2.4297  -2.3631  -2.2351
    -2.1579  -2.0288  -1.9437  -1.8219  -1.6710  -1.6182  -1.5951  -1.5317
    -1.5190  -1.4227  -1.3540  -1.2697  -1.2203  -1.2107  -1.1481  -1.1092
    -1.1009  -1.0704  -1.0233  -0.9852  -0.9503  -0.9108  -0.9003  -0.8534
    -0.8238  -0.7828  -0.7517  -0.6853  -0.5850  -0.5419  -0.4657  -0.3998
    -0.3509  -0.3074  -0.2871  -0.2313  -0.0698  -0.0558   0.0363   0.0806
     0.0858   0.1273   0.1668   0.2128   0.2341   0.2966   0.5713   0.6739
     0.7426   0.8165   1.0559   1.0846   1.1706   1.1928   1.3584   1.3910
     1.4341   1.4570   1.4733   1.4927   1.5540   1.5994   1.6366   1.7152
     1.8153   1.8540   1.8716   1.8801   1.9203   1.9337   1.9431   1.9881
     1.9949   2.0261   2.0443   2.0675   2.0810   2.1201   2.1781   2.2134
     2.2928   2.4273   2.4780   2.5017   2.5780   2.5950   2.6151   2.6395
     2.6678   2.6913   2.7122   2.7274   2.7514   2.8465   2.8982   2.9151
     2.9174   2.9336   2.9537   2.9672   2.9865   2.9944   3.0268   3.0375
     3.0522   3.0616   3.0692   3.0812   3.6085   3.6153   3.7635   3.8161
     4.1680   4.2124   4.2267   4.3358   4.7761   4.9466   5.0812   5.1512
     5.3265   5.4479   5.6190   5.6421   5.7886   5.8081   6.3391   6.4113
     6.5045   6.6055   7.2253   7.3340   7.5690   7.7146   7.8284   7.8569
     7.9009   8.0563   8.2714   8.4276   8.4402   8.5502   8.5657   8.5956
     8.7306   8.7416   8.7896

     occupation numbers 
     1.0000   1.0000   1.0000   1.0000   1.0000   1.0000   1.0000   1.0000
     1.0000   1.0000   1.0000   1.0000   1.0000   1.0000   1.0000   1.0000
     1.0000   1.0000   1.0000   1.0000   1.0000   1.0000   1.0000   1.0000
     1.0000   1.0000   1.0000   1.0000   1.0000   1.0000   1.0000   1.0000
     1.0000   1.0000   1.0000   1.0000   1.0000   1.0000   1.0000   1.0000
     1.0000   1.0000   1.0000   1.0000   1.0000   1.0000   1.0000   1.0000
     1.0000   1.0000   1.0000   1.0000   1.0000   1.0000   1.0000   1.0000
     1.0000   1.0000   1.0000   1.0000   1.0000   1.0000   1.0000   1.0000
     1.0000   1.0000   1.0000   1.0000   1.0000   1.0000   1.0000   1.0000
     1.0000   1.0000   1.0000   1.0000   1.0000   1.0000   1.0000   1.0000
     1.0000   1.0000   1.0000   1.0000   1.0000   1.0000   1.0000   1.0000
     1.0000   1.0000   1.0000   1.0000   1.0000   1.0000   1.0000   1.0000
     1.0000   1.0000   1.0000   1.0000   1.0000   1.0000   1.0000   1.0000
     1.0000   1.0000   1.0000   1.0000   1.0000   1.0000   1.0000   1.0000
     1.0000   1.0000   1.0000   1.0000   1.0000   1.0000   1.0000   1.0000
     1.0000   1.0000   1.0000   1.0000   1.0000   1.0000   1.0000   1.0000
     1.0000   1.0000   1.0000   1.0000   1.0000   1.0000   1.0000   1.0000
     1.0000   1.0000   1.0000   1.0000   1.0000   1.0000   1.0000   1.0000
     1.0000   1.0000   1.0000   1.0000   1.0000   1.0000   1.0000   1.0000
     1.0000   1.0000   1.0000   1.0000   1.0000   1.0000   1.0000   1.0000
     0.9999   0.9999   0.9997   0.9996   0.9994   0.9993   0.9984   0.9982
     0.9977   0.9975   0.9973   0.9971   0.9961   0.9953   0.9945   0.9923
     0.9885   0.9867   0.9858   0.9853   0.9829   0.9821   0.9815   0.9782
     0.9777   0.9751   0.9735   0.9713   0.9700   0.9658   0.9587   0.9539
     0.9413   0.9140   0.9016   0.8954   0.8733   0.8680   0.8615   0.8534
     0.8435   0.8350   0.8271   0.8213   0.8118   0.7714   0.7475   0.7394
     0.7383   0.7304   0.7205   0.7137   0.7039   0.6998   0.6829   0.6772
     0.6693   0.6642   0.6601   0.6536   0.3490   0.3453   0.2682   0.2431
     0.1115   0.0994   0.0958   0.0711   0.0169   0.0088   0.0050   0.0037
     0.0016   0.0009   0.0004   0.0003   0.0001   0.0001   0.0000   0.0000
     0.0000   0.0000   0.0000   0.0000   0.0000   0.0000   0.0000   0.0000
     0.0000   0.0000   0.0000   0.0000   0.0000   0.0000   0.0000   0.0000
     0.0000   0.0000   0.0000

          k =-0.5000-0.5000 0.0000 ( 65132 PWs)   bands (ev):

   -92.6808 -92.6271 -92.5341 -92.4878 -92.4307 -92.3869 -92.3693 -92.2477
   -56.0344 -56.0136 -55.8916 -55.8814 -55.8733 -55.8682 -55.8316 -55.8034
   -55.7879 -55.7865 -55.7779 -55.7377 -55.7196 -55.6816 -55.6604 -55.6308
   -55.6229 -55.5751 -55.5733 -55.5722 -55.5637 -55.5227 -55.4997 -55.4144
   -31.2540 -31.2423 -31.0971 -31.0226 -31.0161 -31.0115 -30.7641 -30.6874
   -29.8241 -29.7852 -29.7600 -29.6516 -14.9117 -14.8862 -14.7677 -14.7570
   -14.6622 -14.6252 -14.5903 -14.4555 -13.9627 -13.9508 -13.9452 -13.9163
   -13.8989 -13.8800 -13.8700 -13.8378 -13.8283 -13.8160 -13.8031 -13.7883
   -13.7133 -13.7047 -13.6738 -13.6414 -13.6369 -13.5389 -13.4844 -13.3517
   -13.3403 -13.1367 -13.0973 -13.0316 -13.0059 -12.9794 -12.9647 -12.9560
   -12.9486 -12.9336 -12.9270 -12.7886 -12.7775 -12.7397 -12.7213 -12.7054
   -12.6136 -12.5846 -12.5776 -12.5177 -12.3311 -12.2973 -12.1900 -12.1444
   -12.1124 -11.7509 -11.7384 -11.7204 -11.7040 -11.6685 -11.6502 -11.6176
   -11.5564 -11.5360 -11.5306 -11.4805 -11.4770  -2.2059  -2.1298  -2.1178
    -2.0483  -2.0092  -1.9307  -1.8630  -1.7375  -1.6216  -1.5905  -1.5526
    -1.4945  -1.4224  -1.4087  -1.3371  -1.2950  -1.1781  -1.1491  -1.1136
    -1.0894  -1.0718  -1.0074  -0.9615  -0.9418  -0.9286  -0.8773  -0.8323
    -0.8172  -0.7031  -0.6445  -0.5998  -0.5495  -0.5236  -0.5128  -0.4764
    -0.4314  -0.3989  -0.3860  -0.3006  -0.2312  -0.1898  -0.1590  -0.0896
    -0.0316  -0.0046   0.0415   0.0582   0.0767   0.0890   0.5390   0.6006
     0.6840   0.7505   1.0905   1.1035   1.1334   1.1720   1.4422   1.4623
     1.4680   1.5061   1.6371   1.7340   1.7608   1.7976   1.8225   1.8439
     1.8526   1.8816   1.8963   1.9173   1.9204   1.9668   1.9713   1.9997
     2.0327   2.0509   2.0626   2.0953   2.1169   2.1344   2.1613   2.1871
     2.2534   2.3198   2.4699   2.4955   2.5937   2.6206   2.6418   2.6584
     2.6786   2.7006   2.7019   2.7227   2.7341   2.7504   2.7723   2.7825
     2.8474   2.8516   2.8715   2.8877   2.8983   2.9174   2.9221   2.9321
     3.0340   3.0403   3.0662   3.0758   4.0220   4.0540   4.1042   4.1323
     4.3393   4.4128   4.4389   4.6800   4.8018   4.8845   5.0133   5.1027
     5.1111   5.2257   5.3258   5.4111   5.8674   5.8997   5.9709   6.0403
     6.5194   6.8812   6.8857   7.1185   7.8960   7.9217   7.9607   7.9722
     7.9954   8.0433   8.1047   8.2854   8.4675   8.6045   8.6336   8.6494
     8.6776   8.7669   8.8864

     occupation numbers 
     1.0000   1.0000   1.0000   1.0000   1.0000   1.0000   1.0000   1.0000
     1.0000   1.0000   1.0000   1.0000   1.0000   1.0000   1.0000   1.0000
     1.0000   1.0000   1.0000   1.0000   1.0000   1.0000   1.0000   1.0000
     1.0000   1.0000   1.0000   1.0000   1.0000   1.0000   1.0000   1.0000
     1.0000   1.0000   1.0000   1.0000   1.0000   1.0000   1.0000   1.0000
     1.0000   1.0000   1.0000   1.0000   1.0000   1.0000   1.0000   1.0000
     1.0000   1.0000   1.0000   1.0000   1.0000   1.0000   1.0000   1.0000
     1.0000   1.0000   1.0000   1.0000   1.0000   1.0000   1.0000   1.0000
     1.0000   1.0000   1.0000   1.0000   1.0000   1.0000   1.0000   1.0000
     1.0000   1.0000   1.0000   1.0000   1.0000   1.0000   1.0000   1.0000
     1.0000   1.0000   1.0000   1.0000   1.0000   1.0000   1.0000   1.0000
     1.0000   1.0000   1.0000   1.0000   1.0000   1.0000   1.0000   1.0000
     1.0000   1.0000   1.0000   1.0000   1.0000   1.0000   1.0000   1.0000
     1.0000   1.0000   1.0000   1.0000   1.0000   1.0000   1.0000   1.0000
     1.0000   1.0000   1.0000   1.0000   1.0000   1.0000   1.0000   1.0000
     1.0000   1.0000   1.0000   1.0000   1.0000   1.0000   1.0000   1.0000
     1.0000   1.0000   1.0000   1.0000   1.0000   1.0000   1.0000   1.0000
     1.0000   1.0000   1.0000   1.0000   1.0000   1.0000   1.0000   1.0000
     1.0000   1.0000   1.0000   1.0000   1.0000   1.0000   1.0000   1.0000
     1.0000   1.0000   1.0000   1.0000   1.0000   1.0000   1.0000   1.0000
     1.0000   0.9999   0.9996   0.9996   0.9995   0.9994   0.9977   0.9974
     0.9974   0.9969   0.9944   0.9917   0.9908   0.9893   0.9882   0.9872
     0.9868   0.9852   0.9844   0.9831   0.9829   0.9798   0.9795   0.9773
     0.9745   0.9729   0.9718   0.9685   0.9661   0.9641   0.9609   0.9575
     0.9478   0.9364   0.9037   0.8970   0.8684   0.8597   0.8526   0.8468
     0.8396   0.8315   0.8310   0.8231   0.8187   0.8123   0.8034   0.7991
     0.7710   0.7691   0.7600   0.7525   0.7475   0.7383   0.7361   0.7312
     0.6791   0.6757   0.6618   0.6565   0.1582   0.1470   0.1305   0.1218
     0.0703   0.0568   0.0525   0.0239   0.0154   0.0112   0.0067   0.0046
     0.0044   0.0026   0.0017   0.0011   0.0001   0.0001   0.0000   0.0000
     0.0000   0.0000   0.0000   0.0000   0.0000   0.0000   0.0000   0.0000
     0.0000   0.0000   0.0000   0.0000   0.0000   0.0000   0.0000   0.0000
     0.0000   0.0000   0.0000

          k = 0.2500 0.0000 0.0000 ( 65257 PWs)   bands (ev):

   -92.6808 -92.6271 -92.5341 -92.4878 -92.4307 -92.3869 -92.3693 -92.2477
   -56.0344 -56.0136 -55.8916 -55.8814 -55.8733 -55.8682 -55.8316 -55.8034
   -55.7879 -55.7865 -55.7779 -55.7377 -55.7196 -55.6816 -55.6604 -55.6308
   -55.6229 -55.5751 -55.5733 -55.5722 -55.5637 -55.5227 -55.4998 -55.4144
   -31.2565 -31.2404 -31.0970 -31.0278 -31.0110 -31.0108 -30.7648 -30.6864
   -29.8264 -29.7848 -29.7591 -29.6506 -15.0280 -14.9850 -14.9168 -14.7697
   -14.6638 -14.4671 -14.3356 -14.1550 -14.1379 -14.1086 -14.0782 -14.0524
   -14.0176 -14.0030 -13.9766 -13.9476 -13.9319 -13.8205 -13.7889 -13.6395
   -13.5708 -13.5621 -13.5016 -13.4721 -13.4592 -13.3948 -13.3252 -13.2932
   -13.1851 -13.1409 -13.1342 -13.0499 -13.0395 -13.0237 -13.0068 -12.9908
   -12.9545 -12.9204 -12.8974 -12.8680 -12.8494 -12.8003 -12.7517 -12.7285
   -12.6340 -12.6016 -12.5790 -12.5461 -12.5050 -12.3863 -12.2294 -12.0388
   -11.9901 -11.8056 -11.7539 -11.7362 -11.7232 -11.6964 -11.6462 -11.6225
   -11.6147 -11.5644 -11.4750 -11.4192 -11.4133  -2.7852  -2.5635  -2.4336
    -2.2609  -2.1972  -2.0273  -1.8202  -1.7427  -1.6988  -1.6644  -1.5632
[...]
     0.3505   0.3297   0.2047   0.0791   0.0439   0.0217   0.0062   0.0049
     0.0003   0.0001   0.0001   0.0000   0.0000   0.0000   0.0000   0.0000
     0.0000   0.0000   0.0000   0.0000   0.0000   0.0000   0.0000   0.0000
     0.0000   0.0000   0.0000   0.0000   0.0000   0.0000   0.0000   0.0000
     0.0000   0.0000   0.0000

          k =-0.5000 0.0000 0.0000 ( 65180 PWs)   bands (ev):

   -92.6808 -92.6271 -92.5341 -92.4878 -92.4307 -92.3869 -92.3693 -92.2477
   -56.0344 -56.0136 -55.8916 -55.8814 -55.8733 -55.8682 -55.8316 -55.8034
   -55.7879 -55.7865 -55.7779 -55.7377 -55.7196 -55.6816 -55.6604 -55.6308
   -55.6229 -55.5751 -55.5733 -55.5722 -55.5637 -55.5227 -55.4997 -55.4144
   -31.2543 -31.2426 -31.0967 -31.0277 -31.0112 -31.0109 -30.7649 -30.6865
   -29.8254 -29.7858 -29.7587 -29.6510 -14.9940 -14.9418 -14.8796 -14.7725
   -14.6673 -14.5250 -14.3749 -14.2390 -14.1116 -14.1004 -14.0880 -14.0173
   -13.9711 -13.9459 -13.9363 -13.8868 -13.8837 -13.8676 -13.8183 -13.8006
   -13.6876 -13.5343 -13.5100 -13.4746 -13.4671 -13.3891 -13.3444 -13.2758
   -13.2484 -13.2247 -13.2021 -13.0403 -13.0348 -13.0222 -12.9979 -12.9902
   -12.9304 -12.9267 -12.9067 -12.8700 -12.8498 -12.7233 -12.6346 -12.6205
   -12.6109 -12.5825 -12.5593 -12.5212 -12.4366 -12.3142 -12.3073 -12.1313
   -12.0912 -11.7578 -11.7362 -11.7294 -11.7146 -11.6965 -11.6546 -11.5932
   -11.5759 -11.5430 -11.4973 -11.4881 -11.4727  -2.5609  -2.5226  -2.3589
    -2.3197  -2.0062  -1.9323  -1.7825  -1.6655  -1.6267  -1.5820  -1.5329
    -1.5081  -1.3846  -1.3403  -1.3249  -1.2430  -1.2075  -1.1928  -1.1605
    -1.1126  -1.0949  -1.0331  -1.0049  -0.9756  -0.8761  -0.8331  -0.7836
    -0.7514  -0.7295  -0.7010  -0.6528  -0.6274  -0.5853  -0.4939  -0.4153
    -0.3563  -0.2935  -0.1072  -0.0882  -0.0347  -0.0052   0.0734   0.0793
     0.2231   0.2500   0.2875   0.4618   0.5606   0.6100   0.6869   0.7895
     0.8817   0.9045   1.0320   1.0528   1.1055   1.1288   1.1728   1.1866
     1.2287   1.2544   1.3224   1.3685   1.4165   1.4216   1.7320   1.7347
     1.7517   1.7924   1.8837   1.8894   1.9131   1.9276   1.9440   1.9556
     1.9999   2.0191   2.0537   2.0985   2.1152   2.1638   2.1960   2.2413
     2.3469   2.4652   2.4693   2.5029   2.5307   2.5430   2.6270   2.6470
     2.6774   2.7439   2.7512   2.7592   2.7882   2.8575   2.9042   2.9456
     2.9807   3.0203   3.0248   3.0256   3.0380   3.0519   3.0641   3.0789
     3.0816   3.1047   3.1074   3.1307   3.1498   3.1551   3.2855   3.2933
     4.0851   4.1462   4.2142   4.3726   4.8122   4.8862   5.0575   5.0722
     5.5003   5.5252   5.6135   5.6722   6.0426   6.0568   6.2444   6.4893
     6.8111   7.0167   7.2906   7.3019   7.3443   7.4442   7.6846   7.7951
     7.9043   7.9416   8.1168   8.3655   8.3795   8.5158   8.5398   8.6508
     8.7734   8.8291   8.9165

     occupation numbers 
     1.0000   1.0000   1.0000   1.0000   1.0000   1.0000   1.0000   1.0000
     1.0000   1.0000   1.0000   1.0000   1.0000   1.0000   1.0000   1.0000
     1.0000   1.0000   1.0000   1.0000   1.0000   1.0000   1.0000   1.0000
     1.0000   1.0000   1.0000   1.0000   1.0000   1.0000   1.0000   1.0000
     1.0000   1.0000   1.0000   1.0000   1.0000   1.0000   1.0000   1.0000
     1.0000   1.0000   1.0000   1.0000   1.0000   1.0000   1.0000   1.0000
     1.0000   1.0000   1.0000   1.0000   1.0000   1.0000   1.0000   1.0000
     1.0000   1.0000   1.0000   1.0000   1.0000   1.0000   1.0000   1.0000
     1.0000   1.0000   1.0000   1.0000   1.0000   1.0000   1.0000   1.0000
     1.0000   1.0000   1.0000   1.0000   1.0000   1.0000   1.0000   1.0000
     1.0000   1.0000   1.0000   1.0000   1.0000   1.0000   1.0000   1.0000
     1.0000   1.0000   1.0000   1.0000   1.0000   1.0000   1.0000   1.0000
     1.0000   1.0000   1.0000   1.0000   1.0000   1.0000   1.0000   1.0000
     1.0000   1.0000   1.0000   1.0000   1.0000   1.0000   1.0000   1.0000
     1.0000   1.0000   1.0000   1.0000   1.0000   1.0000   1.0000   1.0000
     1.0000   1.0000   1.0000   1.0000   1.0000   1.0000   1.0000   1.0000
     1.0000   1.0000   1.0000   1.0000   1.0000   1.0000   1.0000   1.0000
     1.0000   1.0000   1.0000   1.0000   1.0000   1.0000   1.0000   1.0000
     1.0000   1.0000   1.0000   1.0000   1.0000   1.0000   1.0000   1.0000
     1.0000   1.0000   1.0000   1.0000   1.0000   1.0000   1.0000   0.9999
     0.9999   0.9999   0.9997   0.9997   0.9996   0.9995   0.9994   0.9993
     0.9992   0.9991   0.9987   0.9983   0.9979   0.9979   0.9918   0.9917
     0.9911   0.9895   0.9851   0.9848   0.9834   0.9825   0.9814   0.9806
     0.9773   0.9757   0.9726   0.9681   0.9663   0.9606   0.9563   0.9497
     0.9313   0.9049   0.9038   0.8950   0.8873   0.8838   0.8576   0.8508
     0.8400   0.8148   0.8119   0.8087   0.7968   0.7664   0.7447   0.7245
     0.7068   0.6863   0.6839   0.6835   0.6769   0.6695   0.6629   0.6548
     0.6533   0.6406   0.6391   0.6261   0.6153   0.6123   0.5365   0.5319
     0.1366   0.1177   0.0990   0.0639   0.0148   0.0111   0.0055   0.0052
     0.0007   0.0006   0.0004   0.0003   0.0000   0.0000   0.0000   0.0000
     0.0000   0.0000   0.0000   0.0000   0.0000   0.0000   0.0000   0.0000
     0.0000   0.0000   0.0000   0.0000   0.0000   0.0000   0.0000   0.0000
     0.0000   0.0000   0.0000

          k =-0.2500 0.2500 0.0000 ( 65198 PWs)   bands (ev):

   -92.6808 -92.6271 -92.5341 -92.4878 -92.4307 -92.3869 -92.3693 -92.2477
   -56.0344 -56.0136 -55.8916 -55.8814 -55.8733 -55.8682 -55.8316 -55.8034
   -55.7879 -55.7865 -55.7779 -55.7377 -55.7196 -55.6816 -55.6604 -55.6308
   -55.6229 -55.5751 -55.5733 -55.5722 -55.5637 -55.5227 -55.4997 -55.4144
   -31.2563 -31.2403 -31.0972 -31.0258 -31.0131 -31.0109 -30.7644 -30.6869
   -29.8258 -29.7844 -29.7597 -29.6509 -14.9968 -14.9540 -14.8816 -14.7650
   -14.6528 -14.5248 -14.4420 -14.2331 -14.0946 -14.0648 -14.0526 -14.0033
   -13.9805 -13.9625 -13.9466 -13.9374 -13.8948 -13.8161 -13.8024 -13.6520
   -13.6248 -13.5959 -13.5761 -13.5351 -13.4766 -13.4160 -13.4075 -13.2627
   -13.2398 -13.2034 -13.1260 -13.0835 -13.0200 -13.0034 -12.9883 -12.9672
   -12.9351 -12.9090 -12.9008 -12.8354 -12.8040 -12.7523 -12.7362 -12.6942
   -12.6727 -12.6555 -12.5947 -12.4512 -12.4223 -12.3556 -12.2633 -12.0690
   -12.0429 -11.7777 -11.7562 -11.7293 -11.7171 -11.6758 -11.6420 -11.6179
   -11.5972 -11.5741 -11.4900 -11.4446 -11.4350  -2.6459  -2.4375  -2.3167
    -2.2282  -2.1099  -2.0435  -1.8413  -1.6952  -1.6771  -1.6486  -1.5560
    -1.5208  -1.4266  -1.3934  -1.3668  -1.2241  -1.1689  -1.1055  -1.0998
    -1.0708  -1.0111  -0.9895  -0.9496  -0.9210  -0.8808  -0.8176  -0.7687
    -0.7088  -0.6379  -0.6102  -0.5606  -0.5317  -0.4858  -0.4315  -0.3879
    -0.3448  -0.2466  -0.2109  -0.1977  -0.1572  -0.0893  -0.0048   0.0356
     0.0591   0.1376   0.1615   0.4118   0.5791   0.6226   0.6647   0.7249
     0.7791   0.8447   0.8988   0.9229   1.2019   1.3118   1.3524   1.3840
     1.3890   1.4343   1.4509   1.4948   1.5259   1.5400   1.5655   1.6111
     1.6263   1.6684   1.6843   1.7300   1.8300   1.8456   1.8605   1.9066
     1.9279   1.9635   2.0357   2.1336   2.2290   2.2544   2.3004   2.3205
     2.3876   2.4327   2.4560   2.4701   2.4856   2.5049   2.5155   2.6050
     2.6358   2.7258   2.9036   2.9122   2.9256   2.9360   2.9465   2.9605
     2.9670   2.9845   2.9928   3.0082   3.0176   3.0304   3.0395   3.0456
     3.0796   3.0902   3.0984   3.1324   3.4247   3.5071   3.5710   3.6532
     3.6741   3.8586   3.9834   4.3275   4.5444   4.7374   5.0121   5.1769
     5.6663   5.7154   5.7748   5.8545   5.9161   6.0611   6.1840   6.2144
     6.8964   6.9200   7.0976   7.2419   7.5810   7.6245   7.6847   7.8618
     7.9202   7.9877   8.1942   8.2276   8.3303   8.3578   8.4614   8.4707
     8.5437   8.7884   8.9091

     occupation numbers 
     1.0000   1.0000   1.0000   1.0000   1.0000   1.0000   1.0000   1.0000
     1.0000   1.0000   1.0000   1.0000   1.0000   1.0000   1.0000   1.0000
     1.0000   1.0000   1.0000   1.0000   1.0000   1.0000   1.0000   1.0000
     1.0000   1.0000   1.0000   1.0000   1.0000   1.0000   1.0000   1.0000
     1.0000   1.0000   1.0000   1.0000   1.0000   1.0000   1.0000   1.0000
     1.0000   1.0000   1.0000   1.0000   1.0000   1.0000   1.0000   1.0000
     1.0000   1.0000   1.0000   1.0000   1.0000   1.0000   1.0000   1.0000
     1.0000   1.0000   1.0000   1.0000   1.0000   1.0000   1.0000   1.0000
     1.0000   1.0000   1.0000   1.0000   1.0000   1.0000   1.0000   1.0000
     1.0000   1.0000   1.0000   1.0000   1.0000   1.0000   1.0000   1.0000
     1.0000   1.0000   1.0000   1.0000   1.0000   1.0000   1.0000   1.0000
     1.0000   1.0000   1.0000   1.0000   1.0000   1.0000   1.0000   1.0000
     1.0000   1.0000   1.0000   1.0000   1.0000   1.0000   1.0000   1.0000
     1.0000   1.0000   1.0000   1.0000   1.0000   1.0000   1.0000   1.0000
     1.0000   1.0000   1.0000   1.0000   1.0000   1.0000   1.0000   1.0000
     1.0000   1.0000   1.0000   1.0000   1.0000   1.0000   1.0000   1.0000
     1.0000   1.0000   1.0000   1.0000   1.0000   1.0000   1.0000   1.0000
     1.0000   1.0000   1.0000   1.0000   1.0000   1.0000   1.0000   1.0000
     1.0000   1.0000   1.0000   1.0000   1.0000   1.0000   1.0000   1.0000
     1.0000   1.0000   1.0000   1.0000   1.0000   1.0000   1.0000   1.0000
     0.9999   0.9999   0.9999   0.9998   0.9993   0.9987   0.9985   0.9982
     0.9982   0.9977   0.9976   0.9970   0.9966   0.9964   0.9959   0.9950
     0.9947   0.9937   0.9932   0.9918   0.9879   0.9871   0.9864   0.9838
     0.9825   0.9800   0.9743   0.9642   0.9516   0.9477   0.9400   0.9363
     0.9229   0.9128   0.9071   0.9036   0.8996   0.8945   0.8916   0.8648
     0.8546   0.8219   0.7449   0.7408   0.7343   0.7293   0.7241   0.7171
     0.7138   0.7049   0.7006   0.6926   0.6877   0.6810   0.6761   0.6728
     0.6544   0.6486   0.6441   0.6251   0.4542   0.4062   0.3698   0.3248
     0.3137   0.2238   0.1724   0.0727   0.0377   0.0195   0.0067   0.0033
     0.0003   0.0002   0.0002   0.0001   0.0001   0.0000   0.0000   0.0000
     0.0000   0.0000   0.0000   0.0000   0.0000   0.0000   0.0000   0.0000
     0.0000   0.0000   0.0000   0.0000   0.0000   0.0000   0.0000   0.0000
     0.0000   0.0000   0.0000

          k =-0.5000 0.2500 0.0000 ( 65138 PWs)   bands (ev):

   -92.6808 -92.6271 -92.5341 -92.4878 -92.4307 -92.3869 -92.3693 -92.2477
   -56.0344 -56.0136 -55.8916 -55.8814 -55.8733 -55.8682 -55.8316 -55.8034
   -55.7879 -55.7865 -55.7779 -55.7377 -55.7196 -55.6816 -55.6604 -55.6308
   -55.6229 -55.5751 -55.5733 -55.5722 -55.5637 -55.5227 -55.4997 -55.4144
   -31.2542 -31.2424 -31.0969 -31.0257 -31.0130 -31.0113 -30.7645 -30.6869
   -29.8248 -29.7855 -29.7593 -29.6513 -14.9611 -14.9158 -14.8367 -14.7381
   -14.6974 -14.5712 -14.4792 -14.3532 -14.0453 -14.0136 -14.0018 -13.9565
   -13.9451 -13.9338 -13.9110 -13.8736 -13.8689 -13.8457 -13.8066 -13.7953
   -13.6821 -13.6171 -13.5694 -13.5663 -13.5521 -13.4500 -13.4363 -13.3135
   -13.2754 -13.1800 -13.1444 -13.0483 -13.0076 -12.9979 -12.9938 -12.9692
   -12.9373 -12.9206 -12.9024 -12.8646 -12.8036 -12.7311 -12.6721 -12.6440
   -12.6032 -12.5990 -12.5868 -12.5192 -12.3750 -12.3028 -12.2541 -12.1300
   -12.1023 -11.7506 -11.7378 -11.7235 -11.7117 -11.6900 -11.6596 -11.5803
   -11.5717 -11.5484 -11.5119 -11.4838 -11.4752  -2.4186  -2.3769  -2.2286
    -2.1862  -2.0252  -1.9509  -1.8069  -1.6718  -1.6156  -1.5888  -1.5490
    -1.5105  -1.4296  -1.3144  -1.2576  -1.2345  -1.2090  -1.1359  -1.1099
    -1.0969  -1.0608  -1.0472  -0.9860  -0.9579  -0.9179  -0.8829  -0.8540
    -0.7966  -0.7684  -0.7262  -0.6935  -0.5896  -0.5595  -0.4760  -0.4105
    -0.3804  -0.3265  -0.2381  -0.2006  -0.1048  -0.0528  -0.0073   0.0509
     0.0715   0.1442   0.1673   0.1990   0.2519   0.2934   0.6005   0.6785
     0.7322   0.7891   1.0445   1.0916   1.1689   1.1945   1.3699   1.4077
     1.4451   1.4570   1.4758   1.4934   1.5634   1.6047   1.6501   1.6730
     1.8153   1.8398   1.8644   1.8763   1.9309   1.9464   1.9619   1.9730
     1.9944   2.0154   2.0662   2.0755   2.1094   2.1323   2.1721   2.2198
     2.3390   2.4461   2.4620   2.4796   2.5050   2.5439   2.5739   2.6440
     2.6735   2.6795   2.7174   2.7505   2.7734   2.8572   2.8999   2.9126
     2.9174   2.9387   2.9617   2.9742   2.9897   3.0020   3.0235   3.0354
     3.0464   3.0535   3.0640   3.0749   3.6017   3.6621   3.7946   3.8201
     4.0926   4.1734   4.2223   4.4446   4.8068   4.9040   5.0569   5.0995
     5.4231   5.4510   5.6038   5.6372   5.7688   5.8012   6.3311   6.4070
     6.5107   6.6189   7.2301   7.3347   7.5646   7.7283   7.8089   7.8491
     7.9129   8.0423   8.2541   8.4180   8.4735   8.5600   8.5844   8.5984
     8.6824   8.7485   8.7755

     occupation numbers 
     1.0000   1.0000   1.0000   1.0000   1.0000   1.0000   1.0000   1.0000
     1.0000   1.0000   1.0000   1.0000   1.0000   1.0000   1.0000   1.0000
     1.0000   1.0000   1.0000   1.0000   1.0000   1.0000   1.0000   1.0000
     1.0000   1.0000   1.0000   1.0000   1.0000   1.0000   1.0000   1.0000
     1.0000   1.0000   1.0000   1.0000   1.0000   1.0000   1.0000   1.0000
     1.0000   1.0000   1.0000   1.0000   1.0000   1.0000   1.0000   1.0000
     1.0000   1.0000   1.0000   1.0000   1.0000   1.0000   1.0000   1.0000
     1.0000   1.0000   1.0000   1.0000   1.0000   1.0000   1.0000   1.0000
     1.0000   1.0000   1.0000   1.0000   1.0000   1.0000   1.0000   1.0000
     1.0000   1.0000   1.0000   1.0000   1.0000   1.0000   1.0000   1.0000
     1.0000   1.0000   1.0000   1.0000   1.0000   1.0000   1.0000   1.0000
     1.0000   1.0000   1.0000   1.0000   1.0000   1.0000   1.0000   1.0000
     1.0000   1.0000   1.0000   1.0000   1.0000   1.0000   1.0000   1.0000
     1.0000   1.0000   1.0000   1.0000   1.0000   1.0000   1.0000   1.0000
     1.0000   1.0000   1.0000   1.0000   1.0000   1.0000   1.0000   1.0000
     1.0000   1.0000   1.0000   1.0000   1.0000   1.0000   1.0000   1.0000
     1.0000   1.0000   1.0000   1.0000   1.0000   1.0000   1.0000   1.0000
     1.0000   1.0000   1.0000   1.0000   1.0000   1.0000   1.0000   1.0000
     1.0000   1.0000   1.0000   1.0000   1.0000   1.0000   1.0000   1.0000
     1.0000   1.0000   1.0000   1.0000   1.0000   1.0000   1.0000   1.0000
     0.9999   0.9999   0.9997   0.9996   0.9994   0.9993   0.9983   0.9980
     0.9976   0.9975   0.9973   0.9970   0.9960   0.9952   0.9941   0.9935
     0.9885   0.9874   0.9862   0.9855   0.9823   0.9812   0.9802   0.9794
     0.9777   0.9760   0.9714   0.9705   0.9670   0.9644   0.9595   0.9529
     0.9328   0.9096   0.9057   0.9012   0.8945   0.8835   0.8746   0.8518
     0.8414   0.8393   0.8252   0.8122   0.8029   0.7666   0.7467   0.7406
     0.7383   0.7279   0.7165   0.7102   0.7022   0.6959   0.6846   0.6783
     0.6725   0.6686   0.6629   0.6570   0.3528   0.3200   0.2532   0.2413
     0.1342   0.1099   0.0969   0.0516   0.0151   0.0104   0.0056   0.0046
     0.0010   0.0009   0.0004   0.0003   0.0002   0.0001   0.0000   0.0000
     0.0000   0.0000   0.0000   0.0000   0.0000   0.0000   0.0000   0.0000
     0.0000   0.0000   0.0000   0.0000   0.0000   0.0000   0.0000   0.0000
     0.0000   0.0000   0.0000

     the Fermi energy is     3.3472 ev

!    total energy              =   -4441.65465447 Ry
     estimated scf accuracy    <          8.7E-09 Ry
     smearing contrib. (-TS)   =      -1.15505336 Ry
     internal energy E=F+TS    =   -4440.49960110 Ry

     The total energy is F=E-TS. E is the sum of the following terms:
     one-electron contribution =  -20804.88806861 Ry
     hartree contribution      =   10534.72132365 Ry
     xc contribution           =    -694.18180203 Ry
     ewald contribution        =    6800.01931256 Ry
     one-center paw contrib.   =    -276.17036667 Ry
      -> PAW hartree energy AE =      25.14657007 Ry
      -> PAW hartree energy PS =     -25.03064048 Ry
      -> PAW xc energy AE      =     -16.51516814 Ry
      -> PAW xc energy PS      =       6.87452099 Ry
      -> total E_H with PAW    =   10534.83725324 Ry
      -> total E_XC with PAW   =    -703.82244918 Ry

     convergence has been achieved in  47 iterations

     Writing all to output data dir /bsuhome/zayahcortright/scratch/pwscf.save/
 
     init_run     :      7.61s CPU      8.42s WALL (       1 calls)
     electrons    :    776.49s CPU    860.06s WALL (       1 calls)

     Called by init_run:
     wfcinit      :      6.07s CPU      6.30s WALL (       1 calls)
     wfcinit:atom :      0.04s CPU      0.07s WALL (       5 calls)
     wfcinit:wfcr :      5.74s CPU      5.87s WALL (       5 calls)
     potinit      :      0.16s CPU      0.19s WALL (       1 calls)
     hinit0       :      0.49s CPU      0.79s WALL (       1 calls)

     Called by electrons:
     c_bands      :    627.37s CPU    640.00s WALL (      47 calls)
     sum_band     :    110.46s CPU    150.41s WALL (      47 calls)
     v_of_rho     :      5.32s CPU      5.72s WALL (      48 calls)
     v_h          :      0.42s CPU      0.43s WALL (      48 calls)
     v_xc         :      4.90s CPU      5.29s WALL (      48 calls)
     newd         :     18.88s CPU     49.02s WALL (      48 calls)
     PAW_pot      :      1.61s CPU      1.64s WALL (      48 calls)
     mix_rho      :     12.54s CPU     13.00s WALL (      47 calls)

     Called by c_bands:
     init_us_2    :      6.14s CPU      6.23s WALL (     475 calls)
     init_us_2:cp :      6.14s CPU      6.23s WALL (     475 calls)
     cegterg      :    595.24s CPU    607.52s WALL (     235 calls)

     Called by sum_band:
     sum_band:wei :      0.34s CPU      0.35s WALL (      47 calls)
     sum_band:loo :     90.43s CPU     91.21s WALL (      47 calls)
     sum_band:buf :      1.23s CPU      1.28s WALL (     235 calls)
     sum_band:ini :      2.67s CPU      2.68s WALL (     235 calls)
     sum_band:cal :     18.71s CPU     18.79s WALL (     235 calls)
     sum_band:bec :      0.55s CPU      0.59s WALL (     235 calls)
     addusdens    :     17.89s CPU     56.98s WALL (      47 calls)
                                        0.00s GPU  (      47 calls)
     addusd:skk   :      0.29s CPU      2.13s WALL (     188 calls)
                                        0.00s GPU  (     188 calls)

     Called by *egterg:
     cdiaghg      :     58.58s CPU     58.85s WALL (    1289 calls)
     cegterg:over :     50.38s CPU     50.57s WALL (    1054 calls)
     cegterg:upda :     50.02s CPU     51.17s WALL (    1054 calls)
     cegterg:last :     70.42s CPU     70.69s WALL (     429 calls)
     cdiaghg:chol :      3.28s CPU      3.30s WALL (    1289 calls)
     cdiaghg:inve :      3.69s CPU      3.71s WALL (    1289 calls)
     cdiaghg:para :      7.51s CPU      7.57s WALL (    2578 calls)
     h_psi        :    300.84s CPU    305.64s WALL (    1294 calls)
     s_psi        :     37.91s CPU     38.05s WALL (    1294 calls)
     g_psi        :      2.40s CPU      2.41s WALL (    1054 calls)

     Called by h_psi:
     h_psi:calbec :     45.20s CPU     45.41s WALL (    1294 calls)
     vloc_psi     :    212.04s CPU    214.16s WALL (    1294 calls)
     add_vuspsi   :     37.72s CPU     37.92s WALL (    1294 calls)

     General routines
     calbec       :     63.90s CPU     64.20s WALL (    1529 calls)
     fft          :      4.03s CPU      4.09s WALL (     622 calls)
     ffts         :      4.52s CPU      4.58s WALL (    5087 calls)
     fftw         :    188.85s CPU    190.43s WALL (  319183 calls)
     interpolate  :      0.41s CPU      0.42s WALL (      48 calls)
 
     Parallel routines

     PAW routines
     PAW_pot      :      1.61s CPU      1.64s WALL (      48 calls)
 
     PWSCF        :  13m 6.12s CPU  14m33.29s WALL

 
   This run was terminated on:  21:45:31  21Jun2024            

=------------------------------------------------------------------------------=
   JOB DONE.
=------------------------------------------------------------------------------=
