
     Program PWSCF v.7.2 starts on 21Jun2024 at 19:51:34 

     This program is part of the open-source Quantum ESPRESSO suite
     for quantum simulation of materials; please cite
         "P. Giannozzi et al., J. Phys.:Condens. Matter 21 395502 (2009);
         "P. Giannozzi et al., J. Phys.:Condens. Matter 29 465901 (2017);
         "P. Giannozzi et al., J. Chem. Phys. 152 154105 (2020);
          URL http://www.quantum-espresso.org", 
     in publications or presentations arising from this work. More details at
     http://www.quantum-espresso.org/quote

     Parallel version (MPI & OpenMP), running on      48 processor cores
     Number of MPI processes:                48
     Threads/MPI process:                     1

     MPI processes distributed on     1 nodes
     33230 MiB available memory on the printing compute node when the environment starts
 
     Reading input from espresso.pwi
Warning: card &CELL ignored
Warning: card / ignored
Warning: card &FCP ignored
Warning: card / ignored
Warning: card &RISM ignored
Warning: card / ignored

     Current dimensions of program PWSCF are:
     Max number of different atomic species (ntypx) = 10
     Max number of k-points (npk) =  40000
     Max angular momentum in pseudopotentials (lmaxx) =  4
     file O.pbe-n-kjpaw_psl.0.1.UPF: wavefunction(s)  2P renormalized
     signal trapping enabled: kill the code with -SIGUSR1 to stop cleanly the simulation 
 
     K-points division:     npool     =       2
     R & G space division:  proc/nbgrp/npool/nimage =      24
     Subspace diagonalization in iterative solution of the eigenvalue problem:
     one sub-group per band group will be used
     scalapack distributed-memory algorithm (size of sub-group:  3*  3 procs)

 
     Parallelization info
     --------------------
     sticks:   dense  smooth     PW     G-vecs:    dense   smooth      PW
     Min         350     175     47                61430    21716    3036
     Max         351     177     48                61449    21727    3041
     Sum        8421    4205   1137              1474595   521381   72913
 
     Using Slab Decomposition
 


     bravais-lattice index     =            0
     lattice parameter (alat)  =      14.8599  a.u.
     unit-cell volume          =    8305.1283 (a.u.)^3
     number of atoms/cell      =           50
     number of atomic types    =            4
     number of electrons       =       431.00
     number of Kohn-Sham states=          259
     kinetic-energy cutoff     =      60.0000  Ry
     charge density cutoff     =     480.0000  Ry
     scf convergence threshold =      1.0E-08
     mixing beta               =       0.1500
     number of iterations used =            8  local-TF  mixing
     Exchange-correlation= PBE
                           (   1   4   3   4   0   0   0)

     celldm(1)=  14.859904  celldm(2)=   0.000000  celldm(3)=   0.000000
     celldm(4)=   0.000000  celldm(5)=   0.000000  celldm(6)=   0.000000

     crystal axes: (cart. coord. in units of alat)
               a(1) = (   1.000000   0.000000   0.000000 )  
               a(2) = (   0.000000   1.000000   0.000000 )  
               a(3) = (   0.000000   0.000000   2.531036 )  

     reciprocal axes: (cart. coord. in units 2 pi/alat)
               b(1) = (  1.000000  0.000000  0.000000 )  
               b(2) = (  0.000000  1.000000  0.000000 )  
               b(3) = (  0.000000  0.000000  0.395095 )  


     PseudoPot. # 1 for Sr read from file:
     /bsuhome/zayahcortright/q-e/pseudo/Sr_pbe_v1.uspp.F.UPF
     MD5 check sum: 6b418c05fbe9db5448babca5e47b7a5b
     Pseudo is Ultrasoft + core correction, Zval = 10.0
     Generated by new atomic code, or converted to UPF format
     Using radial grid of  883 points,  6 beta functions with: 
                l(1) =   0
                l(2) =   0
                l(3) =   1
                l(4) =   1
                l(5) =   2
                l(6) =   2
     Q(r) pseudized with  6 coefficients,  rinner =    1.400   1.400   1.400
                                                       1.400   1.400

     PseudoPot. # 2 for O  read from file:
     /bsuhome/zayahcortright/q-e/pseudo/O.pbe-n-kjpaw_psl.0.1.UPF
     MD5 check sum: 0234752ac141de4415c5fc33072bef88
     Pseudo is Projector augmented-wave + core cor, Zval =  6.0
     Generated using "atomic" code by A. Dal Corso  v.5.0.99 svn rev. 10869
     Shape of augmentation charge: BESSEL
     Using radial grid of 1095 points,  4 beta functions with: 
                l(1) =   0
                l(2) =   0
                l(3) =   1
                l(4) =   1
     Q(r) pseudized with 0 coefficients 


     PseudoPot. # 3 for Co read from file:
     /bsuhome/zayahcortright/q-e/pseudo/Co_pbe_v1.2.uspp.F.UPF
     MD5 check sum: 5f91765df6ddd3222702df6e7b74a16d
     Pseudo is Ultrasoft + core correction, Zval = 17.0
     Generated by new atomic code, or converted to UPF format
     Using radial grid of  863 points,  6 beta functions with: 
                l(1) =   0
                l(2) =   0
                l(3) =   1
                l(4) =   1
                l(5) =   2
                l(6) =   2
     Q(r) pseudized with  8 coefficients,  rinner =    1.200   1.200   1.200
                                                       1.200   1.200

     PseudoPot. # 4 for H  read from file:
     /bsuhome/zayahcortright/q-e/pseudo/H.pbe-rrkjus_psl.1.0.0.UPF
     MD5 check sum: f52b6d4d1c606e5624b1dc7b2218f220
     Pseudo is Ultrasoft, Zval =  1.0
     Generated using "atomic" code by A. Dal Corso  v.5.1
     Using radial grid of  929 points,  2 beta functions with: 
                l(1) =   0
                l(2) =   0
     Q(r) pseudized with 0 coefficients 


     atomic species   valence    mass     pseudopotential
        Sr            10.00    87.62000     Sr( 1.00)
        O              6.00    15.99900     O ( 1.00)
        Co            17.00    58.93319     Co( 1.00)
        H              1.00     1.00800     H ( 1.00)

     No symmetry found


                                    s                        frac. trans.

      isym =  1     identity                                     

 cryst.   s( 1) = (     1          0          0      )
                  (     0          1          0      )
                  (     0          0          1      )

 cart.    s( 1) = (  1.0000000  0.0000000  0.0000000 )
                  (  0.0000000  1.0000000  0.0000000 )
                  (  0.0000000  0.0000000  1.0000000 )


   Cartesian axes

     site n.     atom                  positions (alat units)
         1           Sr  tau(   1) = (   0.2508693   0.7491307   1.7574407  )
         2           O   tau(   2) = (   0.4985141   0.5014859   1.7715967  )
         3           Sr  tau(   3) = (   0.7482398   0.7454518   1.7648669  )
         4           Sr  tau(   4) = (   0.7441748   0.2558252   1.7667843  )
         5           Sr  tau(   5) = (   0.2508693   0.7491307   1.2696799  )
         6           Sr  tau(   6) = (   0.2508693   0.7491307   0.7632319  )
         7           Co  tau(   7) = (   0.4998914   0.5001086   1.0164559  )
         8           Co  tau(   8) = (   0.4936915   0.5063085   1.5135603  )
         9           O   tau(   9) = (   0.4988895   0.7610401   1.0164559  )
        10           O   tau(  10) = (   0.2389599   0.5011105   1.0164559  )
        11           O   tau(  11) = (   0.0070918   0.7374880   1.0164559  )
        12           O   tau(  12) = (   0.0088340   0.7405089   1.5135603  )
        13           O   tau(  13) = (   0.5066944   0.7415376   1.5135603  )
        14           O   tau(  14) = (   0.2584624   0.4933056   1.5135603  )
        15           O   tau(  15) = (   0.4985141   0.5014859   0.7773880  )
        16           O   tau(  16) = (   0.4985141   0.5014859   1.2555238  )
        17           Sr  tau(  17) = (   0.7482398   0.7454518   0.7706582  )
        18           Sr  tau(  18) = (   0.7482398   0.7454518   1.2622536  )
        19           Sr  tau(  19) = (   0.7441748   0.2558252   0.7725755  )
        20           Sr  tau(  20) = (   0.7441748   0.2558252   1.2603363  )
        21           O   tau(  21) = (   0.7322655   0.0078049   1.5135603  )
        22           O   tau(  22) = (   0.7558175   0.4996027   1.5135603  )
        23           O   tau(  23) = (   0.5003973   0.2441825   1.5135603  )
        24           O   tau(  24) = (   0.7527966   0.4978604   1.0164559  )
        25           O   tau(  25) = (   0.5021396   0.2472034   1.0164559  )
        26           O   tau(  26) = (   0.7517679   0.0000000   1.0164559  )
        27           O   tau(  27) = (   0.0114961   0.4948124   1.7455321  )
        28           O   tau(  28) = (   0.0048226   0.0077944   1.7715967  )
        29           Sr  tau(  29) = (   0.2545482   0.2517602   1.7648669  )
        30           O   tau(  30) = (   0.5048017   0.0015068   1.7786929  )
        31           Co  tau(  31) = (   0.0056869   0.5006215   1.0164559  )
        32           Co  tau(  32) = (   0.0065315   0.4997770   1.5135603  )
        33           Co  tau(  33) = (   0.0061999   0.0064171   1.0164559  )
        34           Co  tau(  34) = (   0.0000000   0.0126169   1.5135603  )
        35           O   tau(  35) = (   0.0114961   0.4948124   1.2815885  )
        36           O   tau(  36) = (   0.0114961   0.4948124   0.7513233  )
        37           O   tau(  37) = (   0.0051979   0.2673486   1.0164559  )
        38           O   tau(  38) = (   0.0130029   0.2478461   1.5135603  )
        39           O   tau(  39) = (   0.0048226   0.0077944   0.7773880  )
        40           O   tau(  40) = (   0.0048226   0.0077944   1.2555238  )
        41           Sr  tau(  41) = (   0.2545482   0.2517602   0.7706582  )
        42           Sr  tau(  42) = (   0.2545482   0.2517602   1.2622536  )
        43           Co  tau(  43) = (   0.4989925   0.0073160   1.5135603  )
        44           Co  tau(  44) = (   0.4998370   0.0064714   1.0164559  )
        45           O   tau(  45) = (   0.5048017   0.0015068   0.7844841  )
        46           O   tau(  46) = (   0.5048017   0.0015068   1.2484277  )
        47           O   tau(  47) = (   0.2621260   0.0059111   1.5135603  )
        48           O   tau(  48) = (   0.2591051   0.0041689   1.0164559  )
        49           O   tau(  49) = (   0.2843291   0.9951520   2.1602013  )
        50           H   tau(  50) = (   0.2843291   0.9951520   2.2847091  )

   Crystallographic axes

     site n.     atom                  positions (cryst. coord.)
         1           Sr  tau(   1) = (  0.2508693  0.7491307  0.6943562  )
         2           O   tau(   2) = (  0.4985141  0.5014859  0.6999492  )
         3           Sr  tau(   3) = (  0.7482398  0.7454518  0.6972903  )
         4           Sr  tau(   4) = (  0.7441748  0.2558252  0.6980478  )
         5           Sr  tau(   5) = (  0.2508693  0.7491307  0.5016443  )
         6           Sr  tau(   6) = (  0.2508693  0.7491307  0.3015492  )
         7           Co  tau(   7) = (  0.4998914  0.5001086  0.4015968  )
         8           Co  tau(   8) = (  0.4936915  0.5063085  0.5980003  )
         9           O   tau(   9) = (  0.4988895  0.7610401  0.4015968  )
        10           O   tau(  10) = (  0.2389599  0.5011105  0.4015968  )
        11           O   tau(  11) = (  0.0070918  0.7374880  0.4015968  )
        12           O   tau(  12) = (  0.0088340  0.7405089  0.5980003  )
        13           O   tau(  13) = (  0.5066944  0.7415376  0.5980003  )
        14           O   tau(  14) = (  0.2584624  0.4933056  0.5980003  )
        15           O   tau(  15) = (  0.4985141  0.5014859  0.3071422  )
        16           O   tau(  16) = (  0.4985141  0.5014859  0.4960513  )
        17           Sr  tau(  17) = (  0.7482398  0.7454518  0.3044833  )
        18           Sr  tau(  18) = (  0.7482398  0.7454518  0.4987103  )
        19           Sr  tau(  19) = (  0.7441748  0.2558252  0.3052408  )
        20           Sr  tau(  20) = (  0.7441748  0.2558252  0.4979527  )
        21           O   tau(  21) = (  0.7322655  0.0078049  0.5980003  )
        22           O   tau(  22) = (  0.7558175  0.4996027  0.5980003  )
        23           O   tau(  23) = (  0.5003973  0.2441825  0.5980003  )
        24           O   tau(  24) = (  0.7527966  0.4978604  0.4015968  )
        25           O   tau(  25) = (  0.5021396  0.2472034  0.4015968  )
        26           O   tau(  26) = (  0.7517679  0.0000000  0.4015968  )
        27           O   tau(  27) = (  0.0114961  0.4948124  0.6896512  )
        28           O   tau(  28) = (  0.0048226  0.0077944  0.6999492  )
        29           Sr  tau(  29) = (  0.2545482  0.2517602  0.6972903  )
        30           O   tau(  30) = (  0.5048017  0.0015068  0.7027529  )
        31           Co  tau(  31) = (  0.0056869  0.5006215  0.4015968  )
        32           Co  tau(  32) = (  0.0065315  0.4997770  0.5980003  )
        33           Co  tau(  33) = (  0.0061999  0.0064171  0.4015968  )
        34           Co  tau(  34) = (  0.0000000  0.0126169  0.5980003  )
        35           O   tau(  35) = (  0.0114961  0.4948124  0.5063494  )
        36           O   tau(  36) = (  0.0114961  0.4948124  0.2968442  )
        37           O   tau(  37) = (  0.0051979  0.2673486  0.4015968  )
        38           O   tau(  38) = (  0.0130029  0.2478461  0.5980003  )
        39           O   tau(  39) = (  0.0048226  0.0077944  0.3071422  )
        40           O   tau(  40) = (  0.0048226  0.0077944  0.4960513  )
        41           Sr  tau(  41) = (  0.2545482  0.2517602  0.3044833  )
        42           Sr  tau(  42) = (  0.2545482  0.2517602  0.4987103  )
        43           Co  tau(  43) = (  0.4989925  0.0073160  0.5980003  )
        44           Co  tau(  44) = (  0.4998370  0.0064714  0.4015968  )
        45           O   tau(  45) = (  0.5048017  0.0015068  0.3099459  )
        46           O   tau(  46) = (  0.5048017  0.0015068  0.4932477  )
        47           O   tau(  47) = (  0.2621260  0.0059111  0.5980003  )
        48           O   tau(  48) = (  0.2591051  0.0041689  0.4015968  )
        49           O   tau(  49) = (  0.2843291  0.9951520  0.8534850  )
        50           H   tau(  50) = (  0.2843291  0.9951520  0.9026774  )

     number of k points=    10  Gaussian smearing, width (Ry)=  0.0700
                       cart. coord. in units 2pi/alat
        k(    1) = (   0.0000000   0.0000000   0.0000000), wk =   0.1250000
        k(    2) = (   0.0000000   0.2500000   0.0000000), wk =   0.2500000
        k(    3) = (   0.0000000  -0.5000000   0.0000000), wk =   0.1250000
        k(    4) = (   0.2500000   0.2500000   0.0000000), wk =   0.2500000
        k(    5) = (   0.2500000  -0.5000000   0.0000000), wk =   0.2500000
        k(    6) = (  -0.5000000  -0.5000000   0.0000000), wk =   0.1250000
        k(    7) = (   0.2500000   0.0000000   0.0000000), wk =   0.2500000
        k(    8) = (  -0.5000000   0.0000000   0.0000000), wk =   0.1250000
        k(    9) = (  -0.2500000   0.2500000   0.0000000), wk =   0.2500000
        k(   10) = (  -0.5000000   0.2500000   0.0000000), wk =   0.2500000

                       cryst. coord.
        k(    1) = (   0.0000000   0.0000000   0.0000000), wk =   0.1250000
        k(    2) = (   0.0000000   0.2500000   0.0000000), wk =   0.2500000
        k(    3) = (   0.0000000  -0.5000000   0.0000000), wk =   0.1250000
        k(    4) = (   0.2500000   0.2500000   0.0000000), wk =   0.2500000
        k(    5) = (   0.2500000  -0.5000000   0.0000000), wk =   0.2500000
        k(    6) = (  -0.5000000  -0.5000000   0.0000000), wk =   0.1250000
        k(    7) = (   0.2500000   0.0000000   0.0000000), wk =   0.2500000
        k(    8) = (  -0.5000000   0.0000000   0.0000000), wk =   0.1250000
        k(    9) = (  -0.2500000   0.2500000   0.0000000), wk =   0.2500000
        k(   10) = (  -0.5000000   0.2500000   0.0000000), wk =   0.2500000

     Dense  grid:  1474595 G-vectors     FFT dimensions: ( 108, 108, 270)

     Smooth grid:   521381 G-vectors     FFT dimensions: (  75,  75, 192)

     Dynamical RAM for                 wfc:      10.73 MB

     Dynamical RAM for     wfc (w. buffer):      64.38 MB

     Dynamical RAM for           str. fact:       3.75 MB

     Dynamical RAM for           local pot:       0.00 MB

     Dynamical RAM for          nlocal pot:      24.61 MB

     Dynamical RAM for                qrad:       7.03 MB

     Dynamical RAM for          rho,v,vnew:       6.02 MB

     Dynamical RAM for               rhoin:       2.01 MB

     Dynamical RAM for            rho*nmix:      15.00 MB

     Dynamical RAM for           G-vectors:       3.68 MB

     Dynamical RAM for          h,s,v(r/c):       1.35 MB

     Dynamical RAM for          <psi|beta>:       2.35 MB

     Dynamical RAM for                 psi:      21.46 MB

     Dynamical RAM for                hpsi:      21.46 MB

     Dynamical RAM for                spsi:      21.46 MB

     Dynamical RAM for      wfcinit/wfcrot:      34.49 MB

     Dynamical RAM for           addusdens:     101.26 MB

     Estimated static dynamical RAM per process >     121.50 MB

     Estimated max dynamical RAM per process >     237.76 MB

     Estimated total dynamical RAM >      10.79 GB

     Check: negative core charge=   -0.000004

     Initial potential from superposition of free atoms

     starting charge     422.5961, renormalised to     431.0000

     negative rho (up, down):  7.820E-01 0.000E+00
     Starting wfcs are  377 randomized atomic wfcs
     Checking if some PAW data can be deallocated... 
       PAW data deallocated on   19 nodes for type:  2

     total cpu time spent up to now is        9.2 secs

     Self-consistent Calculation

     iteration #  1     ecut=    60.00 Ry     beta= 0.15
     Davidson diagonalization with overlap

---- Real-time Memory Report at c_bands before calling an iterative solver
             0 MiB given to the printing process from OS
             0 MiB allocation reported by mallinfo(arena+hblkhd)
         23985 MiB available memory on the node where the printing process lives
------------------
     ethr =  1.00E-02,  avg # of iterations =  2.0

     negative rho (up, down):  7.714E-01 0.000E+00

     total cpu time spent up to now is       25.4 secs

     total energy              =   -4446.58083087 Ry
     estimated scf accuracy    <      44.74924570 Ry

     iteration #  2     ecut=    60.00 Ry     beta= 0.15
     Davidson diagonalization with overlap

---- Real-time Memory Report at c_bands before calling an iterative solver
             0 MiB given to the printing process from OS
             0 MiB allocation reported by mallinfo(arena+hblkhd)
         24262 MiB available memory on the node where the printing process lives
------------------
     ethr =  1.00E-02,  avg # of iterations =  1.0

     negative rho (up, down):  7.580E-01 0.000E+00

     total cpu time spent up to now is       39.6 secs

     total energy              =   -4443.25392630 Ry
     estimated scf accuracy    <      29.43969419 Ry

     iteration #  3     ecut=    60.00 Ry     beta= 0.15
     Davidson diagonalization with overlap

---- Real-time Memory Report at c_bands before calling an iterative solver
             0 MiB given to the printing process from OS
             0 MiB allocation reported by mallinfo(arena+hblkhd)
         23422 MiB available memory on the node where the printing process lives
------------------
     ethr =  6.83E-03,  avg # of iterations =  1.0

     negative rho (up, down):  7.554E-01 0.000E+00

     total cpu time spent up to now is       54.0 secs

     total energy              =   -4444.26221391 Ry
     estimated scf accuracy    <      29.10382384 Ry

     iteration #  4     ecut=    60.00 Ry     beta= 0.15
     Davidson diagonalization with overlap

---- Real-time Memory Report at c_bands before calling an iterative solver
             0 MiB given to the printing process from OS
             0 MiB allocation reported by mallinfo(arena+hblkhd)
         23405 MiB available memory on the node where the printing process lives
------------------
     ethr =  6.75E-03,  avg # of iterations =  1.0

     negative rho (up, down):  7.491E-01 0.000E+00

     total cpu time spent up to now is       68.7 secs

     total energy              =   -4443.04312472 Ry
     estimated scf accuracy    <      20.89627646 Ry

     iteration #  5     ecut=    60.00 Ry     beta= 0.15
     Davidson diagonalization with overlap

---- Real-time Memory Report at c_bands before calling an iterative solver
             0 MiB given to the printing process from OS
             0 MiB allocation reported by mallinfo(arena+hblkhd)
         23386 MiB available memory on the node where the printing process lives
------------------
     ethr =  4.85E-03,  avg # of iterations =  1.0

     negative rho (up, down):  7.410E-01 0.000E+00

     total cpu time spent up to now is       83.4 secs

     total energy              =   -4442.61887893 Ry
     estimated scf accuracy    <       9.93566049 Ry

     iteration #  6     ecut=    60.00 Ry     beta= 0.15
     Davidson diagonalization with overlap

---- Real-time Memory Report at c_bands before calling an iterative solver
             0 MiB given to the printing process from OS
             0 MiB allocation reported by mallinfo(arena+hblkhd)
         23357 MiB available memory on the node where the printing process lives
------------------
     ethr =  2.31E-03,  avg # of iterations =  1.1

     negative rho (up, down):  7.431E-01 0.000E+00

     total cpu time spent up to now is       98.3 secs

     total energy              =   -4442.80346366 Ry
     estimated scf accuracy    <       4.82724499 Ry

     iteration #  7     ecut=    60.00 Ry     beta= 0.15
     Davidson diagonalization with overlap

---- Real-time Memory Report at c_bands before calling an iterative solver
             0 MiB given to the printing process from OS
             0 MiB allocation reported by mallinfo(arena+hblkhd)
         23342 MiB available memory on the node where the printing process lives
------------------
     ethr =  1.12E-03,  avg # of iterations =  1.7

     negative rho (up, down):  7.653E-01 0.000E+00

     total cpu time spent up to now is      113.0 secs

     total energy              =   -4441.66663730 Ry
     estimated scf accuracy    <       3.88784049 Ry

     iteration #  8     ecut=    60.00 Ry     beta= 0.15
     Davidson diagonalization with overlap

---- Real-time Memory Report at c_bands before calling an iterative solver
             0 MiB given to the printing process from OS
             0 MiB allocation reported by mallinfo(arena+hblkhd)
         23323 MiB available memory on the node where the printing process lives
------------------
     ethr =  9.02E-04,  avg # of iterations =  5.5

     negative rho (up, down):  7.725E-01 0.000E+00

     total cpu time spent up to now is      132.7 secs

     total energy              =   -4441.58722513 Ry
     estimated scf accuracy    <      13.93706960 Ry

     iteration #  9     ecut=    60.00 Ry     beta= 0.15
     Davidson diagonalization with overlap

---- Real-time Memory Report at c_bands before calling an iterative solver
             0 MiB given to the printing process from OS
             0 MiB allocation reported by mallinfo(arena+hblkhd)
         23146 MiB available memory on the node where the printing process lives
------------------
     ethr =  9.02E-04,  avg # of iterations =  9.8

     negative rho (up, down):  7.706E-01 0.000E+00

     total cpu time spent up to now is      154.2 secs

     total energy              =   -4441.78831284 Ry
     estimated scf accuracy    <       2.26299221 Ry

     iteration # 10     ecut=    60.00 Ry     beta= 0.15
     Davidson diagonalization with overlap

---- Real-time Memory Report at c_bands before calling an iterative solver
             0 MiB given to the printing process from OS
             0 MiB allocation reported by mallinfo(arena+hblkhd)
         22816 MiB available memory on the node where the printing process lives
------------------
     ethr =  5.25E-04,  avg # of iterations =  1.7

     negative rho (up, down):  7.779E-01 0.000E+00

     total cpu time spent up to now is      170.1 secs

     total energy              =   -4441.92769980 Ry
     estimated scf accuracy    <       1.08741708 Ry

     iteration # 11     ecut=    60.00 Ry     beta= 0.15
     Davidson diagonalization with overlap

---- Real-time Memory Report at c_bands before calling an iterative solver
             0 MiB given to the printing process from OS
             0 MiB allocation reported by mallinfo(arena+hblkhd)
         22815 MiB available memory on the node where the printing process lives
------------------
     ethr =  2.52E-04,  avg # of iterations =  2.4

     negative rho (up, down):  8.113E-01 0.000E+00

     total cpu time spent up to now is      186.7 secs

     total energy              =   -4441.71683703 Ry
     estimated scf accuracy    <       1.27326045 Ry

     iteration # 12     ecut=    60.00 Ry     beta= 0.15
     Davidson diagonalization with overlap

---- Real-time Memory Report at c_bands before calling an iterative solver
             0 MiB given to the printing process from OS
             0 MiB allocation reported by mallinfo(arena+hblkhd)
         22844 MiB available memory on the node where the printing process lives
------------------
     ethr =  2.52E-04,  avg # of iterations = 10.7

     negative rho (up, down):  8.152E-01 0.000E+00

     total cpu time spent up to now is      207.6 secs

     total energy              =   -4441.83699119 Ry
     estimated scf accuracy    <       0.98684627 Ry

     iteration # 13     ecut=    60.00 Ry     beta= 0.15
     Davidson diagonalization with overlap

---- Real-time Memory Report at c_bands before calling an iterative solver
             0 MiB given to the printing process from OS
             0 MiB allocation reported by mallinfo(arena+hblkhd)
         22771 MiB available memory on the node where the printing process lives
------------------
     ethr =  2.29E-04,  avg # of iterations =  1.3

     negative rho (up, down):  8.173E-01 0.000E+00

     total cpu time spent up to now is      222.6 secs

     total energy              =   -4441.78871251 Ry
     estimated scf accuracy    <       0.59405918 Ry

     iteration # 14     ecut=    60.00 Ry     beta= 0.15
     Davidson diagonalization with overlap

---- Real-time Memory Report at c_bands before calling an iterative solver
             0 MiB given to the printing process from OS
             0 MiB allocation reported by mallinfo(arena+hblkhd)
         22784 MiB available memory on the node where the printing process lives
------------------
     c_bands:  3 eigenvalues not converged
     ethr =  1.38E-04,  avg # of iterations =  5.1

     negative rho (up, down):  8.258E-01 0.000E+00

     total cpu time spent up to now is      240.9 secs

     total energy              =   -4441.72263687 Ry
     estimated scf accuracy    <       0.35538422 Ry

     iteration # 15     ecut=    60.00 Ry     beta= 0.15
     Davidson diagonalization with overlap

---- Real-time Memory Report at c_bands before calling an iterative solver
             0 MiB given to the printing process from OS
             0 MiB allocation reported by mallinfo(arena+hblkhd)
         22767 MiB available memory on the node where the printing process lives
------------------
     ethr =  8.25E-05,  avg # of iterations = 11.3

     negative rho (up, down):  8.345E-01 0.000E+00

     total cpu time spent up to now is      262.8 secs

     total energy              =   -4441.72367712 Ry
     estimated scf accuracy    <       0.32995913 Ry

     iteration # 16     ecut=    60.00 Ry     beta= 0.15
     Davidson diagonalization with overlap

---- Real-time Memory Report at c_bands before calling an iterative solver
             0 MiB given to the printing process from OS
             0 MiB allocation reported by mallinfo(arena+hblkhd)
         22765 MiB available memory on the node where the printing process lives
------------------
     ethr =  7.66E-05,  avg # of iterations =  2.0

     negative rho (up, down):  8.289E-01 0.000E+00

     total cpu time spent up to now is      279.7 secs

     total energy              =   -4441.70700025 Ry
     estimated scf accuracy    <       0.27906610 Ry

     iteration # 17     ecut=    60.00 Ry     beta= 0.15
     Davidson diagonalization with overlap

---- Real-time Memory Report at c_bands before calling an iterative solver
             0 MiB given to the printing process from OS
             0 MiB allocation reported by mallinfo(arena+hblkhd)
         22754 MiB available memory on the node where the printing process lives
------------------
     ethr =  6.47E-05,  avg # of iterations =  1.4

     negative rho (up, down):  8.060E-01 0.000E+00

     total cpu time spent up to now is      295.4 secs

     total energy              =   -4441.67847466 Ry
     estimated scf accuracy    <       0.16346240 Ry

     iteration # 18     ecut=    60.00 Ry     beta= 0.15
     Davidson diagonalization with overlap

---- Real-time Memory Report at c_bands before calling an iterative solver
             0 MiB given to the printing process from OS
             0 MiB allocation reported by mallinfo(arena+hblkhd)
         22748 MiB available memory on the node where the printing process lives
------------------
     ethr =  3.79E-05,  avg # of iterations = 10.5

     negative rho (up, down):  8.292E-01 0.000E+00

     total cpu time spent up to now is      317.2 secs

     total energy              =   -4441.66406067 Ry
     estimated scf accuracy    <       0.13005589 Ry

     iteration # 19     ecut=    60.00 Ry     beta= 0.15
     Davidson diagonalization with overlap

---- Real-time Memory Report at c_bands before calling an iterative solver
             0 MiB given to the printing process from OS
             0 MiB allocation reported by mallinfo(arena+hblkhd)
         22671 MiB available memory on the node where the printing process lives
------------------
     ethr =  3.02E-05,  avg # of iterations =  7.4

     negative rho (up, down):  8.355E-01 0.000E+00

     total cpu time spent up to now is      337.1 secs

     total energy              =   -4441.66447914 Ry
     estimated scf accuracy    <       0.05403640 Ry

     iteration # 20     ecut=    60.00 Ry     beta= 0.15
     Davidson diagonalization with overlap

---- Real-time Memory Report at c_bands before calling an iterative solver
             0 MiB given to the printing process from OS
             0 MiB allocation reported by mallinfo(arena+hblkhd)
         22661 MiB available memory on the node where the printing process lives
------------------
     ethr =  1.25E-05,  avg # of iterations = 10.3

     negative rho (up, down):  8.173E-01 0.000E+00

     total cpu time spent up to now is      359.1 secs

     total energy              =   -4441.66144665 Ry
     estimated scf accuracy    <       0.03431534 Ry

     iteration # 21     ecut=    60.00 Ry     beta= 0.15
     Davidson diagonalization with overlap

---- Real-time Memory Report at c_bands before calling an iterative solver
             0 MiB given to the printing process from OS
             0 MiB allocation reported by mallinfo(arena+hblkhd)
         22651 MiB available memory on the node where the printing process lives
------------------
     ethr =  7.96E-06,  avg # of iterations =  2.8

     negative rho (up, down):  8.138E-01 0.000E+00

     total cpu time spent up to now is      376.2 secs

     total energy              =   -4441.66065707 Ry
     estimated scf accuracy    <       0.02387219 Ry

     iteration # 22     ecut=    60.00 Ry     beta= 0.15
     Davidson diagonalization with overlap

---- Real-time Memory Report at c_bands before calling an iterative solver
             0 MiB given to the printing process from OS
             0 MiB allocation reported by mallinfo(arena+hblkhd)
         22688 MiB available memory on the node where the printing process lives
------------------
     ethr =  5.54E-06,  avg # of iterations =  5.2

     negative rho (up, down):  7.981E-01 0.000E+00

     total cpu time spent up to now is      395.1 secs

     total energy              =   -4441.65735462 Ry
     estimated scf accuracy    <       0.01832890 Ry

     iteration # 23     ecut=    60.00 Ry     beta= 0.15
     Davidson diagonalization with overlap

---- Real-time Memory Report at c_bands before calling an iterative solver
             0 MiB given to the printing process from OS
             0 MiB allocation reported by mallinfo(arena+hblkhd)
         22681 MiB available memory on the node where the printing process lives
------------------
     ethr =  4.25E-06,  avg # of iterations =  8.3

     negative rho (up, down):  8.016E-01 0.000E+00

     total cpu time spent up to now is      415.8 secs

     total energy              =   -4441.65568045 Ry
     estimated scf accuracy    <       0.01064187 Ry

     iteration # 24     ecut=    60.00 Ry     beta= 0.15
     Davidson diagonalization with overlap

---- Real-time Memory Report at c_bands before calling an iterative solver
             0 MiB given to the printing process from OS
             0 MiB allocation reported by mallinfo(arena+hblkhd)
         22730 MiB available memory on the node where the printing process lives
------------------
     c_bands:  1 eigenvalues not converged
     c_bands:  1 eigenvalues not converged
     ethr =  2.47E-06,  avg # of iterations = 13.7

     negative rho (up, down):  8.046E-01 0.000E+00

     total cpu time spent up to now is      441.5 secs

     total energy              =   -4441.65587106 Ry
     estimated scf accuracy    <       0.00415275 Ry

     iteration # 25     ecut=    60.00 Ry     beta= 0.15
     Davidson diagonalization with overlap

---- Real-time Memory Report at c_bands before calling an iterative solver
             0 MiB given to the printing process from OS
             0 MiB allocation reported by mallinfo(arena+hblkhd)
         22622 MiB available memory on the node where the printing process lives
------------------
     ethr =  9.64E-07,  avg # of iterations =  8.1

     negative rho (up, down):  8.011E-01 0.000E+00

     total cpu time spent up to now is      462.7 secs

     total energy              =   -4441.65580626 Ry
     estimated scf accuracy    <       0.00172228 Ry

     iteration # 26     ecut=    60.00 Ry     beta= 0.15
     Davidson diagonalization with overlap

---- Real-time Memory Report at c_bands before calling an iterative solver
             0 MiB given to the printing process from OS
             0 MiB allocation reported by mallinfo(arena+hblkhd)
         22603 MiB available memory on the node where the printing process lives
------------------
     ethr =  4.00E-07,  avg # of iterations =  7.3

     negative rho (up, down):  7.982E-01 0.000E+00

     total cpu time spent up to now is      482.6 secs

     total energy              =   -4441.65570640 Ry
     estimated scf accuracy    <       0.00106720 Ry

     iteration # 27     ecut=    60.00 Ry     beta= 0.15
     Davidson diagonalization with overlap

---- Real-time Memory Report at c_bands before calling an iterative solver
             0 MiB given to the printing process from OS
             0 MiB allocation reported by mallinfo(arena+hblkhd)
         22643 MiB available memory on the node where the printing process lives
------------------
     ethr =  2.48E-07,  avg # of iterations = 12.9

     negative rho (up, down):  7.992E-01 0.000E+00

     total cpu time spent up to now is      505.8 secs

     total energy              =   -4441.65567746 Ry
     estimated scf accuracy    <       0.00052504 Ry

     iteration # 28     ecut=    60.00 Ry     beta= 0.15
     Davidson diagonalization with overlap

---- Real-time Memory Report at c_bands before calling an iterative solver
             0 MiB given to the printing process from OS
             0 MiB allocation reported by mallinfo(arena+hblkhd)
         22686 MiB available memory on the node where the printing process lives
------------------
     ethr =  1.22E-07,  avg # of iterations =  3.9

     negative rho (up, down):  7.963E-01 0.000E+00

     total cpu time spent up to now is      524.8 secs

     total energy              =   -4441.65567252 Ry
     estimated scf accuracy    <       0.00014733 Ry

     iteration # 29     ecut=    60.00 Ry     beta= 0.15
     Davidson diagonalization with overlap

---- Real-time Memory Report at c_bands before calling an iterative solver
             0 MiB given to the printing process from OS
             0 MiB allocation reported by mallinfo(arena+hblkhd)
         22563 MiB available memory on the node where the printing process lives
------------------
     ethr =  3.42E-08,  avg # of iterations =  2.6

     negative rho (up, down):  7.960E-01 0.000E+00

     total cpu time spent up to now is      542.3 secs

     total energy              =   -4441.65568233 Ry
     estimated scf accuracy    <       0.00007259 Ry

     iteration # 30     ecut=    60.00 Ry     beta= 0.15
     Davidson diagonalization with overlap

---- Real-time Memory Report at c_bands before calling an iterative solver
             0 MiB given to the printing process from OS
             0 MiB allocation reported by mallinfo(arena+hblkhd)
         22571 MiB available memory on the node where the printing process lives
------------------
     ethr =  1.68E-08,  avg # of iterations =  1.1

     negative rho (up, down):  7.946E-01 0.000E+00

     total cpu time spent up to now is      557.3 secs

     total energy              =   -4441.65566233 Ry
     estimated scf accuracy    <       0.00004757 Ry

     iteration # 31     ecut=    60.00 Ry     beta= 0.15
     Davidson diagonalization with overlap

---- Real-time Memory Report at c_bands before calling an iterative solver
             0 MiB given to the printing process from OS
             0 MiB allocation reported by mallinfo(arena+hblkhd)
         22579 MiB available memory on the node where the printing process lives
------------------
     ethr =  1.10E-08,  avg # of iterations =  5.8

     negative rho (up, down):  7.933E-01 0.000E+00

     total cpu time spent up to now is      575.7 secs

     total energy              =   -4441.65564992 Ry
     estimated scf accuracy    <       0.00002625 Ry

     iteration # 32     ecut=    60.00 Ry     beta= 0.15
     Davidson diagonalization with overlap

---- Real-time Memory Report at c_bands before calling an iterative solver
             0 MiB given to the printing process from OS
             0 MiB allocation reported by mallinfo(arena+hblkhd)
         22610 MiB available memory on the node where the printing process lives
------------------
     ethr =  6.09E-09,  avg # of iterations =  7.6

     negative rho (up, down):  7.926E-01 0.000E+00

     total cpu time spent up to now is      594.9 secs

     total energy              =   -4441.65564994 Ry
     estimated scf accuracy    <       0.00001225 Ry

     iteration # 33     ecut=    60.00 Ry     beta= 0.15
     Davidson diagonalization with overlap

---- Real-time Memory Report at c_bands before calling an iterative solver
             0 MiB given to the printing process from OS
             0 MiB allocation reported by mallinfo(arena+hblkhd)
         22670 MiB available memory on the node where the printing process lives
------------------
     ethr =  2.84E-09,  avg # of iterations =  2.7

     negative rho (up, down):  7.922E-01 0.000E+00

     total cpu time spent up to now is      611.7 secs

     total energy              =   -4441.65565174 Ry
     estimated scf accuracy    <       0.00000645 Ry

     iteration # 34     ecut=    60.00 Ry     beta= 0.15
     Davidson diagonalization with overlap

---- Real-time Memory Report at c_bands before calling an iterative solver
             0 MiB given to the printing process from OS
             0 MiB allocation reported by mallinfo(arena+hblkhd)
         22675 MiB available memory on the node where the printing process lives
------------------
     ethr =  1.50E-09,  avg # of iterations =  3.3

     negative rho (up, down):  7.921E-01 0.000E+00

     total cpu time spent up to now is      629.3 secs

     total energy              =   -4441.65565179 Ry
     estimated scf accuracy    <       0.00000384 Ry

     iteration # 35     ecut=    60.00 Ry     beta= 0.15
     Davidson diagonalization with overlap

---- Real-time Memory Report at c_bands before calling an iterative solver
             0 MiB given to the printing process from OS
             0 MiB allocation reported by mallinfo(arena+hblkhd)
         22670 MiB available memory on the node where the printing process lives
------------------
     ethr =  8.91E-10,  avg # of iterations =  3.5

     negative rho (up, down):  7.922E-01 0.000E+00

     total cpu time spent up to now is      646.8 secs

     total energy              =   -4441.65565141 Ry
     estimated scf accuracy    <       0.00000251 Ry

     iteration # 36     ecut=    60.00 Ry     beta= 0.15
     Davidson diagonalization with overlap

---- Real-time Memory Report at c_bands before calling an iterative solver
             0 MiB given to the printing process from OS
             0 MiB allocation reported by mallinfo(arena+hblkhd)
         22676 MiB available memory on the node where the printing process lives
------------------
     ethr =  5.83E-10,  avg # of iterations =  2.2

     negative rho (up, down):  7.923E-01 0.000E+00

     total cpu time spent up to now is      663.7 secs

     total energy              =   -4441.65565095 Ry
     estimated scf accuracy    <       0.00000157 Ry

     iteration # 37     ecut=    60.00 Ry     beta= 0.15
     Davidson diagonalization with overlap

---- Real-time Memory Report at c_bands before calling an iterative solver
             0 MiB given to the printing process from OS
             0 MiB allocation reported by mallinfo(arena+hblkhd)
         22685 MiB available memory on the node where the printing process lives
------------------
     ethr =  3.65E-10,  avg # of iterations =  2.5

     negative rho (up, down):  7.923E-01 0.000E+00

     total cpu time spent up to now is      680.6 secs

     total energy              =   -4441.65565093 Ry
     estimated scf accuracy    <       0.00000097 Ry

     iteration # 38     ecut=    60.00 Ry     beta= 0.15
     Davidson diagonalization with overlap

---- Real-time Memory Report at c_bands before calling an iterative solver
             0 MiB given to the printing process from OS
             0 MiB allocation reported by mallinfo(arena+hblkhd)
         22685 MiB available memory on the node where the printing process lives
------------------
     ethr =  2.25E-10,  avg # of iterations =  2.1

     negative rho (up, down):  7.924E-01 0.000E+00

     total cpu time spent up to now is      697.4 secs

     total energy              =   -4441.65565127 Ry
     estimated scf accuracy    <       0.00000075 Ry

     iteration # 39     ecut=    60.00 Ry     beta= 0.15
     Davidson diagonalization with overlap

---- Real-time Memory Report at c_bands before calling an iterative solver
             0 MiB given to the printing process from OS
             0 MiB allocation reported by mallinfo(arena+hblkhd)
         22698 MiB available memory on the node where the printing process lives
------------------
     ethr =  1.73E-10,  avg # of iterations =  2.3

     negative rho (up, down):  7.924E-01 0.000E+00

     total cpu time spent up to now is      714.1 secs

     total energy              =   -4441.65565157 Ry
     estimated scf accuracy    <       0.00000053 Ry

     iteration # 40     ecut=    60.00 Ry     beta= 0.15
     Davidson diagonalization with overlap

---- Real-time Memory Report at c_bands before calling an iterative solver
             0 MiB given to the printing process from OS
             0 MiB allocation reported by mallinfo(arena+hblkhd)
         22700 MiB available memory on the node where the printing process lives
------------------
     ethr =  1.22E-10,  avg # of iterations =  3.1

     negative rho (up, down):  7.925E-01 0.000E+00

     total cpu time spent up to now is      731.3 secs

     total energy              =   -4441.65565166 Ry
     estimated scf accuracy    <       0.00000031 Ry

     iteration # 41     ecut=    60.00 Ry     beta= 0.15
     Davidson diagonalization with overlap

---- Real-time Memory Report at c_bands before calling an iterative solver
             0 MiB given to the printing process from OS
             0 MiB allocation reported by mallinfo(arena+hblkhd)
         22703 MiB available memory on the node where the printing process lives
------------------
     ethr =  7.18E-11,  avg # of iterations =  3.8

     negative rho (up, down):  7.925E-01 0.000E+00

     total cpu time spent up to now is      749.1 secs

     total energy              =   -4441.65565160 Ry
     estimated scf accuracy    <       0.00000015 Ry

     iteration # 42     ecut=    60.00 Ry     beta= 0.15
     Davidson diagonalization with overlap

---- Real-time Memory Report at c_bands before calling an iterative solver
             0 MiB given to the printing process from OS
             0 MiB allocation reported by mallinfo(arena+hblkhd)
         22702 MiB available memory on the node where the printing process lives
------------------
     ethr =  3.44E-11,  avg # of iterations =  3.1

     negative rho (up, down):  7.925E-01 0.000E+00

     total cpu time spent up to now is      766.4 secs

     total energy              =   -4441.65565160 Ry
     estimated scf accuracy    <       0.00000007 Ry

     iteration # 43     ecut=    60.00 Ry     beta= 0.15
     Davidson diagonalization with overlap

---- Real-time Memory Report at c_bands before calling an iterative solver
             0 MiB given to the printing process from OS
             0 MiB allocation reported by mallinfo(arena+hblkhd)
         22697 MiB available memory on the node where the printing process lives
------------------
     ethr =  1.53E-11,  avg # of iterations =  2.0

     negative rho (up, down):  7.925E-01 0.000E+00

     total cpu time spent up to now is      783.2 secs

     total energy              =   -4441.65565165 Ry
     estimated scf accuracy    <       0.00000004 Ry

     iteration # 44     ecut=    60.00 Ry     beta= 0.15
     Davidson diagonalization with overlap

---- Real-time Memory Report at c_bands before calling an iterative solver
             0 MiB given to the printing process from OS
             0 MiB allocation reported by mallinfo(arena+hblkhd)
         22700 MiB available memory on the node where the printing process lives
------------------
     ethr =  1.03E-11,  avg # of iterations =  2.9

     negative rho (up, down):  7.925E-01 0.000E+00

     total cpu time spent up to now is      801.1 secs

     total energy              =   -4441.65565167 Ry
     estimated scf accuracy    <       0.00000002 Ry

     iteration # 45     ecut=    60.00 Ry     beta= 0.15
     Davidson diagonalization with overlap

---- Real-time Memory Report at c_bands before calling an iterative solver
             0 MiB given to the printing process from OS
             0 MiB allocation reported by mallinfo(arena+hblkhd)
         22697 MiB available memory on the node where the printing process lives
------------------
     ethr =  5.61E-12,  avg # of iterations =  2.4

     negative rho (up, down):  7.925E-01 0.000E+00

     total cpu time spent up to now is      818.8 secs

     total energy              =   -4441.65565167 Ry
     estimated scf accuracy    <       0.00000001 Ry

     iteration # 46     ecut=    60.00 Ry     beta= 0.15
     Davidson diagonalization with overlap

---- Real-time Memory Report at c_bands before calling an iterative solver
             0 MiB given to the printing process from OS
             0 MiB allocation reported by mallinfo(arena+hblkhd)
         22699 MiB available memory on the node where the printing process lives
------------------
     ethr =  3.13E-12,  avg # of iterations =  2.4

     negative rho (up, down):  7.925E-01 0.000E+00

     total cpu time spent up to now is      836.0 secs

     total energy              =   -4441.65565168 Ry
     estimated scf accuracy    <       0.00000001 Ry

     iteration # 47     ecut=    60.00 Ry     beta= 0.15
     Davidson diagonalization with overlap

---- Real-time Memory Report at c_bands before calling an iterative solver
             0 MiB given to the printing process from OS
             0 MiB allocation reported by mallinfo(arena+hblkhd)
         22706 MiB available memory on the node where the printing process lives
------------------
     ethr =  2.42E-12,  avg # of iterations =  3.3

     negative rho (up, down):  7.925E-01 0.000E+00

     total cpu time spent up to now is      853.4 secs

     End of self-consistent calculation

          k = 0.0000 0.0000 0.0000 ( 65197 PWs)   bands (ev):

   -92.6819 -92.6284 -92.5354 -92.4894 -92.4306 -92.3879 -92.3708 -92.2509
   -56.0353 -56.0150 -55.8928 -55.8825 -55.8754 -55.8693 -55.8331 -55.8047
   -55.7895 -55.7873 -55.7788 -55.7381 -55.7206 -55.6817 -55.6617 -55.6305
   -55.6246 -55.5764 -55.5755 -55.5733 -55.5648 -55.5261 -55.5011 -55.4176
   -31.2596 -31.2400 -31.1047 -31.0986 -31.0187 -31.0115 -30.7393 -30.6236
   -29.8295 -29.7853 -29.7607 -29.6511 -15.0620 -15.0153 -14.9374 -14.8072
   -14.6142 -14.4897 -14.2000 -14.1804 -14.1502 -14.1059 -14.0590 -14.0491
   -14.0387 -14.0203 -13.9954 -13.9693 -13.9464 -13.9108 -13.7599 -13.5839
   -13.5484 -13.5174 -13.4892 -13.4699 -13.4157 -13.3821 -13.3042 -13.2321
   -13.1128 -13.0995 -13.0905 -13.0729 -13.0558 -13.0388 -12.9955 -12.9853
   -12.9610 -12.9402 -12.9149 -12.9056 -12.8981 -12.8808 -12.8675 -12.7583
   -12.7225 -12.6768 -12.5664 -12.5509 -12.5288 -12.3240 -12.1783 -11.9761
   -11.9127 -11.8423 -11.7684 -11.7576 -11.7340 -11.7167 -11.6530 -11.6358
   -11.6009 -11.5727 -11.4598 -11.3805 -11.3769  -2.9221  -2.6897  -2.4604
    -2.3132  -2.2502  -2.1082  -1.8012  -1.7872  -1.7675  -1.6837  -1.6633
    -1.5956  -1.5792  -1.5386  -1.4938  -1.3118  -1.1119  -1.0884  -1.0552
    -0.9117  -0.8970  -0.8501  -0.8327  -0.7853  -0.7703  -0.7143  -0.6879
    -0.6147  -0.5990  -0.5277  -0.3958  -0.3828  -0.3544  -0.2732  -0.2600
    -0.2514  -0.1800  -0.1086  -0.0553  -0.0107   0.0213   0.0901   0.1572
     0.2011   0.2282   0.2343   0.4915   0.5071   0.6824   0.7462   0.8161
     0.8634   0.9448   0.9612   0.9793   1.0423   1.0694   1.1044   1.1615
     1.2929   1.3544   1.3736   1.3928   1.4033   1.4701   1.5410   1.6467
     1.6582   1.7271   1.7395   1.7795   1.7978   1.8033   1.8615   1.9158
     1.9389   1.9719   2.0422   2.0494   2.1787   2.2622   2.3041   2.3301
     2.4389   2.4831   2.4932   2.5232   2.5315   2.5453   2.6469   2.6774
     2.7051   2.7232   2.7357   2.8174   2.9270   2.9573   2.9704   2.9770
     3.0452   3.0487   3.0726   3.0806   3.0895   3.1023   3.1082   3.1218
     3.1275   3.1403   3.1492   3.1570   3.1763   3.1969   3.2022   3.2142
     3.2464   3.3553   3.4315   4.1259   4.4567   4.7882   4.8768   5.0626
     5.7251   5.9527   6.0065   6.0291   6.3332   6.3804   6.4926   6.4982
     6.7180   7.0196   7.1008   7.3328   7.4882   7.5285   7.6610   7.6774
     7.7008   7.8451   7.9789   8.0110   8.1255   8.1841   8.3277   8.4103
     8.7212   8.8541   8.9070

     occupation numbers 
     1.0000   1.0000   1.0000   1.0000   1.0000   1.0000   1.0000   1.0000
     1.0000   1.0000   1.0000   1.0000   1.0000   1.0000   1.0000   1.0000
     1.0000   1.0000   1.0000   1.0000   1.0000   1.0000   1.0000   1.0000
     1.0000   1.0000   1.0000   1.0000   1.0000   1.0000   1.0000   1.0000
     1.0000   1.0000   1.0000   1.0000   1.0000   1.0000   1.0000   1.0000
     1.0000   1.0000   1.0000   1.0000   1.0000   1.0000   1.0000   1.0000
     1.0000   1.0000   1.0000   1.0000   1.0000   1.0000   1.0000   1.0000
     1.0000   1.0000   1.0000   1.0000   1.0000   1.0000   1.0000   1.0000
     1.0000   1.0000   1.0000   1.0000   1.0000   1.0000   1.0000   1.0000
     1.0000   1.0000   1.0000   1.0000   1.0000   1.0000   1.0000   1.0000
     1.0000   1.0000   1.0000   1.0000   1.0000   1.0000   1.0000   1.0000
     1.0000   1.0000   1.0000   1.0000   1.0000   1.0000   1.0000   1.0000
     1.0000   1.0000   1.0000   1.0000   1.0000   1.0000   1.0000   1.0000
     1.0000   1.0000   1.0000   1.0000   1.0000   1.0000   1.0000   1.0000
     1.0000   1.0000   1.0000   1.0000   1.0000   1.0000   1.0000   1.0000
     1.0000   1.0000   1.0000   1.0000   1.0000   1.0000   1.0000   1.0000
     1.0000   1.0000   1.0000   1.0000   1.0000   1.0000   1.0000   1.0000
     1.0000   1.0000   1.0000   1.0000   1.0000   1.0000   1.0000   1.0000
     1.0000   1.0000   1.0000   1.0000   1.0000   1.0000   1.0000   1.0000
     1.0000   1.0000   1.0000   1.0000   1.0000   1.0000   0.9999   0.9999
     0.9999   0.9998   0.9998   0.9998   0.9997   0.9996   0.9996   0.9994
     0.9989   0.9984   0.9983   0.9981   0.9980   0.9973   0.9963   0.9942
     0.9939   0.9919   0.9915   0.9900   0.9892   0.9890   0.9863   0.9832
     0.9817   0.9793   0.9736   0.9729   0.9585   0.9462   0.9391   0.9343
     0.9110   0.9000   0.8973   0.8891   0.8868   0.8828   0.8504   0.8396
     0.8294   0.8225   0.8176   0.7837   0.7331   0.7181   0.7115   0.7081
     0.6724   0.6706   0.6576   0.6532   0.6483   0.6413   0.6380   0.6304
     0.6272   0.6200   0.6150   0.6105   0.5995   0.5876   0.5845   0.5776
     0.5588   0.4945   0.4495   0.1234   0.0495   0.0161   0.0115   0.0054
     0.0002   0.0001   0.0000   0.0000   0.0000   0.0000   0.0000   0.0000
     0.0000   0.0000   0.0000   0.0000   0.0000   0.0000   0.0000   0.0000
     0.0000   0.0000   0.0000   0.0000   0.0000   0.0000   0.0000   0.0000
     0.0000   0.0000   0.0000

          k = 0.0000 0.2500 0.0000 ( 65257 PWs)   bands (ev):

   -92.6819 -92.6284 -92.5354 -92.4894 -92.4306 -92.3879 -92.3708 -92.2509
   -56.0353 -56.0150 -55.8928 -55.8825 -55.8754 -55.8693 -55.8331 -55.8047
   -55.7895 -55.7873 -55.7788 -55.7381 -55.7206 -55.6817 -55.6617 -55.6305
   -55.6246 -55.5764 -55.5755 -55.5733 -55.5648 -55.5261 -55.5011 -55.4176
   -31.2594 -31.2399 -31.1044 -31.0988 -31.0191 -31.0116 -30.7390 -30.6239
   -29.8289 -29.7850 -29.7613 -29.6514 -15.0256 -14.9889 -14.9121 -14.7780
   -14.6543 -14.4815 -14.3450 -14.1662 -14.1303 -14.1106 -14.0824 -14.0229
   -14.0172 -14.0009 -13.9826 -13.9491 -13.9363 -13.8296 -13.7902 -13.6291
   -13.6085 -13.5592 -13.5237 -13.4804 -13.4348 -13.3920 -13.3240 -13.2896
   -13.2189 -13.1599 -13.1293 -13.0941 -13.0861 -13.0563 -12.9806 -12.9569
   -12.9260 -12.9124 -12.8835 -12.8485 -12.8313 -12.8057 -12.7800 -12.7367
   -12.7086 -12.6601 -12.5674 -12.4699 -12.4159 -12.3853 -12.2296 -12.0317
   -11.9774 -11.8077 -11.7652 -11.7372 -11.7091 -11.6924 -11.6448 -11.6337
   -11.6113 -11.5769 -11.4742 -11.4221 -11.4115  -2.7867  -2.5654  -2.4277
    -2.2457  -2.2024  -2.0387  -1.8199  -1.7348  -1.7218  -1.6650  -1.5620
    -1.5454  -1.5118  -1.4852  -1.4412  -1.2437  -1.1166  -1.1146  -1.0950
    -1.0268  -1.0155  -0.9114  -0.8824  -0.8241  -0.7989  -0.7586  -0.6950
    -0.6682  -0.6360  -0.6013  -0.5847  -0.5538  -0.4803  -0.4294  -0.3658
    -0.2532  -0.2357  -0.1899  -0.0701  -0.0344   0.0337   0.0781   0.1492
     0.1585   0.1810   0.2440   0.5422   0.6269   0.6568   0.7487   0.7976
     0.8216   0.9321   0.9528   1.0454   1.0712   1.0963   1.2111   1.3044
     1.3284   1.3508   1.3681   1.3955   1.4546   1.4817   1.5089   1.5568
     1.5930   1.6219   1.7045   1.7390   1.7833   1.8284   1.8843   1.9361
     1.9618   1.9879   2.0136   2.1038   2.2123   2.2871   2.3100   2.3793
     2.4198   2.4491   2.4705   2.4830   2.5230   2.5499   2.5739   2.6643
     2.6964   2.7137   2.8843   2.9068   2.9396   2.9601   2.9775   2.9859
     2.9937   3.0036   3.0325   3.0347   3.0537   3.0563   3.0675   3.0852
     3.0972   3.1048   3.1273   3.1382   3.1428   3.1779   3.1945   3.2552
     3.6319   3.6562   3.9001   4.3169   4.4536   4.7270   5.0282   5.0884
     5.6560   5.8023   5.9142   6.0004   6.1002   6.1245   6.2017   6.6070
     6.8168   7.0578   7.1263   7.3432   7.4965   7.5123   7.5945   7.6578
     7.8631   7.9705   7.9974   8.1864   8.2109   8.2996   8.3841   8.4233
     8.6396   8.8542   8.9480

     occupation numbers 
     1.0000   1.0000   1.0000   1.0000   1.0000   1.0000   1.0000   1.0000
     1.0000   1.0000   1.0000   1.0000   1.0000   1.0000   1.0000   1.0000
     1.0000   1.0000   1.0000   1.0000   1.0000   1.0000   1.0000   1.0000
     1.0000   1.0000   1.0000   1.0000   1.0000   1.0000   1.0000   1.0000
     1.0000   1.0000   1.0000   1.0000   1.0000   1.0000   1.0000   1.0000
     1.0000   1.0000   1.0000   1.0000   1.0000   1.0000   1.0000   1.0000
     1.0000   1.0000   1.0000   1.0000   1.0000   1.0000   1.0000   1.0000
     1.0000   1.0000   1.0000   1.0000   1.0000   1.0000   1.0000   1.0000
     1.0000   1.0000   1.0000   1.0000   1.0000   1.0000   1.0000   1.0000
     1.0000   1.0000   1.0000   1.0000   1.0000   1.0000   1.0000   1.0000
     1.0000   1.0000   1.0000   1.0000   1.0000   1.0000   1.0000   1.0000
     1.0000   1.0000   1.0000   1.0000   1.0000   1.0000   1.0000   1.0000
     1.0000   1.0000   1.0000   1.0000   1.0000   1.0000   1.0000   1.0000
     1.0000   1.0000   1.0000   1.0000   1.0000   1.0000   1.0000   1.0000
     1.0000   1.0000   1.0000   1.0000   1.0000   1.0000   1.0000   1.0000
     1.0000   1.0000   1.0000   1.0000   1.0000   1.0000   1.0000   1.0000
     1.0000   1.0000   1.0000   1.0000   1.0000   1.0000   1.0000   1.0000
     1.0000   1.0000   1.0000   1.0000   1.0000   1.0000   1.0000   1.0000
     1.0000   1.0000   1.0000   1.0000   1.0000   1.0000   1.0000   1.0000
     1.0000   1.0000   1.0000   1.0000   1.0000   1.0000   0.9999   0.9999
     0.9999   0.9998   0.9998   0.9997   0.9996   0.9996   0.9992   0.9988
     0.9986   0.9985   0.9983   0.9981   0.9975   0.9972   0.9968   0.9961
     0.9954   0.9948   0.9926   0.9915   0.9898   0.9879   0.9850   0.9819
     0.9801   0.9781   0.9761   0.9674   0.9539   0.9421   0.9380   0.9244
     0.9155   0.9085   0.9032   0.9000   0.8892   0.8814   0.8742   0.8443
     0.8326   0.8261   0.7535   0.7428   0.7269   0.7167   0.7079   0.7036
     0.6996   0.6944   0.6792   0.6781   0.6679   0.6665   0.6604   0.6507
     0.6441   0.6399   0.6273   0.6212   0.6186   0.5986   0.5890   0.5537
     0.3356   0.3225   0.2053   0.0747   0.0500   0.0202   0.0062   0.0048
     0.0003   0.0001   0.0001   0.0000   0.0000   0.0000   0.0000   0.0000
     0.0000   0.0000   0.0000   0.0000   0.0000   0.0000   0.0000   0.0000
     0.0000   0.0000   0.0000   0.0000   0.0000   0.0000   0.0000   0.0000
     0.0000   0.0000   0.0000

          k = 0.0000-0.5000 0.0000 ( 65180 PWs)   bands (ev):

   -92.6819 -92.6284 -92.5354 -92.4894 -92.4306 -92.3879 -92.3708 -92.2509
   -56.0353 -56.0150 -55.8928 -55.8825 -55.8754 -55.8693 -55.8331 -55.8047
   -55.7895 -55.7873 -55.7788 -55.7381 -55.7206 -55.6817 -55.6617 -55.6305
   -55.6246 -55.5764 -55.5755 -55.5733 -55.5648 -55.5261 -55.5011 -55.4176
   -31.2592 -31.2398 -31.1041 -31.0990 -31.0194 -31.0118 -30.7388 -30.6241
   -29.8283 -29.7847 -29.7620 -29.6518 -14.9893 -14.9408 -14.8867 -14.7586
   -14.6766 -14.5390 -14.3859 -14.2610 -14.1384 -14.0681 -14.0232 -14.0186
   -13.9685 -13.9515 -13.9474 -13.9024 -13.8820 -13.8570 -13.8233 -13.7853
   -13.7425 -13.5645 -13.5062 -13.4877 -13.4376 -13.3929 -13.3397 -13.2894
   -13.2649 -13.2407 -13.1997 -13.0953 -13.0859 -13.0362 -13.0028 -12.9476
   -12.9316 -12.9103 -12.8636 -12.8123 -12.7966 -12.7340 -12.6982 -12.6870
   -12.6402 -12.6332 -12.5711 -12.4963 -12.3457 -12.3047 -12.2298 -12.1396
   -12.0946 -11.7621 -11.7594 -11.7320 -11.6952 -11.6608 -11.6497 -11.6067
   -11.6029 -11.5580 -11.4962 -11.4826 -11.4684  -2.5725  -2.5121  -2.3622
    -2.2903  -2.0096  -1.9246  -1.7981  -1.6609  -1.6245  -1.6039  -1.5252
    -1.4940  -1.4120  -1.3766  -1.2994  -1.2599  -1.2213  -1.1938  -1.1376
    -1.1069  -1.0991  -1.0501  -1.0152  -0.9825  -0.9458  -0.8393  -0.7944
    -0.7594  -0.7581  -0.6713  -0.6395  -0.6165  -0.5635  -0.4838  -0.4102
    -0.3272  -0.3003  -0.1937  -0.1417  -0.0098   0.0260   0.0539   0.1190
     0.2597   0.2908   0.4112   0.4806   0.4884   0.6149   0.6633   0.7898
     0.8947   1.0050   1.0346   1.0726   1.0765   1.1226   1.1354   1.1690
     1.1910   1.1963   1.3072   1.3696   1.3954   1.4211   1.6800   1.7173
     1.7417   1.8371   1.8784   1.8879   1.9062   1.9329   1.9500   1.9736
     2.0010   2.0225   2.0549   2.0880   2.0886   2.1253   2.1761   2.2572
     2.2859   2.4417   2.4692   2.5335   2.6228   2.6347   2.6582   2.6871
     2.6937   2.7038   2.7532   2.7648   2.8183   2.8404   2.9179   2.9305
     2.9975   3.0073   3.0286   3.0310   3.0500   3.0568   3.0589   3.0625
     3.0659   3.0785   3.0974   3.0985   3.1630   3.1681   3.1843   3.2380
     4.1583   4.1830   4.2051   4.2729   4.7623   4.9200   5.0422   5.1755
     5.4294   5.4815   5.5983   5.7380   6.0400   6.0706   6.2453   6.4641
     6.8636   6.9645   7.2347   7.2904   7.3507   7.4735   7.7271   7.7764
     7.9250   8.0251   8.1711   8.2272   8.2892   8.4685   8.5348   8.6904
     8.8169   8.8322   8.8872

     occupation numbers 
     1.0000   1.0000   1.0000   1.0000   1.0000   1.0000   1.0000   1.0000
     1.0000   1.0000   1.0000   1.0000   1.0000   1.0000   1.0000   1.0000
     1.0000   1.0000   1.0000   1.0000   1.0000   1.0000   1.0000   1.0000
     1.0000   1.0000   1.0000   1.0000   1.0000   1.0000   1.0000   1.0000
     1.0000   1.0000   1.0000   1.0000   1.0000   1.0000   1.0000   1.0000
     1.0000   1.0000   1.0000   1.0000   1.0000   1.0000   1.0000   1.0000
     1.0000   1.0000   1.0000   1.0000   1.0000   1.0000   1.0000   1.0000
     1.0000   1.0000   1.0000   1.0000   1.0000   1.0000   1.0000   1.0000
     1.0000   1.0000   1.0000   1.0000   1.0000   1.0000   1.0000   1.0000
     1.0000   1.0000   1.0000   1.0000   1.0000   1.0000   1.0000   1.0000
     1.0000   1.0000   1.0000   1.0000   1.0000   1.0000   1.0000   1.0000
     1.0000   1.0000   1.0000   1.0000   1.0000   1.0000   1.0000   1.0000
     1.0000   1.0000   1.0000   1.0000   1.0000   1.0000   1.0000   1.0000
     1.0000   1.0000   1.0000   1.0000   1.0000   1.0000   1.0000   1.0000
     1.0000   1.0000   1.0000   1.0000   1.0000   1.0000   1.0000   1.0000
     1.0000   1.0000   1.0000   1.0000   1.0000   1.0000   1.0000   1.0000
     1.0000   1.0000   1.0000   1.0000   1.0000   1.0000   1.0000   1.0000
     1.0000   1.0000   1.0000   1.0000   1.0000   1.0000   1.0000   1.0000
     1.0000   1.0000   1.0000   1.0000   1.0000   1.0000   1.0000   1.0000
     1.0000   1.0000   1.0000   1.0000   1.0000   1.0000   1.0000   0.9999
     0.9999   0.9997   0.9997   0.9996   0.9996   0.9995   0.9995   0.9994
     0.9993   0.9993   0.9988   0.9983   0.9981   0.9979   0.9933   0.9922
     0.9914   0.9875   0.9853   0.9848   0.9837   0.9821   0.9809   0.9792
     0.9771   0.9753   0.9724   0.9691   0.9691   0.9651   0.9588   0.9470
     0.9423   0.9103   0.9035   0.8862   0.8586   0.8546   0.8465   0.8361
     0.8336   0.8298   0.8107   0.8059   0.7834   0.7736   0.7375   0.7314
     0.6976   0.6925   0.6813   0.6800   0.6699   0.6662   0.6651   0.6631
     0.6613   0.6544   0.6440   0.6434   0.6071   0.6042   0.5949   0.5637
     0.1139   0.1070   0.1010   0.0844   0.0177   0.0097   0.0059   0.0033
     0.0010   0.0008   0.0004   0.0002   0.0000   0.0000   0.0000   0.0000
     0.0000   0.0000   0.0000   0.0000   0.0000   0.0000   0.0000   0.0000
     0.0000   0.0000   0.0000   0.0000   0.0000   0.0000   0.0000   0.0000
     0.0000   0.0000   0.0000

          k = 0.2500 0.2500 0.0000 ( 65198 PWs)   bands (ev):

   -92.6819 -92.6284 -92.5354 -92.4894 -92.4306 -92.3879 -92.3708 -92.2509
   -56.0353 -56.0150 -55.8928 -55.8825 -55.8754 -55.8693 -55.8331 -55.8047
   -55.7895 -55.7873 -55.7788 -55.7381 -55.7206 -55.6817 -55.6617 -55.6305
   -55.6246 -55.5764 -55.5755 -55.5733 -55.5648 -55.5261 -55.5011 -55.4176
   -31.2577 -31.2416 -31.1043 -31.0984 -31.0190 -31.0120 -30.7391 -30.6239
   -29.8280 -29.7860 -29.7609 -29.6519 -14.9966 -14.9538 -14.8841 -14.7675
   -14.6476 -14.5213 -14.4511 -14.2445 -14.0899 -14.0766 -14.0403 -14.0107
   -13.9872 -13.9590 -13.9458 -13.9278 -13.9040 -13.8210 -13.8045 -13.6452
   -13.6301 -13.6007 -13.5812 -13.5324 -13.4918 -13.4270 -13.4079 -13.2672
   -13.2387 -13.2106 -13.1244 -13.0851 -13.0535 -13.0274 -13.0000 -12.9753
   -12.9347 -12.9271 -12.9004 -12.8560 -12.8153 -12.7259 -12.7062 -12.6953
   -12.6794 -12.6336 -12.5682 -12.4355 -12.4338 -12.3369 -12.2587 -12.0585
   -12.0231 -11.7801 -11.7485 -11.7375 -11.7309 -11.6678 -11.6334 -11.6265
   -11.5910 -11.5838 -11.4908 -11.4504 -11.4328  -2.6485  -2.4396  -2.3218
    -2.2276  -2.1067  -2.0417  -1.8448  -1.6994  -1.6805  -1.6516  -1.5570
    -1.5221  -1.4281  -1.4003  -1.3507  -1.2204  -1.1711  -1.1095  -1.0959
    -1.0515  -1.0093  -0.9857  -0.9616  -0.9187  -0.9032  -0.8124  -0.7621
    -0.6980  -0.6484  -0.6169  -0.5682  -0.5512  -0.4902  -0.4424  -0.3862
    -0.3508  -0.2666  -0.2115  -0.1829  -0.1448  -0.0897  -0.0108   0.0255
     0.0517   0.1366   0.1678   0.4292   0.5754   0.6112   0.6716   0.7126
     0.7839   0.8496   0.8888   0.9240   1.1937   1.2602   1.3338   1.3587
     1.4074   1.4395   1.4746   1.5115   1.5287   1.5553   1.6008   1.6086
     1.6231   1.6678   1.7118   1.7472   1.8071   1.8497   1.8566   1.9001
     1.9279   1.9849   2.0249   2.1422   2.1973   2.2296   2.2549   2.3250
     2.3917   2.4161   2.4468   2.4526   2.4796   2.4915   2.5331   2.6088
     2.6374   2.7259   2.8956   2.9122   2.9188   2.9350   2.9492   2.9623
     2.9761   2.9828   2.9930   3.0062   3.0184   3.0375   3.0434   3.0552
     3.0771   3.0890   3.0981   3.1296   3.4305   3.5251   3.5652   3.6378
     3.6709   3.8761   3.9736   4.3263   4.5404   4.7356   5.0008   5.1760
     5.6618   5.7172   5.7729   5.8557   5.9132   6.0491   6.1699   6.2278
     6.8810   6.9107   7.1259   7.2463   7.5662   7.6176   7.7255   7.8562
     7.8892   8.0092   8.1662   8.2197   8.2722   8.3570   8.4086   8.4634
     8.5634   8.7886   8.9436

     occupation numbers 
     1.0000   1.0000   1.0000   1.0000   1.0000   1.0000   1.0000   1.0000
     1.0000   1.0000   1.0000   1.0000   1.0000   1.0000   1.0000   1.0000
     1.0000   1.0000   1.0000   1.0000   1.0000   1.0000   1.0000   1.0000
     1.0000   1.0000   1.0000   1.0000   1.0000   1.0000   1.0000   1.0000
     1.0000   1.0000   1.0000   1.0000   1.0000   1.0000   1.0000   1.0000
     1.0000   1.0000   1.0000   1.0000   1.0000   1.0000   1.0000   1.0000
     1.0000   1.0000   1.0000   1.0000   1.0000   1.0000   1.0000   1.0000
     1.0000   1.0000   1.0000   1.0000   1.0000   1.0000   1.0000   1.0000
     1.0000   1.0000   1.0000   1.0000   1.0000   1.0000   1.0000   1.0000
     1.0000   1.0000   1.0000   1.0000   1.0000   1.0000   1.0000   1.0000
     1.0000   1.0000   1.0000   1.0000   1.0000   1.0000   1.0000   1.0000
     1.0000   1.0000   1.0000   1.0000   1.0000   1.0000   1.0000   1.0000
     1.0000   1.0000   1.0000   1.0000   1.0000   1.0000   1.0000   1.0000
     1.0000   1.0000   1.0000   1.0000   1.0000   1.0000   1.0000   1.0000
     1.0000   1.0000   1.0000   1.0000   1.0000   1.0000   1.0000   1.0000
     1.0000   1.0000   1.0000   1.0000   1.0000   1.0000   1.0000   1.0000
     1.0000   1.0000   1.0000   1.0000   1.0000   1.0000   1.0000   1.0000
     1.0000   1.0000   1.0000   1.0000   1.0000   1.0000   1.0000   1.0000
     1.0000   1.0000   1.0000   1.0000   1.0000   1.0000   1.0000   1.0000
     1.0000   1.0000   1.0000   1.0000   1.0000   1.0000   1.0000   1.0000
     0.9999   0.9999   0.9999   0.9998   0.9993   0.9990   0.9986   0.9984
     0.9980   0.9977   0.9973   0.9968   0.9965   0.9961   0.9952   0.9951
     0.9947   0.9936   0.9924   0.9912   0.9888   0.9869   0.9865   0.9841
     0.9824   0.9784   0.9751   0.9631   0.9560   0.9513   0.9474   0.9353
     0.9218   0.9163   0.9091   0.9077   0.9009   0.8978   0.8863   0.8632
     0.8536   0.8214   0.7482   0.7403   0.7371   0.7292   0.7221   0.7156
     0.7086   0.7052   0.6999   0.6931   0.6867   0.6766   0.6734   0.6670
     0.6551   0.6486   0.6436   0.6260   0.4501   0.3951   0.3724   0.3324
     0.3147   0.2156   0.1757   0.0728   0.0381   0.0195   0.0070   0.0033
     0.0003   0.0002   0.0002   0.0001   0.0001   0.0000   0.0000   0.0000
     0.0000   0.0000   0.0000   0.0000   0.0000   0.0000   0.0000   0.0000
     0.0000   0.0000   0.0000   0.0000   0.0000   0.0000   0.0000   0.0000
     0.0000   0.0000   0.0000

          k = 0.2500-0.5000 0.0000 ( 65138 PWs)   bands (ev):

   -92.6819 -92.6284 -92.5354 -92.4894 -92.4306 -92.3879 -92.3708 -92.2509
   -56.0353 -56.0150 -55.8928 -55.8825 -55.8754 -55.8693 -55.8331 -55.8047
   -55.7895 -55.7873 -55.7788 -55.7381 -55.7206 -55.6817 -55.6617 -55.6305
   -55.6246 -55.5764 -55.5755 -55.5733 -55.5648 -55.5261 -55.5011 -55.4176
   -31.2575 -31.2415 -31.1040 -31.0986 -31.0194 -31.0121 -30.7388 -30.6242
   -29.8273 -29.7856 -29.7616 -29.6522 -14.9584 -14.9138 -14.8433 -14.7291
   -14.6993 -14.5796 -14.4894 -14.3584 -14.0544 -14.0012 -13.9743 -13.9527
   -13.9472 -13.9374 -13.9234 -13.8868 -13.8706 -13.8374 -13.8007 -13.7739
   -13.7353 -13.6471 -13.5984 -13.5493 -13.5194 -13.4534 -13.4402 -13.3254
   -13.2915 -13.1883 -13.1239 -13.1054 -13.0314 -13.0048 -12.9879 -12.9667
   -12.9449 -12.9234 -12.8928 -12.8136 -12.7915 -12.7347 -12.7117 -12.6495
   -12.6370 -12.6071 -12.5742 -12.5029 -12.3265 -12.3021 -12.2055 -12.1299
   -12.0977 -11.7558 -11.7437 -11.7328 -11.7059 -11.6743 -11.6461 -11.6045
   -11.5769 -11.5547 -11.5092 -11.4839 -11.4725  -2.4307  -2.3637  -2.2359
    -2.1591  -2.0300  -1.9447  -1.8224  -1.6723  -1.6188  -1.5963  -1.5330
    -1.5202  -1.4229  -1.3557  -1.2712  -1.2213  -1.2125  -1.1491  -1.1138
    -1.0986  -1.0720  -1.0247  -0.9872  -0.9521  -0.9117  -0.9005  -0.8547
    -0.8249  -0.7849  -0.7531  -0.6867  -0.5858  -0.5415  -0.4669  -0.4017
    -0.3531  -0.3096  -0.2886  -0.2366  -0.0746  -0.0600   0.0380   0.0792
     0.0875   0.1313   0.1612   0.2108   0.2324   0.2944   0.5652   0.6625
     0.7557   0.8207   1.0527   1.0841   1.1670   1.1931   1.3572   1.3903
     1.4335   1.4543   1.4719   1.4912   1.5536   1.5986   1.6351   1.7192
     1.8060   1.8501   1.8674   1.8833   1.9163   1.9311   1.9349   1.9882
     1.9925   2.0192   2.0488   2.0663   2.0806   2.1231   2.1754   2.2111
     2.2896   2.4394   2.4416   2.5223   2.5761   2.5948   2.6148   2.6386
     2.6635   2.6920   2.7113   2.7270   2.7516   2.8460   2.8954   2.9142
     2.9172   2.9322   2.9525   2.9662   2.9853   2.9928   3.0249   3.0369
     3.0512   3.0612   3.0692   3.0799   3.6090   3.6130   3.7622   3.8126
     4.1724   4.2050   4.2199   4.3333   4.7817   4.9424   5.0797   5.1497
     5.3251   5.4474   5.6180   5.6449   5.7858   5.8061   6.3244   6.4103
     6.5024   6.5897   7.2772   7.3152   7.5706   7.7165   7.8203   7.8627
     7.8978   8.0563   8.2404   8.3924   8.4436   8.5195   8.5612   8.5745
     8.7297   8.7369   8.8082

     occupation numbers 
     1.0000   1.0000   1.0000   1.0000   1.0000   1.0000   1.0000   1.0000
     1.0000   1.0000   1.0000   1.0000   1.0000   1.0000   1.0000   1.0000
     1.0000   1.0000   1.0000   1.0000   1.0000   1.0000   1.0000   1.0000
     1.0000   1.0000   1.0000   1.0000   1.0000   1.0000   1.0000   1.0000
     1.0000   1.0000   1.0000   1.0000   1.0000   1.0000   1.0000   1.0000
     1.0000   1.0000   1.0000   1.0000   1.0000   1.0000   1.0000   1.0000
     1.0000   1.0000   1.0000   1.0000   1.0000   1.0000   1.0000   1.0000
     1.0000   1.0000   1.0000   1.0000   1.0000   1.0000   1.0000   1.0000
     1.0000   1.0000   1.0000   1.0000   1.0000   1.0000   1.0000   1.0000
     1.0000   1.0000   1.0000   1.0000   1.0000   1.0000   1.0000   1.0000
     1.0000   1.0000   1.0000   1.0000   1.0000   1.0000   1.0000   1.0000
     1.0000   1.0000   1.0000   1.0000   1.0000   1.0000   1.0000   1.0000
     1.0000   1.0000   1.0000   1.0000   1.0000   1.0000   1.0000   1.0000
     1.0000   1.0000   1.0000   1.0000   1.0000   1.0000   1.0000   1.0000
     1.0000   1.0000   1.0000   1.0000   1.0000   1.0000   1.0000   1.0000
     1.0000   1.0000   1.0000   1.0000   1.0000   1.0000   1.0000   1.0000
     1.0000   1.0000   1.0000   1.0000   1.0000   1.0000   1.0000   1.0000
     1.0000   1.0000   1.0000   1.0000   1.0000   1.0000   1.0000   1.0000
     1.0000   1.0000   1.0000   1.0000   1.0000   1.0000   1.0000   1.0000
     1.0000   1.0000   1.0000   1.0000   1.0000   1.0000   1.0000   1.0000
     0.9999   0.9999   0.9997   0.9996   0.9994   0.9993   0.9984   0.9982
     0.9977   0.9975   0.9973   0.9971   0.9961   0.9953   0.9945   0.9921
     0.9889   0.9868   0.9859   0.9851   0.9831   0.9822   0.9819   0.9781
     0.9778   0.9756   0.9730   0.9713   0.9699   0.9653   0.9589   0.9540
     0.9416   0.9109   0.9104   0.8894   0.8735   0.8677   0.8612   0.8532
     0.8446   0.8343   0.8270   0.8210   0.8113   0.7711   0.7483   0.7393
     0.7379   0.7306   0.7205   0.7136   0.7039   0.7000   0.6833   0.6769
     0.6692   0.6638   0.6595   0.6537   0.3481   0.3459   0.2683   0.2442
     0.1099   0.1011   0.0972   0.0713   0.0165   0.0089   0.0050   0.0037
     0.0016   0.0009   0.0004   0.0003   0.0001   0.0001   0.0000   0.0000
     0.0000   0.0000   0.0000   0.0000   0.0000   0.0000   0.0000   0.0000
     0.0000   0.0000   0.0000   0.0000   0.0000   0.0000   0.0000   0.0000
     0.0000   0.0000   0.0000

          k =-0.5000-0.5000 0.0000 ( 65132 PWs)   bands (ev):

   -92.6819 -92.6284 -92.5354 -92.4894 -92.4306 -92.3879 -92.3708 -92.2509
   -56.0353 -56.0150 -55.8928 -55.8825 -55.8754 -55.8693 -55.8331 -55.8047
   -55.7895 -55.7873 -55.7788 -55.7381 -55.7206 -55.6817 -55.6617 -55.6305
   -55.6246 -55.5764 -55.5755 -55.5733 -55.5648 -55.5261 -55.5011 -55.4176
   -31.2554 -31.2436 -31.1039 -31.0983 -31.0193 -31.0125 -30.7389 -30.6243
   -29.8263 -29.7867 -29.7612 -29.6526 -14.9107 -14.8869 -14.7694 -14.7559
   -14.6626 -14.6258 -14.5943 -14.4583 -13.9643 -13.9536 -13.9472 -13.9175
   -13.9016 -13.8812 -13.8679 -13.8400 -13.8281 -13.8161 -13.8075 -13.7931
   -13.7148 -13.7062 -13.6804 -13.6439 -13.6357 -13.5402 -13.5089 -13.3625
   -13.3330 -13.1383 -13.1032 -13.0327 -13.0074 -13.0036 -12.9789 -12.9656
   -12.9562 -12.9431 -12.9331 -12.8162 -12.7806 -12.7404 -12.7172 -12.6616
   -12.5945 -12.5829 -12.5709 -12.5192 -12.3091 -12.2977 -12.1793 -12.1209
   -12.1023 -11.7521 -11.7403 -11.7224 -11.7055 -11.6706 -11.6520 -11.6188
   -11.5569 -11.5376 -11.5314 -11.4817 -11.4782  -2.2067  -2.1314  -2.1195
    -2.0477  -2.0098  -1.9316  -1.8639  -1.7384  -1.6227  -1.5919  -1.5534
    -1.4953  -1.4240  -1.4094  -1.3388  -1.2961  -1.1795  -1.1504  -1.1129
    -1.0938  -1.0729  -1.0087  -0.9623  -0.9434  -0.9307  -0.8779  -0.8336
    -0.8192  -0.7045  -0.6454  -0.5990  -0.5516  -0.5239  -0.5135  -0.4777
    -0.4331  -0.4003  -0.3886  -0.3011  -0.2360  -0.1910  -0.1633  -0.0917
    -0.0361  -0.0112   0.0380   0.0590   0.0787   0.0931   0.5356   0.5829
     0.7024   0.7529   1.0877   1.0995   1.1318   1.1730   1.4418   1.4614
     1.4683   1.5079   1.6363   1.7326   1.7589   1.7955   1.8161   1.8439
     1.8497   1.8787   1.8902   1.9108   1.9185   1.9683   1.9694   1.9994
     2.0356   2.0397   2.0583   2.0977   2.1163   2.1331   2.1605   2.1899
     2.2507   2.3218   2.4412   2.5185   2.5922   2.6193   2.6409   2.6571
     2.6746   2.6982   2.7017   2.7235   2.7334   2.7499   2.7713   2.7821
     2.8472   2.8501   2.8712   2.8868   2.8962   2.9161   2.9214   2.9303
     3.0331   3.0384   3.0660   3.0759   4.0365   4.0540   4.0902   4.1180
     4.3391   4.4135   4.4378   4.6786   4.8009   4.8835   5.0119   5.0996
     5.1126   5.2247   5.3229   5.4132   5.8664   5.8951   5.9704   6.0412
     6.4664   6.8311   6.9913   7.1193   7.9065   7.9202   7.9495   7.9746
     7.9957   8.0358   8.1042   8.2796   8.3870   8.6033   8.6260   8.6323
     8.6771   8.7283   8.7616

     occupation numbers 
     1.0000   1.0000   1.0000   1.0000   1.0000   1.0000   1.0000   1.0000
     1.0000   1.0000   1.0000   1.0000   1.0000   1.0000   1.0000   1.0000
     1.0000   1.0000   1.0000   1.0000   1.0000   1.0000   1.0000   1.0000
     1.0000   1.0000   1.0000   1.0000   1.0000   1.0000   1.0000   1.0000
     1.0000   1.0000   1.0000   1.0000   1.0000   1.0000   1.0000   1.0000
     1.0000   1.0000   1.0000   1.0000   1.0000   1.0000   1.0000   1.0000
     1.0000   1.0000   1.0000   1.0000   1.0000   1.0000   1.0000   1.0000
     1.0000   1.0000   1.0000   1.0000   1.0000   1.0000   1.0000   1.0000
     1.0000   1.0000   1.0000   1.0000   1.0000   1.0000   1.0000   1.0000
     1.0000   1.0000   1.0000   1.0000   1.0000   1.0000   1.0000   1.0000
     1.0000   1.0000   1.0000   1.0000   1.0000   1.0000   1.0000   1.0000
     1.0000   1.0000   1.0000   1.0000   1.0000   1.0000   1.0000   1.0000
     1.0000   1.0000   1.0000   1.0000   1.0000   1.0000   1.0000   1.0000
     1.0000   1.0000   1.0000   1.0000   1.0000   1.0000   1.0000   1.0000
     1.0000   1.0000   1.0000   1.0000   1.0000   1.0000   1.0000   1.0000
     1.0000   1.0000   1.0000   1.0000   1.0000   1.0000   1.0000   1.0000
     1.0000   1.0000   1.0000   1.0000   1.0000   1.0000   1.0000   1.0000
     1.0000   1.0000   1.0000   1.0000   1.0000   1.0000   1.0000   1.0000
     1.0000   1.0000   1.0000   1.0000   1.0000   1.0000   1.0000   1.0000
     1.0000   1.0000   1.0000   1.0000   1.0000   1.0000   1.0000   1.0000
     1.0000   0.9999   0.9996   0.9996   0.9995   0.9994   0.9977   0.9974
     0.9974   0.9968   0.9944   0.9917   0.9908   0.9893   0.9884   0.9871
     0.9869   0.9853   0.9847   0.9835   0.9830   0.9796   0.9795   0.9772
     0.9742   0.9738   0.9721   0.9681   0.9661   0.9642   0.9608   0.9570
     0.9481   0.9358   0.9105   0.8904   0.8685   0.8597   0.8524   0.8468
     0.8406   0.8320   0.8306   0.8224   0.8185   0.8120   0.8033   0.7988
     0.7706   0.7693   0.7596   0.7523   0.7479   0.7384   0.7358   0.7315
     0.6789   0.6761   0.6612   0.6558   0.1526   0.1466   0.1346   0.1258
     0.0702   0.0565   0.0525   0.0239   0.0154   0.0112   0.0067   0.0046
     0.0044   0.0026   0.0017   0.0011   0.0001   0.0001   0.0000   0.0000
     0.0000   0.0000   0.0000   0.0000   0.0000   0.0000   0.0000   0.0000
     0.0000   0.0000   0.0000   0.0000   0.0000   0.0000   0.0000   0.0000
     0.0000   0.0000   0.0000

          k = 0.2500 0.0000 0.0000 ( 65257 PWs)   bands (ev):

   -92.6819 -92.6284 -92.5354 -92.4894 -92.4306 -92.3879 -92.3708 -92.2509
   -56.0353 -56.0150 -55.8928 -55.8825 -55.8754 -55.8693 -55.8331 -55.8047
   -55.7895 -55.7873 -55.7788 -55.7381 -55.7206 -55.6817 -55.6617 -55.6305
   -55.6246 -55.5764 -55.5755 -55.5733 -55.5648 -55.5261 -55.5011 -55.4176
   -31.2579 -31.2417 -31.1047 -31.0982 -31.0187 -31.0119 -30.7394 -30.6237
   -29.8286 -29.7863 -29.7603 -29.6515 -15.0293 -14.9837 -14.9181 -14.7705
   -14.6649 -14.4664 -14.3377 -14.1573 -14.1396 -14.1107 -14.0793 -14.0539
   -14.0175 -14.0040 -13.9829 -13.9468 -13.9425 -13.8217 -13.7911 -13.6408
   -13.5738 -13.5623 -13.5024 -13.4737 -13.4609 -13.4034 -13.3267 -13.2946
   -13.1915 -13.1411 -13.1316 -13.0905 -13.0421 -13.0261 -13.0097 -12.9949
   -12.9608 -12.9356 -12.9177 -12.9003 -12.8814 -12.8013 -12.7529 -12.6861
   -12.5990 -12.5769 -12.5639 -12.5242 -12.4940 -12.3875 -12.2306 -12.0261
   -11.9740 -11.8072 -11.7557 -11.7382 -11.7243 -11.6978 -11.6475 -11.6241
   -11.6161 -11.5662 -11.4756 -11.4203 -11.4145  -2.7863  -2.5645  -2.4347
    -2.2620  -2.1981  -2.0282  -1.8213  -1.7437  -1.7000  -1.6655  -1.5646
[...]
     0.3502   0.3283   0.2051   0.0792   0.0446   0.0216   0.0061   0.0049
     0.0003   0.0001   0.0001   0.0000   0.0000   0.0000   0.0000   0.0000
     0.0000   0.0000   0.0000   0.0000   0.0000   0.0000   0.0000   0.0000
     0.0000   0.0000   0.0000   0.0000   0.0000   0.0000   0.0000   0.0000
     0.0000   0.0000   0.0000

          k =-0.5000 0.0000 0.0000 ( 65180 PWs)   bands (ev):

   -92.6819 -92.6284 -92.5354 -92.4894 -92.4306 -92.3879 -92.3708 -92.2509
   -56.0353 -56.0150 -55.8928 -55.8825 -55.8754 -55.8693 -55.8331 -55.8047
   -55.7895 -55.7873 -55.7788 -55.7381 -55.7206 -55.6817 -55.6617 -55.6305
   -55.6246 -55.5764 -55.5755 -55.5733 -55.5648 -55.5261 -55.5011 -55.4176
   -31.2558 -31.2439 -31.1046 -31.0979 -31.0186 -31.0122 -30.7395 -30.6237
   -29.8276 -29.7873 -29.7599 -29.6519 -14.9950 -14.9410 -14.8794 -14.7749
   -14.6680 -14.5257 -14.3738 -14.2432 -14.1130 -14.1026 -14.0893 -14.0224
   -13.9727 -13.9485 -13.9361 -13.8884 -13.8878 -13.8688 -13.8194 -13.8073
   -13.6900 -13.5356 -13.5099 -13.4758 -13.4686 -13.4080 -13.3456 -13.2656
   -13.2493 -13.2258 -13.1993 -13.0871 -13.0361 -13.0247 -13.0029 -12.9922
   -12.9610 -12.9288 -12.9109 -12.9008 -12.8850 -12.6810 -12.6219 -12.6130
   -12.5712 -12.5630 -12.5427 -12.5224 -12.4381 -12.3244 -12.3085 -12.1069
   -12.0700 -11.7597 -11.7378 -11.7313 -11.7158 -11.6979 -11.6565 -11.5945
   -11.5774 -11.5450 -11.4980 -11.4888 -11.4736  -2.5620  -2.5239  -2.3597
    -2.3209  -2.0070  -1.9332  -1.7831  -1.6666  -1.6280  -1.5824  -1.5337
    -1.5093  -1.3858  -1.3416  -1.3257  -1.2435  -1.2090  -1.1915  -1.1617
    -1.1226  -1.0898  -1.0321  -1.0062  -0.9771  -0.8816  -0.8346  -0.7848
    -0.7529  -0.7311  -0.7024  -0.6543  -0.6292  -0.5888  -0.4944  -0.4145
    -0.3571  -0.2941  -0.1180  -0.0866  -0.0363  -0.0064   0.0671   0.0744
     0.2175   0.2479   0.2994   0.4599   0.5587   0.6068   0.6954   0.7812
     0.8929   0.8965   1.0287   1.0504   1.1053   1.1320   1.1738   1.1835
     1.2262   1.2542   1.3195   1.3685   1.4162   1.4240   1.7286   1.7353
     1.7522   1.7721   1.8770   1.8890   1.9107   1.9212   1.9443   1.9542
     1.9997   2.0199   2.0534   2.0969   2.1156   2.1633   2.1944   2.2404
     2.3555   2.4360   2.4713   2.5086   2.5359   2.5411   2.6277   2.6458
     2.6775   2.7434   2.7507   2.7581   2.7874   2.8577   2.9014   2.9451
     2.9771   3.0198   3.0240   3.0243   3.0364   3.0521   3.0632   3.0775
     3.0813   3.1039   3.1073   3.1286   3.1486   3.1537   3.2858   3.2895
     4.1004   4.1422   4.2051   4.3637   4.8102   4.8816   5.0598   5.0686
     5.4977   5.5252   5.6118   5.6700   6.0381   6.0535   6.2026   6.5249
     6.8102   7.0163   7.2949   7.3424   7.3666   7.4050   7.6494   7.7936
     7.8831   7.9107   8.1558   8.2341   8.3550   8.5248   8.5837   8.6635
     8.7765   8.8077   8.9653

     occupation numbers 
     1.0000   1.0000   1.0000   1.0000   1.0000   1.0000   1.0000   1.0000
     1.0000   1.0000   1.0000   1.0000   1.0000   1.0000   1.0000   1.0000
     1.0000   1.0000   1.0000   1.0000   1.0000   1.0000   1.0000   1.0000
     1.0000   1.0000   1.0000   1.0000   1.0000   1.0000   1.0000   1.0000
     1.0000   1.0000   1.0000   1.0000   1.0000   1.0000   1.0000   1.0000
     1.0000   1.0000   1.0000   1.0000   1.0000   1.0000   1.0000   1.0000
     1.0000   1.0000   1.0000   1.0000   1.0000   1.0000   1.0000   1.0000
     1.0000   1.0000   1.0000   1.0000   1.0000   1.0000   1.0000   1.0000
     1.0000   1.0000   1.0000   1.0000   1.0000   1.0000   1.0000   1.0000
     1.0000   1.0000   1.0000   1.0000   1.0000   1.0000   1.0000   1.0000
     1.0000   1.0000   1.0000   1.0000   1.0000   1.0000   1.0000   1.0000
     1.0000   1.0000   1.0000   1.0000   1.0000   1.0000   1.0000   1.0000
     1.0000   1.0000   1.0000   1.0000   1.0000   1.0000   1.0000   1.0000
     1.0000   1.0000   1.0000   1.0000   1.0000   1.0000   1.0000   1.0000
     1.0000   1.0000   1.0000   1.0000   1.0000   1.0000   1.0000   1.0000
     1.0000   1.0000   1.0000   1.0000   1.0000   1.0000   1.0000   1.0000
     1.0000   1.0000   1.0000   1.0000   1.0000   1.0000   1.0000   1.0000
     1.0000   1.0000   1.0000   1.0000   1.0000   1.0000   1.0000   1.0000
     1.0000   1.0000   1.0000   1.0000   1.0000   1.0000   1.0000   1.0000
     1.0000   1.0000   1.0000   1.0000   1.0000   1.0000   1.0000   0.9999
     0.9999   0.9999   0.9997   0.9997   0.9996   0.9995   0.9994   0.9993
     0.9992   0.9991   0.9987   0.9983   0.9979   0.9978   0.9918   0.9916
     0.9910   0.9903   0.9854   0.9847   0.9835   0.9828   0.9813   0.9806
     0.9772   0.9755   0.9725   0.9682   0.9662   0.9605   0.9564   0.9497
     0.9293   0.9117   0.9030   0.8931   0.8855   0.8840   0.8569   0.8508
     0.8395   0.8146   0.8116   0.8087   0.7966   0.7658   0.7454   0.7242
     0.7081   0.6859   0.6837   0.6835   0.6772   0.6687   0.6628   0.6549
     0.6528   0.6404   0.6385   0.6266   0.6153   0.6124   0.5356   0.5334
     0.1313   0.1185   0.1010   0.0654   0.0148   0.0113   0.0055   0.0053
     0.0007   0.0006   0.0004   0.0003   0.0000   0.0000   0.0000   0.0000
     0.0000   0.0000   0.0000   0.0000   0.0000   0.0000   0.0000   0.0000
     0.0000   0.0000   0.0000   0.0000   0.0000   0.0000   0.0000   0.0000
     0.0000   0.0000   0.0000

          k =-0.2500 0.2500 0.0000 ( 65198 PWs)   bands (ev):

   -92.6819 -92.6284 -92.5354 -92.4894 -92.4306 -92.3879 -92.3708 -92.2509
   -56.0353 -56.0150 -55.8928 -55.8825 -55.8754 -55.8693 -55.8331 -55.8047
   -55.7895 -55.7873 -55.7788 -55.7381 -55.7206 -55.6817 -55.6617 -55.6305
   -55.6246 -55.5764 -55.5755 -55.5733 -55.5648 -55.5261 -55.5011 -55.4176
   -31.2577 -31.2416 -31.1043 -31.0984 -31.0190 -31.0120 -30.7391 -30.6239
   -29.8280 -29.7860 -29.7609 -29.6519 -14.9979 -14.9527 -14.8828 -14.7659
   -14.6537 -14.5257 -14.4432 -14.2355 -14.0964 -14.0666 -14.0545 -14.0047
   -13.9820 -13.9622 -13.9482 -13.9401 -13.9042 -13.8170 -13.8054 -13.6537
   -13.6271 -13.5976 -13.5775 -13.5349 -13.4781 -13.4212 -13.4167 -13.2755
   -13.2381 -13.2047 -13.1282 -13.0874 -13.0422 -13.0209 -12.9935 -12.9733
   -12.9445 -12.9131 -12.9082 -12.8723 -12.8301 -12.7526 -12.7198 -12.6744
   -12.6651 -12.6180 -12.5677 -12.4236 -12.4168 -12.3608 -12.2644 -12.0624
   -12.0175 -11.7793 -11.7580 -11.7306 -11.7187 -11.6774 -11.6431 -11.6196
   -11.5988 -11.5758 -11.4906 -11.4457 -11.4361  -2.6469  -2.4385  -2.3177
    -2.2292  -2.1109  -2.0445  -1.8424  -1.6962  -1.6782  -1.6496  -1.5576
    -1.5210  -1.4277  -1.3941  -1.3678  -1.2255  -1.1709  -1.1092  -1.1007
    -1.0685  -1.0120  -0.9912  -0.9514  -0.9225  -0.8823  -0.8190  -0.7709
    -0.7097  -0.6395  -0.6125  -0.5618  -0.5326  -0.4872  -0.4327  -0.3890
    -0.3458  -0.2481  -0.2119  -0.2007  -0.1585  -0.0910  -0.0152   0.0314
     0.0571   0.1410   0.1643   0.4107   0.5775   0.6196   0.6591   0.7201
     0.7908   0.8460   0.8963   0.9216   1.2012   1.3107   1.3512   1.3825
     1.3889   1.4334   1.4492   1.4935   1.5236   1.5386   1.5638   1.6084
     1.6246   1.6681   1.6844   1.7298   1.8207   1.8416   1.8564   1.9067
     1.9229   1.9646   2.0335   2.1331   2.2243   2.2533   2.3020   2.3222
     2.3910   2.4283   2.4445   2.4592   2.4795   2.4977   2.5364   2.6085
     2.6355   2.7258   2.9023   2.9107   2.9243   2.9344   2.9453   2.9592
     2.9655   2.9831   2.9923   3.0070   3.0165   3.0291   3.0385   3.0456
     3.0787   3.0889   3.0973   3.1316   3.4237   3.5060   3.5693   3.6556
     3.6653   3.8607   3.9822   4.3254   4.5392   4.7362   5.0110   5.1760
     5.6637   5.7135   5.7753   5.8531   5.9143   6.0494   6.1828   6.2119
     6.8864   6.9173   7.0999   7.2676   7.5803   7.6243   7.6846   7.8593
     7.9159   7.9775   8.1876   8.2226   8.3015   8.3566   8.3694   8.4650
     8.5492   8.8108   8.9468

     occupation numbers 
     1.0000   1.0000   1.0000   1.0000   1.0000   1.0000   1.0000   1.0000
     1.0000   1.0000   1.0000   1.0000   1.0000   1.0000   1.0000   1.0000
     1.0000   1.0000   1.0000   1.0000   1.0000   1.0000   1.0000   1.0000
     1.0000   1.0000   1.0000   1.0000   1.0000   1.0000   1.0000   1.0000
     1.0000   1.0000   1.0000   1.0000   1.0000   1.0000   1.0000   1.0000
     1.0000   1.0000   1.0000   1.0000   1.0000   1.0000   1.0000   1.0000
     1.0000   1.0000   1.0000   1.0000   1.0000   1.0000   1.0000   1.0000
     1.0000   1.0000   1.0000   1.0000   1.0000   1.0000   1.0000   1.0000
     1.0000   1.0000   1.0000   1.0000   1.0000   1.0000   1.0000   1.0000
     1.0000   1.0000   1.0000   1.0000   1.0000   1.0000   1.0000   1.0000
     1.0000   1.0000   1.0000   1.0000   1.0000   1.0000   1.0000   1.0000
     1.0000   1.0000   1.0000   1.0000   1.0000   1.0000   1.0000   1.0000
     1.0000   1.0000   1.0000   1.0000   1.0000   1.0000   1.0000   1.0000
     1.0000   1.0000   1.0000   1.0000   1.0000   1.0000   1.0000   1.0000
     1.0000   1.0000   1.0000   1.0000   1.0000   1.0000   1.0000   1.0000
     1.0000   1.0000   1.0000   1.0000   1.0000   1.0000   1.0000   1.0000
     1.0000   1.0000   1.0000   1.0000   1.0000   1.0000   1.0000   1.0000
     1.0000   1.0000   1.0000   1.0000   1.0000   1.0000   1.0000   1.0000
     1.0000   1.0000   1.0000   1.0000   1.0000   1.0000   1.0000   1.0000
     1.0000   1.0000   1.0000   1.0000   1.0000   1.0000   1.0000   1.0000
     0.9999   0.9999   0.9999   0.9998   0.9993   0.9987   0.9985   0.9982
     0.9982   0.9977   0.9976   0.9970   0.9966   0.9964   0.9959   0.9951
     0.9947   0.9936   0.9932   0.9918   0.9882   0.9873   0.9865   0.9837
     0.9827   0.9799   0.9743   0.9642   0.9521   0.9477   0.9395   0.9358
     0.9219   0.9135   0.9096   0.9061   0.9009   0.8961   0.8854   0.8633
     0.8543   0.8215   0.7450   0.7410   0.7344   0.7295   0.7241   0.7171
     0.7140   0.7050   0.7003   0.6927   0.6877   0.6810   0.6760   0.6722
     0.6543   0.6487   0.6441   0.6249   0.4541   0.4061   0.3701   0.3229
     0.3177   0.2224   0.1724   0.0729   0.0382   0.0195   0.0067   0.0033
     0.0003   0.0002   0.0002   0.0001   0.0001   0.0000   0.0000   0.0000
     0.0000   0.0000   0.0000   0.0000   0.0000   0.0000   0.0000   0.0000
     0.0000   0.0000   0.0000   0.0000   0.0000   0.0000   0.0000   0.0000
     0.0000   0.0000   0.0000

          k =-0.5000 0.2500 0.0000 ( 65138 PWs)   bands (ev):

   -92.6819 -92.6284 -92.5354 -92.4894 -92.4306 -92.3879 -92.3708 -92.2509
   -56.0353 -56.0150 -55.8928 -55.8825 -55.8754 -55.8693 -55.8331 -55.8047
   -55.7895 -55.7873 -55.7788 -55.7381 -55.7206 -55.6817 -55.6617 -55.6305
   -55.6246 -55.5764 -55.5755 -55.5733 -55.5648 -55.5261 -55.5011 -55.4176
   -31.2556 -31.2437 -31.1042 -31.0981 -31.0189 -31.0124 -30.7392 -30.6240
   -29.8270 -29.7870 -29.7605 -29.6523 -14.9618 -14.9151 -14.8363 -14.7403
   -14.6985 -14.5721 -14.4796 -14.3565 -14.0469 -14.0158 -14.0039 -13.9580
   -13.9463 -13.9365 -13.9114 -13.8754 -13.8736 -13.8460 -13.8109 -13.7990
   -13.6845 -13.6184 -13.5701 -13.5674 -13.5537 -13.4601 -13.4494 -13.3088
   -13.2784 -13.1813 -13.1466 -13.0549 -13.0385 -13.0076 -12.9974 -12.9763
   -12.9458 -12.9244 -12.9146 -12.8868 -12.8366 -12.6923 -12.6414 -12.6282
   -12.6044 -12.5978 -12.5666 -12.5206 -12.3606 -12.3039 -12.2504 -12.1070
   -12.0851 -11.7523 -11.7393 -11.7252 -11.7136 -11.6915 -11.6614 -11.5818
   -11.5726 -11.5501 -11.5125 -11.4848 -11.4763  -2.4197  -2.3781  -2.2294
    -2.1874  -2.0262  -1.9517  -1.8074  -1.6730  -1.6165  -1.5896  -1.5500
    -1.5116  -1.4307  -1.3157  -1.2585  -1.2357  -1.2103  -1.1356  -1.1110
    -1.1023  -1.0593  -1.0481  -0.9873  -0.9589  -0.9196  -0.8844  -0.8555
    -0.7978  -0.7709  -0.7292  -0.6950  -0.5909  -0.5624  -0.4766  -0.4113
    -0.3801  -0.3273  -0.2387  -0.2043  -0.1054  -0.0629  -0.0084   0.0488
     0.0645   0.1401   0.1696   0.2056   0.2515   0.2911   0.6008   0.6633
     0.7467   0.7905   1.0386   1.0933   1.1665   1.1960   1.3700   1.4070
     1.4449   1.4562   1.4748   1.4928   1.5625   1.6037   1.6467   1.6722
     1.8033   1.8324   1.8649   1.8778   1.9284   1.9401   1.9556   1.9736
     1.9934   2.0138   2.0663   2.0743   2.1099   2.1317   2.1702   2.2224
     2.3428   2.4287   2.4584   2.4692   2.5186   2.5459   2.5733   2.6435
     2.6729   2.6787   2.7170   2.7494   2.7726   2.8576   2.8977   2.9114
     2.9163   2.9375   2.9607   2.9732   2.9884   3.0000   3.0218   3.0347
     3.0450   3.0523   3.0639   3.0751   3.6038   3.6543   3.7945   3.8175
     4.1054   4.1671   4.2165   4.4385   4.8049   4.8994   5.0603   5.0956
     5.4227   5.4503   5.6016   5.6345   5.7663   5.8021   6.2839   6.4062
     6.5086   6.6640   7.1837   7.3931   7.5446   7.7257   7.8073   7.8662
     7.9188   8.0411   8.2004   8.4008   8.4269   8.5243   8.5555   8.5915
     8.6662   8.7467   8.8507

     occupation numbers 
     1.0000   1.0000   1.0000   1.0000   1.0000   1.0000   1.0000   1.0000
     1.0000   1.0000   1.0000   1.0000   1.0000   1.0000   1.0000   1.0000
     1.0000   1.0000   1.0000   1.0000   1.0000   1.0000   1.0000   1.0000
     1.0000   1.0000   1.0000   1.0000   1.0000   1.0000   1.0000   1.0000
     1.0000   1.0000   1.0000   1.0000   1.0000   1.0000   1.0000   1.0000
     1.0000   1.0000   1.0000   1.0000   1.0000   1.0000   1.0000   1.0000
     1.0000   1.0000   1.0000   1.0000   1.0000   1.0000   1.0000   1.0000
     1.0000   1.0000   1.0000   1.0000   1.0000   1.0000   1.0000   1.0000
     1.0000   1.0000   1.0000   1.0000   1.0000   1.0000   1.0000   1.0000
     1.0000   1.0000   1.0000   1.0000   1.0000   1.0000   1.0000   1.0000
     1.0000   1.0000   1.0000   1.0000   1.0000   1.0000   1.0000   1.0000
     1.0000   1.0000   1.0000   1.0000   1.0000   1.0000   1.0000   1.0000
     1.0000   1.0000   1.0000   1.0000   1.0000   1.0000   1.0000   1.0000
     1.0000   1.0000   1.0000   1.0000   1.0000   1.0000   1.0000   1.0000
     1.0000   1.0000   1.0000   1.0000   1.0000   1.0000   1.0000   1.0000
     1.0000   1.0000   1.0000   1.0000   1.0000   1.0000   1.0000   1.0000
     1.0000   1.0000   1.0000   1.0000   1.0000   1.0000   1.0000   1.0000
     1.0000   1.0000   1.0000   1.0000   1.0000   1.0000   1.0000   1.0000
     1.0000   1.0000   1.0000   1.0000   1.0000   1.0000   1.0000   1.0000
     1.0000   1.0000   1.0000   1.0000   1.0000   1.0000   1.0000   1.0000
     0.9999   0.9999   0.9997   0.9996   0.9994   0.9993   0.9983   0.9980
     0.9976   0.9975   0.9973   0.9970   0.9960   0.9952   0.9942   0.9935
     0.9890   0.9877   0.9861   0.9854   0.9824   0.9816   0.9805   0.9792
     0.9777   0.9760   0.9713   0.9705   0.9668   0.9643   0.9596   0.9524
     0.9318   0.9134   0.9063   0.9035   0.8904   0.8826   0.8744   0.8515
     0.8412   0.8391   0.8248   0.8122   0.8027   0.7658   0.7472   0.7406
     0.7383   0.7280   0.7164   0.7101   0.7023   0.6963   0.6849   0.6781
     0.6726   0.6687   0.6624   0.6563   0.3510   0.3236   0.2527   0.2419
     0.1297   0.1114   0.0981   0.0524   0.0151   0.0105   0.0055   0.0047
     0.0010   0.0009   0.0004   0.0003   0.0002   0.0001   0.0000   0.0000
     0.0000   0.0000   0.0000   0.0000   0.0000   0.0000   0.0000   0.0000
     0.0000   0.0000   0.0000   0.0000   0.0000   0.0000   0.0000   0.0000
     0.0000   0.0000   0.0000

     the Fermi energy is     3.3460 ev

!    total energy              =   -4441.65565167 Ry
     estimated scf accuracy    <          7.4E-09 Ry
     smearing contrib. (-TS)   =      -1.15512650 Ry
     internal energy E=F+TS    =   -4440.50052517 Ry

     The total energy is F=E-TS. E is the sum of the following terms:
     one-electron contribution =  -20804.81608196 Ry
     hartree contribution      =   10534.67746920 Ry
     xc contribution           =    -694.18173739 Ry
     ewald contribution        =    6799.99001164 Ry
     one-center paw contrib.   =    -276.17018665 Ry
      -> PAW hartree energy AE =      25.16892834 Ry
      -> PAW hartree energy PS =     -25.05276153 Ry
      -> PAW xc energy AE      =     -16.51835509 Ry
      -> PAW xc energy PS      =       6.87785770 Ry
      -> total E_H with PAW    =   10534.79363601 Ry
      -> total E_XC with PAW   =    -703.82223478 Ry

     convergence has been achieved in  47 iterations

     Writing all to output data dir /bsuhome/zayahcortright/scratch/pwscf.save/
 
     init_run     :      7.57s CPU      8.44s WALL (       1 calls)
     electrons    :    763.71s CPU    844.38s WALL (       1 calls)

     Called by init_run:
     wfcinit      :      6.09s CPU      6.34s WALL (       1 calls)
     wfcinit:atom :      0.05s CPU      0.07s WALL (       5 calls)
     wfcinit:wfcr :      5.77s CPU      5.92s WALL (       5 calls)
     potinit      :      0.18s CPU      0.20s WALL (       1 calls)
     hinit0       :      0.45s CPU      0.77s WALL (       1 calls)

     Called by electrons:
     c_bands      :    618.71s CPU    630.54s WALL (      47 calls)
     sum_band     :    108.19s CPU    145.78s WALL (      47 calls)
     v_of_rho     :      5.05s CPU      5.47s WALL (      48 calls)
     v_h          :      0.45s CPU      0.45s WALL (      48 calls)
     v_xc         :      4.60s CPU      5.02s WALL (      48 calls)
     newd         :     17.87s CPU     48.33s WALL (      48 calls)
     PAW_pot      :      1.68s CPU      1.72s WALL (      48 calls)
     mix_rho      :     11.88s CPU     12.28s WALL (      47 calls)

     Called by c_bands:
     init_us_2    :      6.44s CPU      6.57s WALL (     475 calls)
     init_us_2:cp :      6.43s CPU      6.57s WALL (     475 calls)
     cegterg      :    583.82s CPU    595.25s WALL (     235 calls)

     Called by sum_band:
     sum_band:wei :      0.34s CPU      0.34s WALL (      47 calls)
     sum_band:loo :     85.95s CPU     86.68s WALL (      47 calls)
     sum_band:buf :      1.34s CPU      1.42s WALL (     235 calls)
     sum_band:ini :      2.89s CPU      2.92s WALL (     235 calls)
     sum_band:cal :     18.61s CPU     18.66s WALL (     235 calls)
     sum_band:bec :      0.55s CPU      0.59s WALL (     235 calls)
     addusdens    :     16.25s CPU     53.03s WALL (      47 calls)
                                        0.00s GPU  (      47 calls)
     addusd:skk   :      0.27s CPU      2.26s WALL (     188 calls)
                                        0.00s GPU  (     188 calls)

     Called by *egterg:
     cdiaghg      :     57.33s CPU     57.57s WALL (    1304 calls)
     cegterg:over :     43.11s CPU     43.29s WALL (    1069 calls)
     cegterg:upda :     47.81s CPU     48.74s WALL (    1069 calls)
     cegterg:last :     67.58s CPU     67.83s WALL (     428 calls)
     cdiaghg:chol :      3.36s CPU      3.38s WALL (    1304 calls)
     cdiaghg:inve :      3.69s CPU      3.70s WALL (    1304 calls)
     cdiaghg:para :      7.48s CPU      7.53s WALL (    2608 calls)
     h_psi        :    299.51s CPU    304.32s WALL (    1309 calls)
     s_psi        :     42.99s CPU     43.13s WALL (    1309 calls)
     g_psi        :      2.20s CPU      2.21s WALL (    1069 calls)

     Called by h_psi:
     h_psi:calbec :     43.96s CPU     44.20s WALL (    1309 calls)
     vloc_psi     :    207.66s CPU    209.72s WALL (    1309 calls)
     add_vuspsi   :     42.73s CPU     42.98s WALL (    1309 calls)

     General routines
     calbec       :     62.56s CPU     62.86s WALL (    1544 calls)
     fft          :      6.54s CPU      6.62s WALL (     622 calls)
     ffts         :      4.47s CPU      4.51s WALL (    5013 calls)
     fftw         :    170.97s CPU    172.43s WALL (  319899 calls)
     interpolate  :      0.39s CPU      0.40s WALL (      48 calls)
 
     Parallel routines

     PAW routines
     PAW_pot      :      1.68s CPU      1.72s WALL (      48 calls)
 
     PWSCF        :  12m53.26s CPU  14m18.03s WALL

 
   This run was terminated on:  20: 5:52  21Jun2024            

=------------------------------------------------------------------------------=
   JOB DONE.
=------------------------------------------------------------------------------=
