
     Program PWSCF v.7.2 starts on 21Jun2024 at 13: 9:37 

     This program is part of the open-source Quantum ESPRESSO suite
     for quantum simulation of materials; please cite
         "P. Giannozzi et al., J. Phys.:Condens. Matter 21 395502 (2009);
         "P. Giannozzi et al., J. Phys.:Condens. Matter 29 465901 (2017);
         "P. Giannozzi et al., J. Chem. Phys. 152 154105 (2020);
          URL http://www.quantum-espresso.org", 
     in publications or presentations arising from this work. More details at
     http://www.quantum-espresso.org/quote

     Parallel version (MPI & OpenMP), running on      48 processor cores
     Number of MPI processes:                48
     Threads/MPI process:                     1

     MPI processes distributed on     1 nodes
     180163 MiB available memory on the printing compute node when the environment starts
 
     Reading input from espresso.pwi
Warning: card &CELL ignored
Warning: card / ignored
Warning: card &FCP ignored
Warning: card / ignored
Warning: card &RISM ignored
Warning: card / ignored

     Current dimensions of program PWSCF are:
     Max number of different atomic species (ntypx) = 10
     Max number of k-points (npk) =  40000
     Max angular momentum in pseudopotentials (lmaxx) =  4
     file O.pbe-n-kjpaw_psl.0.1.UPF: wavefunction(s)  2P renormalized
     signal trapping enabled: kill the code with -SIGUSR1 to stop cleanly the simulation 
 
     K-points division:     npool     =       2
     R & G space division:  proc/nbgrp/npool/nimage =      24
     Subspace diagonalization in iterative solution of the eigenvalue problem:
     one sub-group per band group will be used
     scalapack distributed-memory algorithm (size of sub-group:  3*  3 procs)

 
     Parallelization info
     --------------------
     sticks:   dense  smooth     PW     G-vecs:    dense   smooth      PW
     Min         350     175     47                61430    21716    3036
     Max         351     177     48                61449    21727    3041
     Sum        8421    4205   1137              1474595   521381   72913
 
     Using Slab Decomposition
 


     bravais-lattice index     =            0
     lattice parameter (alat)  =      14.8599  a.u.
     unit-cell volume          =    8305.1283 (a.u.)^3
     number of atoms/cell      =           49
     number of atomic types    =            4
     number of electrons       =       425.00
     number of Kohn-Sham states=          256
     kinetic-energy cutoff     =      60.0000  Ry
     charge density cutoff     =     480.0000  Ry
     scf convergence threshold =      1.0E-08
     mixing beta               =       0.1500
     number of iterations used =            8  local-TF  mixing
     Exchange-correlation= PBE
                           (   1   4   3   4   0   0   0)

     celldm(1)=  14.859904  celldm(2)=   0.000000  celldm(3)=   0.000000
     celldm(4)=   0.000000  celldm(5)=   0.000000  celldm(6)=   0.000000

     crystal axes: (cart. coord. in units of alat)
               a(1) = (   1.000000   0.000000   0.000000 )  
               a(2) = (   0.000000   1.000000   0.000000 )  
               a(3) = (   0.000000   0.000000   2.531036 )  

     reciprocal axes: (cart. coord. in units 2 pi/alat)
               b(1) = (  1.000000  0.000000  0.000000 )  
               b(2) = (  0.000000  1.000000  0.000000 )  
               b(3) = (  0.000000  0.000000  0.395095 )  


     PseudoPot. # 1 for Sr read from file:
     /bsuhome/zayahcortright/q-e/pseudo/Sr_pbe_v1.uspp.F.UPF
     MD5 check sum: 6b418c05fbe9db5448babca5e47b7a5b
     Pseudo is Ultrasoft + core correction, Zval = 10.0
     Generated by new atomic code, or converted to UPF format
     Using radial grid of  883 points,  6 beta functions with: 
                l(1) =   0
                l(2) =   0
                l(3) =   1
                l(4) =   1
                l(5) =   2
                l(6) =   2
     Q(r) pseudized with  6 coefficients,  rinner =    1.400   1.400   1.400
                                                       1.400   1.400

     PseudoPot. # 2 for O  read from file:
     /bsuhome/zayahcortright/q-e/pseudo/O.pbe-n-kjpaw_psl.0.1.UPF
     MD5 check sum: 0234752ac141de4415c5fc33072bef88
     Pseudo is Projector augmented-wave + core cor, Zval =  6.0
     Generated using "atomic" code by A. Dal Corso  v.5.0.99 svn rev. 10869
     Shape of augmentation charge: BESSEL
     Using radial grid of 1095 points,  4 beta functions with: 
                l(1) =   0
                l(2) =   0
                l(3) =   1
                l(4) =   1
     Q(r) pseudized with 0 coefficients 


     PseudoPot. # 3 for Co read from file:
     /bsuhome/zayahcortright/q-e/pseudo/Co_pbe_v1.2.uspp.F.UPF
     MD5 check sum: 5f91765df6ddd3222702df6e7b74a16d
     Pseudo is Ultrasoft + core correction, Zval = 17.0
     Generated by new atomic code, or converted to UPF format
     Using radial grid of  863 points,  6 beta functions with: 
                l(1) =   0
                l(2) =   0
                l(3) =   1
                l(4) =   1
                l(5) =   2
                l(6) =   2
     Q(r) pseudized with  8 coefficients,  rinner =    1.200   1.200   1.200
                                                       1.200   1.200

     PseudoPot. # 4 for H  read from file:
     /bsuhome/zayahcortright/q-e/pseudo/H.pbe-rrkjus_psl.1.0.0.UPF
     MD5 check sum: f52b6d4d1c606e5624b1dc7b2218f220
     Pseudo is Ultrasoft, Zval =  1.0
     Generated using "atomic" code by A. Dal Corso  v.5.1
     Using radial grid of  929 points,  2 beta functions with: 
                l(1) =   0
                l(2) =   0
     Q(r) pseudized with 0 coefficients 


     atomic species   valence    mass     pseudopotential
        Sr            10.00    87.62000     Sr( 1.00)
        O              6.00    15.99900     O ( 1.00)
        Co            17.00    58.93319     Co( 1.00)
        H              1.00     1.00800     H ( 1.00)

     No symmetry found


                                    s                        frac. trans.

      isym =  1     identity                                     

 cryst.   s( 1) = (     1          0          0      )
                  (     0          1          0      )
                  (     0          0          1      )

 cart.    s( 1) = (  1.0000000  0.0000000  0.0000000 )
                  (  0.0000000  1.0000000  0.0000000 )
                  (  0.0000000  0.0000000  1.0000000 )


   Cartesian axes

     site n.     atom                  positions (alat units)
         1           Sr  tau(   1) = (   0.2508693   0.7491307   1.7574407  )
         2           O   tau(   2) = (   0.4985141   0.5014859   1.7715967  )
         3           Sr  tau(   3) = (   0.7482398   0.7454518   1.7648669  )
         4           Sr  tau(   4) = (   0.7441748   0.2558252   1.7667843  )
         5           Sr  tau(   5) = (   0.2508693   0.7491307   1.2696799  )
         6           Sr  tau(   6) = (   0.2508693   0.7491307   0.7632319  )
         7           Co  tau(   7) = (   0.4998914   0.5001086   1.0164559  )
         8           Co  tau(   8) = (   0.4936915   0.5063085   1.5135603  )
         9           O   tau(   9) = (   0.4988895   0.7610401   1.0164559  )
        10           O   tau(  10) = (   0.2389599   0.5011105   1.0164559  )
        11           O   tau(  11) = (   0.0070918   0.7374880   1.0164559  )
        12           O   tau(  12) = (   0.0088340   0.7405089   1.5135603  )
        13           O   tau(  13) = (   0.5066944   0.7415376   1.5135603  )
        14           O   tau(  14) = (   0.2584624   0.4933056   1.5135603  )
        15           O   tau(  15) = (   0.4985141   0.5014859   0.7773880  )
        16           O   tau(  16) = (   0.4985141   0.5014859   1.2555238  )
        17           Sr  tau(  17) = (   0.7482398   0.7454518   0.7706582  )
        18           Sr  tau(  18) = (   0.7482398   0.7454518   1.2622536  )
        19           Sr  tau(  19) = (   0.7441748   0.2558252   0.7725755  )
        20           Sr  tau(  20) = (   0.7441748   0.2558252   1.2603363  )
        21           O   tau(  21) = (   0.7322655   0.0078049   1.5135603  )
        22           O   tau(  22) = (   0.7558175   0.4996027   1.5135603  )
        23           O   tau(  23) = (   0.5003973   0.2441825   1.5135603  )
        24           O   tau(  24) = (   0.7527966   0.4978604   1.0164559  )
        25           O   tau(  25) = (   0.5021396   0.2472034   1.0164559  )
        26           O   tau(  26) = (   0.7517679   0.0000000   1.0164559  )
        27           O   tau(  27) = (   0.0114961   0.4948124   1.7455321  )
        28           O   tau(  28) = (   0.0048226   0.0077944   1.7715967  )
        29           Sr  tau(  29) = (   0.2545482   0.2517602   1.7648669  )
        30           O   tau(  30) = (   0.5048017   0.0015068   1.7786929  )
        31           Co  tau(  31) = (   0.0056869   0.5006215   1.0164559  )
        32           Co  tau(  32) = (   0.0065315   0.4997770   1.5135603  )
        33           Co  tau(  33) = (   0.0061999   0.0064171   1.0164559  )
        34           Co  tau(  34) = (   0.0000000   0.0126169   1.5135603  )
        35           O   tau(  35) = (   0.0114961   0.4948124   1.2815885  )
        36           O   tau(  36) = (   0.0114961   0.4948124   0.7513233  )
        37           O   tau(  37) = (   0.0051979   0.2673486   1.0164559  )
        38           O   tau(  38) = (   0.0130029   0.2478461   1.5135603  )
        39           O   tau(  39) = (   0.0048226   0.0077944   0.7773880  )
        40           O   tau(  40) = (   0.0048226   0.0077944   1.2555238  )
        41           Sr  tau(  41) = (   0.2545482   0.2517602   0.7706582  )
        42           Sr  tau(  42) = (   0.2545482   0.2517602   1.2622536  )
        43           Co  tau(  43) = (   0.4989925   0.0073160   1.5135603  )
        44           Co  tau(  44) = (   0.4998370   0.0064714   1.0164559  )
        45           O   tau(  45) = (   0.5048017   0.0015068   0.7844841  )
        46           O   tau(  46) = (   0.5048017   0.0015068   1.2484277  )
        47           O   tau(  47) = (   0.2621260   0.0059111   1.5135603  )
        48           O   tau(  48) = (   0.2591051   0.0041689   1.0164559  )
        49           H   tau(  49) = (   0.0000000   0.8529874   2.1602013  )

   Crystallographic axes

     site n.     atom                  positions (cryst. coord.)
         1           Sr  tau(   1) = (  0.2508693  0.7491307  0.6943562  )
         2           O   tau(   2) = (  0.4985141  0.5014859  0.6999492  )
         3           Sr  tau(   3) = (  0.7482398  0.7454518  0.6972903  )
         4           Sr  tau(   4) = (  0.7441748  0.2558252  0.6980478  )
         5           Sr  tau(   5) = (  0.2508693  0.7491307  0.5016443  )
         6           Sr  tau(   6) = (  0.2508693  0.7491307  0.3015492  )
         7           Co  tau(   7) = (  0.4998914  0.5001086  0.4015968  )
         8           Co  tau(   8) = (  0.4936915  0.5063085  0.5980003  )
         9           O   tau(   9) = (  0.4988895  0.7610401  0.4015968  )
        10           O   tau(  10) = (  0.2389599  0.5011105  0.4015968  )
        11           O   tau(  11) = (  0.0070918  0.7374880  0.4015968  )
        12           O   tau(  12) = (  0.0088340  0.7405089  0.5980003  )
        13           O   tau(  13) = (  0.5066944  0.7415376  0.5980003  )
        14           O   tau(  14) = (  0.2584624  0.4933056  0.5980003  )
        15           O   tau(  15) = (  0.4985141  0.5014859  0.3071422  )
        16           O   tau(  16) = (  0.4985141  0.5014859  0.4960513  )
        17           Sr  tau(  17) = (  0.7482398  0.7454518  0.3044833  )
        18           Sr  tau(  18) = (  0.7482398  0.7454518  0.4987103  )
        19           Sr  tau(  19) = (  0.7441748  0.2558252  0.3052408  )
        20           Sr  tau(  20) = (  0.7441748  0.2558252  0.4979527  )
        21           O   tau(  21) = (  0.7322655  0.0078049  0.5980003  )
        22           O   tau(  22) = (  0.7558175  0.4996027  0.5980003  )
        23           O   tau(  23) = (  0.5003973  0.2441825  0.5980003  )
        24           O   tau(  24) = (  0.7527966  0.4978604  0.4015968  )
        25           O   tau(  25) = (  0.5021396  0.2472034  0.4015968  )
        26           O   tau(  26) = (  0.7517679  0.0000000  0.4015968  )
        27           O   tau(  27) = (  0.0114961  0.4948124  0.6896512  )
        28           O   tau(  28) = (  0.0048226  0.0077944  0.6999492  )
        29           Sr  tau(  29) = (  0.2545482  0.2517602  0.6972903  )
        30           O   tau(  30) = (  0.5048017  0.0015068  0.7027529  )
        31           Co  tau(  31) = (  0.0056869  0.5006215  0.4015968  )
        32           Co  tau(  32) = (  0.0065315  0.4997770  0.5980003  )
        33           Co  tau(  33) = (  0.0061999  0.0064171  0.4015968  )
        34           Co  tau(  34) = (  0.0000000  0.0126169  0.5980003  )
        35           O   tau(  35) = (  0.0114961  0.4948124  0.5063494  )
        36           O   tau(  36) = (  0.0114961  0.4948124  0.2968442  )
        37           O   tau(  37) = (  0.0051979  0.2673486  0.4015968  )
        38           O   tau(  38) = (  0.0130029  0.2478461  0.5980003  )
        39           O   tau(  39) = (  0.0048226  0.0077944  0.3071422  )
        40           O   tau(  40) = (  0.0048226  0.0077944  0.4960513  )
        41           Sr  tau(  41) = (  0.2545482  0.2517602  0.3044833  )
        42           Sr  tau(  42) = (  0.2545482  0.2517602  0.4987103  )
        43           Co  tau(  43) = (  0.4989925  0.0073160  0.5980003  )
        44           Co  tau(  44) = (  0.4998370  0.0064714  0.4015968  )
        45           O   tau(  45) = (  0.5048017  0.0015068  0.3099459  )
        46           O   tau(  46) = (  0.5048017  0.0015068  0.4932477  )
        47           O   tau(  47) = (  0.2621260  0.0059111  0.5980003  )
        48           O   tau(  48) = (  0.2591051  0.0041689  0.4015968  )
        49           H   tau(  49) = (  0.0000000  0.8529874  0.8534850  )

     number of k points=    10  Gaussian smearing, width (Ry)=  0.0700
                       cart. coord. in units 2pi/alat
        k(    1) = (   0.0000000   0.0000000   0.0000000), wk =   0.1250000
        k(    2) = (   0.0000000   0.2500000   0.0000000), wk =   0.2500000
        k(    3) = (   0.0000000  -0.5000000   0.0000000), wk =   0.1250000
        k(    4) = (   0.2500000   0.2500000   0.0000000), wk =   0.2500000
        k(    5) = (   0.2500000  -0.5000000   0.0000000), wk =   0.2500000
        k(    6) = (  -0.5000000  -0.5000000   0.0000000), wk =   0.1250000
        k(    7) = (   0.2500000   0.0000000   0.0000000), wk =   0.2500000
        k(    8) = (  -0.5000000   0.0000000   0.0000000), wk =   0.1250000
        k(    9) = (  -0.2500000   0.2500000   0.0000000), wk =   0.2500000
        k(   10) = (  -0.5000000   0.2500000   0.0000000), wk =   0.2500000

                       cryst. coord.
        k(    1) = (   0.0000000   0.0000000   0.0000000), wk =   0.1250000
        k(    2) = (   0.0000000   0.2500000   0.0000000), wk =   0.2500000
        k(    3) = (   0.0000000  -0.5000000   0.0000000), wk =   0.1250000
        k(    4) = (   0.2500000   0.2500000   0.0000000), wk =   0.2500000
        k(    5) = (   0.2500000  -0.5000000   0.0000000), wk =   0.2500000
        k(    6) = (  -0.5000000  -0.5000000   0.0000000), wk =   0.1250000
        k(    7) = (   0.2500000   0.0000000   0.0000000), wk =   0.2500000
        k(    8) = (  -0.5000000   0.0000000   0.0000000), wk =   0.1250000
        k(    9) = (  -0.2500000   0.2500000   0.0000000), wk =   0.2500000
        k(   10) = (  -0.5000000   0.2500000   0.0000000), wk =   0.2500000

     Dense  grid:  1474595 G-vectors     FFT dimensions: ( 108, 108, 270)

     Smooth grid:   521381 G-vectors     FFT dimensions: (  75,  75, 192)

     Dynamical RAM for                 wfc:      10.61 MB

     Dynamical RAM for     wfc (w. buffer):      63.63 MB

     Dynamical RAM for           str. fact:       3.75 MB

     Dynamical RAM for           local pot:       0.00 MB

     Dynamical RAM for          nlocal pot:      24.28 MB

     Dynamical RAM for                qrad:       7.03 MB

     Dynamical RAM for          rho,v,vnew:       6.02 MB

     Dynamical RAM for               rhoin:       2.01 MB

     Dynamical RAM for            rho*nmix:      15.00 MB

     Dynamical RAM for           G-vectors:       3.68 MB

     Dynamical RAM for          h,s,v(r/c):       1.32 MB

     Dynamical RAM for          <psi|beta>:       2.29 MB

     Dynamical RAM for                 psi:      21.21 MB

     Dynamical RAM for                hpsi:      21.21 MB

     Dynamical RAM for                spsi:      21.21 MB

     Dynamical RAM for      wfcinit/wfcrot:      34.09 MB

     Dynamical RAM for           addusdens:     100.79 MB

     Estimated static dynamical RAM per process >     120.42 MB

     Estimated max dynamical RAM per process >     236.21 MB

     Estimated total dynamical RAM >      10.72 GB

     Check: negative core charge=   -0.000004

     Initial potential from superposition of free atoms

     starting charge     416.5961, renormalised to     425.0000

     negative rho (up, down):  7.826E-01 0.000E+00
     Starting wfcs are  373 randomized atomic wfcs
     Checking if some PAW data can be deallocated... 
       PAW data deallocated on   20 nodes for type:  2

     total cpu time spent up to now is        8.4 secs

     Self-consistent Calculation

     iteration #  1     ecut=    60.00 Ry     beta= 0.15
     Davidson diagonalization with overlap

---- Real-time Memory Report at c_bands before calling an iterative solver
             0 MiB given to the printing process from OS
             0 MiB allocation reported by mallinfo(arena+hblkhd)
        170504 MiB available memory on the node where the printing process lives
------------------
     ethr =  1.00E-02,  avg # of iterations =  2.0

     negative rho (up, down):  7.716E-01 0.000E+00

     total cpu time spent up to now is       23.7 secs

     total energy              =   -4404.73407255 Ry
     estimated scf accuracy    <      42.18401014 Ry

     iteration #  2     ecut=    60.00 Ry     beta= 0.15
     Davidson diagonalization with overlap

---- Real-time Memory Report at c_bands before calling an iterative solver
             0 MiB given to the printing process from OS
             0 MiB allocation reported by mallinfo(arena+hblkhd)
        170746 MiB available memory on the node where the printing process lives
------------------
     ethr =  9.93E-03,  avg # of iterations =  1.0

     negative rho (up, down):  7.531E-01 0.000E+00

     total cpu time spent up to now is       36.2 secs

     total energy              =   -4400.03409990 Ry
     estimated scf accuracy    <      26.54893073 Ry

     iteration #  3     ecut=    60.00 Ry     beta= 0.15
     Davidson diagonalization with overlap

---- Real-time Memory Report at c_bands before calling an iterative solver
             0 MiB given to the printing process from OS
             0 MiB allocation reported by mallinfo(arena+hblkhd)
        169988 MiB available memory on the node where the printing process lives
------------------
     ethr =  6.25E-03,  avg # of iterations =  2.0

     negative rho (up, down):  7.544E-01 0.000E+00

     total cpu time spent up to now is       50.1 secs

     total energy              =   -4402.38982247 Ry
     estimated scf accuracy    <      49.24910343 Ry

     iteration #  4     ecut=    60.00 Ry     beta= 0.15
     Davidson diagonalization with overlap

---- Real-time Memory Report at c_bands before calling an iterative solver
             0 MiB given to the printing process from OS
             0 MiB allocation reported by mallinfo(arena+hblkhd)
        169854 MiB available memory on the node where the printing process lives
------------------
     ethr =  6.25E-03,  avg # of iterations =  1.0

     negative rho (up, down):  7.410E-01 0.000E+00

     total cpu time spent up to now is       62.1 secs

     total energy              =   -4401.65066336 Ry
     estimated scf accuracy    <      29.47636230 Ry

     iteration #  5     ecut=    60.00 Ry     beta= 0.15
     Davidson diagonalization with overlap

---- Real-time Memory Report at c_bands before calling an iterative solver
             0 MiB given to the printing process from OS
             0 MiB allocation reported by mallinfo(arena+hblkhd)
        169834 MiB available memory on the node where the printing process lives
------------------
     ethr =  6.25E-03,  avg # of iterations =  1.0

     negative rho (up, down):  7.470E-01 0.000E+00

     total cpu time spent up to now is       74.0 secs

     total energy              =   -4399.87967832 Ry
     estimated scf accuracy    <      44.02014121 Ry

     iteration #  6     ecut=    60.00 Ry     beta= 0.15
     Davidson diagonalization with overlap

---- Real-time Memory Report at c_bands before calling an iterative solver
             0 MiB given to the printing process from OS
             0 MiB allocation reported by mallinfo(arena+hblkhd)
        169815 MiB available memory on the node where the printing process lives
------------------
     ethr =  6.25E-03,  avg # of iterations =  1.0

     negative rho (up, down):  7.423E-01 0.000E+00

     total cpu time spent up to now is       86.1 secs

     total energy              =   -4400.66013343 Ry
     estimated scf accuracy    <      11.65156847 Ry

     iteration #  7     ecut=    60.00 Ry     beta= 0.15
     Davidson diagonalization with overlap

---- Real-time Memory Report at c_bands before calling an iterative solver
             0 MiB given to the printing process from OS
             0 MiB allocation reported by mallinfo(arena+hblkhd)
        169792 MiB available memory on the node where the printing process lives
------------------
     ethr =  2.74E-03,  avg # of iterations =  1.1

     negative rho (up, down):  7.444E-01 0.000E+00

     total cpu time spent up to now is       98.3 secs

     total energy              =   -4400.80332346 Ry
     estimated scf accuracy    <       4.05918127 Ry

     iteration #  8     ecut=    60.00 Ry     beta= 0.15
     Davidson diagonalization with overlap

---- Real-time Memory Report at c_bands before calling an iterative solver
             0 MiB given to the printing process from OS
             0 MiB allocation reported by mallinfo(arena+hblkhd)
        169774 MiB available memory on the node where the printing process lives
------------------
     ethr =  9.55E-04,  avg # of iterations =  2.0

     negative rho (up, down):  7.536E-01 0.000E+00

     total cpu time spent up to now is      110.9 secs

     total energy              =   -4400.31949780 Ry
     estimated scf accuracy    <       3.52011923 Ry

     iteration #  9     ecut=    60.00 Ry     beta= 0.15
     Davidson diagonalization with overlap

---- Real-time Memory Report at c_bands before calling an iterative solver
             0 MiB given to the printing process from OS
             0 MiB allocation reported by mallinfo(arena+hblkhd)
        169754 MiB available memory on the node where the printing process lives
------------------
     ethr =  8.28E-04,  avg # of iterations =  3.6

     negative rho (up, down):  7.762E-01 0.000E+00

     total cpu time spent up to now is      125.7 secs

     total energy              =   -4399.78292655 Ry
     estimated scf accuracy    <      43.60128661 Ry

     iteration # 10     ecut=    60.00 Ry     beta= 0.15
     Davidson diagonalization with overlap

---- Real-time Memory Report at c_bands before calling an iterative solver
             0 MiB given to the printing process from OS
             0 MiB allocation reported by mallinfo(arena+hblkhd)
        169643 MiB available memory on the node where the printing process lives
------------------
     ethr =  8.28E-04,  avg # of iterations =  9.3

     negative rho (up, down):  7.783E-01 0.000E+00

     total cpu time spent up to now is      144.0 secs

     total energy              =   -4399.80847880 Ry
     estimated scf accuracy    <      11.32167259 Ry

     iteration # 11     ecut=    60.00 Ry     beta= 0.15
     Davidson diagonalization with overlap

---- Real-time Memory Report at c_bands before calling an iterative solver
             0 MiB given to the printing process from OS
             0 MiB allocation reported by mallinfo(arena+hblkhd)
        169293 MiB available memory on the node where the printing process lives
------------------
     ethr =  8.28E-04,  avg # of iterations =  1.3

     negative rho (up, down):  7.814E-01 0.000E+00

     total cpu time spent up to now is      156.4 secs

     total energy              =   -4400.12210438 Ry
     estimated scf accuracy    <       1.16467473 Ry

     iteration # 12     ecut=    60.00 Ry     beta= 0.15
     Davidson diagonalization with overlap

---- Real-time Memory Report at c_bands before calling an iterative solver
             0 MiB given to the printing process from OS
             0 MiB allocation reported by mallinfo(arena+hblkhd)
        169297 MiB available memory on the node where the printing process lives
------------------
     ethr =  2.74E-04,  avg # of iterations =  2.2

     negative rho (up, down):  7.885E-01 0.000E+00

     total cpu time spent up to now is      169.5 secs

     total energy              =   -4400.10624207 Ry
     estimated scf accuracy    <       0.90949796 Ry

     iteration # 13     ecut=    60.00 Ry     beta= 0.15
     Davidson diagonalization with overlap

---- Real-time Memory Report at c_bands before calling an iterative solver
             0 MiB given to the printing process from OS
             0 MiB allocation reported by mallinfo(arena+hblkhd)
        169306 MiB available memory on the node where the printing process lives
------------------
     ethr =  2.14E-04,  avg # of iterations =  2.6

     negative rho (up, down):  8.009E-01 0.000E+00

     total cpu time spent up to now is      182.6 secs

     total energy              =   -4400.09811474 Ry
     estimated scf accuracy    <       1.64169751 Ry

     iteration # 14     ecut=    60.00 Ry     beta= 0.15
     Davidson diagonalization with overlap

---- Real-time Memory Report at c_bands before calling an iterative solver
             0 MiB given to the printing process from OS
             0 MiB allocation reported by mallinfo(arena+hblkhd)
        169320 MiB available memory on the node where the printing process lives
------------------
     ethr =  2.14E-04,  avg # of iterations =  5.8

     negative rho (up, down):  8.025E-01 0.000E+00

     total cpu time spent up to now is      198.2 secs

     total energy              =   -4400.00930474 Ry
     estimated scf accuracy    <       2.11906648 Ry

     iteration # 15     ecut=    60.00 Ry     beta= 0.15
     Davidson diagonalization with overlap

---- Real-time Memory Report at c_bands before calling an iterative solver
             0 MiB given to the printing process from OS
             0 MiB allocation reported by mallinfo(arena+hblkhd)
        169295 MiB available memory on the node where the printing process lives
------------------
     ethr =  2.14E-04,  avg # of iterations =  4.2

     negative rho (up, down):  8.073E-01 0.000E+00

     total cpu time spent up to now is      212.4 secs

     total energy              =   -4400.04473954 Ry
     estimated scf accuracy    <       0.37500211 Ry

     iteration # 16     ecut=    60.00 Ry     beta= 0.15
     Davidson diagonalization with overlap

---- Real-time Memory Report at c_bands before calling an iterative solver
             0 MiB given to the printing process from OS
             0 MiB allocation reported by mallinfo(arena+hblkhd)
        169291 MiB available memory on the node where the printing process lives
------------------
     c_bands:  1 eigenvalues not converged
     c_bands:  2 eigenvalues not converged
     ethr =  8.82E-05,  avg # of iterations = 11.6

     negative rho (up, down):  8.121E-01 0.000E+00

     total cpu time spent up to now is      229.7 secs

     total energy              =   -4400.02009881 Ry
     estimated scf accuracy    <       0.31029911 Ry

     iteration # 17     ecut=    60.00 Ry     beta= 0.15
     Davidson diagonalization with overlap

---- Real-time Memory Report at c_bands before calling an iterative solver
             0 MiB given to the printing process from OS
             0 MiB allocation reported by mallinfo(arena+hblkhd)
        169267 MiB available memory on the node where the printing process lives
------------------
     ethr =  7.30E-05,  avg # of iterations =  7.1

     negative rho (up, down):  8.177E-01 0.000E+00

     total cpu time spent up to now is      245.1 secs

     total energy              =   -4399.94770103 Ry
     estimated scf accuracy    <       0.27846625 Ry

     iteration # 18     ecut=    60.00 Ry     beta= 0.15
     Davidson diagonalization with overlap

---- Real-time Memory Report at c_bands before calling an iterative solver
             0 MiB given to the printing process from OS
             0 MiB allocation reported by mallinfo(arena+hblkhd)
        169310 MiB available memory on the node where the printing process lives
------------------
     c_bands:  1 eigenvalues not converged
     ethr =  6.55E-05,  avg # of iterations = 13.6

     negative rho (up, down):  8.252E-01 0.000E+00

     total cpu time spent up to now is      264.2 secs

     total energy              =   -4399.93978951 Ry
     estimated scf accuracy    <       0.16474110 Ry

     iteration # 19     ecut=    60.00 Ry     beta= 0.15
     Davidson diagonalization with overlap

---- Real-time Memory Report at c_bands before calling an iterative solver
             0 MiB given to the printing process from OS
             0 MiB allocation reported by mallinfo(arena+hblkhd)
        169223 MiB available memory on the node where the printing process lives
------------------
     ethr =  3.88E-05,  avg # of iterations =  6.1

     negative rho (up, down):  8.260E-01 0.000E+00

     total cpu time spent up to now is      279.7 secs

     total energy              =   -4399.94202799 Ry
     estimated scf accuracy    <       0.11396440 Ry

     iteration # 20     ecut=    60.00 Ry     beta= 0.15
     Davidson diagonalization with overlap

---- Real-time Memory Report at c_bands before calling an iterative solver
             0 MiB given to the printing process from OS
             0 MiB allocation reported by mallinfo(arena+hblkhd)
        169225 MiB available memory on the node where the printing process lives
------------------
     c_bands:  1 eigenvalues not converged
     ethr =  2.68E-05,  avg # of iterations =  3.1

     negative rho (up, down):  8.072E-01 0.000E+00

     total cpu time spent up to now is      293.5 secs

     total energy              =   -4399.92579748 Ry
     estimated scf accuracy    <       0.09892474 Ry

     iteration # 21     ecut=    60.00 Ry     beta= 0.15
     Davidson diagonalization with overlap

---- Real-time Memory Report at c_bands before calling an iterative solver
             0 MiB given to the printing process from OS
             0 MiB allocation reported by mallinfo(arena+hblkhd)
        169220 MiB available memory on the node where the printing process lives
------------------
     ethr =  2.33E-05,  avg # of iterations =  7.7

     negative rho (up, down):  8.105E-01 0.000E+00

     total cpu time spent up to now is      309.8 secs

     total energy              =   -4399.92143857 Ry
     estimated scf accuracy    <       0.05096366 Ry

     iteration # 22     ecut=    60.00 Ry     beta= 0.15
     Davidson diagonalization with overlap

---- Real-time Memory Report at c_bands before calling an iterative solver
             0 MiB given to the printing process from OS
             0 MiB allocation reported by mallinfo(arena+hblkhd)
        169243 MiB available memory on the node where the printing process lives
------------------
     ethr =  1.20E-05,  avg # of iterations = 11.7

     negative rho (up, down):  8.104E-01 0.000E+00

     total cpu time spent up to now is      328.6 secs

     total energy              =   -4399.92061405 Ry
     estimated scf accuracy    <       0.03228280 Ry

     iteration # 23     ecut=    60.00 Ry     beta= 0.15
     Davidson diagonalization with overlap

---- Real-time Memory Report at c_bands before calling an iterative solver
             0 MiB given to the printing process from OS
             0 MiB allocation reported by mallinfo(arena+hblkhd)
        169167 MiB available memory on the node where the printing process lives
------------------
     ethr =  7.60E-06,  avg # of iterations =  1.9

     negative rho (up, down):  7.983E-01 0.000E+00

     total cpu time spent up to now is      342.2 secs

     total energy              =   -4399.91699386 Ry
     estimated scf accuracy    <       0.02669612 Ry

     iteration # 24     ecut=    60.00 Ry     beta= 0.15
     Davidson diagonalization with overlap

---- Real-time Memory Report at c_bands before calling an iterative solver
             0 MiB given to the printing process from OS
             0 MiB allocation reported by mallinfo(arena+hblkhd)
        169184 MiB available memory on the node where the printing process lives
------------------
     ethr =  6.28E-06,  avg # of iterations =  8.7

     negative rho (up, down):  7.945E-01 0.000E+00

     total cpu time spent up to now is      359.0 secs

     total energy              =   -4399.91643084 Ry
     estimated scf accuracy    <       0.01421439 Ry

     iteration # 25     ecut=    60.00 Ry     beta= 0.15
     Davidson diagonalization with overlap

---- Real-time Memory Report at c_bands before calling an iterative solver
             0 MiB given to the printing process from OS
             0 MiB allocation reported by mallinfo(arena+hblkhd)
        169140 MiB available memory on the node where the printing process lives
------------------
     c_bands:  1 eigenvalues not converged
     c_bands:  1 eigenvalues not converged
     ethr =  3.34E-06,  avg # of iterations = 10.6

     negative rho (up, down):  7.941E-01 0.000E+00

     total cpu time spent up to now is      376.8 secs

     total energy              =   -4399.91633437 Ry
     estimated scf accuracy    <       0.00952609 Ry

     iteration # 26     ecut=    60.00 Ry     beta= 0.15
     Davidson diagonalization with overlap

---- Real-time Memory Report at c_bands before calling an iterative solver
             0 MiB given to the printing process from OS
             0 MiB allocation reported by mallinfo(arena+hblkhd)
        169041 MiB available memory on the node where the printing process lives
------------------
     ethr =  2.24E-06,  avg # of iterations = 11.6

     negative rho (up, down):  7.878E-01 0.000E+00

     total cpu time spent up to now is      395.3 secs

     total energy              =   -4399.91588984 Ry
     estimated scf accuracy    <       0.00587824 Ry

     iteration # 27     ecut=    60.00 Ry     beta= 0.15
     Davidson diagonalization with overlap

---- Real-time Memory Report at c_bands before calling an iterative solver
             0 MiB given to the printing process from OS
             0 MiB allocation reported by mallinfo(arena+hblkhd)
        169055 MiB available memory on the node where the printing process lives
------------------
     ethr =  1.38E-06,  avg # of iterations =  9.9

     negative rho (up, down):  7.932E-01 0.000E+00

     total cpu time spent up to now is      412.3 secs

     total energy              =   -4399.91567659 Ry
     estimated scf accuracy    <       0.00424515 Ry

     iteration # 28     ecut=    60.00 Ry     beta= 0.15
     Davidson diagonalization with overlap

---- Real-time Memory Report at c_bands before calling an iterative solver
             0 MiB given to the printing process from OS
             0 MiB allocation reported by mallinfo(arena+hblkhd)
        169071 MiB available memory on the node where the printing process lives
------------------
     ethr =  9.99E-07,  avg # of iterations =  4.7

     negative rho (up, down):  7.926E-01 0.000E+00

     total cpu time spent up to now is      427.2 secs

     total energy              =   -4399.91563154 Ry
     estimated scf accuracy    <       0.00202569 Ry

     iteration # 29     ecut=    60.00 Ry     beta= 0.15
     Davidson diagonalization with overlap

---- Real-time Memory Report at c_bands before calling an iterative solver
             0 MiB given to the printing process from OS
             0 MiB allocation reported by mallinfo(arena+hblkhd)
        169130 MiB available memory on the node where the printing process lives
------------------
     c_bands:  1 eigenvalues not converged
     ethr =  4.77E-07,  avg # of iterations =  8.2

     negative rho (up, down):  7.931E-01 0.000E+00

     total cpu time spent up to now is      443.6 secs

     total energy              =   -4399.91564392 Ry
     estimated scf accuracy    <       0.00099400 Ry

     iteration # 30     ecut=    60.00 Ry     beta= 0.15
     Davidson diagonalization with overlap

---- Real-time Memory Report at c_bands before calling an iterative solver
             0 MiB given to the printing process from OS
             0 MiB allocation reported by mallinfo(arena+hblkhd)
        169116 MiB available memory on the node where the printing process lives
------------------
     c_bands:  1 eigenvalues not converged
     ethr =  2.34E-07,  avg # of iterations =  8.4

     negative rho (up, down):  7.934E-01 0.000E+00

     total cpu time spent up to now is      460.5 secs

     total energy              =   -4399.91566948 Ry
     estimated scf accuracy    <       0.00050238 Ry

     iteration # 31     ecut=    60.00 Ry     beta= 0.15
     Davidson diagonalization with overlap

---- Real-time Memory Report at c_bands before calling an iterative solver
             0 MiB given to the printing process from OS
             0 MiB allocation reported by mallinfo(arena+hblkhd)
        169123 MiB available memory on the node where the printing process lives
------------------
     c_bands:  1 eigenvalues not converged
     ethr =  1.18E-07,  avg # of iterations =  9.6

     negative rho (up, down):  7.933E-01 0.000E+00

     total cpu time spent up to now is      477.0 secs

     total energy              =   -4399.91562077 Ry
     estimated scf accuracy    <       0.00029359 Ry

     iteration # 32     ecut=    60.00 Ry     beta= 0.15
     Davidson diagonalization with overlap

---- Real-time Memory Report at c_bands before calling an iterative solver
             0 MiB given to the printing process from OS
             0 MiB allocation reported by mallinfo(arena+hblkhd)
        169121 MiB available memory on the node where the printing process lives
------------------
     ethr =  6.91E-08,  avg # of iterations =  6.7

     negative rho (up, down):  7.935E-01 0.000E+00

     total cpu time spent up to now is      493.5 secs

     total energy              =   -4399.91560633 Ry
     estimated scf accuracy    <       0.00010722 Ry

     iteration # 33     ecut=    60.00 Ry     beta= 0.15
     Davidson diagonalization with overlap

---- Real-time Memory Report at c_bands before calling an iterative solver
             0 MiB given to the printing process from OS
             0 MiB allocation reported by mallinfo(arena+hblkhd)
        169079 MiB available memory on the node where the printing process lives
------------------
     ethr =  2.52E-08,  avg # of iterations =  3.0

     negative rho (up, down):  7.931E-01 0.000E+00

     total cpu time spent up to now is      509.1 secs

     total energy              =   -4399.91561507 Ry
     estimated scf accuracy    <       0.00004329 Ry

     iteration # 34     ecut=    60.00 Ry     beta= 0.15
     Davidson diagonalization with overlap

---- Real-time Memory Report at c_bands before calling an iterative solver
             0 MiB given to the printing process from OS
             0 MiB allocation reported by mallinfo(arena+hblkhd)
        169090 MiB available memory on the node where the printing process lives
------------------
     ethr =  1.02E-08,  avg # of iterations =  2.1

     negative rho (up, down):  7.928E-01 0.000E+00

     total cpu time spent up to now is      522.9 secs

     total energy              =   -4399.91562000 Ry
     estimated scf accuracy    <       0.00002833 Ry

     iteration # 35     ecut=    60.00 Ry     beta= 0.15
     Davidson diagonalization with overlap

---- Real-time Memory Report at c_bands before calling an iterative solver
             0 MiB given to the printing process from OS
             0 MiB allocation reported by mallinfo(arena+hblkhd)
        169095 MiB available memory on the node where the printing process lives
------------------
     ethr =  6.67E-09,  avg # of iterations =  2.0

     negative rho (up, down):  7.925E-01 0.000E+00

     total cpu time spent up to now is      536.4 secs

     total energy              =   -4399.91562687 Ry
     estimated scf accuracy    <       0.00001913 Ry

     iteration # 36     ecut=    60.00 Ry     beta= 0.15
     Davidson diagonalization with overlap

---- Real-time Memory Report at c_bands before calling an iterative solver
             0 MiB given to the printing process from OS
             0 MiB allocation reported by mallinfo(arena+hblkhd)
        169106 MiB available memory on the node where the printing process lives
------------------
     ethr =  4.50E-09,  avg # of iterations =  2.3

     negative rho (up, down):  7.924E-01 0.000E+00

     total cpu time spent up to now is      550.2 secs

     total energy              =   -4399.91563127 Ry
     estimated scf accuracy    <       0.00000847 Ry

     iteration # 37     ecut=    60.00 Ry     beta= 0.15
     Davidson diagonalization with overlap

---- Real-time Memory Report at c_bands before calling an iterative solver
             0 MiB given to the printing process from OS
             0 MiB allocation reported by mallinfo(arena+hblkhd)
        169106 MiB available memory on the node where the printing process lives
------------------
     ethr =  1.99E-09,  avg # of iterations =  3.3

     negative rho (up, down):  7.923E-01 0.000E+00

     total cpu time spent up to now is      564.2 secs

     total energy              =   -4399.91563216 Ry
     estimated scf accuracy    <       0.00000422 Ry

     iteration # 38     ecut=    60.00 Ry     beta= 0.15
     Davidson diagonalization with overlap

---- Real-time Memory Report at c_bands before calling an iterative solver
             0 MiB given to the printing process from OS
             0 MiB allocation reported by mallinfo(arena+hblkhd)
        169122 MiB available memory on the node where the printing process lives
------------------
     ethr =  9.92E-10,  avg # of iterations =  2.1

     negative rho (up, down):  7.924E-01 0.000E+00

     total cpu time spent up to now is      577.8 secs

     total energy              =   -4399.91563261 Ry
     estimated scf accuracy    <       0.00000290 Ry

     iteration # 39     ecut=    60.00 Ry     beta= 0.15
     Davidson diagonalization with overlap

---- Real-time Memory Report at c_bands before calling an iterative solver
             0 MiB given to the printing process from OS
             0 MiB allocation reported by mallinfo(arena+hblkhd)
        169154 MiB available memory on the node where the printing process lives
------------------
     ethr =  6.82E-10,  avg # of iterations =  3.1

     negative rho (up, down):  7.924E-01 0.000E+00

     total cpu time spent up to now is      591.9 secs

     total energy              =   -4399.91563267 Ry
     estimated scf accuracy    <       0.00000098 Ry

     iteration # 40     ecut=    60.00 Ry     beta= 0.15
     Davidson diagonalization with overlap

---- Real-time Memory Report at c_bands before calling an iterative solver
             0 MiB given to the printing process from OS
             0 MiB allocation reported by mallinfo(arena+hblkhd)
        169143 MiB available memory on the node where the printing process lives
------------------
     ethr =  2.30E-10,  avg # of iterations =  2.8

     negative rho (up, down):  7.924E-01 0.000E+00

     total cpu time spent up to now is      605.8 secs

     total energy              =   -4399.91563269 Ry
     estimated scf accuracy    <       0.00000066 Ry

     iteration # 41     ecut=    60.00 Ry     beta= 0.15
     Davidson diagonalization with overlap

---- Real-time Memory Report at c_bands before calling an iterative solver
             0 MiB given to the printing process from OS
             0 MiB allocation reported by mallinfo(arena+hblkhd)
        169190 MiB available memory on the node where the printing process lives
------------------
     ethr =  1.55E-10,  avg # of iterations =  1.8

     negative rho (up, down):  7.924E-01 0.000E+00

     total cpu time spent up to now is      619.2 secs

     total energy              =   -4399.91563273 Ry
     estimated scf accuracy    <       0.00000056 Ry

     iteration # 42     ecut=    60.00 Ry     beta= 0.15
     Davidson diagonalization with overlap

---- Real-time Memory Report at c_bands before calling an iterative solver
             0 MiB given to the printing process from OS
             0 MiB allocation reported by mallinfo(arena+hblkhd)
        169172 MiB available memory on the node where the printing process lives
------------------
     ethr =  1.32E-10,  avg # of iterations =  1.9

     negative rho (up, down):  7.924E-01 0.000E+00

     total cpu time spent up to now is      632.9 secs

     total energy              =   -4399.91563278 Ry
     estimated scf accuracy    <       0.00000048 Ry

     iteration # 43     ecut=    60.00 Ry     beta= 0.15
     Davidson diagonalization with overlap

---- Real-time Memory Report at c_bands before calling an iterative solver
             0 MiB given to the printing process from OS
             0 MiB allocation reported by mallinfo(arena+hblkhd)
        169174 MiB available memory on the node where the printing process lives
------------------
     ethr =  1.14E-10,  avg # of iterations =  2.2

     negative rho (up, down):  7.924E-01 0.000E+00

     total cpu time spent up to now is      646.5 secs

     total energy              =   -4399.91563280 Ry
     estimated scf accuracy    <       0.00000030 Ry

     iteration # 44     ecut=    60.00 Ry     beta= 0.15
     Davidson diagonalization with overlap

---- Real-time Memory Report at c_bands before calling an iterative solver
             0 MiB given to the printing process from OS
             0 MiB allocation reported by mallinfo(arena+hblkhd)
        169190 MiB available memory on the node where the printing process lives
------------------
     ethr =  7.01E-11,  avg # of iterations =  2.1

     negative rho (up, down):  7.924E-01 0.000E+00

     total cpu time spent up to now is      660.2 secs

     total energy              =   -4399.91563282 Ry
     estimated scf accuracy    <       0.00000009 Ry

     iteration # 45     ecut=    60.00 Ry     beta= 0.15
     Davidson diagonalization with overlap

---- Real-time Memory Report at c_bands before calling an iterative solver
             0 MiB given to the printing process from OS
             0 MiB allocation reported by mallinfo(arena+hblkhd)
        169201 MiB available memory on the node where the printing process lives
------------------
     ethr =  2.04E-11,  avg # of iterations =  2.9

     negative rho (up, down):  7.924E-01 0.000E+00

     total cpu time spent up to now is      674.0 secs

     total energy              =   -4399.91563283 Ry
     estimated scf accuracy    <       0.00000005 Ry

     iteration # 46     ecut=    60.00 Ry     beta= 0.15
     Davidson diagonalization with overlap

---- Real-time Memory Report at c_bands before calling an iterative solver
             0 MiB given to the printing process from OS
             0 MiB allocation reported by mallinfo(arena+hblkhd)
        169210 MiB available memory on the node where the printing process lives
------------------
     ethr =  1.23E-11,  avg # of iterations =  2.7

     negative rho (up, down):  7.924E-01 0.000E+00

     total cpu time spent up to now is      687.8 secs

     total energy              =   -4399.91563283 Ry
     estimated scf accuracy    <       0.00000003 Ry

     iteration # 47     ecut=    60.00 Ry     beta= 0.15
     Davidson diagonalization with overlap

---- Real-time Memory Report at c_bands before calling an iterative solver
             0 MiB given to the printing process from OS
             0 MiB allocation reported by mallinfo(arena+hblkhd)
        169213 MiB available memory on the node where the printing process lives
------------------
     ethr =  8.02E-12,  avg # of iterations =  3.4

     negative rho (up, down):  7.924E-01 0.000E+00

     total cpu time spent up to now is      702.2 secs

     total energy              =   -4399.91563283 Ry
     estimated scf accuracy    <       0.00000001 Ry

     iteration # 48     ecut=    60.00 Ry     beta= 0.15
     Davidson diagonalization with overlap

---- Real-time Memory Report at c_bands before calling an iterative solver
             0 MiB given to the printing process from OS
             0 MiB allocation reported by mallinfo(arena+hblkhd)
        169205 MiB available memory on the node where the printing process lives
------------------
     ethr =  3.19E-12,  avg # of iterations =  2.9

     negative rho (up, down):  7.924E-01 0.000E+00

     total cpu time spent up to now is      716.0 secs

     End of self-consistent calculation

          k = 0.0000 0.0000 0.0000 ( 65197 PWs)   bands (ev):

   -92.7201 -92.6678 -92.5742 -92.5257 -92.4674 -92.4264 -92.4096 -92.2842
   -56.0735 -56.0546 -55.9315 -55.9208 -55.9140 -55.9076 -55.8730 -55.8434
   -55.8283 -55.8258 -55.8173 -55.7755 -55.7558 -55.7189 -55.7006 -55.6671
   -55.6614 -55.6151 -55.6118 -55.6106 -55.6033 -55.5571 -55.5399 -55.4525
   -31.2960 -31.2765 -31.1355 -31.0757 -31.0486 -31.0220 -30.8533 -30.8346
   -29.8680 -29.8245 -29.7995 -29.6912 -15.1009 -15.0606 -14.9776 -14.8473
   -14.6574 -14.5348 -14.2389 -14.2184 -14.1895 -14.1451 -14.1033 -14.0940
   -14.0779 -14.0627 -14.0367 -14.0048 -13.9495 -13.8000 -13.6238 -13.5882
   -13.5574 -13.5265 -13.5100 -13.4593 -13.4238 -13.3405 -13.2693 -13.1628
   -13.1288 -13.1170 -13.0977 -13.0930 -13.0759 -13.0305 -13.0210 -13.0076
   -12.9757 -12.9422 -12.9233 -12.9054 -12.8978 -12.8863 -12.8230 -12.8051
   -12.7913 -12.7385 -12.6994 -12.6879 -12.3611 -12.2153 -12.0733 -11.9988
   -11.8817 -11.8072 -11.7964 -11.7738 -11.7562 -11.6925 -11.6754 -11.6402
   -11.6114 -11.5006 -11.4201 -11.4165  -2.9619  -2.7293  -2.4996  -2.3532
    -2.2899  -2.1474  -1.8405  -1.8264  -1.8060  -1.7223  -1.7033  -1.6352
    -1.6190  -1.5777  -1.5315  -1.3522  -1.1273  -1.0986  -0.9504  -0.9363
    -0.8908  -0.8732  -0.8276  -0.8111  -0.7535  -0.7272  -0.6569  -0.6443
    -0.5667  -0.4360  -0.4223  -0.3940  -0.3128  -0.2965  -0.2869  -0.2201
    -0.1483  -0.1162  -0.0513  -0.0298   0.0290   0.1145   0.1594   0.1834
     0.1915   0.4487   0.4637   0.6361   0.7016   0.7649   0.8114   0.9024
     0.9157   0.9341   1.0005   1.0280   1.0627   1.1206   1.2536   1.3094
     1.3317   1.3530   1.3625   1.4288   1.5018   1.6041   1.6179   1.6750
     1.6918   1.7342   1.7555   1.7625   1.8163   1.8701   1.8812   1.9114
     1.9498   2.0048   2.1356   2.2164   2.2629   2.2836   2.4278   2.4438
     2.4883   2.4934   2.6037   2.6369   2.6644   2.6820   2.6934   2.7556
     2.8053   2.8860   2.9200   2.9314   2.9393   3.0054   3.0093   3.0339
     3.0419   3.0516   3.0687   3.0689   3.0848   3.0887   3.1021   3.1103
     3.1173   3.1371   3.1580   3.1634   3.1752   3.1993   3.3160   3.4303
     4.0946   4.4033   4.7479   4.8612   5.0176   5.8602   5.9121   5.9648
     6.0156   6.2955   6.3421   6.4742   6.4840   6.7336   6.9989   7.0871
     7.1315   7.2967   7.3308   7.5708   7.6467   7.6530   7.6846   7.9200
     7.9917   8.0965   8.1049   8.1886   8.4892   8.6726   8.6844   8.8525

     occupation numbers 
     1.0000   1.0000   1.0000   1.0000   1.0000   1.0000   1.0000   1.0000
     1.0000   1.0000   1.0000   1.0000   1.0000   1.0000   1.0000   1.0000
     1.0000   1.0000   1.0000   1.0000   1.0000   1.0000   1.0000   1.0000
     1.0000   1.0000   1.0000   1.0000   1.0000   1.0000   1.0000   1.0000
     1.0000   1.0000   1.0000   1.0000   1.0000   1.0000   1.0000   1.0000
     1.0000   1.0000   1.0000   1.0000   1.0000   1.0000   1.0000   1.0000
     1.0000   1.0000   1.0000   1.0000   1.0000   1.0000   1.0000   1.0000
     1.0000   1.0000   1.0000   1.0000   1.0000   1.0000   1.0000   1.0000
     1.0000   1.0000   1.0000   1.0000   1.0000   1.0000   1.0000   1.0000
     1.0000   1.0000   1.0000   1.0000   1.0000   1.0000   1.0000   1.0000
     1.0000   1.0000   1.0000   1.0000   1.0000   1.0000   1.0000   1.0000
     1.0000   1.0000   1.0000   1.0000   1.0000   1.0000   1.0000   1.0000
     1.0000   1.0000   1.0000   1.0000   1.0000   1.0000   1.0000   1.0000
     1.0000   1.0000   1.0000   1.0000   1.0000   1.0000   1.0000   1.0000
     1.0000   1.0000   1.0000   1.0000   1.0000   1.0000   1.0000   1.0000
     1.0000   1.0000   1.0000   1.0000   1.0000   1.0000   1.0000   1.0000
     1.0000   1.0000   1.0000   1.0000   1.0000   1.0000   1.0000   1.0000
     1.0000   1.0000   1.0000   1.0000   1.0000   1.0000   1.0000   1.0000
     1.0000   1.0000   1.0000   1.0000   1.0000   1.0000   1.0000   1.0000
     1.0000   1.0000   1.0000   1.0000   0.9999   0.9999   0.9999   0.9998
     0.9998   0.9998   0.9997   0.9996   0.9996   0.9994   0.9989   0.9985
     0.9983   0.9981   0.9981   0.9974   0.9963   0.9943   0.9939   0.9923
     0.9918   0.9903   0.9894   0.9891   0.9866   0.9836   0.9829   0.9809
     0.9781   0.9735   0.9591   0.9474   0.9396   0.9358   0.9043   0.9002
     0.8881   0.8866   0.8520   0.8403   0.8302   0.8235   0.8191   0.7937
     0.7721   0.7343   0.7175   0.7117   0.7077   0.6731   0.6710   0.6577
     0.6533   0.6480   0.6385   0.6385   0.6296   0.6274   0.6198   0.6152
     0.6112   0.5999   0.5878   0.5847   0.5779   0.5638   0.4949   0.4276
     0.1212   0.0519   0.0162   0.0105   0.0056   0.0001   0.0001   0.0000
     0.0000   0.0000   0.0000   0.0000   0.0000   0.0000   0.0000   0.0000
     0.0000   0.0000   0.0000   0.0000   0.0000   0.0000   0.0000   0.0000
     0.0000   0.0000   0.0000   0.0000   0.0000   0.0000   0.0000   0.0000

          k = 0.0000 0.2500 0.0000 ( 65257 PWs)   bands (ev):

   -92.7201 -92.6678 -92.5742 -92.5257 -92.4674 -92.4264 -92.4096 -92.2842
   -56.0735 -56.0546 -55.9315 -55.9208 -55.9140 -55.9076 -55.8730 -55.8434
   -55.8283 -55.8258 -55.8173 -55.7755 -55.7558 -55.7189 -55.7006 -55.6671
   -55.6614 -55.6151 -55.6118 -55.6106 -55.6033 -55.5571 -55.5399 -55.4525
   -31.2958 -31.2764 -31.1357 -31.0751 -31.0488 -31.0225 -30.8513 -30.8366
   -29.8674 -29.8242 -29.8002 -29.6916 -15.0641 -15.0346 -14.9527 -14.8178
   -14.6977 -14.5247 -14.3850 -14.2050 -14.1704 -14.1489 -14.1217 -14.0635
   -14.0587 -14.0441 -14.0230 -13.9808 -13.8689 -13.8301 -13.6671 -13.6491
   -13.5980 -13.5633 -13.5177 -13.4764 -13.4393 -13.3619 -13.3263 -13.2738
   -13.2016 -13.1660 -13.1268 -13.1085 -13.0772 -13.0088 -12.9864 -12.9584
   -12.9463 -12.9193 -12.8854 -12.8494 -12.8375 -12.8206 -12.8149 -12.7872
   -12.7760 -12.7299 -12.6046 -12.5295 -12.4224 -12.2665 -12.1310 -12.0674
   -11.8472 -11.8040 -11.7765 -11.7484 -11.7317 -11.6842 -11.6730 -11.6505
   -11.6158 -11.5150 -11.4618 -11.4511  -2.8266  -2.6050  -2.4673  -2.2853
    -2.2419  -2.0781  -1.8589  -1.7740  -1.7610  -1.7032  -1.6011  -1.5852
    -1.5502  -1.5248  -1.4808  -1.2835  -1.1546  -1.1428  -1.0657  -1.0558
    -0.9513  -0.9212  -0.8652  -0.8395  -0.7980  -0.7338  -0.7077  -0.6756
    -0.6453  -0.6285  -0.5947  -0.5216  -0.4696  -0.4028  -0.2941  -0.2714
    -0.2316  -0.1160  -0.0820  -0.0152   0.0313   0.0973   0.1120   0.1387
     0.1948   0.4950   0.5839   0.6137   0.7036   0.7483   0.7665   0.8903
     0.9075   1.0013   1.0278   1.0552   1.1708   1.2619   1.2850   1.3090
     1.3287   1.3544   1.4137   1.4418   1.4680   1.5168   1.5503   1.5801
     1.6605   1.6945   1.7292   1.7857   1.8357   1.8733   1.9027   1.9350
     1.9513   2.0364   2.1701   2.2432   2.2672   2.3392   2.3841   2.4222
     2.4308   2.4956   2.5349   2.6209   2.6540   2.6720   2.7787   2.8499
     2.8760   2.9001   2.9226   2.9402   2.9484   2.9544   2.9647   2.9942
     2.9971   3.0151   3.0235   3.0298   3.0479   3.0610   3.0661   3.0881
     3.0990   3.1049   3.1387   3.1557   3.2180   3.5764   3.6367   3.8671
     4.2847   4.3999   4.6868   5.0091   5.0513   5.6221   5.7726   5.9313
     5.9623   6.0718   6.1104   6.1697   6.5913   6.8964   7.0153   7.1110
     7.2374   7.3197   7.4703   7.4845   7.6312   7.7450   7.8681   7.9436
     8.0127   8.0878   8.1794   8.2890   8.3951   8.5866   8.7651   8.8691

     occupation numbers 
     1.0000   1.0000   1.0000   1.0000   1.0000   1.0000   1.0000   1.0000
     1.0000   1.0000   1.0000   1.0000   1.0000   1.0000   1.0000   1.0000
     1.0000   1.0000   1.0000   1.0000   1.0000   1.0000   1.0000   1.0000
     1.0000   1.0000   1.0000   1.0000   1.0000   1.0000   1.0000   1.0000
     1.0000   1.0000   1.0000   1.0000   1.0000   1.0000   1.0000   1.0000
     1.0000   1.0000   1.0000   1.0000   1.0000   1.0000   1.0000   1.0000
     1.0000   1.0000   1.0000   1.0000   1.0000   1.0000   1.0000   1.0000
     1.0000   1.0000   1.0000   1.0000   1.0000   1.0000   1.0000   1.0000
     1.0000   1.0000   1.0000   1.0000   1.0000   1.0000   1.0000   1.0000
     1.0000   1.0000   1.0000   1.0000   1.0000   1.0000   1.0000   1.0000
     1.0000   1.0000   1.0000   1.0000   1.0000   1.0000   1.0000   1.0000
     1.0000   1.0000   1.0000   1.0000   1.0000   1.0000   1.0000   1.0000
     1.0000   1.0000   1.0000   1.0000   1.0000   1.0000   1.0000   1.0000
     1.0000   1.0000   1.0000   1.0000   1.0000   1.0000   1.0000   1.0000
     1.0000   1.0000   1.0000   1.0000   1.0000   1.0000   1.0000   1.0000
     1.0000   1.0000   1.0000   1.0000   1.0000   1.0000   1.0000   1.0000
     1.0000   1.0000   1.0000   1.0000   1.0000   1.0000   1.0000   1.0000
     1.0000   1.0000   1.0000   1.0000   1.0000   1.0000   1.0000   1.0000
     1.0000   1.0000   1.0000   1.0000   1.0000   1.0000   1.0000   1.0000
     1.0000   1.0000   1.0000   1.0000   0.9999   0.9999   0.9999   0.9998
     0.9998   0.9997   0.9996   0.9996   0.9992   0.9988   0.9987   0.9985
     0.9983   0.9981   0.9975   0.9972   0.9968   0.9961   0.9955   0.9948
     0.9928   0.9917   0.9905   0.9881   0.9856   0.9834   0.9815   0.9792
     0.9780   0.9704   0.9544   0.9430   0.9388   0.9248   0.9148   0.9057
     0.9035   0.8860   0.8744   0.8460   0.8341   0.8273   0.7838   0.7516
     0.7391   0.7274   0.7162   0.7073   0.7031   0.7000   0.6946   0.6791
     0.6776   0.6679   0.6634   0.6599   0.6500   0.6428   0.6400   0.6277
     0.6215   0.6182   0.5989   0.5891   0.5529   0.3448   0.3125   0.2030
     0.0734   0.0524   0.0203   0.0058   0.0048   0.0003   0.0001   0.0000
     0.0000   0.0000   0.0000   0.0000   0.0000   0.0000   0.0000   0.0000
     0.0000   0.0000   0.0000   0.0000   0.0000   0.0000   0.0000   0.0000
     0.0000   0.0000   0.0000   0.0000   0.0000   0.0000   0.0000   0.0000

          k = 0.0000-0.5000 0.0000 ( 65180 PWs)   bands (ev):

   -92.7201 -92.6678 -92.5742 -92.5257 -92.4674 -92.4264 -92.4096 -92.2842
   -56.0735 -56.0546 -55.9315 -55.9208 -55.9140 -55.9076 -55.8730 -55.8434
   -55.8283 -55.8258 -55.8173 -55.7755 -55.7558 -55.7189 -55.7006 -55.6671
   -55.6614 -55.6151 -55.6118 -55.6106 -55.6033 -55.5571 -55.5399 -55.4525
   -31.2956 -31.2762 -31.1359 -31.0746 -31.0489 -31.0231 -30.8487 -30.8392
   -29.8667 -29.8239 -29.8008 -29.6919 -15.0306 -14.9815 -14.9306 -14.8002
   -14.7176 -14.5767 -14.4322 -14.2994 -14.1766 -14.1085 -14.0640 -14.0572
   -14.0071 -13.9903 -13.9453 -13.9224 -13.8987 -13.8598 -13.8219 -13.7953
   -13.6029 -13.5448 -13.5249 -13.4755 -13.4445 -13.3773 -13.3445 -13.3013
   -13.2843 -13.2363 -13.1276 -13.1092 -13.0607 -13.0107 -12.9879 -12.9726
   -12.9477 -12.9007 -12.8519 -12.8270 -12.8149 -12.7805 -12.7536 -12.7388
   -12.7234 -12.6705 -12.5335 -12.4567 -12.3416 -12.2960 -12.2482 -12.2094
   -11.8009 -11.7988 -11.7716 -11.7345 -11.7000 -11.6888 -11.6455 -11.6417
   -11.5972 -11.5368 -11.5228 -11.5084  -2.6122  -2.5524  -2.4020  -2.3295
    -2.0482  -1.9648  -1.8381  -1.6997  -1.6627  -1.6436  -1.5638  -1.5322
    -1.4525  -1.4162  -1.3394  -1.2988  -1.2598  -1.2326  -1.1758  -1.1387
    -1.0907  -1.0545  -1.0229  -0.9876  -0.8786  -0.8334  -0.7994  -0.7978
    -0.7118  -0.6780  -0.6568  -0.6086  -0.5215  -0.4532  -0.3677  -0.3401
    -0.2370  -0.1939  -0.0490  -0.0092   0.0127   0.0717   0.1852   0.2361
     0.3724   0.4403   0.4468   0.5753   0.6215   0.7248   0.8528   0.9612
     0.9926   1.0303   1.0355   1.0778   1.0912   1.1278   1.1440   1.1541
     1.2641   1.3247   1.3569   1.3835   1.6431   1.6707   1.6897   1.7882
     1.8135   1.8436   1.8577   1.8899   1.8991   1.9103   1.9414   1.9832
     2.0111   2.0379   2.0473   2.0769   2.1315   2.2142   2.2413   2.4233
     2.5835   2.5917   2.6141   2.6462   2.6521   2.6624   2.7053   2.7238
     2.7649   2.7816   2.8100   2.8886   2.9016   2.9593   2.9718   2.9899
     2.9957   3.0115   3.0182   3.0208   3.0247   3.0312   3.0522   3.0586
     3.0621   3.1237   3.1304   3.1453   3.1992   4.1077   4.1316   4.1553
     4.2448   4.7324   4.8776   5.0133   5.1422   5.4062   5.4471   5.5747
     5.6956   5.9943   6.0238   6.0428   6.8472   6.8478   6.9425   7.2117
     7.3208   7.3298   7.4357   7.4830   7.6315   7.7369   7.8115   7.8927
     8.1200   8.2439   8.3505   8.4780   8.6487   8.7499   8.8012   8.8588

     occupation numbers 
     1.0000   1.0000   1.0000   1.0000   1.0000   1.0000   1.0000   1.0000
     1.0000   1.0000   1.0000   1.0000   1.0000   1.0000   1.0000   1.0000
     1.0000   1.0000   1.0000   1.0000   1.0000   1.0000   1.0000   1.0000
     1.0000   1.0000   1.0000   1.0000   1.0000   1.0000   1.0000   1.0000
     1.0000   1.0000   1.0000   1.0000   1.0000   1.0000   1.0000   1.0000
     1.0000   1.0000   1.0000   1.0000   1.0000   1.0000   1.0000   1.0000
     1.0000   1.0000   1.0000   1.0000   1.0000   1.0000   1.0000   1.0000
     1.0000   1.0000   1.0000   1.0000   1.0000   1.0000   1.0000   1.0000
     1.0000   1.0000   1.0000   1.0000   1.0000   1.0000   1.0000   1.0000
     1.0000   1.0000   1.0000   1.0000   1.0000   1.0000   1.0000   1.0000
     1.0000   1.0000   1.0000   1.0000   1.0000   1.0000   1.0000   1.0000
     1.0000   1.0000   1.0000   1.0000   1.0000   1.0000   1.0000   1.0000
     1.0000   1.0000   1.0000   1.0000   1.0000   1.0000   1.0000   1.0000
     1.0000   1.0000   1.0000   1.0000   1.0000   1.0000   1.0000   1.0000
     1.0000   1.0000   1.0000   1.0000   1.0000   1.0000   1.0000   1.0000
     1.0000   1.0000   1.0000   1.0000   1.0000   1.0000   1.0000   1.0000
     1.0000   1.0000   1.0000   1.0000   1.0000   1.0000   1.0000   1.0000
     1.0000   1.0000   1.0000   1.0000   1.0000   1.0000   1.0000   1.0000
     1.0000   1.0000   1.0000   1.0000   1.0000   1.0000   1.0000   1.0000
     1.0000   1.0000   1.0000   1.0000   1.0000   0.9999   0.9999   0.9998
     0.9997   0.9996   0.9996   0.9995   0.9995   0.9994   0.9993   0.9993
     0.9988   0.9984   0.9981   0.9979   0.9933   0.9925   0.9919   0.9880
     0.9867   0.9851   0.9843   0.9824   0.9818   0.9810   0.9787   0.9754
     0.9729   0.9703   0.9693   0.9662   0.9596   0.9478   0.9433   0.9054
     0.8588   0.8561   0.8484   0.8369   0.8348   0.8309   0.8144   0.8070
     0.7898   0.7826   0.7700   0.7330   0.7266   0.6974   0.6909   0.6814
     0.6783   0.6699   0.6662   0.6648   0.6627   0.6592   0.6477   0.6441
     0.6422   0.6075   0.6037   0.5952   0.5639   0.1174   0.1105   0.1040
     0.0820   0.0172   0.0099   0.0057   0.0032   0.0009   0.0007   0.0004
     0.0002   0.0000   0.0000   0.0000   0.0000   0.0000   0.0000   0.0000
     0.0000   0.0000   0.0000   0.0000   0.0000   0.0000   0.0000   0.0000
     0.0000   0.0000   0.0000   0.0000   0.0000   0.0000   0.0000   0.0000

          k = 0.2500 0.2500 0.0000 ( 65198 PWs)   bands (ev):

   -92.7201 -92.6678 -92.5742 -92.5257 -92.4674 -92.4264 -92.4096 -92.2842
   -56.0735 -56.0546 -55.9315 -55.9208 -55.9140 -55.9076 -55.8730 -55.8434
   -55.8283 -55.8258 -55.8173 -55.7755 -55.7558 -55.7189 -55.7006 -55.6671
   -55.6614 -55.6151 -55.6118 -55.6106 -55.6033 -55.5571 -55.5399 -55.4525
   -31.2941 -31.2781 -31.1353 -31.0750 -31.0492 -31.0224 -30.8515 -30.8367
   -29.8664 -29.8252 -29.7998 -29.6920 -15.0358 -14.9993 -14.9249 -14.8073
   -14.6899 -14.5654 -14.4903 -14.2846 -14.1280 -14.1146 -14.0801 -14.0493
   -14.0298 -14.0047 -13.9682 -13.9426 -13.8606 -13.8439 -13.6832 -13.6694
   -13.6407 -13.6194 -13.5681 -13.5307 -13.4790 -13.4452 -13.3318 -13.2874
   -13.2483 -13.1601 -13.1201 -13.0686 -13.0452 -13.0366 -12.9972 -12.9660
   -12.9474 -12.9328 -12.8883 -12.8430 -12.8207 -12.7833 -12.7620 -12.7355
   -12.7321 -12.7231 -12.5424 -12.4709 -12.4387 -12.2956 -12.1626 -12.1149
   -11.8194 -11.7876 -11.7769 -11.7697 -11.7071 -11.6726 -11.6659 -11.6305
   -11.6226 -11.5315 -11.4900 -11.4726  -2.6884  -2.4793  -2.3614  -2.2675
    -2.1464  -2.0813  -1.8837  -1.7392  -1.7192  -1.6900  -1.5958  -1.5603
    -1.4676  -1.4406  -1.3903  -1.2587  -1.2111  -1.1379  -1.0930  -1.0487
    -1.0247  -1.0003  -0.9584  -0.9426  -0.8521  -0.8024  -0.7374  -0.6880
    -0.6590  -0.6084  -0.5958  -0.5321  -0.4818  -0.4243  -0.3909  -0.3045
    -0.2537  -0.2241  -0.1850  -0.1294  -0.0633  -0.0204   0.0076   0.0775
     0.1213   0.3876   0.5343   0.5710   0.6264   0.6679   0.7273   0.7793
     0.8411   0.8787   1.1520   1.2196   1.2928   1.3177   1.3671   1.3983
     1.4341   1.4702   1.4880   1.5158   1.5571   1.5677   1.5832   1.6292
     1.6694   1.7061   1.7562   1.7962   1.8087   1.8389   1.8757   1.9312
     1.9581   2.0799   2.1512   2.1886   2.2152   2.2819   2.3448   2.3747
     2.4110   2.4343   2.4472   2.5636   2.5979   2.6824   2.7996   2.8566
     2.8774   2.8809   2.8954   2.9108   2.9249   2.9368   2.9432   2.9550
     2.9675   2.9822   2.9998   3.0054   3.0185   3.0381   3.0504   3.0592
     3.0912   3.3920   3.4850   3.5285   3.5935   3.6305   3.8492   3.9355
     4.2842   4.4916   4.6976   4.9596   5.1632   5.6269   5.6812   5.7373
     5.8148   5.8763   6.0343   6.1671   6.2032   6.7780   6.8909   7.0606
     7.1726   7.5406   7.5909   7.6952   7.7336   7.8549   7.9413   8.0902
     8.1682   8.2101   8.2845   8.3221   8.4207   8.4464   8.6493   8.8563

     occupation numbers 
     1.0000   1.0000   1.0000   1.0000   1.0000   1.0000   1.0000   1.0000
     1.0000   1.0000   1.0000   1.0000   1.0000   1.0000   1.0000   1.0000
     1.0000   1.0000   1.0000   1.0000   1.0000   1.0000   1.0000   1.0000
     1.0000   1.0000   1.0000   1.0000   1.0000   1.0000   1.0000   1.0000
     1.0000   1.0000   1.0000   1.0000   1.0000   1.0000   1.0000   1.0000
     1.0000   1.0000   1.0000   1.0000   1.0000   1.0000   1.0000   1.0000
     1.0000   1.0000   1.0000   1.0000   1.0000   1.0000   1.0000   1.0000
     1.0000   1.0000   1.0000   1.0000   1.0000   1.0000   1.0000   1.0000
     1.0000   1.0000   1.0000   1.0000   1.0000   1.0000   1.0000   1.0000
     1.0000   1.0000   1.0000   1.0000   1.0000   1.0000   1.0000   1.0000
     1.0000   1.0000   1.0000   1.0000   1.0000   1.0000   1.0000   1.0000
     1.0000   1.0000   1.0000   1.0000   1.0000   1.0000   1.0000   1.0000
     1.0000   1.0000   1.0000   1.0000   1.0000   1.0000   1.0000   1.0000
     1.0000   1.0000   1.0000   1.0000   1.0000   1.0000   1.0000   1.0000
     1.0000   1.0000   1.0000   1.0000   1.0000   1.0000   1.0000   1.0000
     1.0000   1.0000   1.0000   1.0000   1.0000   1.0000   1.0000   1.0000
     1.0000   1.0000   1.0000   1.0000   1.0000   1.0000   1.0000   1.0000
     1.0000   1.0000   1.0000   1.0000   1.0000   1.0000   1.0000   1.0000
     1.0000   1.0000   1.0000   1.0000   1.0000   1.0000   1.0000   1.0000
     1.0000   1.0000   1.0000   1.0000   1.0000   1.0000   0.9999   0.9999
     0.9999   0.9998   0.9993   0.9990   0.9986   0.9984   0.9980   0.9977
     0.9973   0.9968   0.9966   0.9961   0.9953   0.9951   0.9948   0.9937
     0.9925   0.9913   0.9894   0.9876   0.9870   0.9854   0.9833   0.9795
     0.9774   0.9658   0.9570   0.9517   0.9476   0.9361   0.9236   0.9170
     0.9084   0.9026   0.8993   0.8653   0.8540   0.8233   0.7746   0.7484
     0.7385   0.7368   0.7297   0.7221   0.7150   0.7090   0.7057   0.6997
     0.6932   0.6855   0.6761   0.6731   0.6661   0.6554   0.6487   0.6438
     0.6260   0.4501   0.3960   0.3714   0.3355   0.3157   0.2106   0.1755
     0.0735   0.0394   0.0195   0.0071   0.0029   0.0003   0.0002   0.0002
     0.0001   0.0001   0.0000   0.0000   0.0000   0.0000   0.0000   0.0000
     0.0000   0.0000   0.0000   0.0000   0.0000   0.0000   0.0000   0.0000
     0.0000   0.0000   0.0000   0.0000   0.0000   0.0000   0.0000   0.0000

          k = 0.2500-0.5000 0.0000 ( 65138 PWs)   bands (ev):

   -92.7201 -92.6678 -92.5742 -92.5257 -92.4674 -92.4264 -92.4096 -92.2842
   -56.0735 -56.0546 -55.9315 -55.9208 -55.9140 -55.9076 -55.8730 -55.8434
   -55.8283 -55.8258 -55.8173 -55.7755 -55.7558 -55.7189 -55.7006 -55.6671
   -55.6614 -55.6151 -55.6118 -55.6106 -55.6033 -55.5571 -55.5399 -55.4525
   -31.2939 -31.2779 -31.1356 -31.0744 -31.0493 -31.0230 -30.8489 -30.8394
   -29.8657 -29.8249 -29.8004 -29.6923 -15.0002 -14.9546 -14.8875 -14.7693
   -14.7407 -14.6180 -14.5330 -14.3987 -14.0926 -14.0415 -14.0131 -13.9935
   -13.9754 -13.9631 -13.9299 -13.9105 -13.8761 -13.8379 -13.8110 -13.7843
   -13.6856 -13.6363 -13.5860 -13.5573 -13.4988 -13.4836 -13.3847 -13.3437
   -13.2251 -13.1607 -13.1375 -13.0519 -13.0386 -13.0065 -12.9878 -12.9694
   -12.9599 -12.9307 -12.8475 -12.8371 -12.8183 -12.7934 -12.7677 -12.7363
   -12.6740 -12.6428 -12.5401 -12.4403 -12.3391 -12.2777 -12.2374 -12.2070
   -11.7949 -11.7829 -11.7722 -11.7451 -11.7132 -11.6854 -11.6432 -11.6165
   -11.5938 -11.5498 -11.5239 -11.5124  -2.4704  -2.4044  -2.2759  -2.1984
    -2.0687  -1.9847  -1.8625  -1.7110  -1.6578  -1.6354  -1.5718  -1.5589
    -1.4632  -1.3949  -1.3101  -1.2610  -1.2514  -1.1878  -1.1459  -1.1110
    -1.0635  -1.0261  -0.9918  -0.9518  -0.9413  -0.8948  -0.8660  -0.8238
    -0.7936  -0.7257  -0.6240  -0.5855  -0.5069  -0.4421  -0.3943  -0.3518
    -0.3300  -0.2789  -0.1175  -0.1085   0.0025   0.0350   0.0440   0.0897
     0.1168   0.1559   0.1827   0.2551   0.5241   0.6167   0.6903   0.7473
     1.0107   1.0356   1.1252   1.1486   1.3165   1.3514   1.3919   1.4143
     1.4304   1.4514   1.5133   1.5606   1.5961   1.6756   1.7598   1.7993
     1.8234   1.8316   1.8672   1.8832   1.8866   1.9309   1.9448   1.9617
     2.0010   2.0134   2.0388   2.0720   2.1301   2.1683   2.2468   2.3862
     2.5364   2.5544   2.5725   2.5986   2.6227   2.6487   2.6714   2.6853
     2.7034   2.7728   2.8191   2.8640   2.8751   2.8913   2.9019   2.9138
     2.9277   2.9457   2.9562   2.9864   2.9989   3.0129   3.0220   3.0313
     3.0424   3.5694   3.5788   3.7234   3.7730   4.1124   4.1605   4.1769
     4.2995   4.7506   4.9002   5.0486   5.1138   5.2858   5.4179   5.6016
     5.6130   5.7496   5.7693   6.1311   6.3915   6.4791   6.7151   6.9980
     7.4442   7.5333   7.6794   7.6971   7.7988   7.8637   8.0255   8.1542
     8.3422   8.3700   8.4193   8.5257   8.5371   8.5770   8.6990   8.7553

     occupation numbers 
     1.0000   1.0000   1.0000   1.0000   1.0000   1.0000   1.0000   1.0000
     1.0000   1.0000   1.0000   1.0000   1.0000   1.0000   1.0000   1.0000
     1.0000   1.0000   1.0000   1.0000   1.0000   1.0000   1.0000   1.0000
     1.0000   1.0000   1.0000   1.0000   1.0000   1.0000   1.0000   1.0000
     1.0000   1.0000   1.0000   1.0000   1.0000   1.0000   1.0000   1.0000
     1.0000   1.0000   1.0000   1.0000   1.0000   1.0000   1.0000   1.0000
     1.0000   1.0000   1.0000   1.0000   1.0000   1.0000   1.0000   1.0000
     1.0000   1.0000   1.0000   1.0000   1.0000   1.0000   1.0000   1.0000
     1.0000   1.0000   1.0000   1.0000   1.0000   1.0000   1.0000   1.0000
     1.0000   1.0000   1.0000   1.0000   1.0000   1.0000   1.0000   1.0000
     1.0000   1.0000   1.0000   1.0000   1.0000   1.0000   1.0000   1.0000
     1.0000   1.0000   1.0000   1.0000   1.0000   1.0000   1.0000   1.0000
     1.0000   1.0000   1.0000   1.0000   1.0000   1.0000   1.0000   1.0000
     1.0000   1.0000   1.0000   1.0000   1.0000   1.0000   1.0000   1.0000
     1.0000   1.0000   1.0000   1.0000   1.0000   1.0000   1.0000   1.0000
     1.0000   1.0000   1.0000   1.0000   1.0000   1.0000   1.0000   1.0000
     1.0000   1.0000   1.0000   1.0000   1.0000   1.0000   1.0000   1.0000
     1.0000   1.0000   1.0000   1.0000   1.0000   1.0000   1.0000   1.0000
     1.0000   1.0000   1.0000   1.0000   1.0000   1.0000   1.0000   1.0000
     1.0000   1.0000   1.0000   1.0000   1.0000   1.0000   0.9999   0.9999
     0.9997   0.9996   0.9994   0.9993   0.9984   0.9982   0.9978   0.9975
     0.9973   0.9971   0.9961   0.9953   0.9945   0.9923   0.9892   0.9874
     0.9862   0.9858   0.9838   0.9828   0.9826   0.9795   0.9785   0.9772
     0.9738   0.9727   0.9702   0.9667   0.9598   0.9546   0.9424   0.9144
     0.8739   0.8683   0.8624   0.8538   0.8454   0.8360   0.8275   0.8222
     0.8151   0.7864   0.7658   0.7449   0.7396   0.7317   0.7265   0.7206
     0.7136   0.7044   0.6990   0.6832   0.6766   0.6691   0.6642   0.6592
     0.6531   0.3487   0.3435   0.2684   0.2447   0.1160   0.1027   0.0984
     0.0704   0.0161   0.0090   0.0049   0.0037   0.0017   0.0009   0.0003
     0.0003   0.0001   0.0001   0.0000   0.0000   0.0000   0.0000   0.0000
     0.0000   0.0000   0.0000   0.0000   0.0000   0.0000   0.0000   0.0000
     0.0000   0.0000   0.0000   0.0000   0.0000   0.0000   0.0000   0.0000

          k =-0.5000-0.5000 0.0000 ( 65132 PWs)   bands (ev):

   -92.7201 -92.6678 -92.5742 -92.5257 -92.4674 -92.4264 -92.4096 -92.2842
   -56.0735 -56.0546 -55.9315 -55.9208 -55.9140 -55.9076 -55.8730 -55.8434
   -55.8283 -55.8258 -55.8173 -55.7755 -55.7558 -55.7189 -55.7006 -55.6671
   -55.6614 -55.6151 -55.6118 -55.6106 -55.6033 -55.5571 -55.5399 -55.4525
   -31.2917 -31.2801 -31.1352 -31.0743 -31.0497 -31.0228 -30.8490 -30.8395
   -29.8647 -29.8259 -29.8000 -29.6928 -14.9543 -14.9275 -14.8095 -14.7988
   -14.7052 -14.6663 -14.6327 -14.4998 -14.0044 -13.9921 -13.9572 -13.9394
   -13.9227 -13.9101 -13.8788 -13.8691 -13.8579 -13.8436 -13.8278 -13.7531
   -13.7456 -13.7164 -13.6811 -13.6789 -13.5781 -13.5584 -13.4291 -13.3903
   -13.1755 -13.1348 -13.0702 -13.0444 -13.0229 -13.0033 -12.9965 -12.9901
   -12.9725 -12.9379 -12.8494 -12.8223 -12.8204 -12.7897 -12.7890 -12.7578
   -12.6240 -12.6159 -12.5565 -12.4248 -12.3355 -12.2578 -12.2272 -12.2052
   -11.7916 -11.7792 -11.7611 -11.7446 -11.7094 -11.6915 -11.6577 -11.5971
   -11.5764 -11.5718 -11.5215 -11.5183  -2.2461  -2.1707  -2.1612  -2.0874
    -2.0496  -1.9715  -1.9039  -1.7775  -1.6616  -1.6318  -1.5917  -1.5351
    -1.4627  -1.4492  -1.3775  -1.3345  -1.2179  -1.1895  -1.1406  -1.1117
    -1.0476  -1.0023  -0.9832  -0.9712  -0.9177  -0.8722  -0.8571  -0.7443
    -0.6867  -0.6415  -0.5909  -0.5631  -0.5516  -0.5176  -0.4763  -0.4406
    -0.4298  -0.3436  -0.2776  -0.2300  -0.2070  -0.1311  -0.0776  -0.0649
    -0.0069   0.0240   0.0306   0.0494   0.4955   0.5323   0.6373   0.6596
     1.0432   1.0556   1.0878   1.1285   1.4012   1.4212   1.4275   1.4682
     1.5959   1.6925   1.7186   1.7542   1.7709   1.7976   1.8055   1.8376
     1.8455   1.8570   1.8721   1.9279   1.9292   1.9586   1.9682   1.9903
     2.0034   2.0408   2.0702   2.0828   2.1144   2.1441   2.2115   2.2771
     2.5503   2.5800   2.6000   2.6182   2.6294   2.6586   2.6608   2.6805
     2.6909   2.7090   2.7173   2.7407   2.7791   2.8106   2.8145   2.8350
     2.8484   2.8657   2.8816   2.8908   2.9119   2.9949   2.9997   3.0264
     3.0401   4.0006   4.0255   4.0321   4.0512   4.3014   4.3802   4.3992
     4.6395   4.7618   4.8448   4.9738   5.0585   5.0805   5.1871   5.2821
     5.3864   5.8439   5.8909   5.9437   6.0219   6.4128   6.5258   6.6143
     7.6829   7.8443   7.8928   7.9089   7.9235   7.9627   8.0055   8.0733
     8.2490   8.3340   8.5631   8.5817   8.6067   8.6229   8.6426   8.6625

     occupation numbers 
     1.0000   1.0000   1.0000   1.0000   1.0000   1.0000   1.0000   1.0000
     1.0000   1.0000   1.0000   1.0000   1.0000   1.0000   1.0000   1.0000
     1.0000   1.0000   1.0000   1.0000   1.0000   1.0000   1.0000   1.0000
     1.0000   1.0000   1.0000   1.0000   1.0000   1.0000   1.0000   1.0000
     1.0000   1.0000   1.0000   1.0000   1.0000   1.0000   1.0000   1.0000
     1.0000   1.0000   1.0000   1.0000   1.0000   1.0000   1.0000   1.0000
     1.0000   1.0000   1.0000   1.0000   1.0000   1.0000   1.0000   1.0000
     1.0000   1.0000   1.0000   1.0000   1.0000   1.0000   1.0000   1.0000
     1.0000   1.0000   1.0000   1.0000   1.0000   1.0000   1.0000   1.0000
     1.0000   1.0000   1.0000   1.0000   1.0000   1.0000   1.0000   1.0000
     1.0000   1.0000   1.0000   1.0000   1.0000   1.0000   1.0000   1.0000
     1.0000   1.0000   1.0000   1.0000   1.0000   1.0000   1.0000   1.0000
     1.0000   1.0000   1.0000   1.0000   1.0000   1.0000   1.0000   1.0000
     1.0000   1.0000   1.0000   1.0000   1.0000   1.0000   1.0000   1.0000
     1.0000   1.0000   1.0000   1.0000   1.0000   1.0000   1.0000   1.0000
     1.0000   1.0000   1.0000   1.0000   1.0000   1.0000   1.0000   1.0000
     1.0000   1.0000   1.0000   1.0000   1.0000   1.0000   1.0000   1.0000
     1.0000   1.0000   1.0000   1.0000   1.0000   1.0000   1.0000   1.0000
     1.0000   1.0000   1.0000   1.0000   1.0000   1.0000   1.0000   1.0000
     1.0000   1.0000   1.0000   1.0000   1.0000   1.0000   1.0000   1.0000
     0.9996   0.9996   0.9995   0.9994   0.9977   0.9975   0.9974   0.9968
     0.9945   0.9918   0.9908   0.9895   0.9887   0.9875   0.9871   0.9855
     0.9850   0.9844   0.9835   0.9797   0.9796   0.9774   0.9766   0.9748
     0.9736   0.9700   0.9669   0.9655   0.9618   0.9580   0.9482   0.9370
     0.8696   0.8600   0.8533   0.8470   0.8430   0.8324   0.8315   0.8241
     0.8201   0.8129   0.8096   0.8000   0.7836   0.7697   0.7679   0.7585
     0.7523   0.7441   0.7364   0.7319   0.7215   0.6787   0.6762   0.6618
     0.6544   0.1517   0.1432   0.1410   0.1347   0.0700   0.0556   0.0525
     0.0240   0.0154   0.0112   0.0067   0.0047   0.0042   0.0026   0.0017
     0.0010   0.0001   0.0001   0.0000   0.0000   0.0000   0.0000   0.0000
     0.0000   0.0000   0.0000   0.0000   0.0000   0.0000   0.0000   0.0000
     0.0000   0.0000   0.0000   0.0000   0.0000   0.0000   0.0000   0.0000

          k = 0.2500 0.0000 0.0000 ( 65257 PWs)   bands (ev):

   -92.7201 -92.6678 -92.5742 -92.5257 -92.4674 -92.4264 -92.4096 -92.2842
   -56.0735 -56.0546 -55.9315 -55.9208 -55.9140 -55.9076 -55.8730 -55.8434
   -55.8283 -55.8258 -55.8173 -55.7755 -55.7558 -55.7189 -55.7006 -55.6671
   -55.6614 -55.6151 -55.6118 -55.6106 -55.6033 -55.5571 -55.5399 -55.4525
   -31.2943 -31.2782 -31.1351 -31.0756 -31.0490 -31.0218 -30.8534 -30.8348
   -29.8670 -29.8255 -29.7992 -29.6917 -15.0678 -15.0301 -14.9579 -14.8109
   -14.7066 -14.5132 -14.3757 -14.1955 -14.1792 -14.1491 -14.1189 -14.0930
   -14.0639 -14.0460 -14.0216 -13.9842 -13.8607 -13.8303 -13.6788 -13.6143
   -13.6020 -13.5398 -13.5119 -13.5019 -13.4513 -13.3653 -13.3311 -13.2576
[...]
     0.7426   0.7302   0.7174   0.7148   0.7042   0.6988   0.6910   0.6800
     0.6778   0.6629   0.6581   0.6526   0.6470   0.6353   0.6217   0.6196
     0.6153   0.6097   0.6054   0.5997   0.5280   0.3515   0.3158   0.2048
     0.0785   0.0469   0.0220   0.0055   0.0050   0.0003   0.0001   0.0000
     0.0000   0.0000   0.0000   0.0000   0.0000   0.0000   0.0000   0.0000
     0.0000   0.0000   0.0000   0.0000   0.0000   0.0000   0.0000   0.0000
     0.0000   0.0000   0.0000   0.0000   0.0000   0.0000   0.0000   0.0000

          k =-0.5000 0.0000 0.0000 ( 65180 PWs)   bands (ev):

   -92.7201 -92.6678 -92.5742 -92.5257 -92.4674 -92.4264 -92.4096 -92.2842
   -56.0735 -56.0546 -55.9315 -55.9208 -55.9140 -55.9076 -55.8730 -55.8434
   -55.8283 -55.8258 -55.8173 -55.7755 -55.7558 -55.7189 -55.7006 -55.6671
   -55.6614 -55.6151 -55.6118 -55.6106 -55.6033 -55.5571 -55.5399 -55.4525
   -31.2921 -31.2804 -31.1348 -31.0754 -31.0494 -31.0217 -30.8536 -30.8349
   -29.8660 -29.8265 -29.7988 -29.6921 -15.0349 -14.9847 -14.9223 -14.8143
   -14.7095 -14.5649 -14.4225 -14.2788 -14.1513 -14.1413 -14.1273 -14.0672
   -14.0117 -13.9800 -13.9305 -13.9250 -13.9095 -13.8573 -13.8414 -13.7420
   -13.5742 -13.5480 -13.5138 -13.5063 -13.4552 -13.3834 -13.3397 -13.2865
   -13.2627 -13.2568 -13.0850 -13.0728 -13.0600 -13.0340 -13.0272 -12.9851
   -12.9658 -12.9448 -12.9004 -12.8770 -12.7980 -12.7501 -12.6998 -12.6875
   -12.6590 -12.6496 -12.5596 -12.5019 -12.3569 -12.3453 -12.2254 -12.1850
   -11.7984 -11.7770 -11.7702 -11.7555 -11.7373 -11.6960 -11.6336 -11.6160
   -11.5831 -11.5388 -11.5294 -11.5138  -2.6020  -2.5632  -2.3994  -2.3603
    -2.0475  -1.9718  -1.8238  -1.7061  -1.6670  -1.6201  -1.5730  -1.5479
    -1.4254  -1.3806  -1.3653  -1.2828  -1.2473  -1.2326  -1.2006  -1.1432
    -1.0746  -1.0450  -1.0172  -0.9222  -0.8742  -0.8250  -0.7929  -0.7716
    -0.7406  -0.6934  -0.6684  -0.6314  -0.5322  -0.4612  -0.3941  -0.3328
    -0.1779  -0.1292  -0.0764  -0.0445   0.0099   0.0359   0.1695   0.2056
     0.2501   0.4201   0.5193   0.5657   0.6531   0.7095   0.8380   0.8489
     0.9807   1.0097   1.0643   1.0932   1.1324   1.1408   1.1874   1.2118
     1.2770   1.3264   1.3740   1.3816   1.6780   1.6833   1.6993   1.7217
     1.8330   1.8463   1.8552   1.8681   1.9001   1.9130   1.9487   1.9768
     1.9950   2.0580   2.0679   2.1224   2.1418   2.1993   2.3129   2.4029
     2.4815   2.4952   2.5805   2.6071   2.6328   2.6849   2.7100   2.7191
     2.7489   2.7919   2.8343   2.8729   2.9078   2.9341   2.9825   2.9847
     2.9932   2.9995   3.0134   3.0271   3.0383   3.0451   3.0644   3.0682
     3.0903   3.1102   3.1146   3.2420   3.2570   4.0773   4.1070   4.1648
     4.2919   4.7719   4.8414   5.0288   5.0405   5.4816   5.4949   5.5850
     5.6269   6.0112   6.0134   6.0867   6.6069   6.7868   6.9997   7.2676
     7.2996   7.3434   7.4014   7.5648   7.6925   7.7600   7.8718   7.9202
     8.1387   8.2786   8.3556   8.4991   8.6181   8.7277   8.7481   8.8359

     occupation numbers 
     1.0000   1.0000   1.0000   1.0000   1.0000   1.0000   1.0000   1.0000
     1.0000   1.0000   1.0000   1.0000   1.0000   1.0000   1.0000   1.0000
     1.0000   1.0000   1.0000   1.0000   1.0000   1.0000   1.0000   1.0000
     1.0000   1.0000   1.0000   1.0000   1.0000   1.0000   1.0000   1.0000
     1.0000   1.0000   1.0000   1.0000   1.0000   1.0000   1.0000   1.0000
     1.0000   1.0000   1.0000   1.0000   1.0000   1.0000   1.0000   1.0000
     1.0000   1.0000   1.0000   1.0000   1.0000   1.0000   1.0000   1.0000
     1.0000   1.0000   1.0000   1.0000   1.0000   1.0000   1.0000   1.0000
     1.0000   1.0000   1.0000   1.0000   1.0000   1.0000   1.0000   1.0000
     1.0000   1.0000   1.0000   1.0000   1.0000   1.0000   1.0000   1.0000
     1.0000   1.0000   1.0000   1.0000   1.0000   1.0000   1.0000   1.0000
     1.0000   1.0000   1.0000   1.0000   1.0000   1.0000   1.0000   1.0000
     1.0000   1.0000   1.0000   1.0000   1.0000   1.0000   1.0000   1.0000
     1.0000   1.0000   1.0000   1.0000   1.0000   1.0000   1.0000   1.0000
     1.0000   1.0000   1.0000   1.0000   1.0000   1.0000   1.0000   1.0000
     1.0000   1.0000   1.0000   1.0000   1.0000   1.0000   1.0000   1.0000
     1.0000   1.0000   1.0000   1.0000   1.0000   1.0000   1.0000   1.0000
     1.0000   1.0000   1.0000   1.0000   1.0000   1.0000   1.0000   1.0000
     1.0000   1.0000   1.0000   1.0000   1.0000   1.0000   1.0000   1.0000
     1.0000   1.0000   1.0000   1.0000   1.0000   0.9999   0.9999   0.9999
     0.9997   0.9997   0.9996   0.9995   0.9994   0.9994   0.9992   0.9991
     0.9987   0.9984   0.9980   0.9979   0.9922   0.9921   0.9915   0.9907
     0.9857   0.9850   0.9845   0.9837   0.9817   0.9808   0.9782   0.9759
     0.9743   0.9682   0.9672   0.9608   0.9583   0.9501   0.9301   0.9104
     0.8900   0.8861   0.8598   0.8508   0.8418   0.8224   0.8125   0.8089
     0.7966   0.7780   0.7588   0.7407   0.7236   0.7103   0.6853   0.6842
     0.6796   0.6763   0.6688   0.6614   0.6553   0.6516   0.6410   0.6388
     0.6265   0.6152   0.6127   0.5388   0.5299   0.1265   0.1176   0.1015
     0.0719   0.0148   0.0114   0.0053   0.0050   0.0006   0.0006   0.0004
     0.0003   0.0000   0.0000   0.0000   0.0000   0.0000   0.0000   0.0000
     0.0000   0.0000   0.0000   0.0000   0.0000   0.0000   0.0000   0.0000
     0.0000   0.0000   0.0000   0.0000   0.0000   0.0000   0.0000   0.0000

          k =-0.2500 0.2500 0.0000 ( 65198 PWs)   bands (ev):

   -92.7201 -92.6678 -92.5742 -92.5257 -92.4674 -92.4264 -92.4096 -92.2842
   -56.0735 -56.0546 -55.9315 -55.9208 -55.9140 -55.9076 -55.8730 -55.8434
   -55.8283 -55.8258 -55.8173 -55.7755 -55.7558 -55.7189 -55.7006 -55.6671
   -55.6614 -55.6151 -55.6118 -55.6106 -55.6033 -55.5571 -55.5399 -55.4525
   -31.2941 -31.2781 -31.1353 -31.0750 -31.0492 -31.0224 -30.8515 -30.8367
   -29.8664 -29.8252 -29.7998 -29.6920 -15.0372 -14.9983 -14.9232 -14.8058
   -14.6961 -14.5698 -14.4824 -14.2759 -14.1349 -14.1052 -14.0923 -14.0460
   -14.0216 -14.0054 -13.9870 -13.9422 -13.8566 -13.8443 -13.6914 -13.6658
   -13.6376 -13.6166 -13.5734 -13.5169 -13.4700 -13.4539 -13.3370 -13.2903
   -13.2420 -13.1643 -13.1213 -13.0593 -13.0472 -13.0268 -13.0036 -12.9695
   -12.9482 -12.9351 -12.8885 -12.8474 -12.8188 -12.7888 -12.7768 -12.7415
   -12.7210 -12.7100 -12.5397 -12.4607 -12.4438 -12.3013 -12.1639 -12.1129
   -11.8186 -11.7969 -11.7701 -11.7578 -11.7167 -11.6823 -11.6589 -11.6377
   -11.6151 -11.5313 -11.4855 -11.4759  -2.6868  -2.4782  -2.3571  -2.2692
    -2.1506  -2.0839  -1.8813  -1.7360  -1.7169  -1.6879  -1.5965  -1.5591
    -1.4676  -1.4337  -1.4078  -1.2647  -1.2089  -1.1407  -1.1128  -1.0524
    -1.0304  -0.9903  -0.9615  -0.9215  -0.8583  -0.8115  -0.7476  -0.6800
    -0.6551  -0.6035  -0.5745  -0.5297  -0.4717  -0.4276  -0.3851  -0.2863
    -0.2531  -0.2435  -0.1976  -0.1322  -0.0652  -0.0185   0.0146   0.0808
     0.1196   0.3684   0.5379   0.5790   0.6166   0.6734   0.7271   0.7822
     0.8480   0.8764   1.1596   1.2703   1.3089   1.3427   1.3489   1.3911
     1.4077   1.4529   1.4833   1.4983   1.5246   1.5674   1.5812   1.6276
     1.6457   1.6901   1.7670   1.7881   1.8081   1.8447   1.8729   1.9113
     1.9648   2.0694   2.1811   2.2128   2.2595   2.2796   2.3434   2.3867
     2.4129   2.4348   2.4587   2.5642   2.5963   2.6826   2.7997   2.8636
     2.8741   2.8861   2.8968   2.9058   2.9195   2.9281   2.9443   2.9561
     2.9681   2.9797   2.9902   3.0017   3.0077   3.0394   3.0505   3.0582
     3.0933   3.3853   3.4671   3.5311   3.6045   3.6297   3.8363   3.9439
     4.2839   4.4892   4.6987   4.9685   5.1636   5.6276   5.6795   5.7410
     5.8130   5.8774   6.0391   6.1714   6.1957   6.7447   6.8900   7.0680
     7.2187   7.5540   7.5978   7.6578   7.7071   7.8703   7.9140   8.1054
     8.1762   8.1891   8.3030   8.3638   8.4243   8.4430   8.6393   8.8465

     occupation numbers 
     1.0000   1.0000   1.0000   1.0000   1.0000   1.0000   1.0000   1.0000
     1.0000   1.0000   1.0000   1.0000   1.0000   1.0000   1.0000   1.0000
     1.0000   1.0000   1.0000   1.0000   1.0000   1.0000   1.0000   1.0000
     1.0000   1.0000   1.0000   1.0000   1.0000   1.0000   1.0000   1.0000
     1.0000   1.0000   1.0000   1.0000   1.0000   1.0000   1.0000   1.0000
     1.0000   1.0000   1.0000   1.0000   1.0000   1.0000   1.0000   1.0000
     1.0000   1.0000   1.0000   1.0000   1.0000   1.0000   1.0000   1.0000
     1.0000   1.0000   1.0000   1.0000   1.0000   1.0000   1.0000   1.0000
     1.0000   1.0000   1.0000   1.0000   1.0000   1.0000   1.0000   1.0000
     1.0000   1.0000   1.0000   1.0000   1.0000   1.0000   1.0000   1.0000
     1.0000   1.0000   1.0000   1.0000   1.0000   1.0000   1.0000   1.0000
     1.0000   1.0000   1.0000   1.0000   1.0000   1.0000   1.0000   1.0000
     1.0000   1.0000   1.0000   1.0000   1.0000   1.0000   1.0000   1.0000
     1.0000   1.0000   1.0000   1.0000   1.0000   1.0000   1.0000   1.0000
     1.0000   1.0000   1.0000   1.0000   1.0000   1.0000   1.0000   1.0000
     1.0000   1.0000   1.0000   1.0000   1.0000   1.0000   1.0000   1.0000
     1.0000   1.0000   1.0000   1.0000   1.0000   1.0000   1.0000   1.0000
     1.0000   1.0000   1.0000   1.0000   1.0000   1.0000   1.0000   1.0000
     1.0000   1.0000   1.0000   1.0000   1.0000   1.0000   1.0000   1.0000
     1.0000   1.0000   1.0000   1.0000   1.0000   1.0000   0.9999   0.9999
     0.9999   0.9998   0.9993   0.9988   0.9985   0.9982   0.9982   0.9978
     0.9976   0.9971   0.9966   0.9964   0.9959   0.9951   0.9948   0.9937
     0.9932   0.9918   0.9889   0.9880   0.9870   0.9851   0.9834   0.9809
     0.9769   0.9670   0.9528   0.9480   0.9402   0.9365   0.9239   0.9142
     0.9080   0.9025   0.8962   0.8651   0.8545   0.8233   0.7746   0.7451
     0.7401   0.7343   0.7290   0.7246   0.7177   0.7134   0.7051   0.6991
     0.6929   0.6868   0.6812   0.6751   0.6719   0.6547   0.6486   0.6443
     0.6248   0.4540   0.4063   0.3699   0.3296   0.3161   0.2161   0.1723
     0.0736   0.0397   0.0194   0.0068   0.0029   0.0003   0.0002   0.0002
     0.0001   0.0001   0.0000   0.0000   0.0000   0.0000   0.0000   0.0000
     0.0000   0.0000   0.0000   0.0000   0.0000   0.0000   0.0000   0.0000
     0.0000   0.0000   0.0000   0.0000   0.0000   0.0000   0.0000   0.0000

          k =-0.5000 0.2500 0.0000 ( 65138 PWs)   bands (ev):

   -92.7201 -92.6678 -92.5742 -92.5257 -92.4674 -92.4264 -92.4096 -92.2842
   -56.0735 -56.0546 -55.9315 -55.9208 -55.9140 -55.9076 -55.8730 -55.8434
   -55.8283 -55.8258 -55.8173 -55.7755 -55.7558 -55.7189 -55.7006 -55.6671
   -55.6614 -55.6151 -55.6118 -55.6106 -55.6033 -55.5571 -55.5399 -55.4525
   -31.2919 -31.2802 -31.1350 -31.0749 -31.0495 -31.0222 -30.8517 -30.8369
   -29.8654 -29.8262 -29.7994 -29.6924 -15.0024 -14.9583 -14.8794 -14.7800
   -14.7389 -14.6115 -14.5253 -14.3950 -14.0855 -14.0545 -14.0429 -13.9991
   -13.9777 -13.9531 -13.9162 -13.9100 -13.8878 -13.8466 -13.8356 -13.7319
   -13.6569 -13.6086 -13.6054 -13.5914 -13.5085 -13.4874 -13.3806 -13.3295
   -13.2185 -13.1824 -13.0865 -13.0474 -13.0395 -13.0334 -13.0042 -12.9724
   -12.9582 -12.9389 -12.9131 -12.8393 -12.8127 -12.7687 -12.7355 -12.7236
   -12.6411 -12.6331 -12.5578 -12.4592 -12.3408 -12.3121 -12.2203 -12.1942
   -11.7913 -11.7786 -11.7643 -11.7524 -11.7310 -11.7008 -11.6206 -11.6123
   -11.5886 -11.5533 -11.5250 -11.5163  -2.4597  -2.4175  -2.2692  -2.2271
    -2.0668  -1.9903  -1.8480  -1.7122  -1.6553  -1.6278  -1.5893  -1.5505
    -1.4702  -1.3549  -1.2979  -1.2746  -1.2486  -1.1726  -1.1438  -1.1058
    -1.0879  -1.0272  -0.9988  -0.9589  -0.9237  -0.8950  -0.8372  -0.8107
    -0.7693  -0.7342  -0.6295  -0.6043  -0.5151  -0.4543  -0.4220  -0.3649
    -0.2803  -0.2493  -0.1462  -0.1140  -0.0500  -0.0060   0.0238   0.0974
     0.1286   0.1618   0.2121   0.2497   0.5637   0.6118   0.6854   0.7046
     0.9911   1.0529   1.1252   1.1518   1.3299   1.3655   1.4030   1.4161
     1.4337   1.4518   1.5207   1.5647   1.6031   1.6344   1.7449   1.7863
     1.8228   1.8336   1.8659   1.8935   1.9093   1.9233   1.9427   1.9667
     2.0100   2.0312   2.0649   2.0884   2.1169   2.1789   2.3000   2.3978
     2.4263   2.4941   2.5335   2.5975   2.6305   2.6390   2.6727   2.7093
     2.7323   2.7783   2.8337   2.8715   2.8753   2.8801   2.8992   2.9237
     2.9345   2.9504   2.9620   2.9832   2.9958   3.0062   3.0154   3.0244
     3.0385   3.5746   3.5981   3.7592   3.7756   4.0775   4.1235   4.1787
     4.3799   4.7666   4.8593   5.0294   5.0621   5.3866   5.4133   5.5707
     5.6238   5.7276   5.7692   6.1908   6.3819   6.4648   6.5637   7.0801
     7.4486   7.5303   7.7028   7.7292   7.7869   7.8756   8.0095   8.1530
     8.3677   8.4125   8.4403   8.5004   8.5525   8.5782   8.6651   8.7358

     occupation numbers 
     1.0000   1.0000   1.0000   1.0000   1.0000   1.0000   1.0000   1.0000
     1.0000   1.0000   1.0000   1.0000   1.0000   1.0000   1.0000   1.0000
     1.0000   1.0000   1.0000   1.0000   1.0000   1.0000   1.0000   1.0000
     1.0000   1.0000   1.0000   1.0000   1.0000   1.0000   1.0000   1.0000
     1.0000   1.0000   1.0000   1.0000   1.0000   1.0000   1.0000   1.0000
     1.0000   1.0000   1.0000   1.0000   1.0000   1.0000   1.0000   1.0000
     1.0000   1.0000   1.0000   1.0000   1.0000   1.0000   1.0000   1.0000
     1.0000   1.0000   1.0000   1.0000   1.0000   1.0000   1.0000   1.0000
     1.0000   1.0000   1.0000   1.0000   1.0000   1.0000   1.0000   1.0000
     1.0000   1.0000   1.0000   1.0000   1.0000   1.0000   1.0000   1.0000
     1.0000   1.0000   1.0000   1.0000   1.0000   1.0000   1.0000   1.0000
     1.0000   1.0000   1.0000   1.0000   1.0000   1.0000   1.0000   1.0000
     1.0000   1.0000   1.0000   1.0000   1.0000   1.0000   1.0000   1.0000
     1.0000   1.0000   1.0000   1.0000   1.0000   1.0000   1.0000   1.0000
     1.0000   1.0000   1.0000   1.0000   1.0000   1.0000   1.0000   1.0000
     1.0000   1.0000   1.0000   1.0000   1.0000   1.0000   1.0000   1.0000
     1.0000   1.0000   1.0000   1.0000   1.0000   1.0000   1.0000   1.0000
     1.0000   1.0000   1.0000   1.0000   1.0000   1.0000   1.0000   1.0000
     1.0000   1.0000   1.0000   1.0000   1.0000   1.0000   1.0000   1.0000
     1.0000   1.0000   1.0000   1.0000   1.0000   1.0000   1.0000   0.9999
     0.9997   0.9996   0.9994   0.9993   0.9983   0.9980   0.9977   0.9975
     0.9973   0.9971   0.9960   0.9952   0.9943   0.9935   0.9898   0.9881
     0.9863   0.9857   0.9838   0.9821   0.9811   0.9801   0.9786   0.9768
     0.9730   0.9710   0.9675   0.9649   0.9615   0.9531   0.9327   0.9116
     0.9047   0.8864   0.8748   0.8541   0.8426   0.8395   0.8270   0.8128
     0.8035   0.7840   0.7592   0.7413   0.7395   0.7372   0.7278   0.7156
     0.7101   0.7020   0.6960   0.6849   0.6782   0.6727   0.6677   0.6629
     0.6552   0.3458   0.3330   0.2512   0.2435   0.1264   0.1128   0.0979
     0.0556   0.0151   0.0106   0.0053   0.0046   0.0010   0.0009   0.0004
     0.0003   0.0002   0.0001   0.0000   0.0000   0.0000   0.0000   0.0000
     0.0000   0.0000   0.0000   0.0000   0.0000   0.0000   0.0000   0.0000
     0.0000   0.0000   0.0000   0.0000   0.0000   0.0000   0.0000   0.0000

     the Fermi energy is     3.3075 ev

!    total energy              =   -4399.91563282 Ry
     estimated scf accuracy    <          6.8E-09 Ry
     smearing contrib. (-TS)   =      -1.14598678 Ry
     internal energy E=F+TS    =   -4398.76964603 Ry

     The total energy is F=E-TS. E is the sum of the following terms:
     one-electron contribution =  -21252.61439261 Ry
     hartree contribution      =   10754.12847995 Ry
     xc contribution           =    -686.72724307 Ry
     ewald contribution        =    7053.08868240 Ry
     one-center paw contrib.   =    -266.64517270 Ry
      -> PAW hartree energy AE =      25.17965867 Ry
      -> PAW hartree energy PS =     -25.06339218 Ry
      -> PAW xc energy AE      =     -16.51984894 Ry
      -> PAW xc energy PS      =       6.87943511 Ry
      -> total E_H with PAW    =   10754.24474644 Ry
      -> total E_XC with PAW   =    -696.36765691 Ry

     convergence has been achieved in  48 iterations

     Writing all to output data dir /bsuhome/zayahcortright/scratch/pwscf.save/
 
     init_run     :      7.87s CPU      8.15s WALL (       1 calls)
     electrons    :    695.93s CPU    707.74s WALL (       1 calls)

     Called by init_run:
     wfcinit      :      6.04s CPU      6.15s WALL (       1 calls)
     wfcinit:atom :      0.06s CPU      0.07s WALL (       5 calls)
     wfcinit:wfcr :      5.69s CPU      5.77s WALL (       5 calls)
     potinit      :      0.18s CPU      0.20s WALL (       1 calls)
     hinit0       :      0.71s CPU      0.77s WALL (       1 calls)

     Called by electrons:
     c_bands      :    551.02s CPU    555.55s WALL (      48 calls)
     sum_band     :    109.12s CPU    113.32s WALL (      48 calls)
     v_of_rho     :      5.27s CPU      5.52s WALL (      49 calls)
     v_h          :      0.48s CPU      0.48s WALL (      49 calls)
     v_xc         :      4.79s CPU      5.05s WALL (      49 calls)
     newd         :     16.38s CPU     18.84s WALL (      49 calls)
     PAW_pot      :      1.54s CPU      1.57s WALL (      49 calls)
     mix_rho      :     12.26s CPU     12.51s WALL (      48 calls)

     Called by c_bands:
     init_us_2    :      6.79s CPU      6.83s WALL (     485 calls)
     init_us_2:cp :      6.79s CPU      6.82s WALL (     485 calls)
     cegterg      :    519.44s CPU    523.82s WALL (     240 calls)

     Called by sum_band:
     sum_band:wei :      0.35s CPU      0.35s WALL (      48 calls)
     sum_band:loo :     89.55s CPU     90.18s WALL (      48 calls)
     sum_band:buf :      1.44s CPU      1.45s WALL (     240 calls)
     sum_band:ini :      3.27s CPU      3.28s WALL (     240 calls)
     sum_band:cal :     18.05s CPU     18.10s WALL (     240 calls)
     sum_band:bec :      0.51s CPU      0.52s WALL (     240 calls)
     addusdens    :     17.96s CPU     21.50s WALL (      48 calls)
                                        0.00s GPU  (      48 calls)
     addusd:skk   :      0.34s CPU      0.66s WALL (     192 calls)
                                        0.00s GPU  (     192 calls)

     Called by *egterg:
     cdiaghg      :     59.35s CPU     59.58s WALL (    1408 calls)
     cegterg:over :     37.88s CPU     38.01s WALL (    1168 calls)
     cegterg:upda :     27.80s CPU     28.11s WALL (    1168 calls)
     cegterg:last :     55.72s CPU     55.88s WALL (     439 calls)
     cdiaghg:chol :      3.39s CPU      3.41s WALL (    1408 calls)
     cdiaghg:inve :      3.60s CPU      3.61s WALL (    1408 calls)
     cdiaghg:para :      7.49s CPU      7.53s WALL (    2816 calls)
     h_psi        :    285.21s CPU    287.74s WALL (    1413 calls)
     s_psi        :     38.29s CPU     38.39s WALL (    1413 calls)
     g_psi        :      1.07s CPU      1.08s WALL (    1168 calls)

     Called by h_psi:
     h_psi:calbec :     41.98s CPU     42.13s WALL (    1413 calls)
     vloc_psi     :    201.89s CPU    203.72s WALL (    1413 calls)
     add_vuspsi   :     38.10s CPU     38.22s WALL (    1413 calls)

     General routines
     calbec       :     60.01s CPU     60.23s WALL (    1653 calls)
     fft          :      3.50s CPU      3.53s WALL (     635 calls)
     ffts         :      4.40s CPU      4.43s WALL (    5042 calls)
     fftw         :    168.70s CPU    169.97s WALL (  321886 calls)
     interpolate  :      0.39s CPU      0.40s WALL (      49 calls)
 
     Parallel routines

     PAW routines
     PAW_pot      :      1.54s CPU      1.57s WALL (      49 calls)
 
     PWSCF        :  11m45.26s CPU  12m 0.13s WALL

 
   This run was terminated on:  13:21:38  21Jun2024            

=------------------------------------------------------------------------------=
   JOB DONE.
=------------------------------------------------------------------------------=
