
     Program PWSCF v.7.2 starts on 21Jun2024 at 21:52:23 

     This program is part of the open-source Quantum ESPRESSO suite
     for quantum simulation of materials; please cite
         "P. Giannozzi et al., J. Phys.:Condens. Matter 21 395502 (2009);
         "P. Giannozzi et al., J. Phys.:Condens. Matter 29 465901 (2017);
         "P. Giannozzi et al., J. Chem. Phys. 152 154105 (2020);
          URL http://www.quantum-espresso.org", 
     in publications or presentations arising from this work. More details at
     http://www.quantum-espresso.org/quote

     Parallel version (MPI & OpenMP), running on      48 processor cores
     Number of MPI processes:                48
     Threads/MPI process:                     1

     MPI processes distributed on     1 nodes
     60573 MiB available memory on the printing compute node when the environment starts
 
     Reading input from espresso.pwi
Warning: card &CELL ignored
Warning: card / ignored
Warning: card &FCP ignored
Warning: card / ignored
Warning: card &RISM ignored
Warning: card / ignored

     Current dimensions of program PWSCF are:
     Max number of different atomic species (ntypx) = 10
     Max number of k-points (npk) =  40000
     Max angular momentum in pseudopotentials (lmaxx) =  4
     file O.pbe-n-kjpaw_psl.0.1.UPF: wavefunction(s)  2P renormalized
     signal trapping enabled: kill the code with -SIGUSR1 to stop cleanly the simulation 
 
     K-points division:     npool     =       2
     R & G space division:  proc/nbgrp/npool/nimage =      24
     Subspace diagonalization in iterative solution of the eigenvalue problem:
     one sub-group per band group will be used
     scalapack distributed-memory algorithm (size of sub-group:  3*  3 procs)

 
     Parallelization info
     --------------------
     sticks:   dense  smooth     PW     G-vecs:    dense   smooth      PW
     Min         350     175     47                61430    21716    3036
     Max         351     177     48                61449    21727    3041
     Sum        8421    4205   1137              1474595   521381   72913
 
     Using Slab Decomposition
 


     bravais-lattice index     =            0
     lattice parameter (alat)  =      14.8599  a.u.
     unit-cell volume          =    8305.1283 (a.u.)^3
     number of atoms/cell      =           49
     number of atomic types    =            3
     number of electrons       =       430.00
     number of Kohn-Sham states=          258
     kinetic-energy cutoff     =      60.0000  Ry
     charge density cutoff     =     480.0000  Ry
     scf convergence threshold =      1.0E-08
     mixing beta               =       0.1500
     number of iterations used =            8  local-TF  mixing
     Exchange-correlation= SLA  PW   PBE  PBE
                           (   1   4   3   4   0   0   0)

     celldm(1)=  14.859904  celldm(2)=   0.000000  celldm(3)=   0.000000
     celldm(4)=   0.000000  celldm(5)=   0.000000  celldm(6)=   0.000000

     crystal axes: (cart. coord. in units of alat)
               a(1) = (   1.000000   0.000000   0.000000 )  
               a(2) = (   0.000000   1.000000   0.000000 )  
               a(3) = (   0.000000   0.000000   2.531036 )  

     reciprocal axes: (cart. coord. in units 2 pi/alat)
               b(1) = (  1.000000  0.000000  0.000000 )  
               b(2) = (  0.000000  1.000000  0.000000 )  
               b(3) = (  0.000000  0.000000  0.395095 )  


     PseudoPot. # 1 for Sr read from file:
     /bsuhome/zayahcortright/q-e/pseudo/Sr_pbe_v1.uspp.F.UPF
     MD5 check sum: 6b418c05fbe9db5448babca5e47b7a5b
     Pseudo is Ultrasoft + core correction, Zval = 10.0
     Generated by new atomic code, or converted to UPF format
     Using radial grid of  883 points,  6 beta functions with: 
                l(1) =   0
                l(2) =   0
                l(3) =   1
                l(4) =   1
                l(5) =   2
                l(6) =   2
     Q(r) pseudized with  6 coefficients,  rinner =    1.400   1.400   1.400
                                                       1.400   1.400

     PseudoPot. # 2 for O  read from file:
     /bsuhome/zayahcortright/q-e/pseudo/O.pbe-n-kjpaw_psl.0.1.UPF
     MD5 check sum: 0234752ac141de4415c5fc33072bef88
     Pseudo is Projector augmented-wave + core cor, Zval =  6.0
     Generated using "atomic" code by A. Dal Corso  v.5.0.99 svn rev. 10869
     Shape of augmentation charge: BESSEL
     Using radial grid of 1095 points,  4 beta functions with: 
                l(1) =   0
                l(2) =   0
                l(3) =   1
                l(4) =   1
     Q(r) pseudized with 0 coefficients 


     PseudoPot. # 3 for Co read from file:
     /bsuhome/zayahcortright/q-e/pseudo/Co_pbe_v1.2.uspp.F.UPF
     MD5 check sum: 5f91765df6ddd3222702df6e7b74a16d
     Pseudo is Ultrasoft + core correction, Zval = 17.0
     Generated by new atomic code, or converted to UPF format
     Using radial grid of  863 points,  6 beta functions with: 
                l(1) =   0
                l(2) =   0
                l(3) =   1
                l(4) =   1
                l(5) =   2
                l(6) =   2
     Q(r) pseudized with  8 coefficients,  rinner =    1.200   1.200   1.200
                                                       1.200   1.200

     atomic species   valence    mass     pseudopotential
        Sr            10.00    87.62000     Sr( 1.00)
        O              6.00    15.99900     O ( 1.00)
        Co            17.00    58.93319     Co( 1.00)

     No symmetry found


                                    s                        frac. trans.

      isym =  1     identity                                     

 cryst.   s( 1) = (     1          0          0      )
                  (     0          1          0      )
                  (     0          0          1      )

 cart.    s( 1) = (  1.0000000  0.0000000  0.0000000 )
                  (  0.0000000  1.0000000  0.0000000 )
                  (  0.0000000  0.0000000  1.0000000 )


   Cartesian axes

     site n.     atom                  positions (alat units)
         1           Sr  tau(   1) = (   0.2508693   0.7491307   1.7574407  )
         2           O   tau(   2) = (   0.4985141   0.5014859   1.7715967  )
         3           Sr  tau(   3) = (   0.7482398   0.7454518   1.7648669  )
         4           Sr  tau(   4) = (   0.7441748   0.2558252   1.7667843  )
         5           Sr  tau(   5) = (   0.2508693   0.7491307   1.2696799  )
         6           Sr  tau(   6) = (   0.2508693   0.7491307   0.7632319  )
         7           Co  tau(   7) = (   0.4998914   0.5001086   1.0164559  )
         8           Co  tau(   8) = (   0.4936915   0.5063085   1.5135603  )
         9           O   tau(   9) = (   0.4988895   0.7610401   1.0164559  )
        10           O   tau(  10) = (   0.2389599   0.5011105   1.0164559  )
        11           O   tau(  11) = (   0.0070918   0.7374880   1.0164559  )
        12           O   tau(  12) = (   0.0088340   0.7405089   1.5135603  )
        13           O   tau(  13) = (   0.5066944   0.7415376   1.5135603  )
        14           O   tau(  14) = (   0.2584624   0.4933056   1.5135603  )
        15           O   tau(  15) = (   0.4985141   0.5014859   0.7773880  )
        16           O   tau(  16) = (   0.4985141   0.5014859   1.2555238  )
        17           Sr  tau(  17) = (   0.7482398   0.7454518   0.7706582  )
        18           Sr  tau(  18) = (   0.7482398   0.7454518   1.2622536  )
        19           Sr  tau(  19) = (   0.7441748   0.2558252   0.7725755  )
        20           Sr  tau(  20) = (   0.7441748   0.2558252   1.2603363  )
        21           O   tau(  21) = (   0.7322655   0.0078049   1.5135603  )
        22           O   tau(  22) = (   0.7558175   0.4996027   1.5135603  )
        23           O   tau(  23) = (   0.5003973   0.2441825   1.5135603  )
        24           O   tau(  24) = (   0.7527966   0.4978604   1.0164559  )
        25           O   tau(  25) = (   0.5021396   0.2472034   1.0164559  )
        26           O   tau(  26) = (   0.7517679   0.0000000   1.0164559  )
        27           O   tau(  27) = (   0.0114961   0.4948124   1.7455321  )
        28           O   tau(  28) = (   0.0048226   0.0077944   1.7715967  )
        29           Sr  tau(  29) = (   0.2545482   0.2517602   1.7648669  )
        30           O   tau(  30) = (   0.5048017   0.0015068   1.7786929  )
        31           Co  tau(  31) = (   0.0056869   0.5006215   1.0164559  )
        32           Co  tau(  32) = (   0.0065315   0.4997770   1.5135603  )
        33           Co  tau(  33) = (   0.0061999   0.0064171   1.0164559  )
        34           Co  tau(  34) = (   0.0000000   0.0126169   1.5135603  )
        35           O   tau(  35) = (   0.0114961   0.4948124   1.2815885  )
        36           O   tau(  36) = (   0.0114961   0.4948124   0.7513233  )
        37           O   tau(  37) = (   0.0051979   0.2673486   1.0164559  )
        38           O   tau(  38) = (   0.0130029   0.2478461   1.5135603  )
        39           O   tau(  39) = (   0.0048226   0.0077944   0.7773880  )
        40           O   tau(  40) = (   0.0048226   0.0077944   1.2555238  )
        41           Sr  tau(  41) = (   0.2545482   0.2517602   0.7706582  )
        42           Sr  tau(  42) = (   0.2545482   0.2517602   1.2622536  )
        43           Co  tau(  43) = (   0.4989925   0.0073160   1.5135603  )
        44           Co  tau(  44) = (   0.4998370   0.0064714   1.0164559  )
        45           O   tau(  45) = (   0.5048017   0.0015068   0.7844841  )
        46           O   tau(  46) = (   0.5048017   0.0015068   1.2484277  )
        47           O   tau(  47) = (   0.2621260   0.0059111   1.5135603  )
        48           O   tau(  48) = (   0.2591051   0.0041689   1.0164559  )
        49           O   tau(  49) = (   0.5686583   0.5686583   2.1602013  )

   Crystallographic axes

     site n.     atom                  positions (cryst. coord.)
         1           Sr  tau(   1) = (  0.2508693  0.7491307  0.6943562  )
         2           O   tau(   2) = (  0.4985141  0.5014859  0.6999492  )
         3           Sr  tau(   3) = (  0.7482398  0.7454518  0.6972903  )
         4           Sr  tau(   4) = (  0.7441748  0.2558252  0.6980478  )
         5           Sr  tau(   5) = (  0.2508693  0.7491307  0.5016443  )
         6           Sr  tau(   6) = (  0.2508693  0.7491307  0.3015492  )
         7           Co  tau(   7) = (  0.4998914  0.5001086  0.4015968  )
         8           Co  tau(   8) = (  0.4936915  0.5063085  0.5980003  )
         9           O   tau(   9) = (  0.4988895  0.7610401  0.4015968  )
        10           O   tau(  10) = (  0.2389599  0.5011105  0.4015968  )
        11           O   tau(  11) = (  0.0070918  0.7374880  0.4015968  )
        12           O   tau(  12) = (  0.0088340  0.7405089  0.5980003  )
        13           O   tau(  13) = (  0.5066944  0.7415376  0.5980003  )
        14           O   tau(  14) = (  0.2584624  0.4933056  0.5980003  )
        15           O   tau(  15) = (  0.4985141  0.5014859  0.3071422  )
        16           O   tau(  16) = (  0.4985141  0.5014859  0.4960513  )
        17           Sr  tau(  17) = (  0.7482398  0.7454518  0.3044833  )
        18           Sr  tau(  18) = (  0.7482398  0.7454518  0.4987103  )
        19           Sr  tau(  19) = (  0.7441748  0.2558252  0.3052408  )
        20           Sr  tau(  20) = (  0.7441748  0.2558252  0.4979527  )
        21           O   tau(  21) = (  0.7322655  0.0078049  0.5980003  )
        22           O   tau(  22) = (  0.7558175  0.4996027  0.5980003  )
        23           O   tau(  23) = (  0.5003973  0.2441825  0.5980003  )
        24           O   tau(  24) = (  0.7527966  0.4978604  0.4015968  )
        25           O   tau(  25) = (  0.5021396  0.2472034  0.4015968  )
        26           O   tau(  26) = (  0.7517679  0.0000000  0.4015968  )
        27           O   tau(  27) = (  0.0114961  0.4948124  0.6896512  )
        28           O   tau(  28) = (  0.0048226  0.0077944  0.6999492  )
        29           Sr  tau(  29) = (  0.2545482  0.2517602  0.6972903  )
        30           O   tau(  30) = (  0.5048017  0.0015068  0.7027529  )
        31           Co  tau(  31) = (  0.0056869  0.5006215  0.4015968  )
        32           Co  tau(  32) = (  0.0065315  0.4997770  0.5980003  )
        33           Co  tau(  33) = (  0.0061999  0.0064171  0.4015968  )
        34           Co  tau(  34) = (  0.0000000  0.0126169  0.5980003  )
        35           O   tau(  35) = (  0.0114961  0.4948124  0.5063494  )
        36           O   tau(  36) = (  0.0114961  0.4948124  0.2968442  )
        37           O   tau(  37) = (  0.0051979  0.2673486  0.4015968  )
        38           O   tau(  38) = (  0.0130029  0.2478461  0.5980003  )
        39           O   tau(  39) = (  0.0048226  0.0077944  0.3071422  )
        40           O   tau(  40) = (  0.0048226  0.0077944  0.4960513  )
        41           Sr  tau(  41) = (  0.2545482  0.2517602  0.3044833  )
        42           Sr  tau(  42) = (  0.2545482  0.2517602  0.4987103  )
        43           Co  tau(  43) = (  0.4989925  0.0073160  0.5980003  )
        44           Co  tau(  44) = (  0.4998370  0.0064714  0.4015968  )
        45           O   tau(  45) = (  0.5048017  0.0015068  0.3099459  )
        46           O   tau(  46) = (  0.5048017  0.0015068  0.4932477  )
        47           O   tau(  47) = (  0.2621260  0.0059111  0.5980003  )
        48           O   tau(  48) = (  0.2591051  0.0041689  0.4015968  )
        49           O   tau(  49) = (  0.5686583  0.5686583  0.8534850  )

     number of k points=    10  Gaussian smearing, width (Ry)=  0.0700
                       cart. coord. in units 2pi/alat
        k(    1) = (   0.0000000   0.0000000   0.0000000), wk =   0.1250000
        k(    2) = (   0.0000000   0.2500000   0.0000000), wk =   0.2500000
        k(    3) = (   0.0000000  -0.5000000   0.0000000), wk =   0.1250000
        k(    4) = (   0.2500000   0.2500000   0.0000000), wk =   0.2500000
        k(    5) = (   0.2500000  -0.5000000   0.0000000), wk =   0.2500000
        k(    6) = (  -0.5000000  -0.5000000   0.0000000), wk =   0.1250000
        k(    7) = (   0.2500000   0.0000000   0.0000000), wk =   0.2500000
        k(    8) = (  -0.5000000   0.0000000   0.0000000), wk =   0.1250000
        k(    9) = (  -0.2500000   0.2500000   0.0000000), wk =   0.2500000
        k(   10) = (  -0.5000000   0.2500000   0.0000000), wk =   0.2500000

                       cryst. coord.
        k(    1) = (   0.0000000   0.0000000   0.0000000), wk =   0.1250000
        k(    2) = (   0.0000000   0.2500000   0.0000000), wk =   0.2500000
        k(    3) = (   0.0000000  -0.5000000   0.0000000), wk =   0.1250000
        k(    4) = (   0.2500000   0.2500000   0.0000000), wk =   0.2500000
        k(    5) = (   0.2500000  -0.5000000   0.0000000), wk =   0.2500000
        k(    6) = (  -0.5000000  -0.5000000   0.0000000), wk =   0.1250000
        k(    7) = (   0.2500000   0.0000000   0.0000000), wk =   0.2500000
        k(    8) = (  -0.5000000   0.0000000   0.0000000), wk =   0.1250000
        k(    9) = (  -0.2500000   0.2500000   0.0000000), wk =   0.2500000
        k(   10) = (  -0.5000000   0.2500000   0.0000000), wk =   0.2500000

     Dense  grid:  1474595 G-vectors     FFT dimensions: ( 108, 108, 270)

     Smooth grid:   521381 G-vectors     FFT dimensions: (  75,  75, 192)

     Dynamical RAM for                 wfc:      10.69 MB

     Dynamical RAM for     wfc (w. buffer):      64.13 MB

     Dynamical RAM for           str. fact:       2.81 MB

     Dynamical RAM for           local pot:       0.00 MB

     Dynamical RAM for          nlocal pot:      24.53 MB

     Dynamical RAM for                qrad:       5.27 MB

     Dynamical RAM for          rho,v,vnew:       6.02 MB

     Dynamical RAM for               rhoin:       2.01 MB

     Dynamical RAM for            rho*nmix:      15.00 MB

     Dynamical RAM for           G-vectors:       3.68 MB

     Dynamical RAM for          h,s,v(r/c):       1.35 MB

     Dynamical RAM for          <psi|beta>:       2.33 MB

     Dynamical RAM for                 psi:      21.38 MB

     Dynamical RAM for                hpsi:      21.38 MB

     Dynamical RAM for                spsi:      21.38 MB

     Dynamical RAM for      wfcinit/wfcrot:      34.39 MB

     Dynamical RAM for           addusdens:     101.26 MB

     Estimated static dynamical RAM per process >     117.53 MB

     Estimated max dynamical RAM per process >     233.79 MB

     Estimated total dynamical RAM >      10.61 GB

     Check: negative core charge=   -0.000004

     Initial potential from superposition of free atoms

     starting charge     421.5961, renormalised to     430.0000

     negative rho (up, down):  7.826E-01 0.000E+00
     Starting wfcs are  376 randomized atomic wfcs
     Checking if some PAW data can be deallocated... 
       PAW data deallocated on   19 nodes for type:  2

     total cpu time spent up to now is        9.2 secs

     Self-consistent Calculation

     iteration #  1     ecut=    60.00 Ry     beta= 0.15
     Davidson diagonalization with overlap

---- Real-time Memory Report at c_bands before calling an iterative solver
             0 MiB given to the printing process from OS
             0 MiB allocation reported by mallinfo(arena+hblkhd)
         51486 MiB available memory on the node where the printing process lives
------------------
     ethr =  1.00E-02,  avg # of iterations =  2.0

     negative rho (up, down):  7.718E-01 0.000E+00

     total cpu time spent up to now is       24.4 secs

     total energy              =   -4445.27777065 Ry
     estimated scf accuracy    <      54.04493929 Ry

     iteration #  2     ecut=    60.00 Ry     beta= 0.15
     Davidson diagonalization with overlap

---- Real-time Memory Report at c_bands before calling an iterative solver
             0 MiB given to the printing process from OS
             0 MiB allocation reported by mallinfo(arena+hblkhd)
         51861 MiB available memory on the node where the printing process lives
------------------
     ethr =  1.00E-02,  avg # of iterations =  1.0

     negative rho (up, down):  7.586E-01 0.000E+00

     total cpu time spent up to now is       36.9 secs

     total energy              =   -4441.77056768 Ry
     estimated scf accuracy    <      28.89669342 Ry

     iteration #  3     ecut=    60.00 Ry     beta= 0.15
     Davidson diagonalization with overlap

---- Real-time Memory Report at c_bands before calling an iterative solver
             0 MiB given to the printing process from OS
             0 MiB allocation reported by mallinfo(arena+hblkhd)
         51097 MiB available memory on the node where the printing process lives
------------------
     ethr =  6.72E-03,  avg # of iterations =  1.0

     negative rho (up, down):  7.534E-01 0.000E+00

     total cpu time spent up to now is       49.6 secs

     total energy              =   -4442.66561967 Ry
     estimated scf accuracy    <      28.78968206 Ry

     iteration #  4     ecut=    60.00 Ry     beta= 0.15
     Davidson diagonalization with overlap

---- Real-time Memory Report at c_bands before calling an iterative solver
             0 MiB given to the printing process from OS
             0 MiB allocation reported by mallinfo(arena+hblkhd)
         51049 MiB available memory on the node where the printing process lives
------------------
     ethr =  6.70E-03,  avg # of iterations =  1.0

     negative rho (up, down):  7.536E-01 0.000E+00

     total cpu time spent up to now is       62.1 secs

     total energy              =   -4442.41351785 Ry
     estimated scf accuracy    <      26.16293747 Ry

     iteration #  5     ecut=    60.00 Ry     beta= 0.15
     Davidson diagonalization with overlap

---- Real-time Memory Report at c_bands before calling an iterative solver
             0 MiB given to the printing process from OS
             0 MiB allocation reported by mallinfo(arena+hblkhd)
         51018 MiB available memory on the node where the printing process lives
------------------
     ethr =  6.08E-03,  avg # of iterations =  1.0

     negative rho (up, down):  7.352E-01 0.000E+00

     total cpu time spent up to now is       74.6 secs

     total energy              =   -4441.05048490 Ry
     estimated scf accuracy    <      17.68273652 Ry

     iteration #  6     ecut=    60.00 Ry     beta= 0.15
     Davidson diagonalization with overlap

---- Real-time Memory Report at c_bands before calling an iterative solver
             0 MiB given to the printing process from OS
             0 MiB allocation reported by mallinfo(arena+hblkhd)
         51003 MiB available memory on the node where the printing process lives
------------------
     ethr =  4.11E-03,  avg # of iterations =  2.0

     negative rho (up, down):  7.386E-01 0.000E+00

     total cpu time spent up to now is       88.5 secs

     total energy              =   -4444.13735580 Ry
     estimated scf accuracy    <      66.19720938 Ry

     iteration #  7     ecut=    60.00 Ry     beta= 0.15
     Davidson diagonalization with overlap

---- Real-time Memory Report at c_bands before calling an iterative solver
             0 MiB given to the printing process from OS
             0 MiB allocation reported by mallinfo(arena+hblkhd)
         50981 MiB available memory on the node where the printing process lives
------------------
     ethr =  4.11E-03,  avg # of iterations =  1.0

     negative rho (up, down):  7.390E-01 0.000E+00

     total cpu time spent up to now is      101.2 secs

     total energy              =   -4443.96572018 Ry
     estimated scf accuracy    <      63.16821842 Ry

     iteration #  8     ecut=    60.00 Ry     beta= 0.15
     Davidson diagonalization with overlap

---- Real-time Memory Report at c_bands before calling an iterative solver
             0 MiB given to the printing process from OS
             0 MiB allocation reported by mallinfo(arena+hblkhd)
         50968 MiB available memory on the node where the printing process lives
------------------
     ethr =  4.11E-03,  avg # of iterations =  1.0

     negative rho (up, down):  7.543E-01 0.000E+00

     total cpu time spent up to now is      113.7 secs

     total energy              =   -4438.64538857 Ry
     estimated scf accuracy    <      57.13297345 Ry

     iteration #  9     ecut=    60.00 Ry     beta= 0.15
     Davidson diagonalization with overlap

---- Real-time Memory Report at c_bands before calling an iterative solver
             0 MiB given to the printing process from OS
             0 MiB allocation reported by mallinfo(arena+hblkhd)
         50950 MiB available memory on the node where the printing process lives
------------------
     ethr =  4.11E-03,  avg # of iterations =  1.0

     negative rho (up, down):  7.541E-01 0.000E+00

     total cpu time spent up to now is      126.0 secs

     total energy              =   -4441.62652926 Ry
     estimated scf accuracy    <       8.07939032 Ry

     iteration # 10     ecut=    60.00 Ry     beta= 0.15
     Davidson diagonalization with overlap

---- Real-time Memory Report at c_bands before calling an iterative solver
             0 MiB given to the printing process from OS
             0 MiB allocation reported by mallinfo(arena+hblkhd)
         50922 MiB available memory on the node where the printing process lives
------------------
     ethr =  1.88E-03,  avg # of iterations =  1.1

     negative rho (up, down):  7.551E-01 0.000E+00

     total cpu time spent up to now is      138.7 secs

     total energy              =   -4440.77237623 Ry
     estimated scf accuracy    <       7.58340435 Ry

     iteration # 11     ecut=    60.00 Ry     beta= 0.15
     Davidson diagonalization with overlap

---- Real-time Memory Report at c_bands before calling an iterative solver
             0 MiB given to the printing process from OS
             0 MiB allocation reported by mallinfo(arena+hblkhd)
         50920 MiB available memory on the node where the printing process lives
------------------
     ethr =  1.76E-03,  avg # of iterations =  2.6

     negative rho (up, down):  7.703E-01 0.000E+00

     total cpu time spent up to now is      152.6 secs

     total energy              =   -4440.37189488 Ry
     estimated scf accuracy    <       3.85585253 Ry

     iteration # 12     ecut=    60.00 Ry     beta= 0.15
     Davidson diagonalization with overlap

---- Real-time Memory Report at c_bands before calling an iterative solver
             0 MiB given to the printing process from OS
             0 MiB allocation reported by mallinfo(arena+hblkhd)
         50913 MiB available memory on the node where the printing process lives
------------------
     ethr =  8.97E-04,  avg # of iterations =  4.8

     negative rho (up, down):  7.830E-01 0.000E+00

     total cpu time spent up to now is      167.9 secs

     total energy              =   -4440.38149063 Ry
     estimated scf accuracy    <      15.29180514 Ry

     iteration # 13     ecut=    60.00 Ry     beta= 0.15
     Davidson diagonalization with overlap

---- Real-time Memory Report at c_bands before calling an iterative solver
             0 MiB given to the printing process from OS
             0 MiB allocation reported by mallinfo(arena+hblkhd)
         50850 MiB available memory on the node where the printing process lives
------------------
     ethr =  8.97E-04,  avg # of iterations = 10.7

     negative rho (up, down):  7.854E-01 0.000E+00

     total cpu time spent up to now is      185.9 secs

     total energy              =   -4440.37432052 Ry
     estimated scf accuracy    <       3.19460444 Ry

     iteration # 14     ecut=    60.00 Ry     beta= 0.15
     Davidson diagonalization with overlap

---- Real-time Memory Report at c_bands before calling an iterative solver
             0 MiB given to the printing process from OS
             0 MiB allocation reported by mallinfo(arena+hblkhd)
         50577 MiB available memory on the node where the printing process lives
------------------
     ethr =  7.43E-04,  avg # of iterations =  3.3

     negative rho (up, down):  7.897E-01 0.000E+00

     total cpu time spent up to now is      200.4 secs

     total energy              =   -4440.52596792 Ry
     estimated scf accuracy    <       1.31239784 Ry

     iteration # 15     ecut=    60.00 Ry     beta= 0.15
     Davidson diagonalization with overlap

---- Real-time Memory Report at c_bands before calling an iterative solver
             0 MiB given to the printing process from OS
             0 MiB allocation reported by mallinfo(arena+hblkhd)
         50464 MiB available memory on the node where the printing process lives
------------------
     ethr =  3.05E-04,  avg # of iterations =  5.0

     negative rho (up, down):  8.003E-01 0.000E+00

     total cpu time spent up to now is      216.5 secs

     total energy              =   -4440.44462866 Ry
     estimated scf accuracy    <       0.58381932 Ry

     iteration # 16     ecut=    60.00 Ry     beta= 0.15
     Davidson diagonalization with overlap

---- Real-time Memory Report at c_bands before calling an iterative solver
             0 MiB given to the printing process from OS
             0 MiB allocation reported by mallinfo(arena+hblkhd)
         50467 MiB available memory on the node where the printing process lives
------------------
     ethr =  1.36E-04,  avg # of iterations =  9.9

     negative rho (up, down):  8.088E-01 0.000E+00

     total cpu time spent up to now is      235.3 secs

     total energy              =   -4440.38467047 Ry
     estimated scf accuracy    <       1.15566199 Ry

     iteration # 17     ecut=    60.00 Ry     beta= 0.15
     Davidson diagonalization with overlap

---- Real-time Memory Report at c_bands before calling an iterative solver
             0 MiB given to the printing process from OS
             0 MiB allocation reported by mallinfo(arena+hblkhd)
         50363 MiB available memory on the node where the printing process lives
------------------
     ethr =  1.36E-04,  avg # of iterations =  3.7

     negative rho (up, down):  8.087E-01 0.000E+00

     total cpu time spent up to now is      249.9 secs

     total energy              =   -4440.40203570 Ry
     estimated scf accuracy    <       0.45759594 Ry

     iteration # 18     ecut=    60.00 Ry     beta= 0.15
     Davidson diagonalization with overlap

---- Real-time Memory Report at c_bands before calling an iterative solver
             0 MiB given to the printing process from OS
             0 MiB allocation reported by mallinfo(arena+hblkhd)
         50385 MiB available memory on the node where the printing process lives
------------------
     c_bands:  1 eigenvalues not converged
     ethr =  1.06E-04,  avg # of iterations = 10.0

     negative rho (up, down):  8.157E-01 0.000E+00

     total cpu time spent up to now is      266.8 secs

     total energy              =   -4440.36016334 Ry
     estimated scf accuracy    <       0.27513661 Ry

     iteration # 19     ecut=    60.00 Ry     beta= 0.15
     Davidson diagonalization with overlap

---- Real-time Memory Report at c_bands before calling an iterative solver
             0 MiB given to the printing process from OS
             0 MiB allocation reported by mallinfo(arena+hblkhd)
         50491 MiB available memory on the node where the printing process lives
------------------
     ethr =  6.40E-05,  avg # of iterations = 10.5

     negative rho (up, down):  8.152E-01 0.000E+00

     total cpu time spent up to now is      284.5 secs

     total energy              =   -4440.35662036 Ry
     estimated scf accuracy    <       0.18330030 Ry

     iteration # 20     ecut=    60.00 Ry     beta= 0.15
     Davidson diagonalization with overlap

---- Real-time Memory Report at c_bands before calling an iterative solver
             0 MiB given to the printing process from OS
             0 MiB allocation reported by mallinfo(arena+hblkhd)
         50447 MiB available memory on the node where the printing process lives
------------------
     ethr =  4.26E-05,  avg # of iterations =  1.7

     negative rho (up, down):  8.114E-01 0.000E+00

     total cpu time spent up to now is      298.4 secs

     total energy              =   -4440.33261039 Ry
     estimated scf accuracy    <       0.15821494 Ry

     iteration # 21     ecut=    60.00 Ry     beta= 0.15
     Davidson diagonalization with overlap

---- Real-time Memory Report at c_bands before calling an iterative solver
             0 MiB given to the printing process from OS
             0 MiB allocation reported by mallinfo(arena+hblkhd)
         50462 MiB available memory on the node where the printing process lives
------------------
     ethr =  3.68E-05,  avg # of iterations =  8.9

     negative rho (up, down):  8.057E-01 0.000E+00

     total cpu time spent up to now is      315.9 secs

     total energy              =   -4440.31340537 Ry
     estimated scf accuracy    <       0.15179328 Ry

     iteration # 22     ecut=    60.00 Ry     beta= 0.15
     Davidson diagonalization with overlap

---- Real-time Memory Report at c_bands before calling an iterative solver
             0 MiB given to the printing process from OS
             0 MiB allocation reported by mallinfo(arena+hblkhd)
         50419 MiB available memory on the node where the printing process lives
------------------
     ethr =  3.53E-05,  avg # of iterations =  5.8

     negative rho (up, down):  8.106E-01 0.000E+00

     total cpu time spent up to now is      332.6 secs

     total energy              =   -4440.30830112 Ry
     estimated scf accuracy    <       0.08182034 Ry

     iteration # 23     ecut=    60.00 Ry     beta= 0.15
     Davidson diagonalization with overlap

---- Real-time Memory Report at c_bands before calling an iterative solver
             0 MiB given to the printing process from OS
             0 MiB allocation reported by mallinfo(arena+hblkhd)
         50371 MiB available memory on the node where the printing process lives
------------------
     ethr =  1.90E-05,  avg # of iterations =  9.4

     negative rho (up, down):  8.221E-01 0.000E+00

     total cpu time spent up to now is      350.4 secs

     total energy              =   -4440.30355796 Ry
     estimated scf accuracy    <       0.04825978 Ry

     iteration # 24     ecut=    60.00 Ry     beta= 0.15
     Davidson diagonalization with overlap

---- Real-time Memory Report at c_bands before calling an iterative solver
             0 MiB given to the printing process from OS
             0 MiB allocation reported by mallinfo(arena+hblkhd)
         50358 MiB available memory on the node where the printing process lives
------------------
     ethr =  1.12E-05,  avg # of iterations =  7.2

     negative rho (up, down):  8.388E-01 0.000E+00

     total cpu time spent up to now is      366.7 secs

     total energy              =   -4440.30188016 Ry
     estimated scf accuracy    <       0.03079357 Ry

     iteration # 25     ecut=    60.00 Ry     beta= 0.15
     Davidson diagonalization with overlap

---- Real-time Memory Report at c_bands before calling an iterative solver
             0 MiB given to the printing process from OS
             0 MiB allocation reported by mallinfo(arena+hblkhd)
         50366 MiB available memory on the node where the printing process lives
------------------
     c_bands:  1 eigenvalues not converged
     ethr =  7.16E-06,  avg # of iterations = 11.1

     negative rho (up, down):  8.264E-01 0.000E+00

     total cpu time spent up to now is      385.4 secs

     total energy              =   -4440.30112911 Ry
     estimated scf accuracy    <       0.01546554 Ry

     iteration # 26     ecut=    60.00 Ry     beta= 0.15
     Davidson diagonalization with overlap

---- Real-time Memory Report at c_bands before calling an iterative solver
             0 MiB given to the printing process from OS
             0 MiB allocation reported by mallinfo(arena+hblkhd)
         50260 MiB available memory on the node where the printing process lives
------------------
     c_bands:  2 eigenvalues not converged
     ethr =  3.60E-06,  avg # of iterations =  4.3

     negative rho (up, down):  8.020E-01 0.000E+00

     total cpu time spent up to now is      400.6 secs

     total energy              =   -4440.29932804 Ry
     estimated scf accuracy    <       0.01121869 Ry

     iteration # 27     ecut=    60.00 Ry     beta= 0.15
     Davidson diagonalization with overlap

---- Real-time Memory Report at c_bands before calling an iterative solver
             0 MiB given to the printing process from OS
             0 MiB allocation reported by mallinfo(arena+hblkhd)
         50285 MiB available memory on the node where the printing process lives
------------------
     ethr =  2.61E-06,  avg # of iterations =  8.0

     negative rho (up, down):  7.990E-01 0.000E+00

     total cpu time spent up to now is      417.7 secs

     total energy              =   -4440.29939381 Ry
     estimated scf accuracy    <       0.00700567 Ry

     iteration # 28     ecut=    60.00 Ry     beta= 0.15
     Davidson diagonalization with overlap

---- Real-time Memory Report at c_bands before calling an iterative solver
             0 MiB given to the printing process from OS
             0 MiB allocation reported by mallinfo(arena+hblkhd)
         50309 MiB available memory on the node where the printing process lives
------------------
     ethr =  1.63E-06,  avg # of iterations =  2.0

     negative rho (up, down):  7.927E-01 0.000E+00

     total cpu time spent up to now is      431.8 secs

     total energy              =   -4440.29845129 Ry
     estimated scf accuracy    <       0.00558837 Ry

     iteration # 29     ecut=    60.00 Ry     beta= 0.15
     Davidson diagonalization with overlap

---- Real-time Memory Report at c_bands before calling an iterative solver
             0 MiB given to the printing process from OS
             0 MiB allocation reported by mallinfo(arena+hblkhd)
         50318 MiB available memory on the node where the printing process lives
------------------
     c_bands:  1 eigenvalues not converged
     ethr =  1.30E-06,  avg # of iterations =  8.9

     negative rho (up, down):  7.964E-01 0.000E+00

     total cpu time spent up to now is      448.5 secs

     total energy              =   -4440.29801941 Ry
     estimated scf accuracy    <       0.00326842 Ry

     iteration # 30     ecut=    60.00 Ry     beta= 0.15
     Davidson diagonalization with overlap

---- Real-time Memory Report at c_bands before calling an iterative solver
             0 MiB given to the printing process from OS
             0 MiB allocation reported by mallinfo(arena+hblkhd)
         50342 MiB available memory on the node where the printing process lives
------------------
     c_bands:  1 eigenvalues not converged
     ethr =  7.60E-07,  avg # of iterations = 14.2

     negative rho (up, down):  7.974E-01 0.000E+00

     total cpu time spent up to now is      469.5 secs

     total energy              =   -4440.29832381 Ry
     estimated scf accuracy    <       0.00052444 Ry

     iteration # 31     ecut=    60.00 Ry     beta= 0.15
     Davidson diagonalization with overlap

---- Real-time Memory Report at c_bands before calling an iterative solver
             0 MiB given to the printing process from OS
             0 MiB allocation reported by mallinfo(arena+hblkhd)
         50122 MiB available memory on the node where the printing process lives
------------------
     c_bands:  1 eigenvalues not converged
     ethr =  1.22E-07,  avg # of iterations =  3.9

     negative rho (up, down):  7.950E-01 0.000E+00

     total cpu time spent up to now is      484.3 secs

     total energy              =   -4440.29821467 Ry
     estimated scf accuracy    <       0.00029135 Ry

     iteration # 32     ecut=    60.00 Ry     beta= 0.15
     Davidson diagonalization with overlap

---- Real-time Memory Report at c_bands before calling an iterative solver
             0 MiB given to the printing process from OS
             0 MiB allocation reported by mallinfo(arena+hblkhd)
         50112 MiB available memory on the node where the printing process lives
------------------
     ethr =  6.78E-08,  avg # of iterations =  4.2

     negative rho (up, down):  7.944E-01 0.000E+00

     total cpu time spent up to now is      499.5 secs

     total energy              =   -4440.29821512 Ry
     estimated scf accuracy    <       0.00010442 Ry

     iteration # 33     ecut=    60.00 Ry     beta= 0.15
     Davidson diagonalization with overlap

---- Real-time Memory Report at c_bands before calling an iterative solver
             0 MiB given to the printing process from OS
             0 MiB allocation reported by mallinfo(arena+hblkhd)
         50164 MiB available memory on the node where the printing process lives
------------------
     ethr =  2.43E-08,  avg # of iterations =  2.0

     negative rho (up, down):  7.933E-01 0.000E+00

     total cpu time spent up to now is      513.4 secs

     total energy              =   -4440.29820472 Ry
     estimated scf accuracy    <       0.00006417 Ry

     iteration # 34     ecut=    60.00 Ry     beta= 0.15
     Davidson diagonalization with overlap

---- Real-time Memory Report at c_bands before calling an iterative solver
             0 MiB given to the printing process from OS
             0 MiB allocation reported by mallinfo(arena+hblkhd)
         50221 MiB available memory on the node where the printing process lives
------------------
     ethr =  1.49E-08,  avg # of iterations =  4.0

     negative rho (up, down):  7.929E-01 0.000E+00

     total cpu time spent up to now is      530.2 secs

     total energy              =   -4440.29821160 Ry
     estimated scf accuracy    <       0.00002703 Ry

     iteration # 35     ecut=    60.00 Ry     beta= 0.15
     Davidson diagonalization with overlap

---- Real-time Memory Report at c_bands before calling an iterative solver
             0 MiB given to the printing process from OS
             0 MiB allocation reported by mallinfo(arena+hblkhd)
         50218 MiB available memory on the node where the printing process lives
------------------
     ethr =  6.29E-09,  avg # of iterations =  1.9

     negative rho (up, down):  7.928E-01 0.000E+00

     total cpu time spent up to now is      544.1 secs

     total energy              =   -4440.29821303 Ry
     estimated scf accuracy    <       0.00001132 Ry

     iteration # 36     ecut=    60.00 Ry     beta= 0.15
     Davidson diagonalization with overlap

---- Real-time Memory Report at c_bands before calling an iterative solver
             0 MiB given to the printing process from OS
             0 MiB allocation reported by mallinfo(arena+hblkhd)
         50239 MiB available memory on the node where the printing process lives
------------------
     ethr =  2.63E-09,  avg # of iterations =  2.0

     negative rho (up, down):  7.929E-01 0.000E+00

     total cpu time spent up to now is      558.2 secs

     total energy              =   -4440.29821267 Ry
     estimated scf accuracy    <       0.00000830 Ry

     iteration # 37     ecut=    60.00 Ry     beta= 0.15
     Davidson diagonalization with overlap

---- Real-time Memory Report at c_bands before calling an iterative solver
             0 MiB given to the printing process from OS
             0 MiB allocation reported by mallinfo(arena+hblkhd)
         50240 MiB available memory on the node where the printing process lives
------------------
     ethr =  1.93E-09,  avg # of iterations =  2.0

     negative rho (up, down):  7.928E-01 0.000E+00

     total cpu time spent up to now is      572.3 secs

     total energy              =   -4440.29821306 Ry
     estimated scf accuracy    <       0.00000379 Ry

     iteration # 38     ecut=    60.00 Ry     beta= 0.15
     Davidson diagonalization with overlap

---- Real-time Memory Report at c_bands before calling an iterative solver
             0 MiB given to the printing process from OS
             0 MiB allocation reported by mallinfo(arena+hblkhd)
         50244 MiB available memory on the node where the printing process lives
------------------
     ethr =  8.82E-10,  avg # of iterations =  2.0

     negative rho (up, down):  7.928E-01 0.000E+00

     total cpu time spent up to now is      587.8 secs

     total energy              =   -4440.29821349 Ry
     estimated scf accuracy    <       0.00000127 Ry

     iteration # 39     ecut=    60.00 Ry     beta= 0.15
     Davidson diagonalization with overlap

---- Real-time Memory Report at c_bands before calling an iterative solver
             0 MiB given to the printing process from OS
             0 MiB allocation reported by mallinfo(arena+hblkhd)
         50237 MiB available memory on the node where the printing process lives
------------------
     ethr =  2.96E-10,  avg # of iterations =  2.0

     negative rho (up, down):  7.928E-01 0.000E+00

     total cpu time spent up to now is      602.5 secs

     total energy              =   -4440.29821369 Ry
     estimated scf accuracy    <       0.00000109 Ry

     iteration # 40     ecut=    60.00 Ry     beta= 0.15
     Davidson diagonalization with overlap

---- Real-time Memory Report at c_bands before calling an iterative solver
             0 MiB given to the printing process from OS
             0 MiB allocation reported by mallinfo(arena+hblkhd)
         50242 MiB available memory on the node where the printing process lives
------------------
     ethr =  2.55E-10,  avg # of iterations =  1.0

     negative rho (up, down):  7.926E-01 0.000E+00

     total cpu time spent up to now is      615.1 secs

     total energy              =   -4440.29821434 Ry
     estimated scf accuracy    <       0.00000087 Ry

     iteration # 41     ecut=    60.00 Ry     beta= 0.15
     Davidson diagonalization with overlap

---- Real-time Memory Report at c_bands before calling an iterative solver
             0 MiB given to the printing process from OS
             0 MiB allocation reported by mallinfo(arena+hblkhd)
         50243 MiB available memory on the node where the printing process lives
------------------
     ethr =  2.01E-10,  avg # of iterations =  2.4

     negative rho (up, down):  7.926E-01 0.000E+00

     total cpu time spent up to now is      629.3 secs

     total energy              =   -4440.29821457 Ry
     estimated scf accuracy    <       0.00000064 Ry

     iteration # 42     ecut=    60.00 Ry     beta= 0.15
     Davidson diagonalization with overlap

---- Real-time Memory Report at c_bands before calling an iterative solver
             0 MiB given to the printing process from OS
             0 MiB allocation reported by mallinfo(arena+hblkhd)
         50250 MiB available memory on the node where the printing process lives
------------------
     ethr =  1.50E-10,  avg # of iterations =  2.0

     negative rho (up, down):  7.926E-01 0.000E+00

     total cpu time spent up to now is      643.2 secs

     total energy              =   -4440.29821460 Ry
     estimated scf accuracy    <       0.00000041 Ry

     iteration # 43     ecut=    60.00 Ry     beta= 0.15
     Davidson diagonalization with overlap

---- Real-time Memory Report at c_bands before calling an iterative solver
             0 MiB given to the printing process from OS
             0 MiB allocation reported by mallinfo(arena+hblkhd)
         50253 MiB available memory on the node where the printing process lives
------------------
     ethr =  9.58E-11,  avg # of iterations =  2.0

     negative rho (up, down):  7.926E-01 0.000E+00

     total cpu time spent up to now is      657.2 secs

     total energy              =   -4440.29821464 Ry
     estimated scf accuracy    <       0.00000027 Ry

     iteration # 44     ecut=    60.00 Ry     beta= 0.15
     Davidson diagonalization with overlap

---- Real-time Memory Report at c_bands before calling an iterative solver
             0 MiB given to the printing process from OS
             0 MiB allocation reported by mallinfo(arena+hblkhd)
         50255 MiB available memory on the node where the printing process lives
------------------
     ethr =  6.33E-11,  avg # of iterations =  2.0

     negative rho (up, down):  7.926E-01 0.000E+00

     total cpu time spent up to now is      671.4 secs

     total energy              =   -4440.29821466 Ry
     estimated scf accuracy    <       0.00000013 Ry

     iteration # 45     ecut=    60.00 Ry     beta= 0.15
     Davidson diagonalization with overlap

---- Real-time Memory Report at c_bands before calling an iterative solver
             0 MiB given to the printing process from OS
             0 MiB allocation reported by mallinfo(arena+hblkhd)
         50254 MiB available memory on the node where the printing process lives
------------------
     ethr =  3.04E-11,  avg # of iterations =  2.0

     negative rho (up, down):  7.926E-01 0.000E+00

     total cpu time spent up to now is      685.5 secs

     total energy              =   -4440.29821467 Ry
     estimated scf accuracy    <       0.00000006 Ry

     iteration # 46     ecut=    60.00 Ry     beta= 0.15
     Davidson diagonalization with overlap

---- Real-time Memory Report at c_bands before calling an iterative solver
             0 MiB given to the printing process from OS
             0 MiB allocation reported by mallinfo(arena+hblkhd)
         50253 MiB available memory on the node where the printing process lives
------------------
     ethr =  1.41E-11,  avg # of iterations =  2.2

     negative rho (up, down):  7.926E-01 0.000E+00

     total cpu time spent up to now is      699.7 secs

     total energy              =   -4440.29821468 Ry
     estimated scf accuracy    <       0.00000004 Ry

     iteration # 47     ecut=    60.00 Ry     beta= 0.15
     Davidson diagonalization with overlap

---- Real-time Memory Report at c_bands before calling an iterative solver
             0 MiB given to the printing process from OS
             0 MiB allocation reported by mallinfo(arena+hblkhd)
         50246 MiB available memory on the node where the printing process lives
------------------
     ethr =  8.92E-12,  avg # of iterations =  2.3

     negative rho (up, down):  7.926E-01 0.000E+00

     total cpu time spent up to now is      713.8 secs

     total energy              =   -4440.29821470 Ry
     estimated scf accuracy    <       0.00000002 Ry

     iteration # 48     ecut=    60.00 Ry     beta= 0.15
     Davidson diagonalization with overlap

---- Real-time Memory Report at c_bands before calling an iterative solver
             0 MiB given to the printing process from OS
             0 MiB allocation reported by mallinfo(arena+hblkhd)
         50252 MiB available memory on the node where the printing process lives
------------------
     ethr =  4.97E-12,  avg # of iterations =  3.3

     negative rho (up, down):  7.926E-01 0.000E+00

     total cpu time spent up to now is      728.3 secs

     total energy              =   -4440.29821471 Ry
     estimated scf accuracy    <       0.00000001 Ry

     iteration # 49     ecut=    60.00 Ry     beta= 0.15
     Davidson diagonalization with overlap

---- Real-time Memory Report at c_bands before calling an iterative solver
             0 MiB given to the printing process from OS
             0 MiB allocation reported by mallinfo(arena+hblkhd)
         50257 MiB available memory on the node where the printing process lives
------------------
     ethr =  3.06E-12,  avg # of iterations =  2.0

     negative rho (up, down):  7.926E-01 0.000E+00

     total cpu time spent up to now is      742.2 secs

     End of self-consistent calculation

          k = 0.0000 0.0000 0.0000 ( 65197 PWs)   bands (ev):

   -92.8686 -92.8175 -92.7226 -92.6761 -92.6146 -92.5759 -92.5574 -92.4346
   -56.2222 -56.2044 -56.0795 -56.0690 -56.0622 -56.0559 -56.0201 -55.9915
   -55.9761 -55.9759 -55.9688 -55.9231 -55.9074 -55.8671 -55.8492 -55.8118
   -55.8109 -55.7628 -55.7611 -55.7605 -55.7521 -55.7094 -55.6876 -55.6008
   -31.4322 -31.4126 -31.2713 -31.1848 -31.1038 -31.0641 -31.0108 -30.9399
   -30.0134 -29.9702 -29.9447 -29.8371 -15.2453 -15.2014 -15.1202 -14.9897
   -14.7940 -14.6699 -14.3816 -14.3585 -14.3316 -14.2856 -14.2371 -14.2298
   -14.2183 -14.1974 -14.1736 -14.1316 -14.0937 -13.9409 -13.7603 -13.7272
   -13.6994 -13.6654 -13.6500 -13.5876 -13.5544 -13.4751 -13.4076 -13.2729
   -13.2641 -13.2531 -13.2303 -13.2124 -13.1573 -13.1557 -13.1419 -13.1269
   -13.1066 -13.0781 -13.0556 -12.9730 -12.9713 -12.9352 -12.9178 -12.9018
   -12.8806 -12.8687 -12.8267 -12.8085 -12.4987 -12.3531 -12.1797 -12.1019
   -12.0268 -11.9829 -11.9528 -11.9418 -11.9190 -11.9014 -11.8379 -11.8207
   -11.7855 -11.7563 -11.6456 -11.5656 -11.5619  -3.1065  -2.8749  -2.6446
    -2.4982  -2.4353  -2.2937  -1.9859  -1.9714  -1.9527  -1.8677  -1.8477
    -1.7787  -1.7621  -1.7201  -1.6794  -1.4966  -1.2720  -1.2403  -1.0960
    -1.0814  -1.0346  -1.0156  -0.9685  -0.9520  -0.8993  -0.8720  -0.7948
    -0.7866  -0.7120  -0.5769  -0.5631  -0.5365  -0.4567  -0.4243  -0.4222
    -0.3620  -0.2923  -0.2288  -0.1933  -0.1652  -0.0852  -0.0328   0.0168
     0.0359   0.0563   0.3124   0.3261   0.4994   0.5629   0.6313   0.6793
     0.7638   0.7756   0.7897   0.8608   0.8870   0.9198   0.9789   1.1082
     1.1700   1.1900   1.2114   1.2295   1.2888   1.3551   1.4706   1.4810
     1.5483   1.5554   1.6022   1.6141   1.6270   1.6820   1.7420   1.7563
     1.7950   1.8215   1.8644   1.9960   2.0913   2.1257   2.1363   2.2916
     2.3064   2.3457   2.3513   2.4555   2.4915   2.5161   2.5374   2.5534
     2.5998   2.6310   2.6362   2.6680   2.7433   2.7751   2.7884   2.7928
     2.8593   2.8659   2.8887   2.8950   2.9054   2.9180   2.9244   2.9388
     2.9473   2.9575   2.9640   2.9793   2.9915   3.0124   3.0173   3.0296
     3.0670   3.1728   3.2713   3.9569   4.2751   4.6211   4.8374   4.8968
     5.7687   5.8300   5.8432   5.8742   6.1492   6.1952   6.4436   6.4526
     6.9487   6.9917   7.0894   7.1735   7.4712   7.5282   7.5587   7.5786
     7.6056   7.8321   7.8859   8.0417   8.1279   8.1440   8.2829   8.4300
     8.7461   8.9420

     occupation numbers 
     1.0000   1.0000   1.0000   1.0000   1.0000   1.0000   1.0000   1.0000
     1.0000   1.0000   1.0000   1.0000   1.0000   1.0000   1.0000   1.0000
     1.0000   1.0000   1.0000   1.0000   1.0000   1.0000   1.0000   1.0000
     1.0000   1.0000   1.0000   1.0000   1.0000   1.0000   1.0000   1.0000
     1.0000   1.0000   1.0000   1.0000   1.0000   1.0000   1.0000   1.0000
     1.0000   1.0000   1.0000   1.0000   1.0000   1.0000   1.0000   1.0000
     1.0000   1.0000   1.0000   1.0000   1.0000   1.0000   1.0000   1.0000
     1.0000   1.0000   1.0000   1.0000   1.0000   1.0000   1.0000   1.0000
     1.0000   1.0000   1.0000   1.0000   1.0000   1.0000   1.0000   1.0000
     1.0000   1.0000   1.0000   1.0000   1.0000   1.0000   1.0000   1.0000
     1.0000   1.0000   1.0000   1.0000   1.0000   1.0000   1.0000   1.0000
     1.0000   1.0000   1.0000   1.0000   1.0000   1.0000   1.0000   1.0000
     1.0000   1.0000   1.0000   1.0000   1.0000   1.0000   1.0000   1.0000
     1.0000   1.0000   1.0000   1.0000   1.0000   1.0000   1.0000   1.0000
     1.0000   1.0000   1.0000   1.0000   1.0000   1.0000   1.0000   1.0000
     1.0000   1.0000   1.0000   1.0000   1.0000   1.0000   1.0000   1.0000
     1.0000   1.0000   1.0000   1.0000   1.0000   1.0000   1.0000   1.0000
     1.0000   1.0000   1.0000   1.0000   1.0000   1.0000   1.0000   1.0000
     1.0000   1.0000   1.0000   1.0000   1.0000   1.0000   1.0000   1.0000
     1.0000   1.0000   1.0000   1.0000   1.0000   0.9999   0.9999   0.9999
     0.9998   0.9998   0.9998   0.9997   0.9996   0.9996   0.9994   0.9988
     0.9984   0.9983   0.9981   0.9979   0.9973   0.9963   0.9939   0.9937
     0.9917   0.9914   0.9896   0.9892   0.9886   0.9859   0.9824   0.9814
     0.9787   0.9766   0.9728   0.9581   0.9437   0.9377   0.9358   0.9014
     0.8975   0.8867   0.8851   0.8523   0.8396   0.8305   0.8224   0.8162
     0.7973   0.7839   0.7817   0.7675   0.7320   0.7162   0.7095   0.7073
     0.6724   0.6689   0.6565   0.6531   0.6474   0.6404   0.6368   0.6287
     0.6240   0.6182   0.6145   0.6058   0.5988   0.5868   0.5840   0.5768
     0.5550   0.4925   0.4344   0.1184   0.0489   0.0150   0.0064   0.0050
     0.0001   0.0000   0.0000   0.0000   0.0000   0.0000   0.0000   0.0000
     0.0000   0.0000   0.0000   0.0000   0.0000   0.0000   0.0000   0.0000
     0.0000   0.0000   0.0000   0.0000   0.0000   0.0000   0.0000   0.0000
     0.0000   0.0000

          k = 0.0000 0.2500 0.0000 ( 65257 PWs)   bands (ev):

   -92.8686 -92.8175 -92.7226 -92.6761 -92.6146 -92.5759 -92.5574 -92.4346
   -56.2222 -56.2044 -56.0795 -56.0690 -56.0622 -56.0559 -56.0201 -55.9915
   -55.9761 -55.9759 -55.9688 -55.9231 -55.9074 -55.8671 -55.8492 -55.8118
   -55.8109 -55.7628 -55.7611 -55.7605 -55.7521 -55.7094 -55.6876 -55.6008
   -31.4320 -31.4125 -31.2715 -31.1849 -31.1030 -31.0649 -31.0103 -30.9404
   -30.0128 -29.9699 -29.9454 -29.8374 -15.2086 -15.1754 -15.0951 -14.9602
   -14.8361 -14.6600 -14.5280 -14.3474 -14.3093 -14.2880 -14.2614 -14.2019
   -14.1953 -14.1828 -14.1584 -14.1010 -14.0127 -13.9711 -13.8078 -13.7835
   -13.7389 -13.7036 -13.6568 -13.6111 -13.5524 -13.5008 -13.4610 -13.3799
   -13.3165 -13.3020 -13.2633 -13.2439 -13.1426 -13.1307 -13.1119 -13.0898
   -13.0575 -13.0229 -13.0158 -12.9560 -12.9299 -12.9123 -12.8944 -12.8845
   -12.8787 -12.8412 -12.7285 -12.6467 -12.5600 -12.4043 -12.2368 -12.1693
   -11.9924 -11.9832 -11.9496 -11.9216 -11.8936 -11.8771 -11.8296 -11.8184
   -11.7956 -11.7609 -11.6600 -11.6072 -11.5967  -2.9711  -2.7506  -2.6122
    -2.4307  -2.3870  -2.2239  -2.0029  -1.9204  -1.9072  -1.8488  -1.7435
    -1.7296  -1.6975  -1.6684  -1.6248  -1.4278  -1.2977  -1.2869  -1.2106
    -1.2006  -1.0964  -1.0666  -1.0075  -0.9816  -0.9431  -0.8785  -0.8502
    -0.8192  -0.7849  -0.7695  -0.7365  -0.6612  -0.6132  -0.5448  -0.4257
    -0.4089  -0.3669  -0.2490  -0.1989  -0.1543  -0.1009  -0.0496  -0.0304
    -0.0012   0.0631   0.3595   0.4462   0.4846   0.5677   0.6118   0.6367
     0.7447   0.7630   0.8648   0.8889   0.9125   1.0253   1.1240   1.1457
     1.1709   1.1871   1.2105   1.2712   1.2986   1.3279   1.3735   1.4124
     1.4432   1.5347   1.5650   1.6000   1.6489   1.7096   1.7588   1.7761
     1.7955   1.8129   1.9130   2.0388   2.1085   2.1233   2.1954   2.2450
     2.2861   2.2935   2.3509   2.3892   2.4723   2.5129   2.5289   2.6007
     2.6285   2.6535   2.7022   2.7266   2.7590   2.7828   2.7933   2.8017
     2.8112   2.8181   2.8480   2.8509   2.8679   2.8738   2.8820   2.9032
     2.9168   2.9261   2.9420   2.9556   2.9594   2.9933   3.0098   3.0730
     3.4552   3.4928   3.7137   4.1498   4.2706   4.5660   4.9080   4.9994
     5.5315   5.6460   5.8190   5.9267   5.9687   6.0381   6.0773   6.5570
     7.0329   7.0507   7.2099   7.2536   7.3594   7.4157   7.5545   7.6596
     7.7188   7.9816   8.0815   8.1694   8.2470   8.3054   8.3401   8.3964
     8.4951   8.8314

     occupation numbers 
     1.0000   1.0000   1.0000   1.0000   1.0000   1.0000   1.0000   1.0000
     1.0000   1.0000   1.0000   1.0000   1.0000   1.0000   1.0000   1.0000
     1.0000   1.0000   1.0000   1.0000   1.0000   1.0000   1.0000   1.0000
     1.0000   1.0000   1.0000   1.0000   1.0000   1.0000   1.0000   1.0000
     1.0000   1.0000   1.0000   1.0000   1.0000   1.0000   1.0000   1.0000
     1.0000   1.0000   1.0000   1.0000   1.0000   1.0000   1.0000   1.0000
     1.0000   1.0000   1.0000   1.0000   1.0000   1.0000   1.0000   1.0000
     1.0000   1.0000   1.0000   1.0000   1.0000   1.0000   1.0000   1.0000
     1.0000   1.0000   1.0000   1.0000   1.0000   1.0000   1.0000   1.0000
     1.0000   1.0000   1.0000   1.0000   1.0000   1.0000   1.0000   1.0000
     1.0000   1.0000   1.0000   1.0000   1.0000   1.0000   1.0000   1.0000
     1.0000   1.0000   1.0000   1.0000   1.0000   1.0000   1.0000   1.0000
     1.0000   1.0000   1.0000   1.0000   1.0000   1.0000   1.0000   1.0000
     1.0000   1.0000   1.0000   1.0000   1.0000   1.0000   1.0000   1.0000
     1.0000   1.0000   1.0000   1.0000   1.0000   1.0000   1.0000   1.0000
     1.0000   1.0000   1.0000   1.0000   1.0000   1.0000   1.0000   1.0000
     1.0000   1.0000   1.0000   1.0000   1.0000   1.0000   1.0000   1.0000
     1.0000   1.0000   1.0000   1.0000   1.0000   1.0000   1.0000   1.0000
     1.0000   1.0000   1.0000   1.0000   1.0000   1.0000   1.0000   1.0000
     1.0000   1.0000   1.0000   1.0000   1.0000   0.9999   0.9999   0.9999
     0.9998   0.9998   0.9997   0.9996   0.9996   0.9992   0.9988   0.9986
     0.9984   0.9983   0.9981   0.9975   0.9971   0.9967   0.9960   0.9953
     0.9946   0.9921   0.9911   0.9897   0.9876   0.9844   0.9813   0.9801
     0.9786   0.9773   0.9680   0.9520   0.9408   0.9382   0.9240   0.9129
     0.9028   0.9009   0.8852   0.8738   0.8464   0.8317   0.8257   0.7969
     0.7851   0.7740   0.7517   0.7401   0.7243   0.7123   0.7070   0.7027
     0.6978   0.6942   0.6785   0.6769   0.6678   0.6646   0.6601   0.6486
     0.6410   0.6359   0.6269   0.6193   0.6172   0.5978   0.5883   0.5514
     0.3306   0.3107   0.2055   0.0708   0.0496   0.0184   0.0047   0.0032
     0.0002   0.0001   0.0000   0.0000   0.0000   0.0000   0.0000   0.0000
     0.0000   0.0000   0.0000   0.0000   0.0000   0.0000   0.0000   0.0000
     0.0000   0.0000   0.0000   0.0000   0.0000   0.0000   0.0000   0.0000
     0.0000   0.0000

          k = 0.0000-0.5000 0.0000 ( 65180 PWs)   bands (ev):

   -92.8686 -92.8175 -92.7226 -92.6761 -92.6146 -92.5759 -92.5574 -92.4346
   -56.2222 -56.2044 -56.0795 -56.0690 -56.0622 -56.0559 -56.0201 -55.9915
   -55.9761 -55.9759 -55.9688 -55.9231 -55.9074 -55.8671 -55.8492 -55.8118
   -55.8109 -55.7628 -55.7611 -55.7605 -55.7521 -55.7094 -55.6876 -55.6008
   -31.4318 -31.4124 -31.2717 -31.1851 -31.1022 -31.0657 -31.0099 -30.9408
   -30.0122 -29.9696 -29.9460 -29.8378 -15.1736 -15.1250 -15.0720 -14.9396
   -14.8590 -14.7205 -14.5664 -14.4387 -14.3202 -14.2436 -14.2035 -14.1955
   -14.1443 -14.1312 -14.0860 -14.0598 -14.0375 -14.0001 -13.9477 -13.9191
   -13.7456 -13.6872 -13.6616 -13.6187 -13.5275 -13.5194 -13.4677 -13.4368
   -13.4094 -13.3717 -13.2640 -13.2443 -13.1264 -13.1183 -13.0898 -13.0853
   -13.0802 -13.0372 -12.9268 -12.9110 -12.8875 -12.8790 -12.8615 -12.8579
   -12.8515 -12.8082 -12.6709 -12.5777 -12.4793 -12.4262 -12.3389 -12.3058
   -11.9834 -11.9465 -11.9438 -11.9165 -11.8798 -11.8450 -11.8338 -11.7911
   -11.7871 -11.7424 -11.6820 -11.6681 -11.6541  -2.7560  -2.6978  -2.5474
    -2.4756  -2.1919  -2.1095  -1.9825  -1.8457  -1.8076  -1.7877  -1.7112
    -1.6768  -1.5976  -1.5611  -1.4823  -1.4436  -1.4056  -1.3781  -1.3200
    -1.2825  -1.2346  -1.1984  -1.1673  -1.1325  -1.0232  -0.9788  -0.9418
    -0.9400  -0.8535  -0.8233  -0.7994  -0.7527  -0.6658  -0.5876  -0.5006
    -0.4752  -0.3501  -0.3305  -0.1945  -0.1510  -0.1182  -0.0777   0.0505
     0.1279   0.2273   0.2974   0.3075   0.4337   0.5014   0.5790   0.7179
     0.8168   0.8508   0.8916   0.9030   0.9336   0.9512   0.9871   1.0046
     1.0213   1.1296   1.1867   1.2138   1.2378   1.5134   1.5381   1.5684
     1.6546   1.6722   1.7148   1.7360   1.7505   1.7744   1.7899   1.8051
     1.8403   1.8679   1.8984   1.9023   1.9342   1.9898   2.0786   2.1252
     2.2798   2.4364   2.4399   2.4643   2.5027   2.5090   2.5153   2.5635
     2.5748   2.6019   2.6258   2.6328   2.6539   2.6723   2.7427   2.7461
     2.8190   2.8224   2.8459   2.8509   2.8643   2.8682   2.8717   2.8786
     2.8852   2.9037   2.9125   2.9208   2.9787   2.9829   2.9998   3.0639
     3.9606   3.9894   4.0690   4.1088   4.5700   4.7642   4.9174   5.0183
     5.2985   5.3775   5.4997   5.5944   5.8708   5.8883   6.3889   6.5509
     6.7994   6.9047   7.1526   7.3160   7.5878   7.6447   7.7290   7.7773
     7.7867   8.0176   8.0372   8.1417   8.1860   8.3620   8.4420   8.5343
     8.7004   8.7507

     occupation numbers 
     1.0000   1.0000   1.0000   1.0000   1.0000   1.0000   1.0000   1.0000
     1.0000   1.0000   1.0000   1.0000   1.0000   1.0000   1.0000   1.0000
     1.0000   1.0000   1.0000   1.0000   1.0000   1.0000   1.0000   1.0000
     1.0000   1.0000   1.0000   1.0000   1.0000   1.0000   1.0000   1.0000
     1.0000   1.0000   1.0000   1.0000   1.0000   1.0000   1.0000   1.0000
     1.0000   1.0000   1.0000   1.0000   1.0000   1.0000   1.0000   1.0000
     1.0000   1.0000   1.0000   1.0000   1.0000   1.0000   1.0000   1.0000
     1.0000   1.0000   1.0000   1.0000   1.0000   1.0000   1.0000   1.0000
     1.0000   1.0000   1.0000   1.0000   1.0000   1.0000   1.0000   1.0000
     1.0000   1.0000   1.0000   1.0000   1.0000   1.0000   1.0000   1.0000
     1.0000   1.0000   1.0000   1.0000   1.0000   1.0000   1.0000   1.0000
     1.0000   1.0000   1.0000   1.0000   1.0000   1.0000   1.0000   1.0000
     1.0000   1.0000   1.0000   1.0000   1.0000   1.0000   1.0000   1.0000
     1.0000   1.0000   1.0000   1.0000   1.0000   1.0000   1.0000   1.0000
     1.0000   1.0000   1.0000   1.0000   1.0000   1.0000   1.0000   1.0000
     1.0000   1.0000   1.0000   1.0000   1.0000   1.0000   1.0000   1.0000
     1.0000   1.0000   1.0000   1.0000   1.0000   1.0000   1.0000   1.0000
     1.0000   1.0000   1.0000   1.0000   1.0000   1.0000   1.0000   1.0000
     1.0000   1.0000   1.0000   1.0000   1.0000   1.0000   1.0000   1.0000
     1.0000   1.0000   1.0000   1.0000   1.0000   1.0000   0.9999   0.9999
     0.9997   0.9997   0.9996   0.9996   0.9995   0.9995   0.9994   0.9993
     0.9993   0.9987   0.9983   0.9981   0.9978   0.9928   0.9920   0.9909
     0.9873   0.9864   0.9841   0.9828   0.9818   0.9802   0.9791   0.9779
     0.9750   0.9725   0.9695   0.9691   0.9656   0.9589   0.9458   0.9378
     0.9044   0.8587   0.8575   0.8492   0.8355   0.8332   0.8308   0.8122
     0.8076   0.7964   0.7862   0.7832   0.7739   0.7656   0.7323   0.7307
     0.6938   0.6920   0.6796   0.6769   0.6697   0.6676   0.6657   0.6620
     0.6584   0.6483   0.6435   0.6388   0.6061   0.6038   0.5941   0.5568
     0.1173   0.1091   0.0886   0.0795   0.0181   0.0086   0.0045   0.0029
     0.0007   0.0005   0.0003   0.0002   0.0000   0.0000   0.0000   0.0000
     0.0000   0.0000   0.0000   0.0000   0.0000   0.0000   0.0000   0.0000
     0.0000   0.0000   0.0000   0.0000   0.0000   0.0000   0.0000   0.0000
     0.0000   0.0000

          k = 0.2500 0.2500 0.0000 ( 65198 PWs)   bands (ev):

   -92.8686 -92.8175 -92.7226 -92.6761 -92.6146 -92.5759 -92.5574 -92.4346
   -56.2222 -56.2044 -56.0795 -56.0690 -56.0622 -56.0559 -56.0201 -55.9915
   -55.9761 -55.9759 -55.9688 -55.9231 -55.9074 -55.8671 -55.8492 -55.8118
   -55.8109 -55.7628 -55.7611 -55.7605 -55.7521 -55.7094 -55.6876 -55.6008
   -31.4303 -31.4142 -31.2712 -31.1853 -31.1028 -31.0643 -31.0109 -30.9406
   -30.0118 -29.9709 -29.9450 -29.8379 -15.1799 -15.1409 -15.0672 -14.9495
   -14.8286 -14.7020 -14.6332 -14.4225 -14.2701 -14.2547 -14.2199 -14.1895
   -14.1683 -14.1423 -14.1029 -14.0642 -14.0027 -13.9848 -13.8228 -13.8092
   -13.7812 -13.7602 -13.7028 -13.6709 -13.5851 -13.5707 -13.4380 -13.4054
   -13.3823 -13.2965 -13.2562 -13.2044 -13.1736 -13.1319 -13.1041 -13.0790
   -13.0699 -13.0152 -12.9661 -12.9339 -12.9032 -12.8983 -12.8871 -12.8697
   -12.8482 -12.8321 -12.6651 -12.6084 -12.5366 -12.4333 -12.2664 -12.2206
   -11.9833 -11.9645 -11.9331 -11.9221 -11.9149 -11.8526 -11.8177 -11.8112
   -11.7757 -11.7675 -11.6767 -11.6354 -11.6183  -2.8327  -2.6247  -2.5057
    -2.4123  -2.2917  -2.2272  -2.0276  -1.8850  -1.8659  -1.8357  -1.7384
    -1.7078  -1.6122  -1.5847  -1.5339  -1.4032  -1.3555  -1.2821  -1.2373
    -1.1923  -1.1694  -1.1455  -1.1023  -1.0878  -0.9967  -0.9460  -0.8786
    -0.8296  -0.7982  -0.7528  -0.7367  -0.6731  -0.6241  -0.5649  -0.5323
    -0.4437  -0.3901  -0.3636  -0.3257  -0.2701  -0.1730  -0.1576  -0.1332
    -0.0481  -0.0216   0.2476   0.3990   0.4308   0.4951   0.5399   0.5893
     0.6390   0.7102   0.7436   1.0140   1.0774   1.1509   1.1763   1.2282
     1.2555   1.2918   1.3299   1.3465   1.3741   1.4231   1.4284   1.4434
     1.4868   1.5248   1.5654   1.6412   1.6705   1.6799   1.7177   1.7472
     1.8018   1.8248   1.9505   2.0176   2.0540   2.0695   2.1380   2.2053
     2.2324   2.2669   2.2963   2.3062   2.4154   2.4545   2.5430   2.5970
     2.6274   2.6645   2.7137   2.7294   2.7361   2.7526   2.7695   2.7802
     2.7932   2.7981   2.8099   2.8226   2.8350   2.8518   2.8586   2.8707
     2.8933   2.9040   2.9139   2.9454   3.2448   3.3384   3.3852   3.4598
     3.5068   3.6974   3.7893   4.1627   4.3562   4.5665   4.8349   5.1394
     5.5201   5.5737   5.6103   5.6734   5.7364   6.1014   6.1544   6.1807
     6.8446   7.1037   7.2144   7.3672   7.4657   7.4952   7.6050   7.7697
     7.8659   7.9784   8.2175   8.2271   8.3374   8.3940   8.4436   8.4697
     8.5377   8.6199

     occupation numbers 
     1.0000   1.0000   1.0000   1.0000   1.0000   1.0000   1.0000   1.0000
     1.0000   1.0000   1.0000   1.0000   1.0000   1.0000   1.0000   1.0000
     1.0000   1.0000   1.0000   1.0000   1.0000   1.0000   1.0000   1.0000
     1.0000   1.0000   1.0000   1.0000   1.0000   1.0000   1.0000   1.0000
     1.0000   1.0000   1.0000   1.0000   1.0000   1.0000   1.0000   1.0000
     1.0000   1.0000   1.0000   1.0000   1.0000   1.0000   1.0000   1.0000
     1.0000   1.0000   1.0000   1.0000   1.0000   1.0000   1.0000   1.0000
     1.0000   1.0000   1.0000   1.0000   1.0000   1.0000   1.0000   1.0000
     1.0000   1.0000   1.0000   1.0000   1.0000   1.0000   1.0000   1.0000
     1.0000   1.0000   1.0000   1.0000   1.0000   1.0000   1.0000   1.0000
     1.0000   1.0000   1.0000   1.0000   1.0000   1.0000   1.0000   1.0000
     1.0000   1.0000   1.0000   1.0000   1.0000   1.0000   1.0000   1.0000
     1.0000   1.0000   1.0000   1.0000   1.0000   1.0000   1.0000   1.0000
     1.0000   1.0000   1.0000   1.0000   1.0000   1.0000   1.0000   1.0000
     1.0000   1.0000   1.0000   1.0000   1.0000   1.0000   1.0000   1.0000
     1.0000   1.0000   1.0000   1.0000   1.0000   1.0000   1.0000   1.0000
     1.0000   1.0000   1.0000   1.0000   1.0000   1.0000   1.0000   1.0000
     1.0000   1.0000   1.0000   1.0000   1.0000   1.0000   1.0000   1.0000
     1.0000   1.0000   1.0000   1.0000   1.0000   1.0000   1.0000   1.0000
     1.0000   1.0000   1.0000   1.0000   1.0000   1.0000   1.0000   0.9999
     0.9999   0.9999   0.9998   0.9993   0.9990   0.9986   0.9984   0.9979
     0.9977   0.9972   0.9967   0.9965   0.9960   0.9950   0.9949   0.9946
     0.9935   0.9924   0.9911   0.9879   0.9865   0.9860   0.9839   0.9820
     0.9781   0.9763   0.9638   0.9551   0.9497   0.9473   0.9355   0.9219
     0.9158   0.9076   0.9002   0.8976   0.8656   0.8526   0.8202   0.7985
     0.7855   0.7691   0.7463   0.7388   0.7355   0.7275   0.7190   0.7137
     0.7070   0.7046   0.6985   0.6918   0.6853   0.6764   0.6728   0.6663
     0.6540   0.6481   0.6426   0.6250   0.4500   0.3956   0.3691   0.3281
     0.3033   0.2125   0.1751   0.0683   0.0379   0.0184   0.0064   0.0016
     0.0002   0.0002   0.0001   0.0001   0.0001   0.0000   0.0000   0.0000
     0.0000   0.0000   0.0000   0.0000   0.0000   0.0000   0.0000   0.0000
     0.0000   0.0000   0.0000   0.0000   0.0000   0.0000   0.0000   0.0000
     0.0000   0.0000

          k = 0.2500-0.5000 0.0000 ( 65138 PWs)   bands (ev):

   -92.8686 -92.8175 -92.7226 -92.6761 -92.6146 -92.5759 -92.5574 -92.4346
   -56.2222 -56.2044 -56.0795 -56.0690 -56.0622 -56.0559 -56.0201 -55.9915
   -55.9761 -55.9759 -55.9688 -55.9231 -55.9074 -55.8671 -55.8492 -55.8118
   -55.8109 -55.7628 -55.7611 -55.7605 -55.7521 -55.7094 -55.6876 -55.6008
   -31.4301 -31.4140 -31.2714 -31.1855 -31.1021 -31.0651 -31.0105 -30.9410
   -30.0112 -29.9706 -29.9456 -29.8382 -15.1433 -15.0982 -15.0291 -14.9101
   -14.8809 -14.7618 -14.6688 -14.5372 -14.2352 -14.1793 -14.1546 -14.1299
   -14.1136 -14.1046 -14.0702 -14.0491 -14.0152 -13.9791 -13.9489 -13.9018
   -13.8270 -13.7777 -13.7192 -13.6995 -13.6262 -13.5684 -13.5000 -13.4666
   -13.3622 -13.2972 -13.2736 -13.1891 -13.1461 -13.1308 -13.1005 -13.0705
   -13.0619 -13.0310 -12.9512 -12.9217 -12.9078 -12.8767 -12.8630 -12.8555
   -12.8117 -12.7801 -12.6773 -12.5582 -12.4767 -12.4060 -12.3264 -12.3049
   -11.9834 -11.9402 -11.9281 -11.9174 -11.8902 -11.8584 -11.8303 -11.7884
   -11.7618 -11.7391 -11.6951 -11.6692 -11.6582  -2.6137  -2.5495  -2.4211
    -2.3441  -2.2122  -2.1296  -2.0069  -1.8570  -1.8030  -1.7798  -1.7176
    -1.7050  -1.6082  -1.5401  -1.4553  -1.4048  -1.3949  -1.3337  -1.2904
    -1.2560  -1.2081  -1.1705  -1.1357  -1.0969  -1.0847  -1.0396  -1.0098
    -0.9665  -0.9361  -0.8694  -0.7671  -0.7286  -0.6481  -0.5805  -0.5300
    -0.4912  -0.4708  -0.4057  -0.2512  -0.2358  -0.1392  -0.1080  -0.1004
    -0.0578  -0.0131   0.0171   0.0522   0.1131   0.4044   0.5086   0.5460
     0.6050   0.8841   0.8992   0.9879   1.0126   1.1743   1.2107   1.2505
     1.2757   1.2864   1.3086   1.3713   1.4215   1.4555   1.5289   1.6459
     1.6722   1.6887   1.6941   1.7377   1.7445   1.7667   1.8035   1.8082
     1.8340   1.8553   1.8760   1.8959   1.9306   1.9897   2.0337   2.1168
     2.2457   2.3891   2.4065   2.4247   2.4517   2.4720   2.5036   2.5240
     2.5388   2.5596   2.5979   2.6238   2.6587   2.6770   2.7215   2.7313
     2.7380   2.7502   2.7698   2.7819   2.8022   2.8109   2.8443   2.8524
     2.8683   2.8762   2.8841   2.8950   3.4126   3.4495   3.5772   3.6416
     3.9696   4.0274   4.0651   4.1647   4.5898   4.7826   4.9372   4.9844
     5.1480   5.3174   5.5189   5.5374   5.6420   5.6824   6.3514   6.4498
     6.4918   6.6584   7.3545   7.5969   7.6502   7.6837   7.7365   7.7827
     7.8892   7.9375   8.2508   8.2965   8.4173   8.4412   8.5615   8.5968
     8.6236   8.6486

     occupation numbers 
     1.0000   1.0000   1.0000   1.0000   1.0000   1.0000   1.0000   1.0000
     1.0000   1.0000   1.0000   1.0000   1.0000   1.0000   1.0000   1.0000
     1.0000   1.0000   1.0000   1.0000   1.0000   1.0000   1.0000   1.0000
     1.0000   1.0000   1.0000   1.0000   1.0000   1.0000   1.0000   1.0000
     1.0000   1.0000   1.0000   1.0000   1.0000   1.0000   1.0000   1.0000
     1.0000   1.0000   1.0000   1.0000   1.0000   1.0000   1.0000   1.0000
     1.0000   1.0000   1.0000   1.0000   1.0000   1.0000   1.0000   1.0000
     1.0000   1.0000   1.0000   1.0000   1.0000   1.0000   1.0000   1.0000
     1.0000   1.0000   1.0000   1.0000   1.0000   1.0000   1.0000   1.0000
     1.0000   1.0000   1.0000   1.0000   1.0000   1.0000   1.0000   1.0000
     1.0000   1.0000   1.0000   1.0000   1.0000   1.0000   1.0000   1.0000
     1.0000   1.0000   1.0000   1.0000   1.0000   1.0000   1.0000   1.0000
     1.0000   1.0000   1.0000   1.0000   1.0000   1.0000   1.0000   1.0000
     1.0000   1.0000   1.0000   1.0000   1.0000   1.0000   1.0000   1.0000
     1.0000   1.0000   1.0000   1.0000   1.0000   1.0000   1.0000   1.0000
     1.0000   1.0000   1.0000   1.0000   1.0000   1.0000   1.0000   1.0000
     1.0000   1.0000   1.0000   1.0000   1.0000   1.0000   1.0000   1.0000
     1.0000   1.0000   1.0000   1.0000   1.0000   1.0000   1.0000   1.0000
     1.0000   1.0000   1.0000   1.0000   1.0000   1.0000   1.0000   1.0000
     1.0000   1.0000   1.0000   1.0000   1.0000   1.0000   1.0000   0.9999
     0.9999   0.9996   0.9996   0.9994   0.9993   0.9984   0.9981   0.9977
     0.9974   0.9973   0.9970   0.9960   0.9951   0.9943   0.9923   0.9877
     0.9864   0.9856   0.9853   0.9827   0.9822   0.9807   0.9780   0.9776
     0.9755   0.9737   0.9717   0.9698   0.9661   0.9589   0.9528   0.9393
     0.9127   0.8739   0.8684   0.8626   0.8536   0.8466   0.8352   0.8275
     0.8219   0.8137   0.7981   0.7871   0.7717   0.7634   0.7425   0.7378
     0.7346   0.7286   0.7189   0.7128   0.7024   0.6979   0.6805   0.6761
     0.6676   0.6633   0.6590   0.6531   0.3539   0.3337   0.2678   0.2373
     0.1147   0.0989   0.0895   0.0679   0.0169   0.0080   0.0042   0.0034
     0.0016   0.0007   0.0002   0.0002   0.0001   0.0001   0.0000   0.0000
     0.0000   0.0000   0.0000   0.0000   0.0000   0.0000   0.0000   0.0000
     0.0000   0.0000   0.0000   0.0000   0.0000   0.0000   0.0000   0.0000
     0.0000   0.0000

          k =-0.5000-0.5000 0.0000 ( 65132 PWs)   bands (ev):

   -92.8686 -92.8175 -92.7226 -92.6761 -92.6146 -92.5759 -92.5574 -92.4346
   -56.2222 -56.2044 -56.0795 -56.0690 -56.0622 -56.0559 -56.0201 -55.9915
   -55.9761 -55.9759 -55.9688 -55.9231 -55.9074 -55.8671 -55.8492 -55.8118
   -55.8109 -55.7628 -55.7611 -55.7605 -55.7521 -55.7094 -55.6876 -55.6008
   -31.4280 -31.4162 -31.2710 -31.1859 -31.1019 -31.0646 -31.0110 -30.9412
   -30.0102 -29.9716 -29.9452 -29.8386 -15.0973 -15.0712 -14.9527 -14.9405
   -14.8429 -14.8106 -14.7697 -14.6372 -14.1474 -14.1293 -14.1004 -14.0800
   -14.0648 -14.0477 -14.0230 -14.0124 -13.9954 -13.9827 -13.9654 -13.8936
   -13.8857 -13.8475 -13.8204 -13.8076 -13.7140 -13.6164 -13.5337 -13.5164
   -13.3128 -13.2709 -13.2055 -13.1814 -13.1463 -13.1401 -13.1308 -13.1126
   -13.0346 -12.9843 -12.9619 -12.9349 -12.9056 -12.9018 -12.8770 -12.8621
   -12.7614 -12.7536 -12.6934 -12.5403 -12.4730 -12.3851 -12.3129 -12.3054
   -11.9834 -11.9371 -11.9244 -11.9064 -11.8898 -11.8545 -11.8368 -11.8023
   -11.7423 -11.7216 -11.7173 -11.6669 -11.6641  -2.3887  -2.3129  -2.3046
    -2.2343  -2.1950  -2.1163  -2.0482  -1.9228  -1.8077  -1.7772  -1.7375
    -1.6809  -1.6082  -1.5944  -1.5222  -1.4809  -1.3626  -1.3324  -1.2850
    -1.2581  -1.1936  -1.1456  -1.1271  -1.1139  -1.0615  -1.0182  -0.9989
    -0.8887  -0.8319  -0.7861  -0.7332  -0.7068  -0.6941  -0.6589  -0.6153
    -0.5789  -0.5707  -0.4867  -0.4122  -0.3751  -0.3434  -0.2734  -0.2045
    -0.1970  -0.1354  -0.1125  -0.1084  -0.0988   0.3711   0.4480   0.4919
     0.5202   0.9132   0.9248   0.9542   0.9894   1.2608   1.2810   1.2873
     1.3248   1.4534   1.5476   1.5758   1.6126   1.6483   1.6576   1.6684
     1.7011   1.7174   1.7363   1.7498   1.7817   1.7897   1.8154   1.8483
     1.8516   1.8665   1.9089   1.9295   1.9438   1.9765   2.0055   2.0691
     2.1361   2.4016   2.4319   2.4540   2.4694   2.4784   2.5076   2.5137
     2.5319   2.5469   2.5623   2.5773   2.5926   2.6015   2.6260   2.6583
     2.6643   2.6812   2.6864   2.7039   2.7276   2.7334   2.7424   2.7582
     2.8489   2.8565   2.8823   2.8926   3.8337   3.8825   3.9082   3.9918
     4.1522   4.2264   4.2519   4.4931   4.6157   4.6975   4.8306   4.9318
     4.9651   5.0428   5.1799   5.2634   5.8307   5.8492   5.9032   6.0131
     6.6823   6.8271   6.9965   7.3866   7.8512   7.8652   7.9443   8.0690
     8.1639   8.1734   8.2402   8.2565   8.4275   8.4748   8.5001   8.5097
     8.5435   8.6141

     occupation numbers 
     1.0000   1.0000   1.0000   1.0000   1.0000   1.0000   1.0000   1.0000
     1.0000   1.0000   1.0000   1.0000   1.0000   1.0000   1.0000   1.0000
     1.0000   1.0000   1.0000   1.0000   1.0000   1.0000   1.0000   1.0000
     1.0000   1.0000   1.0000   1.0000   1.0000   1.0000   1.0000   1.0000
     1.0000   1.0000   1.0000   1.0000   1.0000   1.0000   1.0000   1.0000
     1.0000   1.0000   1.0000   1.0000   1.0000   1.0000   1.0000   1.0000
     1.0000   1.0000   1.0000   1.0000   1.0000   1.0000   1.0000   1.0000
     1.0000   1.0000   1.0000   1.0000   1.0000   1.0000   1.0000   1.0000
     1.0000   1.0000   1.0000   1.0000   1.0000   1.0000   1.0000   1.0000
     1.0000   1.0000   1.0000   1.0000   1.0000   1.0000   1.0000   1.0000
     1.0000   1.0000   1.0000   1.0000   1.0000   1.0000   1.0000   1.0000
     1.0000   1.0000   1.0000   1.0000   1.0000   1.0000   1.0000   1.0000
     1.0000   1.0000   1.0000   1.0000   1.0000   1.0000   1.0000   1.0000
     1.0000   1.0000   1.0000   1.0000   1.0000   1.0000   1.0000   1.0000
     1.0000   1.0000   1.0000   1.0000   1.0000   1.0000   1.0000   1.0000
     1.0000   1.0000   1.0000   1.0000   1.0000   1.0000   1.0000   1.0000
     1.0000   1.0000   1.0000   1.0000   1.0000   1.0000   1.0000   1.0000
     1.0000   1.0000   1.0000   1.0000   1.0000   1.0000   1.0000   1.0000
     1.0000   1.0000   1.0000   1.0000   1.0000   1.0000   1.0000   1.0000
     1.0000   1.0000   1.0000   1.0000   1.0000   1.0000   1.0000   1.0000
     1.0000   0.9996   0.9995   0.9995   0.9994   0.9976   0.9974   0.9973
     0.9968   0.9944   0.9917   0.9907   0.9892   0.9876   0.9872   0.9866
     0.9849   0.9839   0.9827   0.9819   0.9797   0.9791   0.9771   0.9743
     0.9740   0.9726   0.9684   0.9662   0.9645   0.9606   0.9568   0.9474
     0.9358   0.8700   0.8602   0.8528   0.8475   0.8443   0.8337   0.8314
     0.8245   0.8187   0.8127   0.8066   0.8003   0.7966   0.7861   0.7719
     0.7692   0.7615   0.7591   0.7509   0.7396   0.7368   0.7324   0.7247
     0.6780   0.6739   0.6600   0.6544   0.1586   0.1417   0.1333   0.1084
     0.0704   0.0567   0.0525   0.0239   0.0153   0.0112   0.0066   0.0043
     0.0037   0.0026   0.0014   0.0009   0.0000   0.0000   0.0000   0.0000
     0.0000   0.0000   0.0000   0.0000   0.0000   0.0000   0.0000   0.0000
     0.0000   0.0000   0.0000   0.0000   0.0000   0.0000   0.0000   0.0000
     0.0000   0.0000

          k = 0.2500 0.0000 0.0000 ( 65257 PWs)   bands (ev):

   -92.8686 -92.8175 -92.7226 -92.6761 -92.6146 -92.5759 -92.5574 -92.4346
   -56.2222 -56.2044 -56.0795 -56.0690 -56.0622 -56.0559 -56.0201 -55.9915
   -55.9761 -55.9759 -55.9688 -55.9231 -55.9074 -55.8671 -55.8492 -55.8118
   -55.8109 -55.7628 -55.7611 -55.7605 -55.7521 -55.7094 -55.6876 -55.6008
   -31.4305 -31.4143 -31.2710 -31.1852 -31.1036 -31.0636 -31.0114 -30.9401
[...]
     0.6319   0.6211   0.6184   0.6139   0.6105   0.6047   0.5986   0.5196
     0.3528   0.3145   0.2011   0.0732   0.0447   0.0210   0.0046   0.0031
     0.0002   0.0001   0.0000   0.0000   0.0000   0.0000   0.0000   0.0000
     0.0000   0.0000   0.0000   0.0000   0.0000   0.0000   0.0000   0.0000
     0.0000   0.0000   0.0000   0.0000   0.0000   0.0000   0.0000   0.0000
     0.0000   0.0000

          k =-0.5000 0.0000 0.0000 ( 65180 PWs)   bands (ev):

   -92.8686 -92.8175 -92.7226 -92.6761 -92.6146 -92.5759 -92.5574 -92.4346
   -56.2222 -56.2044 -56.0795 -56.0690 -56.0622 -56.0559 -56.0201 -55.9915
   -55.9761 -55.9759 -55.9688 -55.9231 -55.9074 -55.8671 -55.8492 -55.8118
   -55.8109 -55.7628 -55.7611 -55.7605 -55.7521 -55.7094 -55.6876 -55.6008
   -31.4284 -31.4165 -31.2706 -31.1856 -31.1034 -31.0630 -31.0119 -30.9403
   -30.0114 -29.9722 -29.9439 -29.8379 -15.1786 -15.1276 -15.0651 -14.9517
   -14.8517 -14.7080 -14.5615 -14.4100 -14.2950 -14.2790 -14.2712 -14.2037
   -14.1502 -14.1209 -14.0707 -14.0581 -14.0461 -13.9976 -13.9677 -13.8699
   -13.7174 -13.6863 -13.6563 -13.6495 -13.5381 -13.5241 -13.4688 -13.4215
   -13.3981 -13.3812 -13.2094 -13.1963 -13.1717 -13.1621 -13.1115 -13.1000
   -13.0833 -13.0672 -12.9444 -12.9265 -12.9011 -12.8807 -12.8359 -12.8053
   -12.7970 -12.7876 -12.6969 -12.5930 -12.4832 -12.4430 -12.3365 -12.2972
   -11.9834 -11.9437 -11.9223 -11.9153 -11.9012 -11.8828 -11.8411 -11.7789
   -11.7608 -11.7276 -11.6844 -11.6751 -11.6595  -2.7462  -2.7079  -2.5452
    -2.5056  -2.1911  -2.1163  -1.9694  -1.8514  -1.8117  -1.7668  -1.7185
    -1.6941  -1.5700  -1.5260  -1.5103  -1.4286  -1.3924  -1.3773  -1.3460
    -1.2852  -1.2189  -1.1907  -1.1588  -1.0622  -1.0188  -0.9697  -0.9357
    -0.9157  -0.8847  -0.8359  -0.8115  -0.7690  -0.6719  -0.6037  -0.5312
    -0.4726  -0.2936  -0.2737  -0.2190  -0.1781  -0.1113  -0.0940   0.0405
     0.0691   0.1016   0.2769   0.3766   0.4260   0.5058   0.5946   0.6931
     0.7153   0.8504   0.8706   0.9220   0.9498   0.9876   1.0035   1.0479
     1.0689   1.1433   1.1858   1.2311   1.2422   1.5470   1.5583   1.5736
     1.6054   1.7040   1.7132   1.7292   1.7361   1.7621   1.7754   1.8152
     1.8319   1.8600   1.9131   1.9326   1.9793   2.0036   2.0588   2.1613
     2.2760   2.3355   2.3556   2.4325   2.4603   2.4889   2.5522   2.5645
     2.5724   2.5957   2.6066   2.6333   2.6687   2.6783   2.7229   2.7681
     2.7959   2.8348   2.8393   2.8429   2.8532   2.8662   2.8780   2.8935
     2.8985   2.9204   2.9241   2.9465   2.9631   2.9697   3.0988   3.1129
     3.8943   3.9801   4.0636   4.1751   4.6338   4.7281   4.8951   4.9399
     5.3832   5.4217   5.4993   5.5286   5.8763   5.8834   6.3221   6.6611
     6.7486   6.9516   7.2147   7.2650   7.6234   7.6403   7.6536   7.6941
     7.7810   8.0128   8.0559   8.1755   8.2331   8.3849   8.4042   8.4978
     8.6480   8.7961

     occupation numbers 
     1.0000   1.0000   1.0000   1.0000   1.0000   1.0000   1.0000   1.0000
     1.0000   1.0000   1.0000   1.0000   1.0000   1.0000   1.0000   1.0000
     1.0000   1.0000   1.0000   1.0000   1.0000   1.0000   1.0000   1.0000
     1.0000   1.0000   1.0000   1.0000   1.0000   1.0000   1.0000   1.0000
     1.0000   1.0000   1.0000   1.0000   1.0000   1.0000   1.0000   1.0000
     1.0000   1.0000   1.0000   1.0000   1.0000   1.0000   1.0000   1.0000
     1.0000   1.0000   1.0000   1.0000   1.0000   1.0000   1.0000   1.0000
     1.0000   1.0000   1.0000   1.0000   1.0000   1.0000   1.0000   1.0000
     1.0000   1.0000   1.0000   1.0000   1.0000   1.0000   1.0000   1.0000
     1.0000   1.0000   1.0000   1.0000   1.0000   1.0000   1.0000   1.0000
     1.0000   1.0000   1.0000   1.0000   1.0000   1.0000   1.0000   1.0000
     1.0000   1.0000   1.0000   1.0000   1.0000   1.0000   1.0000   1.0000
     1.0000   1.0000   1.0000   1.0000   1.0000   1.0000   1.0000   1.0000
     1.0000   1.0000   1.0000   1.0000   1.0000   1.0000   1.0000   1.0000
     1.0000   1.0000   1.0000   1.0000   1.0000   1.0000   1.0000   1.0000
     1.0000   1.0000   1.0000   1.0000   1.0000   1.0000   1.0000   1.0000
     1.0000   1.0000   1.0000   1.0000   1.0000   1.0000   1.0000   1.0000
     1.0000   1.0000   1.0000   1.0000   1.0000   1.0000   1.0000   1.0000
     1.0000   1.0000   1.0000   1.0000   1.0000   1.0000   1.0000   1.0000
     1.0000   1.0000   1.0000   1.0000   1.0000   1.0000   0.9999   0.9999
     0.9999   0.9997   0.9997   0.9996   0.9995   0.9994   0.9993   0.9991
     0.9990   0.9986   0.9983   0.9979   0.9978   0.9917   0.9913   0.9908
     0.9895   0.9847   0.9842   0.9832   0.9828   0.9810   0.9801   0.9771
     0.9757   0.9732   0.9680   0.9658   0.9602   0.9570   0.9490   0.9310
     0.9054   0.8896   0.8839   0.8600   0.8506   0.8405   0.8167   0.8118
     0.8086   0.7990   0.7944   0.7829   0.7672   0.7628   0.7419   0.7197
     0.7057   0.6854   0.6831   0.6812   0.6757   0.6687   0.6623   0.6539
     0.6512   0.6390   0.6370   0.6244   0.6151   0.6113   0.5363   0.5279
     0.1378   0.1117   0.0899   0.0659   0.0143   0.0099   0.0050   0.0041
     0.0005   0.0004   0.0003   0.0002   0.0000   0.0000   0.0000   0.0000
     0.0000   0.0000   0.0000   0.0000   0.0000   0.0000   0.0000   0.0000
     0.0000   0.0000   0.0000   0.0000   0.0000   0.0000   0.0000   0.0000
     0.0000   0.0000

          k =-0.2500 0.2500 0.0000 ( 65198 PWs)   bands (ev):

   -92.8686 -92.8175 -92.7226 -92.6761 -92.6146 -92.5759 -92.5574 -92.4346
   -56.2222 -56.2044 -56.0795 -56.0690 -56.0622 -56.0559 -56.0201 -55.9915
   -55.9761 -55.9759 -55.9688 -55.9231 -55.9074 -55.8671 -55.8492 -55.8118
   -55.8109 -55.7628 -55.7611 -55.7605 -55.7521 -55.7094 -55.6876 -55.6008
   -31.4303 -31.4142 -31.2712 -31.1853 -31.1028 -31.0643 -31.0109 -30.9406
   -30.0118 -29.9709 -29.9450 -29.8379 -15.1812 -15.1398 -15.0655 -14.9483
   -14.8342 -14.7073 -14.6250 -14.4129 -14.2765 -14.2472 -14.2312 -14.1862
   -14.1606 -14.1415 -14.1209 -14.0663 -13.9983 -13.9851 -13.8309 -13.8065
   -13.7771 -13.7568 -13.7080 -13.6581 -13.5928 -13.5588 -13.4427 -13.4127
   -13.3776 -13.3008 -13.2572 -13.1951 -13.1632 -13.1409 -13.1039 -13.0858
   -13.0768 -13.0016 -12.9793 -12.9325 -12.9264 -12.9011 -12.8815 -12.8514
   -12.8442 -12.8340 -12.6428 -12.5982 -12.5608 -12.4390 -12.2728 -12.2118
   -11.9834 -11.9637 -11.9423 -11.9154 -11.9031 -11.8619 -11.8274 -11.8042
   -11.7827 -11.7602 -11.6765 -11.6310 -11.6213  -2.8310  -2.6237  -2.5016
    -2.4139  -2.2959  -2.2299  -2.0252  -1.8820  -1.8636  -1.8338  -1.7389
    -1.7069  -1.6121  -1.5778  -1.5513  -1.4095  -1.3530  -1.2848  -1.2570
    -1.1957  -1.1751  -1.1354  -1.1065  -1.0664  -1.0026  -0.9546  -0.8894
    -0.8217  -0.7942  -0.7458  -0.7172  -0.6710  -0.6140  -0.5671  -0.5277
    -0.4234  -0.3953  -0.3797  -0.3385  -0.2720  -0.1795  -0.1543  -0.1228
    -0.0435  -0.0249   0.2282   0.4010   0.4397   0.4836   0.5464   0.5900
     0.6429   0.7165   0.7413   1.0222   1.1280   1.1687   1.2022   1.2069
     1.2488   1.2658   1.3108   1.3436   1.3555   1.3813   1.4312   1.4467
     1.4836   1.5033   1.5488   1.6577   1.6606   1.6799   1.7172   1.7452
     1.7832   1.8331   1.9406   2.0511   2.0717   2.1160   2.1358   2.2040
     2.2443   2.2703   2.2976   2.3135   2.4155   2.4537   2.5430   2.5975
     2.6263   2.6643   2.7190   2.7302   2.7429   2.7509   2.7610   2.7775
     2.7858   2.8028   2.8079   2.8224   2.8328   2.8447   2.8532   2.8603
     2.8944   2.9046   2.9128   2.9473   3.2380   3.3196   3.3880   3.4591
     3.5194   3.6825   3.7985   4.1620   4.3541   4.5683   4.8433   5.1395
     5.5218   5.5701   5.6137   5.6702   5.7374   6.1160   6.1441   6.1764
     6.8457   7.1075   7.2083   7.3654   7.4763   7.5001   7.5804   7.7803
     7.8776   7.9613   8.2166   8.2492   8.3393   8.3815   8.4399   8.4613
     8.5543   8.6223

     occupation numbers 
     1.0000   1.0000   1.0000   1.0000   1.0000   1.0000   1.0000   1.0000
     1.0000   1.0000   1.0000   1.0000   1.0000   1.0000   1.0000   1.0000
     1.0000   1.0000   1.0000   1.0000   1.0000   1.0000   1.0000   1.0000
     1.0000   1.0000   1.0000   1.0000   1.0000   1.0000   1.0000   1.0000
     1.0000   1.0000   1.0000   1.0000   1.0000   1.0000   1.0000   1.0000
     1.0000   1.0000   1.0000   1.0000   1.0000   1.0000   1.0000   1.0000
     1.0000   1.0000   1.0000   1.0000   1.0000   1.0000   1.0000   1.0000
     1.0000   1.0000   1.0000   1.0000   1.0000   1.0000   1.0000   1.0000
     1.0000   1.0000   1.0000   1.0000   1.0000   1.0000   1.0000   1.0000
     1.0000   1.0000   1.0000   1.0000   1.0000   1.0000   1.0000   1.0000
     1.0000   1.0000   1.0000   1.0000   1.0000   1.0000   1.0000   1.0000
     1.0000   1.0000   1.0000   1.0000   1.0000   1.0000   1.0000   1.0000
     1.0000   1.0000   1.0000   1.0000   1.0000   1.0000   1.0000   1.0000
     1.0000   1.0000   1.0000   1.0000   1.0000   1.0000   1.0000   1.0000
     1.0000   1.0000   1.0000   1.0000   1.0000   1.0000   1.0000   1.0000
     1.0000   1.0000   1.0000   1.0000   1.0000   1.0000   1.0000   1.0000
     1.0000   1.0000   1.0000   1.0000   1.0000   1.0000   1.0000   1.0000
     1.0000   1.0000   1.0000   1.0000   1.0000   1.0000   1.0000   1.0000
     1.0000   1.0000   1.0000   1.0000   1.0000   1.0000   1.0000   1.0000
     1.0000   1.0000   1.0000   1.0000   1.0000   1.0000   0.9999   0.9999
     0.9999   0.9999   0.9998   0.9992   0.9987   0.9984   0.9982   0.9981
     0.9977   0.9975   0.9970   0.9965   0.9963   0.9959   0.9949   0.9945
     0.9936   0.9931   0.9916   0.9872   0.9870   0.9860   0.9839   0.9822
     0.9795   0.9756   0.9649   0.9502   0.9470   0.9395   0.9359   0.9221
     0.9131   0.9068   0.8998   0.8956   0.8656   0.8529   0.8203   0.7982
     0.7860   0.7692   0.7438   0.7384   0.7322   0.7283   0.7233   0.7150
     0.7108   0.7021   0.6995   0.6920   0.6865   0.6802   0.6757   0.6719
     0.6534   0.6478   0.6433   0.6240   0.4539   0.4064   0.3675   0.3285
     0.2968   0.2189   0.1716   0.0684   0.0381   0.0183   0.0062   0.0016
     0.0002   0.0002   0.0001   0.0001   0.0001   0.0000   0.0000   0.0000
     0.0000   0.0000   0.0000   0.0000   0.0000   0.0000   0.0000   0.0000
     0.0000   0.0000   0.0000   0.0000   0.0000   0.0000   0.0000   0.0000
     0.0000   0.0000

          k =-0.5000 0.2500 0.0000 ( 65138 PWs)   bands (ev):

   -92.8686 -92.8175 -92.7226 -92.6761 -92.6146 -92.5759 -92.5574 -92.4346
   -56.2222 -56.2044 -56.0795 -56.0690 -56.0622 -56.0559 -56.0201 -55.9915
   -55.9761 -55.9759 -55.9688 -55.9231 -55.9074 -55.8671 -55.8492 -55.8118
   -55.8109 -55.7628 -55.7611 -55.7605 -55.7521 -55.7094 -55.6876 -55.6008
   -31.4282 -31.4163 -31.2708 -31.1857 -31.1026 -31.0638 -31.0115 -30.9408
   -30.0108 -29.9719 -29.9446 -29.8383 -15.1459 -15.1012 -15.0223 -14.9189
   -14.8791 -14.7551 -14.6646 -14.5299 -14.2280 -14.1961 -14.1840 -14.1386
   -14.1147 -14.0936 -14.0574 -14.0423 -14.0263 -13.9843 -13.9673 -13.8641
   -13.7981 -13.7496 -13.7446 -13.7287 -13.6270 -13.5777 -13.5017 -13.4491
   -13.3551 -13.3194 -13.2215 -13.1820 -13.1714 -13.1413 -13.1069 -13.0949
   -13.0663 -13.0270 -12.9731 -12.9151 -12.9037 -12.8956 -12.8515 -12.8324
   -12.7785 -12.7708 -12.6949 -12.5647 -12.4784 -12.4143 -12.3260 -12.2994
   -11.9834 -11.9365 -11.9240 -11.9097 -11.8975 -11.8764 -11.8459 -11.7653
   -11.7575 -11.7334 -11.6989 -11.6707 -11.6619  -2.6034  -2.5619  -2.4148
    -2.3721  -2.2102  -2.1348  -1.9935  -1.8574  -1.8008  -1.7739  -1.7349
    -1.6963  -1.6157  -1.4999  -1.4427  -1.4194  -1.3937  -1.3170  -1.2885
    -1.2487  -1.2326  -1.1723  -1.1411  -1.1039  -1.0688  -1.0397  -0.9812
    -0.9532  -0.9111  -0.8763  -0.7727  -0.7428  -0.6542  -0.5953  -0.5638
    -0.5059  -0.4228  -0.3847  -0.2889  -0.2341  -0.1892  -0.1288  -0.1065
    -0.0363  -0.0166   0.0153   0.0671   0.1091   0.4259   0.5160   0.5441
     0.5662   0.8638   0.9139   0.9906   1.0135   1.1877   1.2247   1.2619
     1.2718   1.2904   1.3083   1.3784   1.4235   1.4695   1.4935   1.6354
     1.6669   1.6842   1.6949   1.7385   1.7638   1.7768   1.7888   1.8079
     1.8344   1.8738   1.8891   1.9240   1.9465   1.9813   2.0336   2.1557
     2.2598   2.2845   2.3535   2.3872   2.4490   2.4858   2.4916   2.5320
     2.5568   2.5814   2.6008   2.6285   2.6679   2.6790   2.7199   2.7292
     2.7396   2.7550   2.7755   2.7890   2.8061   2.8196   2.8385   2.8498
     2.8615   2.8676   2.8794   2.8903   3.4187   3.4871   3.6078   3.6326
     3.9031   4.0067   4.0603   4.2528   4.6261   4.7399   4.8877   4.9554
     5.2495   5.2824   5.5104   5.5774   5.6301   5.6522   6.3483   6.4254
     6.4625   6.7805   7.2399   7.6147   7.6835   7.7124   7.7459   7.7868
     7.8562   7.9226   8.2439   8.3227   8.4072   8.4358   8.5154   8.5723
     8.6226   8.7098

     occupation numbers 
     1.0000   1.0000   1.0000   1.0000   1.0000   1.0000   1.0000   1.0000
     1.0000   1.0000   1.0000   1.0000   1.0000   1.0000   1.0000   1.0000
     1.0000   1.0000   1.0000   1.0000   1.0000   1.0000   1.0000   1.0000
     1.0000   1.0000   1.0000   1.0000   1.0000   1.0000   1.0000   1.0000
     1.0000   1.0000   1.0000   1.0000   1.0000   1.0000   1.0000   1.0000
     1.0000   1.0000   1.0000   1.0000   1.0000   1.0000   1.0000   1.0000
     1.0000   1.0000   1.0000   1.0000   1.0000   1.0000   1.0000   1.0000
     1.0000   1.0000   1.0000   1.0000   1.0000   1.0000   1.0000   1.0000
     1.0000   1.0000   1.0000   1.0000   1.0000   1.0000   1.0000   1.0000
     1.0000   1.0000   1.0000   1.0000   1.0000   1.0000   1.0000   1.0000
     1.0000   1.0000   1.0000   1.0000   1.0000   1.0000   1.0000   1.0000
     1.0000   1.0000   1.0000   1.0000   1.0000   1.0000   1.0000   1.0000
     1.0000   1.0000   1.0000   1.0000   1.0000   1.0000   1.0000   1.0000
     1.0000   1.0000   1.0000   1.0000   1.0000   1.0000   1.0000   1.0000
     1.0000   1.0000   1.0000   1.0000   1.0000   1.0000   1.0000   1.0000
     1.0000   1.0000   1.0000   1.0000   1.0000   1.0000   1.0000   1.0000
     1.0000   1.0000   1.0000   1.0000   1.0000   1.0000   1.0000   1.0000
     1.0000   1.0000   1.0000   1.0000   1.0000   1.0000   1.0000   1.0000
     1.0000   1.0000   1.0000   1.0000   1.0000   1.0000   1.0000   1.0000
     1.0000   1.0000   1.0000   1.0000   1.0000   1.0000   1.0000   0.9999
     0.9999   0.9997   0.9996   0.9994   0.9993   0.9983   0.9980   0.9976
     0.9975   0.9973   0.9970   0.9959   0.9950   0.9940   0.9933   0.9882
     0.9867   0.9858   0.9852   0.9826   0.9809   0.9800   0.9791   0.9777
     0.9755   0.9719   0.9704   0.9668   0.9642   0.9600   0.9528   0.9321
     0.9094   0.9032   0.8845   0.8744   0.8545   0.8417   0.8395   0.8245
     0.8148   0.8049   0.7969   0.7850   0.7676   0.7625   0.7433   0.7388
     0.7338   0.7262   0.7160   0.7092   0.7004   0.6934   0.6835   0.6775
     0.6713   0.6679   0.6616   0.6557   0.3505   0.3137   0.2531   0.2414
     0.1349   0.1044   0.0907   0.0523   0.0147   0.0095   0.0052   0.0038
     0.0010   0.0008   0.0002   0.0002   0.0001   0.0001   0.0000   0.0000
     0.0000   0.0000   0.0000   0.0000   0.0000   0.0000   0.0000   0.0000
     0.0000   0.0000   0.0000   0.0000   0.0000   0.0000   0.0000   0.0000
     0.0000   0.0000

     the Fermi energy is     3.1601 ev

!    total energy              =   -4440.29821470 Ry
     estimated scf accuracy    <          7.6E-09 Ry
     smearing contrib. (-TS)   =      -1.20633637 Ry
     internal energy E=F+TS    =   -4439.09187834 Ry

     The total energy is F=E-TS. E is the sum of the following terms:
     one-electron contribution =  -20890.48474289 Ry
     hartree contribution      =   10574.43504961 Ry
     xc contribution           =    -693.24478975 Ry
     ewald contribution        =    6846.39448206 Ry
     one-center paw contrib.   =    -276.19187736 Ry
      -> PAW hartree energy AE =      25.02308608 Ry
      -> PAW hartree energy PS =     -24.90864237 Ry
      -> PAW xc energy AE      =     -16.49735836 Ry
      -> PAW xc energy PS      =       6.85593349 Ry
      -> total E_H with PAW    =   10574.54949332 Ry
      -> total E_XC with PAW   =    -702.88621462 Ry

     convergence has been achieved in  49 iterations

     Writing all to output data dir /bsuhome/zayahcortright/scratch/pwscf.save/
 
     init_run     :      7.80s CPU      8.38s WALL (       1 calls)
     electrons    :    699.57s CPU    733.37s WALL (       1 calls)

     Called by init_run:
     wfcinit      :      6.15s CPU      6.35s WALL (       1 calls)
     wfcinit:atom :      0.05s CPU      0.07s WALL (       5 calls)
     wfcinit:wfcr :      5.83s CPU      5.93s WALL (       5 calls)
     potinit      :      0.16s CPU      0.19s WALL (       1 calls)
     hinit0       :      0.63s CPU      0.71s WALL (       1 calls)

     Called by electrons:
     c_bands      :    557.02s CPU    563.88s WALL (      49 calls)
     sum_band     :    106.83s CPU    121.54s WALL (      49 calls)
     v_of_rho     :      5.33s CPU      5.69s WALL (      50 calls)
     v_h          :      0.47s CPU      0.47s WALL (      50 calls)
     v_xc         :      4.86s CPU      5.22s WALL (      50 calls)
     newd         :     16.20s CPU     27.58s WALL (      50 calls)
     PAW_pot      :      1.62s CPU      1.65s WALL (      50 calls)
     mix_rho      :     12.24s CPU     12.59s WALL (      49 calls)

     Called by c_bands:
     init_us_2    :      6.86s CPU      6.98s WALL (     495 calls)
     init_us_2:cp :      6.86s CPU      6.98s WALL (     495 calls)
     cegterg      :    522.82s CPU    529.30s WALL (     245 calls)

     Called by sum_band:
     sum_band:wei :      0.35s CPU      0.35s WALL (      49 calls)
     sum_band:loo :     88.62s CPU     89.33s WALL (      49 calls)
     sum_band:buf :      1.49s CPU      1.56s WALL (     245 calls)
     sum_band:ini :      3.19s CPU      3.20s WALL (     245 calls)
     sum_band:cal :     19.37s CPU     19.44s WALL (     245 calls)
     sum_band:bec :      0.55s CPU      0.56s WALL (     245 calls)
     addusdens    :     15.60s CPU     29.49s WALL (      49 calls)
                                        0.00s GPU  (      49 calls)
     addusd:skk   :      0.28s CPU      1.00s WALL (     147 calls)
                                        0.00s GPU  (     147 calls)

     Called by *egterg:
     cdiaghg      :     54.34s CPU     54.59s WALL (    1283 calls)
     cegterg:over :     38.17s CPU     38.32s WALL (    1038 calls)
     cegterg:upda :     27.88s CPU     28.42s WALL (    1038 calls)
     cegterg:last :     58.96s CPU     59.18s WALL (     445 calls)
     cdiaghg:chol :      3.19s CPU      3.22s WALL (    1283 calls)
     cdiaghg:inve :      2.81s CPU      2.82s WALL (    1283 calls)
     cdiaghg:para :      6.97s CPU      7.02s WALL (    2566 calls)
     h_psi        :    288.46s CPU    291.58s WALL (    1288 calls)
     s_psi        :     39.51s CPU     39.62s WALL (    1288 calls)
     g_psi        :      1.07s CPU      1.08s WALL (    1038 calls)

     Called by h_psi:
     h_psi:calbec :     44.51s CPU     44.74s WALL (    1288 calls)
     vloc_psi     :    201.65s CPU    203.62s WALL (    1288 calls)
     add_vuspsi   :     39.45s CPU     39.66s WALL (    1288 calls)

     General routines
     calbec       :     63.86s CPU     64.18s WALL (    1533 calls)
     fft          :      3.84s CPU      3.89s WALL (     648 calls)
     ffts         :      4.43s CPU      4.48s WALL (    5133 calls)
     fftw         :    170.57s CPU    172.02s WALL (  330650 calls)
     interpolate  :      0.41s CPU      0.42s WALL (      50 calls)
 
     Parallel routines

     PAW routines
     PAW_pot      :      1.62s CPU      1.65s WALL (      50 calls)
 
     PWSCF        :  11m49.37s CPU  12m26.96s WALL

 
   This run was terminated on:  22: 4:50  21Jun2024            

=------------------------------------------------------------------------------=
   JOB DONE.
=------------------------------------------------------------------------------=
