
     Program PWSCF v.7.2 starts on 21Jun2024 at 19: 1:13 

     This program is part of the open-source Quantum ESPRESSO suite
     for quantum simulation of materials; please cite
         "P. Giannozzi et al., J. Phys.:Condens. Matter 21 395502 (2009);
         "P. Giannozzi et al., J. Phys.:Condens. Matter 29 465901 (2017);
         "P. Giannozzi et al., J. Chem. Phys. 152 154105 (2020);
          URL http://www.quantum-espresso.org", 
     in publications or presentations arising from this work. More details at
     http://www.quantum-espresso.org/quote

     Parallel version (MPI & OpenMP), running on      48 processor cores
     Number of MPI processes:                48
     Threads/MPI process:                     1

     MPI processes distributed on     1 nodes
     180145 MiB available memory on the printing compute node when the environment starts
 
     Reading input from espresso.pwi
Warning: card &CELL ignored
Warning: card / ignored
Warning: card &FCP ignored
Warning: card / ignored
Warning: card &RISM ignored
Warning: card / ignored

     Current dimensions of program PWSCF are:
     Max number of different atomic species (ntypx) = 10
     Max number of k-points (npk) =  40000
     Max angular momentum in pseudopotentials (lmaxx) =  4
     file O.pbe-n-kjpaw_psl.0.1.UPF: wavefunction(s)  2P renormalized
     signal trapping enabled: kill the code with -SIGUSR1 to stop cleanly the simulation 
 
     K-points division:     npool     =       2
     R & G space division:  proc/nbgrp/npool/nimage =      24
     Subspace diagonalization in iterative solution of the eigenvalue problem:
     one sub-group per band group will be used
     scalapack distributed-memory algorithm (size of sub-group:  3*  3 procs)

 
     Parallelization info
     --------------------
     sticks:   dense  smooth     PW     G-vecs:    dense   smooth      PW
     Min         350     175     47                61430    21716    3036
     Max         351     177     48                61449    21727    3041
     Sum        8421    4205   1137              1474595   521381   72913
 
     Using Slab Decomposition
 


     bravais-lattice index     =            0
     lattice parameter (alat)  =      14.8599  a.u.
     unit-cell volume          =    8305.1283 (a.u.)^3
     number of atoms/cell      =           49
     number of atomic types    =            4
     number of electrons       =       425.00
     number of Kohn-Sham states=          256
     kinetic-energy cutoff     =      60.0000  Ry
     charge density cutoff     =     480.0000  Ry
     scf convergence threshold =      1.0E-08
     mixing beta               =       0.1500
     number of iterations used =            8  local-TF  mixing
     Exchange-correlation= PBE
                           (   1   4   3   4   0   0   0)

     celldm(1)=  14.859904  celldm(2)=   0.000000  celldm(3)=   0.000000
     celldm(4)=   0.000000  celldm(5)=   0.000000  celldm(6)=   0.000000

     crystal axes: (cart. coord. in units of alat)
               a(1) = (   1.000000   0.000000   0.000000 )  
               a(2) = (   0.000000   1.000000   0.000000 )  
               a(3) = (   0.000000   0.000000   2.531036 )  

     reciprocal axes: (cart. coord. in units 2 pi/alat)
               b(1) = (  1.000000  0.000000  0.000000 )  
               b(2) = (  0.000000  1.000000  0.000000 )  
               b(3) = (  0.000000  0.000000  0.395095 )  


     PseudoPot. # 1 for Sr read from file:
     /bsuhome/zayahcortright/q-e/pseudo/Sr_pbe_v1.uspp.F.UPF
     MD5 check sum: 6b418c05fbe9db5448babca5e47b7a5b
     Pseudo is Ultrasoft + core correction, Zval = 10.0
     Generated by new atomic code, or converted to UPF format
     Using radial grid of  883 points,  6 beta functions with: 
                l(1) =   0
                l(2) =   0
                l(3) =   1
                l(4) =   1
                l(5) =   2
                l(6) =   2
     Q(r) pseudized with  6 coefficients,  rinner =    1.400   1.400   1.400
                                                       1.400   1.400

     PseudoPot. # 2 for O  read from file:
     /bsuhome/zayahcortright/q-e/pseudo/O.pbe-n-kjpaw_psl.0.1.UPF
     MD5 check sum: 0234752ac141de4415c5fc33072bef88
     Pseudo is Projector augmented-wave + core cor, Zval =  6.0
     Generated using "atomic" code by A. Dal Corso  v.5.0.99 svn rev. 10869
     Shape of augmentation charge: BESSEL
     Using radial grid of 1095 points,  4 beta functions with: 
                l(1) =   0
                l(2) =   0
                l(3) =   1
                l(4) =   1
     Q(r) pseudized with 0 coefficients 


     PseudoPot. # 3 for Co read from file:
     /bsuhome/zayahcortright/q-e/pseudo/Co_pbe_v1.2.uspp.F.UPF
     MD5 check sum: 5f91765df6ddd3222702df6e7b74a16d
     Pseudo is Ultrasoft + core correction, Zval = 17.0
     Generated by new atomic code, or converted to UPF format
     Using radial grid of  863 points,  6 beta functions with: 
                l(1) =   0
                l(2) =   0
                l(3) =   1
                l(4) =   1
                l(5) =   2
                l(6) =   2
     Q(r) pseudized with  8 coefficients,  rinner =    1.200   1.200   1.200
                                                       1.200   1.200

     PseudoPot. # 4 for H  read from file:
     /bsuhome/zayahcortright/q-e/pseudo/H.pbe-rrkjus_psl.1.0.0.UPF
     MD5 check sum: f52b6d4d1c606e5624b1dc7b2218f220
     Pseudo is Ultrasoft, Zval =  1.0
     Generated using "atomic" code by A. Dal Corso  v.5.1
     Using radial grid of  929 points,  2 beta functions with: 
                l(1) =   0
                l(2) =   0
     Q(r) pseudized with 0 coefficients 


     atomic species   valence    mass     pseudopotential
        Sr            10.00    87.62000     Sr( 1.00)
        O              6.00    15.99900     O ( 1.00)
        Co            17.00    58.93319     Co( 1.00)
        H              1.00     1.00800     H ( 1.00)

     No symmetry found


                                    s                        frac. trans.

      isym =  1     identity                                     

 cryst.   s( 1) = (     1          0          0      )
                  (     0          1          0      )
                  (     0          0          1      )

 cart.    s( 1) = (  1.0000000  0.0000000  0.0000000 )
                  (  0.0000000  1.0000000  0.0000000 )
                  (  0.0000000  0.0000000  1.0000000 )


   Cartesian axes

     site n.     atom                  positions (alat units)
         1           Sr  tau(   1) = (   0.2508693   0.7491307   1.7574407  )
         2           O   tau(   2) = (   0.4985141   0.5014859   1.7715967  )
         3           Sr  tau(   3) = (   0.7482398   0.7454518   1.7648669  )
         4           Sr  tau(   4) = (   0.7441748   0.2558252   1.7667843  )
         5           Sr  tau(   5) = (   0.2508693   0.7491307   1.2696799  )
         6           Sr  tau(   6) = (   0.2508693   0.7491307   0.7632319  )
         7           Co  tau(   7) = (   0.4998914   0.5001086   1.0164559  )
         8           Co  tau(   8) = (   0.4936915   0.5063085   1.5135603  )
         9           O   tau(   9) = (   0.4988895   0.7610401   1.0164559  )
        10           O   tau(  10) = (   0.2389599   0.5011105   1.0164559  )
        11           O   tau(  11) = (   0.0070918   0.7374880   1.0164559  )
        12           O   tau(  12) = (   0.0088340   0.7405089   1.5135603  )
        13           O   tau(  13) = (   0.5066944   0.7415376   1.5135603  )
        14           O   tau(  14) = (   0.2584624   0.4933056   1.5135603  )
        15           O   tau(  15) = (   0.4985141   0.5014859   0.7773880  )
        16           O   tau(  16) = (   0.4985141   0.5014859   1.2555238  )
        17           Sr  tau(  17) = (   0.7482398   0.7454518   0.7706582  )
        18           Sr  tau(  18) = (   0.7482398   0.7454518   1.2622536  )
        19           Sr  tau(  19) = (   0.7441748   0.2558252   0.7725755  )
        20           Sr  tau(  20) = (   0.7441748   0.2558252   1.2603363  )
        21           O   tau(  21) = (   0.7322655   0.0078049   1.5135603  )
        22           O   tau(  22) = (   0.7558175   0.4996027   1.5135603  )
        23           O   tau(  23) = (   0.5003973   0.2441825   1.5135603  )
        24           O   tau(  24) = (   0.7527966   0.4978604   1.0164559  )
        25           O   tau(  25) = (   0.5021396   0.2472034   1.0164559  )
        26           O   tau(  26) = (   0.7517679   0.0000000   1.0164559  )
        27           O   tau(  27) = (   0.0114961   0.4948124   1.7455321  )
        28           O   tau(  28) = (   0.0048226   0.0077944   1.7715967  )
        29           Sr  tau(  29) = (   0.2545482   0.2517602   1.7648669  )
        30           O   tau(  30) = (   0.5048017   0.0015068   1.7786929  )
        31           Co  tau(  31) = (   0.0056869   0.5006215   1.0164559  )
        32           Co  tau(  32) = (   0.0065315   0.4997770   1.5135603  )
        33           Co  tau(  33) = (   0.0061999   0.0064171   1.0164559  )
        34           Co  tau(  34) = (   0.0000000   0.0126169   1.5135603  )
        35           O   tau(  35) = (   0.0114961   0.4948124   1.2815885  )
        36           O   tau(  36) = (   0.0114961   0.4948124   0.7513233  )
        37           O   tau(  37) = (   0.0051979   0.2673486   1.0164559  )
        38           O   tau(  38) = (   0.0130029   0.2478461   1.5135603  )
        39           O   tau(  39) = (   0.0048226   0.0077944   0.7773880  )
        40           O   tau(  40) = (   0.0048226   0.0077944   1.2555238  )
        41           Sr  tau(  41) = (   0.2545482   0.2517602   0.7706582  )
        42           Sr  tau(  42) = (   0.2545482   0.2517602   1.2622536  )
        43           Co  tau(  43) = (   0.4989925   0.0073160   1.5135603  )
        44           Co  tau(  44) = (   0.4998370   0.0064714   1.0164559  )
        45           O   tau(  45) = (   0.5048017   0.0015068   0.7844841  )
        46           O   tau(  46) = (   0.5048017   0.0015068   1.2484277  )
        47           O   tau(  47) = (   0.2621260   0.0059111   1.5135603  )
        48           O   tau(  48) = (   0.2591051   0.0041689   1.0164559  )
        49           H   tau(  49) = (   0.5686583   0.4264937   2.1602013  )

   Crystallographic axes

     site n.     atom                  positions (cryst. coord.)
         1           Sr  tau(   1) = (  0.2508693  0.7491307  0.6943562  )
         2           O   tau(   2) = (  0.4985141  0.5014859  0.6999492  )
         3           Sr  tau(   3) = (  0.7482398  0.7454518  0.6972903  )
         4           Sr  tau(   4) = (  0.7441748  0.2558252  0.6980478  )
         5           Sr  tau(   5) = (  0.2508693  0.7491307  0.5016443  )
         6           Sr  tau(   6) = (  0.2508693  0.7491307  0.3015492  )
         7           Co  tau(   7) = (  0.4998914  0.5001086  0.4015968  )
         8           Co  tau(   8) = (  0.4936915  0.5063085  0.5980003  )
         9           O   tau(   9) = (  0.4988895  0.7610401  0.4015968  )
        10           O   tau(  10) = (  0.2389599  0.5011105  0.4015968  )
        11           O   tau(  11) = (  0.0070918  0.7374880  0.4015968  )
        12           O   tau(  12) = (  0.0088340  0.7405089  0.5980003  )
        13           O   tau(  13) = (  0.5066944  0.7415376  0.5980003  )
        14           O   tau(  14) = (  0.2584624  0.4933056  0.5980003  )
        15           O   tau(  15) = (  0.4985141  0.5014859  0.3071422  )
        16           O   tau(  16) = (  0.4985141  0.5014859  0.4960513  )
        17           Sr  tau(  17) = (  0.7482398  0.7454518  0.3044833  )
        18           Sr  tau(  18) = (  0.7482398  0.7454518  0.4987103  )
        19           Sr  tau(  19) = (  0.7441748  0.2558252  0.3052408  )
        20           Sr  tau(  20) = (  0.7441748  0.2558252  0.4979527  )
        21           O   tau(  21) = (  0.7322655  0.0078049  0.5980003  )
        22           O   tau(  22) = (  0.7558175  0.4996027  0.5980003  )
        23           O   tau(  23) = (  0.5003973  0.2441825  0.5980003  )
        24           O   tau(  24) = (  0.7527966  0.4978604  0.4015968  )
        25           O   tau(  25) = (  0.5021396  0.2472034  0.4015968  )
        26           O   tau(  26) = (  0.7517679  0.0000000  0.4015968  )
        27           O   tau(  27) = (  0.0114961  0.4948124  0.6896512  )
        28           O   tau(  28) = (  0.0048226  0.0077944  0.6999492  )
        29           Sr  tau(  29) = (  0.2545482  0.2517602  0.6972903  )
        30           O   tau(  30) = (  0.5048017  0.0015068  0.7027529  )
        31           Co  tau(  31) = (  0.0056869  0.5006215  0.4015968  )
        32           Co  tau(  32) = (  0.0065315  0.4997770  0.5980003  )
        33           Co  tau(  33) = (  0.0061999  0.0064171  0.4015968  )
        34           Co  tau(  34) = (  0.0000000  0.0126169  0.5980003  )
        35           O   tau(  35) = (  0.0114961  0.4948124  0.5063494  )
        36           O   tau(  36) = (  0.0114961  0.4948124  0.2968442  )
        37           O   tau(  37) = (  0.0051979  0.2673486  0.4015968  )
        38           O   tau(  38) = (  0.0130029  0.2478461  0.5980003  )
        39           O   tau(  39) = (  0.0048226  0.0077944  0.3071422  )
        40           O   tau(  40) = (  0.0048226  0.0077944  0.4960513  )
        41           Sr  tau(  41) = (  0.2545482  0.2517602  0.3044833  )
        42           Sr  tau(  42) = (  0.2545482  0.2517602  0.4987103  )
        43           Co  tau(  43) = (  0.4989925  0.0073160  0.5980003  )
        44           Co  tau(  44) = (  0.4998370  0.0064714  0.4015968  )
        45           O   tau(  45) = (  0.5048017  0.0015068  0.3099459  )
        46           O   tau(  46) = (  0.5048017  0.0015068  0.4932477  )
        47           O   tau(  47) = (  0.2621260  0.0059111  0.5980003  )
        48           O   tau(  48) = (  0.2591051  0.0041689  0.4015968  )
        49           H   tau(  49) = (  0.5686583  0.4264937  0.8534850  )

     number of k points=    10  Gaussian smearing, width (Ry)=  0.0700
                       cart. coord. in units 2pi/alat
        k(    1) = (   0.0000000   0.0000000   0.0000000), wk =   0.1250000
        k(    2) = (   0.0000000   0.2500000   0.0000000), wk =   0.2500000
        k(    3) = (   0.0000000  -0.5000000   0.0000000), wk =   0.1250000
        k(    4) = (   0.2500000   0.2500000   0.0000000), wk =   0.2500000
        k(    5) = (   0.2500000  -0.5000000   0.0000000), wk =   0.2500000
        k(    6) = (  -0.5000000  -0.5000000   0.0000000), wk =   0.1250000
        k(    7) = (   0.2500000   0.0000000   0.0000000), wk =   0.2500000
        k(    8) = (  -0.5000000   0.0000000   0.0000000), wk =   0.1250000
        k(    9) = (  -0.2500000   0.2500000   0.0000000), wk =   0.2500000
        k(   10) = (  -0.5000000   0.2500000   0.0000000), wk =   0.2500000

                       cryst. coord.
        k(    1) = (   0.0000000   0.0000000   0.0000000), wk =   0.1250000
        k(    2) = (   0.0000000   0.2500000   0.0000000), wk =   0.2500000
        k(    3) = (   0.0000000  -0.5000000   0.0000000), wk =   0.1250000
        k(    4) = (   0.2500000   0.2500000   0.0000000), wk =   0.2500000
        k(    5) = (   0.2500000  -0.5000000   0.0000000), wk =   0.2500000
        k(    6) = (  -0.5000000  -0.5000000   0.0000000), wk =   0.1250000
        k(    7) = (   0.2500000   0.0000000   0.0000000), wk =   0.2500000
        k(    8) = (  -0.5000000   0.0000000   0.0000000), wk =   0.1250000
        k(    9) = (  -0.2500000   0.2500000   0.0000000), wk =   0.2500000
        k(   10) = (  -0.5000000   0.2500000   0.0000000), wk =   0.2500000

     Dense  grid:  1474595 G-vectors     FFT dimensions: ( 108, 108, 270)

     Smooth grid:   521381 G-vectors     FFT dimensions: (  75,  75, 192)

     Dynamical RAM for                 wfc:      10.61 MB

     Dynamical RAM for     wfc (w. buffer):      63.63 MB

     Dynamical RAM for           str. fact:       3.75 MB

     Dynamical RAM for           local pot:       0.00 MB

     Dynamical RAM for          nlocal pot:      24.28 MB

     Dynamical RAM for                qrad:       7.03 MB

     Dynamical RAM for          rho,v,vnew:       6.02 MB

     Dynamical RAM for               rhoin:       2.01 MB

     Dynamical RAM for            rho*nmix:      15.00 MB

     Dynamical RAM for           G-vectors:       3.68 MB

     Dynamical RAM for          h,s,v(r/c):       1.32 MB

     Dynamical RAM for          <psi|beta>:       2.29 MB

     Dynamical RAM for                 psi:      21.21 MB

     Dynamical RAM for                hpsi:      21.21 MB

     Dynamical RAM for                spsi:      21.21 MB

     Dynamical RAM for      wfcinit/wfcrot:      34.09 MB

     Dynamical RAM for           addusdens:     100.79 MB

     Estimated static dynamical RAM per process >     120.42 MB

     Estimated max dynamical RAM per process >     236.21 MB

     Estimated total dynamical RAM >      10.72 GB

     Check: negative core charge=   -0.000004

     Initial potential from superposition of free atoms

     starting charge     416.5961, renormalised to     425.0000

     negative rho (up, down):  7.827E-01 0.000E+00
     Starting wfcs are  373 randomized atomic wfcs
     Checking if some PAW data can be deallocated... 
       PAW data deallocated on   20 nodes for type:  2

     total cpu time spent up to now is        8.6 secs

     Self-consistent Calculation

     iteration #  1     ecut=    60.00 Ry     beta= 0.15
     Davidson diagonalization with overlap

---- Real-time Memory Report at c_bands before calling an iterative solver
             0 MiB given to the printing process from OS
             0 MiB allocation reported by mallinfo(arena+hblkhd)
        170473 MiB available memory on the node where the printing process lives
------------------
     ethr =  1.00E-02,  avg # of iterations =  2.0

     negative rho (up, down):  7.715E-01 0.000E+00

     total cpu time spent up to now is       23.0 secs

     total energy              =   -4404.70734412 Ry
     estimated scf accuracy    <      42.19096860 Ry

     iteration #  2     ecut=    60.00 Ry     beta= 0.15
     Davidson diagonalization with overlap

---- Real-time Memory Report at c_bands before calling an iterative solver
             0 MiB given to the printing process from OS
             0 MiB allocation reported by mallinfo(arena+hblkhd)
        170703 MiB available memory on the node where the printing process lives
------------------
     ethr =  9.93E-03,  avg # of iterations =  1.0

     negative rho (up, down):  7.532E-01 0.000E+00

     total cpu time spent up to now is       35.2 secs

     total energy              =   -4400.05718259 Ry
     estimated scf accuracy    <      26.45432421 Ry

     iteration #  3     ecut=    60.00 Ry     beta= 0.15
     Davidson diagonalization with overlap

---- Real-time Memory Report at c_bands before calling an iterative solver
             0 MiB given to the printing process from OS
             0 MiB allocation reported by mallinfo(arena+hblkhd)
        169970 MiB available memory on the node where the printing process lives
------------------
     ethr =  6.22E-03,  avg # of iterations =  2.0

     negative rho (up, down):  7.544E-01 0.000E+00

     total cpu time spent up to now is       48.9 secs

     total energy              =   -4402.38704646 Ry
     estimated scf accuracy    <      48.84209941 Ry

     iteration #  4     ecut=    60.00 Ry     beta= 0.15
     Davidson diagonalization with overlap

---- Real-time Memory Report at c_bands before calling an iterative solver
             0 MiB given to the printing process from OS
             0 MiB allocation reported by mallinfo(arena+hblkhd)
        169828 MiB available memory on the node where the printing process lives
------------------
     ethr =  6.22E-03,  avg # of iterations =  1.0

     negative rho (up, down):  7.411E-01 0.000E+00

     total cpu time spent up to now is       61.0 secs

     total energy              =   -4401.64235584 Ry
     estimated scf accuracy    <      29.24814413 Ry

     iteration #  5     ecut=    60.00 Ry     beta= 0.15
     Davidson diagonalization with overlap

---- Real-time Memory Report at c_bands before calling an iterative solver
             0 MiB given to the printing process from OS
             0 MiB allocation reported by mallinfo(arena+hblkhd)
        169808 MiB available memory on the node where the printing process lives
------------------
     ethr =  6.22E-03,  avg # of iterations =  1.0

     negative rho (up, down):  7.471E-01 0.000E+00

     total cpu time spent up to now is       73.1 secs

     total energy              =   -4399.87353046 Ry
     estimated scf accuracy    <      43.88410033 Ry

     iteration #  6     ecut=    60.00 Ry     beta= 0.15
     Davidson diagonalization with overlap

---- Real-time Memory Report at c_bands before calling an iterative solver
             0 MiB given to the printing process from OS
             0 MiB allocation reported by mallinfo(arena+hblkhd)
        169798 MiB available memory on the node where the printing process lives
------------------
     ethr =  6.22E-03,  avg # of iterations =  1.0

     negative rho (up, down):  7.421E-01 0.000E+00

     total cpu time spent up to now is       85.6 secs

     total energy              =   -4400.62749126 Ry
     estimated scf accuracy    <      11.91058539 Ry

     iteration #  7     ecut=    60.00 Ry     beta= 0.15
     Davidson diagonalization with overlap

---- Real-time Memory Report at c_bands before calling an iterative solver
             0 MiB given to the printing process from OS
             0 MiB allocation reported by mallinfo(arena+hblkhd)
        169778 MiB available memory on the node where the printing process lives
------------------
     ethr =  2.80E-03,  avg # of iterations =  1.1

     negative rho (up, down):  7.445E-01 0.000E+00

     total cpu time spent up to now is       98.6 secs

     total energy              =   -4400.80310803 Ry
     estimated scf accuracy    <       4.25481835 Ry

     iteration #  8     ecut=    60.00 Ry     beta= 0.15
     Davidson diagonalization with overlap

---- Real-time Memory Report at c_bands before calling an iterative solver
             0 MiB given to the printing process from OS
             0 MiB allocation reported by mallinfo(arena+hblkhd)
        169765 MiB available memory on the node where the printing process lives
------------------
     ethr =  1.00E-03,  avg # of iterations =  1.5

     negative rho (up, down):  7.545E-01 0.000E+00

     total cpu time spent up to now is      111.1 secs

     total energy              =   -4400.34162086 Ry
     estimated scf accuracy    <       3.79773833 Ry

     iteration #  9     ecut=    60.00 Ry     beta= 0.15
     Davidson diagonalization with overlap

---- Real-time Memory Report at c_bands before calling an iterative solver
             0 MiB given to the printing process from OS
             0 MiB allocation reported by mallinfo(arena+hblkhd)
        169735 MiB available memory on the node where the printing process lives
------------------
     ethr =  8.94E-04,  avg # of iterations =  4.1

     negative rho (up, down):  7.758E-01 0.000E+00

     total cpu time spent up to now is      126.1 secs

     total energy              =   -4399.91196546 Ry
     estimated scf accuracy    <      44.73025368 Ry

     iteration # 10     ecut=    60.00 Ry     beta= 0.15
     Davidson diagonalization with overlap

---- Real-time Memory Report at c_bands before calling an iterative solver
             0 MiB given to the printing process from OS
             0 MiB allocation reported by mallinfo(arena+hblkhd)
        169633 MiB available memory on the node where the printing process lives
------------------
     ethr =  8.94E-04,  avg # of iterations =  9.1

     negative rho (up, down):  7.795E-01 0.000E+00

     total cpu time spent up to now is      143.6 secs

     total energy              =   -4399.74711077 Ry
     estimated scf accuracy    <      12.01835472 Ry

     iteration # 11     ecut=    60.00 Ry     beta= 0.15
     Davidson diagonalization with overlap

---- Real-time Memory Report at c_bands before calling an iterative solver
             0 MiB given to the printing process from OS
             0 MiB allocation reported by mallinfo(arena+hblkhd)
        169280 MiB available memory on the node where the printing process lives
------------------
     ethr =  8.94E-04,  avg # of iterations =  1.1

     negative rho (up, down):  7.816E-01 0.000E+00

     total cpu time spent up to now is      155.7 secs

     total energy              =   -4400.11918258 Ry
     estimated scf accuracy    <       0.96250405 Ry

     iteration # 12     ecut=    60.00 Ry     beta= 0.15
     Davidson diagonalization with overlap

---- Real-time Memory Report at c_bands before calling an iterative solver
             0 MiB given to the printing process from OS
             0 MiB allocation reported by mallinfo(arena+hblkhd)
        169279 MiB available memory on the node where the printing process lives
------------------
     ethr =  2.26E-04,  avg # of iterations =  5.2

     negative rho (up, down):  7.927E-01 0.000E+00

     total cpu time spent up to now is      171.5 secs

     total energy              =   -4400.07645480 Ry
     estimated scf accuracy    <       0.74736014 Ry

     iteration # 13     ecut=    60.00 Ry     beta= 0.15
     Davidson diagonalization with overlap

---- Real-time Memory Report at c_bands before calling an iterative solver
             0 MiB given to the printing process from OS
             0 MiB allocation reported by mallinfo(arena+hblkhd)
        169167 MiB available memory on the node where the printing process lives
------------------
     ethr =  1.76E-04,  avg # of iterations =  4.2

     negative rho (up, down):  7.977E-01 0.000E+00

     total cpu time spent up to now is      185.9 secs

     total energy              =   -4400.07906866 Ry
     estimated scf accuracy    <       1.59768839 Ry

     iteration # 14     ecut=    60.00 Ry     beta= 0.15
     Davidson diagonalization with overlap

---- Real-time Memory Report at c_bands before calling an iterative solver
             0 MiB given to the printing process from OS
             0 MiB allocation reported by mallinfo(arena+hblkhd)
        169173 MiB available memory on the node where the printing process lives
------------------
     ethr =  1.76E-04,  avg # of iterations =  3.9

     negative rho (up, down):  8.072E-01 0.000E+00

     total cpu time spent up to now is      200.1 secs

     total energy              =   -4400.02953181 Ry
     estimated scf accuracy    <       0.99602898 Ry

     iteration # 15     ecut=    60.00 Ry     beta= 0.15
     Davidson diagonalization with overlap

---- Real-time Memory Report at c_bands before calling an iterative solver
             0 MiB given to the printing process from OS
             0 MiB allocation reported by mallinfo(arena+hblkhd)
        169200 MiB available memory on the node where the printing process lives
------------------
     c_bands:  1 eigenvalues not converged
     ethr =  1.76E-04,  avg # of iterations =  7.5

     negative rho (up, down):  8.081E-01 0.000E+00

     total cpu time spent up to now is      215.8 secs

     total energy              =   -4400.05161071 Ry
     estimated scf accuracy    <       0.38957325 Ry

     iteration # 16     ecut=    60.00 Ry     beta= 0.15
     Davidson diagonalization with overlap

---- Real-time Memory Report at c_bands before calling an iterative solver
             0 MiB given to the printing process from OS
             0 MiB allocation reported by mallinfo(arena+hblkhd)
        169183 MiB available memory on the node where the printing process lives
------------------
     ethr =  9.17E-05,  avg # of iterations =  3.1

     negative rho (up, down):  8.133E-01 0.000E+00

     total cpu time spent up to now is      230.0 secs

     total energy              =   -4400.00110615 Ry
     estimated scf accuracy    <       0.32344046 Ry

     iteration # 17     ecut=    60.00 Ry     beta= 0.15
     Davidson diagonalization with overlap

---- Real-time Memory Report at c_bands before calling an iterative solver
             0 MiB given to the printing process from OS
             0 MiB allocation reported by mallinfo(arena+hblkhd)
        169194 MiB available memory on the node where the printing process lives
------------------
     c_bands:  1 eigenvalues not converged
     ethr =  7.61E-05,  avg # of iterations =  9.2

     negative rho (up, down):  8.173E-01 0.000E+00

     total cpu time spent up to now is      247.3 secs

     total energy              =   -4399.95790603 Ry
     estimated scf accuracy    <       0.24249457 Ry

     iteration # 18     ecut=    60.00 Ry     beta= 0.15
     Davidson diagonalization with overlap

---- Real-time Memory Report at c_bands before calling an iterative solver
             0 MiB given to the printing process from OS
             0 MiB allocation reported by mallinfo(arena+hblkhd)
        169200 MiB available memory on the node where the printing process lives
------------------
     ethr =  5.71E-05,  avg # of iterations =  8.9

     negative rho (up, down):  8.171E-01 0.000E+00

     total cpu time spent up to now is      265.7 secs

     total energy              =   -4399.95351424 Ry
     estimated scf accuracy    <       0.15009588 Ry

     iteration # 19     ecut=    60.00 Ry     beta= 0.15
     Davidson diagonalization with overlap

---- Real-time Memory Report at c_bands before calling an iterative solver
             0 MiB given to the printing process from OS
             0 MiB allocation reported by mallinfo(arena+hblkhd)
        169217 MiB available memory on the node where the printing process lives
------------------
     c_bands:  1 eigenvalues not converged
     ethr =  3.53E-05,  avg # of iterations =  7.6

     negative rho (up, down):  8.334E-01 0.000E+00

     total cpu time spent up to now is      281.9 secs

     total energy              =   -4399.93318122 Ry
     estimated scf accuracy    <       0.11410473 Ry

     iteration # 20     ecut=    60.00 Ry     beta= 0.15
     Davidson diagonalization with overlap

---- Real-time Memory Report at c_bands before calling an iterative solver
             0 MiB given to the printing process from OS
             0 MiB allocation reported by mallinfo(arena+hblkhd)
        169199 MiB available memory on the node where the printing process lives
------------------
     ethr =  2.68E-05,  avg # of iterations =  8.8

     negative rho (up, down):  8.304E-01 0.000E+00

     total cpu time spent up to now is      299.2 secs

     total energy              =   -4399.93319119 Ry
     estimated scf accuracy    <       0.07146478 Ry

     iteration # 21     ecut=    60.00 Ry     beta= 0.15
     Davidson diagonalization with overlap

---- Real-time Memory Report at c_bands before calling an iterative solver
             0 MiB given to the printing process from OS
             0 MiB allocation reported by mallinfo(arena+hblkhd)
        169104 MiB available memory on the node where the printing process lives
------------------
     c_bands:  1 eigenvalues not converged
     ethr =  1.68E-05,  avg # of iterations =  5.0

     negative rho (up, down):  8.286E-01 0.000E+00

     total cpu time spent up to now is      314.0 secs

     total energy              =   -4399.92720009 Ry
     estimated scf accuracy    <       0.06005667 Ry

     iteration # 22     ecut=    60.00 Ry     beta= 0.15
     Davidson diagonalization with overlap

---- Real-time Memory Report at c_bands before calling an iterative solver
             0 MiB given to the printing process from OS
             0 MiB allocation reported by mallinfo(arena+hblkhd)
        169100 MiB available memory on the node where the printing process lives
------------------
     ethr =  1.41E-05,  avg # of iterations =  7.9

     negative rho (up, down):  8.180E-01 0.000E+00

     total cpu time spent up to now is      330.6 secs

     total energy              =   -4399.92037269 Ry
     estimated scf accuracy    <       0.04516874 Ry

     iteration # 23     ecut=    60.00 Ry     beta= 0.15
     Davidson diagonalization with overlap

---- Real-time Memory Report at c_bands before calling an iterative solver
             0 MiB given to the printing process from OS
             0 MiB allocation reported by mallinfo(arena+hblkhd)
        169132 MiB available memory on the node where the printing process lives
------------------
     ethr =  1.06E-05,  avg # of iterations =  9.6

     negative rho (up, down):  7.999E-01 0.000E+00

     total cpu time spent up to now is      348.0 secs

     total energy              =   -4399.91711810 Ry
     estimated scf accuracy    <       0.02829990 Ry

     iteration # 24     ecut=    60.00 Ry     beta= 0.15
     Davidson diagonalization with overlap

---- Real-time Memory Report at c_bands before calling an iterative solver
             0 MiB given to the printing process from OS
             0 MiB allocation reported by mallinfo(arena+hblkhd)
        169095 MiB available memory on the node where the printing process lives
------------------
     c_bands:  1 eigenvalues not converged
     ethr =  6.66E-06,  avg # of iterations = 11.7

     negative rho (up, down):  7.938E-01 0.000E+00

     total cpu time spent up to now is      366.0 secs

     total energy              =   -4399.91721898 Ry
     estimated scf accuracy    <       0.01243780 Ry

     iteration # 25     ecut=    60.00 Ry     beta= 0.15
     Davidson diagonalization with overlap

---- Real-time Memory Report at c_bands before calling an iterative solver
             0 MiB given to the printing process from OS
             0 MiB allocation reported by mallinfo(arena+hblkhd)
        169067 MiB available memory on the node where the printing process lives
------------------
     ethr =  2.93E-06,  avg # of iterations =  6.8

     negative rho (up, down):  7.909E-01 0.000E+00

     total cpu time spent up to now is      381.9 secs

     total energy              =   -4399.91687772 Ry
     estimated scf accuracy    <       0.00832110 Ry

     iteration # 26     ecut=    60.00 Ry     beta= 0.15
     Davidson diagonalization with overlap

---- Real-time Memory Report at c_bands before calling an iterative solver
             0 MiB given to the printing process from OS
             0 MiB allocation reported by mallinfo(arena+hblkhd)
        169039 MiB available memory on the node where the printing process lives
------------------
     ethr =  1.96E-06,  avg # of iterations =  3.5

     negative rho (up, down):  7.930E-01 0.000E+00

     total cpu time spent up to now is      396.0 secs

     total energy              =   -4399.91564487 Ry
     estimated scf accuracy    <       0.00596038 Ry

     iteration # 27     ecut=    60.00 Ry     beta= 0.15
     Davidson diagonalization with overlap

---- Real-time Memory Report at c_bands before calling an iterative solver
             0 MiB given to the printing process from OS
             0 MiB allocation reported by mallinfo(arena+hblkhd)
        169051 MiB available memory on the node where the printing process lives
------------------
     ethr =  1.40E-06,  avg # of iterations = 12.6

     negative rho (up, down):  7.955E-01 0.000E+00

     total cpu time spent up to now is      415.7 secs

     total energy              =   -4399.91597592 Ry
     estimated scf accuracy    <       0.00146730 Ry

     iteration # 28     ecut=    60.00 Ry     beta= 0.15
     Davidson diagonalization with overlap

---- Real-time Memory Report at c_bands before calling an iterative solver
             0 MiB given to the printing process from OS
             0 MiB allocation reported by mallinfo(arena+hblkhd)
        168992 MiB available memory on the node where the printing process lives
------------------
     c_bands:  1 eigenvalues not converged
     c_bands:  1 eigenvalues not converged
     ethr =  3.45E-07,  avg # of iterations = 12.8

     negative rho (up, down):  7.961E-01 0.000E+00

     total cpu time spent up to now is      437.5 secs

     total energy              =   -4399.91615098 Ry
     estimated scf accuracy    <       0.00061023 Ry

     iteration # 29     ecut=    60.00 Ry     beta= 0.15
     Davidson diagonalization with overlap

---- Real-time Memory Report at c_bands before calling an iterative solver
             0 MiB given to the printing process from OS
             0 MiB allocation reported by mallinfo(arena+hblkhd)
        168789 MiB available memory on the node where the printing process lives
------------------
     ethr =  1.44E-07,  avg # of iterations =  2.0

     negative rho (up, down):  7.952E-01 0.000E+00

     total cpu time spent up to now is      450.8 secs

     total energy              =   -4399.91614806 Ry
     estimated scf accuracy    <       0.00033864 Ry

     iteration # 30     ecut=    60.00 Ry     beta= 0.15
     Davidson diagonalization with overlap

---- Real-time Memory Report at c_bands before calling an iterative solver
             0 MiB given to the printing process from OS
             0 MiB allocation reported by mallinfo(arena+hblkhd)
        168845 MiB available memory on the node where the printing process lives
------------------
     ethr =  7.97E-08,  avg # of iterations =  2.9

     negative rho (up, down):  7.944E-01 0.000E+00

     total cpu time spent up to now is      464.6 secs

     total energy              =   -4399.91613065 Ry
     estimated scf accuracy    <       0.00021734 Ry

     iteration # 31     ecut=    60.00 Ry     beta= 0.15
     Davidson diagonalization with overlap

---- Real-time Memory Report at c_bands before calling an iterative solver
             0 MiB given to the printing process from OS
             0 MiB allocation reported by mallinfo(arena+hblkhd)
        168845 MiB available memory on the node where the printing process lives
------------------
     ethr =  5.11E-08,  avg # of iterations =  2.0

     negative rho (up, down):  7.939E-01 0.000E+00

     total cpu time spent up to now is      478.1 secs

     total energy              =   -4399.91613040 Ry
     estimated scf accuracy    <       0.00010710 Ry

     iteration # 32     ecut=    60.00 Ry     beta= 0.15
     Davidson diagonalization with overlap

---- Real-time Memory Report at c_bands before calling an iterative solver
             0 MiB given to the printing process from OS
             0 MiB allocation reported by mallinfo(arena+hblkhd)
        168849 MiB available memory on the node where the printing process lives
------------------
     ethr =  2.52E-08,  avg # of iterations =  2.2

     negative rho (up, down):  7.928E-01 0.000E+00

     total cpu time spent up to now is      491.7 secs

     total energy              =   -4399.91613302 Ry
     estimated scf accuracy    <       0.00005895 Ry

     iteration # 33     ecut=    60.00 Ry     beta= 0.15
     Davidson diagonalization with overlap

---- Real-time Memory Report at c_bands before calling an iterative solver
             0 MiB given to the printing process from OS
             0 MiB allocation reported by mallinfo(arena+hblkhd)
        168862 MiB available memory on the node where the printing process lives
------------------
     ethr =  1.39E-08,  avg # of iterations =  2.7

     negative rho (up, down):  7.925E-01 0.000E+00

     total cpu time spent up to now is      505.4 secs

     total energy              =   -4399.91613546 Ry
     estimated scf accuracy    <       0.00002487 Ry

     iteration # 34     ecut=    60.00 Ry     beta= 0.15
     Davidson diagonalization with overlap

---- Real-time Memory Report at c_bands before calling an iterative solver
             0 MiB given to the printing process from OS
             0 MiB allocation reported by mallinfo(arena+hblkhd)
        168881 MiB available memory on the node where the printing process lives
------------------
     ethr =  5.85E-09,  avg # of iterations =  2.3

     negative rho (up, down):  7.923E-01 0.000E+00

     total cpu time spent up to now is      519.2 secs

     total energy              =   -4399.91613624 Ry
     estimated scf accuracy    <       0.00001246 Ry

     iteration # 35     ecut=    60.00 Ry     beta= 0.15
     Davidson diagonalization with overlap

---- Real-time Memory Report at c_bands before calling an iterative solver
             0 MiB given to the printing process from OS
             0 MiB allocation reported by mallinfo(arena+hblkhd)
        168883 MiB available memory on the node where the printing process lives
------------------
     ethr =  2.93E-09,  avg # of iterations =  3.3

     negative rho (up, down):  7.922E-01 0.000E+00

     total cpu time spent up to now is      533.6 secs

     total energy              =   -4399.91613542 Ry
     estimated scf accuracy    <       0.00000818 Ry

     iteration # 36     ecut=    60.00 Ry     beta= 0.15
     Davidson diagonalization with overlap

---- Real-time Memory Report at c_bands before calling an iterative solver
             0 MiB given to the printing process from OS
             0 MiB allocation reported by mallinfo(arena+hblkhd)
        168868 MiB available memory on the node where the printing process lives
------------------
     ethr =  1.92E-09,  avg # of iterations =  3.7

     negative rho (up, down):  7.922E-01 0.000E+00

     total cpu time spent up to now is      547.9 secs

     total energy              =   -4399.91613570 Ry
     estimated scf accuracy    <       0.00000469 Ry

     iteration # 37     ecut=    60.00 Ry     beta= 0.15
     Davidson diagonalization with overlap

---- Real-time Memory Report at c_bands before calling an iterative solver
             0 MiB given to the printing process from OS
             0 MiB allocation reported by mallinfo(arena+hblkhd)
        168864 MiB available memory on the node where the printing process lives
------------------
     ethr =  1.10E-09,  avg # of iterations =  2.2

     negative rho (up, down):  7.922E-01 0.000E+00

     total cpu time spent up to now is      561.6 secs

     total energy              =   -4399.91613579 Ry
     estimated scf accuracy    <       0.00000465 Ry

     iteration # 38     ecut=    60.00 Ry     beta= 0.15
     Davidson diagonalization with overlap

---- Real-time Memory Report at c_bands before calling an iterative solver
             0 MiB given to the printing process from OS
             0 MiB allocation reported by mallinfo(arena+hblkhd)
        168865 MiB available memory on the node where the printing process lives
------------------
     ethr =  1.09E-09,  avg # of iterations =  2.1

     negative rho (up, down):  7.922E-01 0.000E+00

     total cpu time spent up to now is      575.2 secs

     total energy              =   -4399.91613674 Ry
     estimated scf accuracy    <       0.00000412 Ry

     iteration # 39     ecut=    60.00 Ry     beta= 0.15
     Davidson diagonalization with overlap

---- Real-time Memory Report at c_bands before calling an iterative solver
             0 MiB given to the printing process from OS
             0 MiB allocation reported by mallinfo(arena+hblkhd)
        168870 MiB available memory on the node where the printing process lives
------------------
     ethr =  9.70E-10,  avg # of iterations =  1.9

     negative rho (up, down):  7.923E-01 0.000E+00

     total cpu time spent up to now is      588.7 secs

     total energy              =   -4399.91613957 Ry
     estimated scf accuracy    <       0.00000368 Ry

     iteration # 40     ecut=    60.00 Ry     beta= 0.15
     Davidson diagonalization with overlap

---- Real-time Memory Report at c_bands before calling an iterative solver
             0 MiB given to the printing process from OS
             0 MiB allocation reported by mallinfo(arena+hblkhd)
        168866 MiB available memory on the node where the printing process lives
------------------
     ethr =  8.67E-10,  avg # of iterations =  3.3

     negative rho (up, down):  7.924E-01 0.000E+00

     total cpu time spent up to now is      602.8 secs

     total energy              =   -4399.91614020 Ry
     estimated scf accuracy    <       0.00000223 Ry

     iteration # 41     ecut=    60.00 Ry     beta= 0.15
     Davidson diagonalization with overlap

---- Real-time Memory Report at c_bands before calling an iterative solver
             0 MiB given to the printing process from OS
             0 MiB allocation reported by mallinfo(arena+hblkhd)
        168860 MiB available memory on the node where the printing process lives
------------------
     ethr =  5.25E-10,  avg # of iterations =  2.8

     negative rho (up, down):  7.925E-01 0.000E+00

     total cpu time spent up to now is      616.8 secs

     total energy              =   -4399.91614028 Ry
     estimated scf accuracy    <       0.00000180 Ry

     iteration # 42     ecut=    60.00 Ry     beta= 0.15
     Davidson diagonalization with overlap

---- Real-time Memory Report at c_bands before calling an iterative solver
             0 MiB given to the printing process from OS
             0 MiB allocation reported by mallinfo(arena+hblkhd)
        168862 MiB available memory on the node where the printing process lives
------------------
     ethr =  4.25E-10,  avg # of iterations =  2.3

     negative rho (up, down):  7.925E-01 0.000E+00

     total cpu time spent up to now is      630.5 secs

     total energy              =   -4399.91614014 Ry
     estimated scf accuracy    <       0.00000141 Ry

     iteration # 43     ecut=    60.00 Ry     beta= 0.15
     Davidson diagonalization with overlap

---- Real-time Memory Report at c_bands before calling an iterative solver
             0 MiB given to the printing process from OS
             0 MiB allocation reported by mallinfo(arena+hblkhd)
        168860 MiB available memory on the node where the printing process lives
------------------
     ethr =  3.32E-10,  avg # of iterations =  2.8

     negative rho (up, down):  7.925E-01 0.000E+00

     total cpu time spent up to now is      644.3 secs

     total energy              =   -4399.91614033 Ry
     estimated scf accuracy    <       0.00000094 Ry

     iteration # 44     ecut=    60.00 Ry     beta= 0.15
     Davidson diagonalization with overlap

---- Real-time Memory Report at c_bands before calling an iterative solver
             0 MiB given to the printing process from OS
             0 MiB allocation reported by mallinfo(arena+hblkhd)
        168864 MiB available memory on the node where the printing process lives
------------------
     ethr =  2.20E-10,  avg # of iterations =  2.2

     negative rho (up, down):  7.925E-01 0.000E+00

     total cpu time spent up to now is      658.5 secs

     total energy              =   -4399.91614022 Ry
     estimated scf accuracy    <       0.00000049 Ry

     iteration # 45     ecut=    60.00 Ry     beta= 0.15
     Davidson diagonalization with overlap

---- Real-time Memory Report at c_bands before calling an iterative solver
             0 MiB given to the printing process from OS
             0 MiB allocation reported by mallinfo(arena+hblkhd)
        168865 MiB available memory on the node where the printing process lives
------------------
     ethr =  1.15E-10,  avg # of iterations =  2.4

     negative rho (up, down):  7.924E-01 0.000E+00

     total cpu time spent up to now is      672.2 secs

     total energy              =   -4399.91614054 Ry
     estimated scf accuracy    <       0.00000026 Ry

     iteration # 46     ecut=    60.00 Ry     beta= 0.15
     Davidson diagonalization with overlap

---- Real-time Memory Report at c_bands before calling an iterative solver
             0 MiB given to the printing process from OS
             0 MiB allocation reported by mallinfo(arena+hblkhd)
        168873 MiB available memory on the node where the printing process lives
------------------
     ethr =  6.00E-11,  avg # of iterations =  3.4

     negative rho (up, down):  7.924E-01 0.000E+00

     total cpu time spent up to now is      686.5 secs

     total energy              =   -4399.91614059 Ry
     estimated scf accuracy    <       0.00000015 Ry

     iteration # 47     ecut=    60.00 Ry     beta= 0.15
     Davidson diagonalization with overlap

---- Real-time Memory Report at c_bands before calling an iterative solver
             0 MiB given to the printing process from OS
             0 MiB allocation reported by mallinfo(arena+hblkhd)
        168877 MiB available memory on the node where the printing process lives
------------------
     ethr =  3.46E-11,  avg # of iterations =  2.7

     negative rho (up, down):  7.924E-01 0.000E+00

     total cpu time spent up to now is      700.2 secs

     total energy              =   -4399.91614062 Ry
     estimated scf accuracy    <       0.00000005 Ry

     iteration # 48     ecut=    60.00 Ry     beta= 0.15
     Davidson diagonalization with overlap

---- Real-time Memory Report at c_bands before calling an iterative solver
             0 MiB given to the printing process from OS
             0 MiB allocation reported by mallinfo(arena+hblkhd)
        168892 MiB available memory on the node where the printing process lives
------------------
     ethr =  1.24E-11,  avg # of iterations =  3.6

     negative rho (up, down):  7.924E-01 0.000E+00

     total cpu time spent up to now is      714.6 secs

     total energy              =   -4399.91614066 Ry
     estimated scf accuracy    <       0.00000003 Ry

     iteration # 49     ecut=    60.00 Ry     beta= 0.15
     Davidson diagonalization with overlap

---- Real-time Memory Report at c_bands before calling an iterative solver
             0 MiB given to the printing process from OS
             0 MiB allocation reported by mallinfo(arena+hblkhd)
        168883 MiB available memory on the node where the printing process lives
------------------
     ethr =  6.68E-12,  avg # of iterations =  3.5

     negative rho (up, down):  7.924E-01 0.000E+00

     total cpu time spent up to now is      728.9 secs

     total energy              =   -4399.91614067 Ry
     estimated scf accuracy    <       0.00000002 Ry

     iteration # 50     ecut=    60.00 Ry     beta= 0.15
     Davidson diagonalization with overlap

---- Real-time Memory Report at c_bands before calling an iterative solver
             0 MiB given to the printing process from OS
             0 MiB allocation reported by mallinfo(arena+hblkhd)
        168898 MiB available memory on the node where the printing process lives
------------------
     ethr =  3.80E-12,  avg # of iterations =  2.9

     negative rho (up, down):  7.924E-01 0.000E+00

     total cpu time spent up to now is      742.5 secs

     End of self-consistent calculation

          k = 0.0000 0.0000 0.0000 ( 65197 PWs)   bands (ev):

   -92.7193 -92.6660 -92.5732 -92.5259 -92.4628 -92.4265 -92.4081 -92.2843
   -56.0727 -56.0528 -55.9306 -55.9200 -55.9125 -55.9068 -55.8690 -55.8425
   -55.8266 -55.8262 -55.8179 -55.7718 -55.7577 -55.7160 -55.6996 -55.6615
   -55.6593 -55.6139 -55.6117 -55.6114 -55.6030 -55.5586 -55.5386 -55.4508
   -31.2954 -31.2762 -31.1339 -31.1106 -31.0474 -30.9602 -30.9101 -30.7990
   -29.8675 -29.8247 -29.7981 -29.6900 -15.1000 -15.0607 -14.9766 -14.8458
   -14.6570 -14.5330 -14.2384 -14.2212 -14.1898 -14.1447 -14.0991 -14.0898
   -14.0795 -14.0599 -14.0434 -13.9987 -13.9500 -13.7990 -13.6231 -13.5861
   -13.5558 -13.5272 -13.5083 -13.4527 -13.4191 -13.3398 -13.2686 -13.1587
   -13.1283 -13.1226 -13.1004 -13.0930 -13.0744 -13.0343 -13.0184 -13.0090
   -12.9717 -12.9416 -12.9271 -12.9155 -12.8932 -12.8700 -12.8257 -12.8038
   -12.7929 -12.7362 -12.7006 -12.6814 -12.3599 -12.2145 -12.0674 -11.9919
   -11.8812 -11.8070 -11.7956 -11.7735 -11.7557 -11.6919 -11.6744 -11.6400
   -11.6107 -11.4993 -11.4192 -11.4155  -2.9611  -2.7285  -2.4985  -2.3527
    -2.2889  -2.1465  -1.8395  -1.8253  -1.8053  -1.7222  -1.7028  -1.6339
    -1.6178  -1.5749  -1.5333  -1.3515  -1.1284  -1.0971  -0.9495  -0.9355
    -0.8912  -0.8715  -0.8261  -0.8105  -0.7534  -0.7261  -0.6534  -0.6444
    -0.5658  -0.4342  -0.4214  -0.3934  -0.3122  -0.2978  -0.2853  -0.2226
    -0.1483  -0.1011  -0.0536  -0.0275   0.0387   0.1055   0.1612   0.1780
     0.1943   0.4499   0.4652   0.6355   0.7047   0.7694   0.8082   0.9020
     0.9148   0.9287   1.0024   1.0293   1.0628   1.1224   1.2544   1.3105
     1.3312   1.3507   1.3665   1.4295   1.5029   1.6070   1.6181   1.6809
     1.6963   1.7389   1.7536   1.7632   1.8154   1.8714   1.8859   1.9173
     1.9461   2.0061   2.1366   2.2274   2.2659   2.2742   2.4308   2.4443
     2.4938   2.4973   2.5988   2.6371   2.6604   2.6811   2.6969   2.7545
     2.7877   2.8910   2.9203   2.9346   2.9392   3.0063   3.0122   3.0359
     3.0427   3.0521   3.0608   3.0711   3.0832   3.0932   3.1024   3.1103
     3.1225   3.1382   3.1592   3.1644   3.1766   3.2157   3.3202   3.4220
     4.0950   4.4089   4.7494   4.8621   5.0308   5.8582   5.9517   5.9805
     5.9830   6.2959   6.3428   6.4765   6.4850   6.7380   6.9992   7.0886
     7.1423   7.2514   7.2985   7.5946   7.6393   7.6599   7.6737   7.9266
     8.0539   8.0961   8.1064   8.1758   8.4266   8.6375   8.7353   8.8452

     occupation numbers 
     1.0000   1.0000   1.0000   1.0000   1.0000   1.0000   1.0000   1.0000
     1.0000   1.0000   1.0000   1.0000   1.0000   1.0000   1.0000   1.0000
     1.0000   1.0000   1.0000   1.0000   1.0000   1.0000   1.0000   1.0000
     1.0000   1.0000   1.0000   1.0000   1.0000   1.0000   1.0000   1.0000
     1.0000   1.0000   1.0000   1.0000   1.0000   1.0000   1.0000   1.0000
     1.0000   1.0000   1.0000   1.0000   1.0000   1.0000   1.0000   1.0000
     1.0000   1.0000   1.0000   1.0000   1.0000   1.0000   1.0000   1.0000
     1.0000   1.0000   1.0000   1.0000   1.0000   1.0000   1.0000   1.0000
     1.0000   1.0000   1.0000   1.0000   1.0000   1.0000   1.0000   1.0000
     1.0000   1.0000   1.0000   1.0000   1.0000   1.0000   1.0000   1.0000
     1.0000   1.0000   1.0000   1.0000   1.0000   1.0000   1.0000   1.0000
     1.0000   1.0000   1.0000   1.0000   1.0000   1.0000   1.0000   1.0000
     1.0000   1.0000   1.0000   1.0000   1.0000   1.0000   1.0000   1.0000
     1.0000   1.0000   1.0000   1.0000   1.0000   1.0000   1.0000   1.0000
     1.0000   1.0000   1.0000   1.0000   1.0000   1.0000   1.0000   1.0000
     1.0000   1.0000   1.0000   1.0000   1.0000   1.0000   1.0000   1.0000
     1.0000   1.0000   1.0000   1.0000   1.0000   1.0000   1.0000   1.0000
     1.0000   1.0000   1.0000   1.0000   1.0000   1.0000   1.0000   1.0000
     1.0000   1.0000   1.0000   1.0000   1.0000   1.0000   1.0000   1.0000
     1.0000   1.0000   1.0000   1.0000   0.9999   0.9999   0.9999   0.9998
     0.9998   0.9998   0.9997   0.9996   0.9996   0.9994   0.9989   0.9985
     0.9983   0.9982   0.9980   0.9974   0.9963   0.9942   0.9940   0.9922
     0.9917   0.9901   0.9895   0.9891   0.9867   0.9836   0.9827   0.9806
     0.9785   0.9734   0.9591   0.9458   0.9392   0.9377   0.9037   0.9003
     0.8868   0.8858   0.8539   0.8405   0.8320   0.8242   0.8180   0.7946
     0.7803   0.7323   0.7178   0.7105   0.7082   0.6731   0.6699   0.6571
     0.6534   0.6482   0.6434   0.6377   0.6309   0.6253   0.6201   0.6156
     0.6087   0.5997   0.5876   0.5846   0.5775   0.5547   0.4930   0.4330
     0.1214   0.0511   0.0162   0.0105   0.0053   0.0001   0.0000   0.0000
     0.0000   0.0000   0.0000   0.0000   0.0000   0.0000   0.0000   0.0000
     0.0000   0.0000   0.0000   0.0000   0.0000   0.0000   0.0000   0.0000
     0.0000   0.0000   0.0000   0.0000   0.0000   0.0000   0.0000   0.0000

          k = 0.0000 0.2500 0.0000 ( 65257 PWs)   bands (ev):

   -92.7193 -92.6660 -92.5732 -92.5259 -92.4628 -92.4265 -92.4081 -92.2843
   -56.0727 -56.0528 -55.9306 -55.9200 -55.9125 -55.9068 -55.8690 -55.8425
   -55.8266 -55.8262 -55.8179 -55.7718 -55.7577 -55.7160 -55.6996 -55.6615
   -55.6593 -55.6139 -55.6117 -55.6114 -55.6030 -55.5586 -55.5386 -55.4508
   -31.2952 -31.2760 -31.1341 -31.1105 -31.0475 -30.9600 -30.9103 -30.7992
   -29.8669 -29.8244 -29.7987 -29.6903 -15.0631 -15.0346 -14.9515 -14.8166
   -14.6975 -14.5232 -14.3846 -14.2043 -14.1727 -14.1498 -14.1204 -14.0638
   -14.0542 -14.0427 -14.0263 -13.9746 -13.8693 -13.8303 -13.6661 -13.6471
   -13.5973 -13.5616 -13.5195 -13.4710 -13.4246 -13.3614 -13.3256 -13.2699
   -13.2100 -13.1655 -13.1271 -13.1152 -13.0872 -13.0047 -12.9795 -12.9520
   -12.9371 -12.9172 -12.8967 -12.8855 -12.8688 -12.8170 -12.8036 -12.7490
   -12.7355 -12.7098 -12.6268 -12.5500 -12.4213 -12.2657 -12.1230 -12.0576
   -11.8467 -11.8038 -11.7759 -11.7475 -11.7310 -11.6838 -11.6724 -11.6497
   -11.6160 -11.5135 -11.4607 -11.4502  -2.8258  -2.6041  -2.4664  -2.2846
    -2.2410  -2.0770  -1.8581  -1.7730  -1.7598  -1.7033  -1.5978  -1.5845
    -1.5514  -1.5238  -1.4802  -1.2826  -1.1534  -1.1422  -1.0663  -1.0558
    -0.9514  -0.9205  -0.8632  -0.8384  -0.7970  -0.7342  -0.7076  -0.6750
    -0.6433  -0.6269  -0.5938  -0.5191  -0.4690  -0.4065  -0.2891  -0.2725
    -0.2300  -0.1081  -0.0708  -0.0195   0.0369   0.0833   0.1093   0.1404
     0.2005   0.4967   0.5852   0.6198   0.7019   0.7454   0.7687   0.8867
     0.9059   1.0031   1.0284   1.0563   1.1698   1.2625   1.2872   1.3111
     1.3266   1.3540   1.4152   1.4414   1.4707   1.5175   1.5513   1.5807
     1.6679   1.6979   1.7306   1.7847   1.8405   1.8831   1.9053   1.9285
     1.9513   2.0377   2.1798   2.2458   2.2606   2.3396   2.3851   2.4277
     2.4341   2.4941   2.5356   2.6158   2.6544   2.6724   2.7707   2.8464
     2.8759   2.9035   2.9270   2.9392   2.9482   2.9566   2.9647   2.9946
     2.9969   3.0144   3.0203   3.0291   3.0487   3.0610   3.0707   3.0894
     3.1016   3.1066   3.1400   3.1567   3.2188   3.5958   3.6376   3.8586
     4.2845   4.4017   4.6963   5.0223   5.0478   5.6305   5.7761   5.9386
     5.9952   6.0767   6.0868   6.1747   6.5918   6.8676   6.9271   7.1038
     7.2822   7.3217   7.4713   7.4890   7.6321   7.7666   7.8773   7.9627
     8.0354   8.1122   8.1698   8.2826   8.3967   8.5193   8.7692   8.8840

     occupation numbers 
     1.0000   1.0000   1.0000   1.0000   1.0000   1.0000   1.0000   1.0000
     1.0000   1.0000   1.0000   1.0000   1.0000   1.0000   1.0000   1.0000
     1.0000   1.0000   1.0000   1.0000   1.0000   1.0000   1.0000   1.0000
     1.0000   1.0000   1.0000   1.0000   1.0000   1.0000   1.0000   1.0000
     1.0000   1.0000   1.0000   1.0000   1.0000   1.0000   1.0000   1.0000
     1.0000   1.0000   1.0000   1.0000   1.0000   1.0000   1.0000   1.0000
     1.0000   1.0000   1.0000   1.0000   1.0000   1.0000   1.0000   1.0000
     1.0000   1.0000   1.0000   1.0000   1.0000   1.0000   1.0000   1.0000
     1.0000   1.0000   1.0000   1.0000   1.0000   1.0000   1.0000   1.0000
     1.0000   1.0000   1.0000   1.0000   1.0000   1.0000   1.0000   1.0000
     1.0000   1.0000   1.0000   1.0000   1.0000   1.0000   1.0000   1.0000
     1.0000   1.0000   1.0000   1.0000   1.0000   1.0000   1.0000   1.0000
     1.0000   1.0000   1.0000   1.0000   1.0000   1.0000   1.0000   1.0000
     1.0000   1.0000   1.0000   1.0000   1.0000   1.0000   1.0000   1.0000
     1.0000   1.0000   1.0000   1.0000   1.0000   1.0000   1.0000   1.0000
     1.0000   1.0000   1.0000   1.0000   1.0000   1.0000   1.0000   1.0000
     1.0000   1.0000   1.0000   1.0000   1.0000   1.0000   1.0000   1.0000
     1.0000   1.0000   1.0000   1.0000   1.0000   1.0000   1.0000   1.0000
     1.0000   1.0000   1.0000   1.0000   1.0000   1.0000   1.0000   1.0000
     1.0000   1.0000   1.0000   1.0000   0.9999   0.9999   0.9999   0.9998
     0.9998   0.9997   0.9996   0.9996   0.9993   0.9988   0.9987   0.9985
     0.9984   0.9981   0.9975   0.9972   0.9968   0.9961   0.9955   0.9948
     0.9926   0.9916   0.9904   0.9882   0.9854   0.9828   0.9814   0.9798
     0.9780   0.9704   0.9531   0.9427   0.9401   0.9248   0.9148   0.9045
     0.9029   0.8867   0.8744   0.8481   0.8342   0.8275   0.7876   0.7536
     0.7396   0.7261   0.7144   0.7082   0.7036   0.6993   0.6950   0.6793
     0.6781   0.6687   0.6656   0.6608   0.6501   0.6433   0.6379   0.6274
     0.6206   0.6177   0.5987   0.5891   0.5529   0.3347   0.3124   0.2069
     0.0736   0.0522   0.0197   0.0055   0.0049   0.0003   0.0001   0.0000
     0.0000   0.0000   0.0000   0.0000   0.0000   0.0000   0.0000   0.0000
     0.0000   0.0000   0.0000   0.0000   0.0000   0.0000   0.0000   0.0000
     0.0000   0.0000   0.0000   0.0000   0.0000   0.0000   0.0000   0.0000

          k = 0.0000-0.5000 0.0000 ( 65180 PWs)   bands (ev):

   -92.7193 -92.6660 -92.5732 -92.5259 -92.4628 -92.4265 -92.4081 -92.2843
   -56.0727 -56.0528 -55.9306 -55.9200 -55.9125 -55.9068 -55.8690 -55.8425
   -55.8266 -55.8262 -55.8179 -55.7718 -55.7577 -55.7160 -55.6996 -55.6615
   -55.6593 -55.6139 -55.6117 -55.6114 -55.6030 -55.5586 -55.5386 -55.4508
   -31.2950 -31.2759 -31.1343 -31.1104 -31.0476 -30.9598 -30.9104 -30.7994
   -29.8663 -29.8241 -29.7994 -29.6906 -15.0297 -14.9816 -14.9278 -14.8022
   -14.7139 -14.5800 -14.4235 -14.3076 -14.1757 -14.1072 -14.0621 -14.0562
   -14.0058 -13.9897 -13.9415 -13.9226 -13.8966 -13.8631 -13.8298 -13.7841
   -13.6013 -13.5441 -13.5267 -13.4750 -13.4094 -13.3772 -13.3473 -13.3027
   -13.3008 -13.2353 -13.1282 -13.1162 -13.0785 -12.9868 -12.9810 -12.9711
   -12.9463 -12.9018 -12.8948 -12.8658 -12.7964 -12.7452 -12.7239 -12.7218
   -12.7082 -12.6695 -12.5322 -12.4877 -12.3441 -12.3406 -12.2210 -12.1770
   -11.8008 -11.7983 -11.7710 -11.7331 -11.6988 -11.6878 -11.6460 -11.6418
   -11.5978 -11.5349 -11.5212 -11.5073  -2.6107  -2.5524  -2.4009  -2.3288
    -2.0469  -1.9645  -1.8359  -1.6990  -1.6621  -1.6415  -1.5643  -1.5325
    -1.4504  -1.4155  -1.3377  -1.2979  -1.2593  -1.2323  -1.1754  -1.1370
    -1.0917  -1.0552  -1.0212  -0.9888  -0.8771  -0.8328  -0.7978  -0.7963
    -0.7103  -0.6795  -0.6564  -0.6099  -0.5228  -0.4483  -0.3656  -0.3398
    -0.2202  -0.1939  -0.0489  -0.0170   0.0208   0.0579   0.1802   0.2534
     0.3731   0.4404   0.4492   0.5774   0.6281   0.7085   0.8582   0.9593
     0.9923   1.0328   1.0402   1.0709   1.0932   1.1289   1.1452   1.1592
     1.2694   1.3270   1.3531   1.3758   1.6470   1.6707   1.7011   1.7848
     1.8080   1.8518   1.8685   1.8926   1.9043   1.9184   1.9404   1.9815
     2.0080   2.0332   2.0473   2.0762   2.1314   2.2153   2.2575   2.4171
     2.5782   2.5848   2.6073   2.6500   2.6517   2.6633   2.7081   2.7241
     2.7802   2.7989   2.8035   2.8777   2.8928   2.9633   2.9668   2.9932
     2.9937   3.0110   3.0143   3.0180   3.0251   3.0326   3.0477   3.0592
     3.0705   3.1260   3.1301   3.1465   3.2104   4.0997   4.1197   4.2020
     4.2438   4.7091   4.9028   5.0112   5.1490   5.4070   5.4537   5.5686
     5.7088   6.0009   6.0278   6.0794   6.6924   6.8432   6.9497   7.2114
     7.2951   7.3825   7.4270   7.4932   7.6561   7.7384   7.8614   7.8977
     8.1527   8.2359   8.3606   8.4823   8.6548   8.7398   8.7918   8.8151

     occupation numbers 
     1.0000   1.0000   1.0000   1.0000   1.0000   1.0000   1.0000   1.0000
     1.0000   1.0000   1.0000   1.0000   1.0000   1.0000   1.0000   1.0000
     1.0000   1.0000   1.0000   1.0000   1.0000   1.0000   1.0000   1.0000
     1.0000   1.0000   1.0000   1.0000   1.0000   1.0000   1.0000   1.0000
     1.0000   1.0000   1.0000   1.0000   1.0000   1.0000   1.0000   1.0000
     1.0000   1.0000   1.0000   1.0000   1.0000   1.0000   1.0000   1.0000
     1.0000   1.0000   1.0000   1.0000   1.0000   1.0000   1.0000   1.0000
     1.0000   1.0000   1.0000   1.0000   1.0000   1.0000   1.0000   1.0000
     1.0000   1.0000   1.0000   1.0000   1.0000   1.0000   1.0000   1.0000
     1.0000   1.0000   1.0000   1.0000   1.0000   1.0000   1.0000   1.0000
     1.0000   1.0000   1.0000   1.0000   1.0000   1.0000   1.0000   1.0000
     1.0000   1.0000   1.0000   1.0000   1.0000   1.0000   1.0000   1.0000
     1.0000   1.0000   1.0000   1.0000   1.0000   1.0000   1.0000   1.0000
     1.0000   1.0000   1.0000   1.0000   1.0000   1.0000   1.0000   1.0000
     1.0000   1.0000   1.0000   1.0000   1.0000   1.0000   1.0000   1.0000
     1.0000   1.0000   1.0000   1.0000   1.0000   1.0000   1.0000   1.0000
     1.0000   1.0000   1.0000   1.0000   1.0000   1.0000   1.0000   1.0000
     1.0000   1.0000   1.0000   1.0000   1.0000   1.0000   1.0000   1.0000
     1.0000   1.0000   1.0000   1.0000   1.0000   1.0000   1.0000   1.0000
     1.0000   1.0000   1.0000   1.0000   1.0000   0.9999   0.9999   0.9998
     0.9997   0.9996   0.9996   0.9996   0.9995   0.9994   0.9993   0.9993
     0.9988   0.9984   0.9982   0.9979   0.9932   0.9925   0.9915   0.9882
     0.9871   0.9847   0.9837   0.9822   0.9815   0.9805   0.9789   0.9756
     0.9732   0.9709   0.9694   0.9663   0.9597   0.9477   0.9407   0.9071
     0.8608   0.8587   0.8510   0.8358   0.8352   0.8309   0.8136   0.8072
     0.7836   0.7753   0.7733   0.7387   0.7314   0.6958   0.6940   0.6801
     0.6798   0.6706   0.6688   0.6668   0.6630   0.6589   0.6506   0.6442
     0.6380   0.6067   0.6043   0.5949   0.5578   0.1200   0.1141   0.0923
     0.0824   0.0188   0.0090   0.0057   0.0031   0.0009   0.0007   0.0004
     0.0002   0.0000   0.0000   0.0000   0.0000   0.0000   0.0000   0.0000
     0.0000   0.0000   0.0000   0.0000   0.0000   0.0000   0.0000   0.0000
     0.0000   0.0000   0.0000   0.0000   0.0000   0.0000   0.0000   0.0000

          k = 0.2500 0.2500 0.0000 ( 65198 PWs)   bands (ev):

   -92.7193 -92.6660 -92.5732 -92.5259 -92.4628 -92.4265 -92.4081 -92.2843
   -56.0727 -56.0528 -55.9306 -55.9200 -55.9125 -55.9068 -55.8690 -55.8425
   -55.8266 -55.8262 -55.8179 -55.7718 -55.7577 -55.7160 -55.6996 -55.6615
   -55.6593 -55.6139 -55.6117 -55.6114 -55.6030 -55.5586 -55.5386 -55.4508
   -31.2935 -31.2778 -31.1337 -31.1103 -31.0479 -30.9602 -30.9100 -30.7995
   -29.8660 -29.8254 -29.7983 -29.6907 -15.0348 -14.9996 -14.9235 -14.8062
   -14.6892 -14.5640 -14.4897 -14.2855 -14.1273 -14.1152 -14.0797 -14.0508
   -14.0262 -14.0024 -13.9713 -13.9364 -13.8604 -13.8443 -13.6810 -13.6685
   -13.6389 -13.6191 -13.5745 -13.5286 -13.4523 -13.4436 -13.3351 -13.3005
   -13.2471 -13.1606 -13.1199 -13.0737 -13.0494 -13.0366 -12.9918 -12.9648
   -12.9400 -12.9258 -12.8923 -12.8431 -12.8092 -12.7865 -12.7618 -12.7373
   -12.7298 -12.7259 -12.5474 -12.4697 -12.4357 -12.2948 -12.1562 -12.1047
   -11.8189 -11.7873 -11.7764 -11.7690 -11.7071 -11.6717 -11.6653 -11.6299
   -11.6219 -11.5302 -11.4889 -11.4717  -2.6876  -2.4784  -2.3602  -2.2670
    -2.1454  -2.0804  -1.8830  -1.7381  -1.7183  -1.6900  -1.5927  -1.5615
    -1.4672  -1.4398  -1.3892  -1.2580  -1.2104  -1.1376  -1.0926  -1.0480
    -1.0244  -0.9996  -0.9571  -0.9421  -0.8517  -0.8015  -0.7363  -0.6874
    -0.6568  -0.6071  -0.5946  -0.5311  -0.4810  -0.4258  -0.3900  -0.3051
    -0.2499  -0.2242  -0.1832  -0.1285  -0.0468  -0.0184   0.0037   0.0802
     0.1119   0.3892   0.5379   0.5727   0.6300   0.6718   0.7177   0.7736
     0.8445   0.8794   1.1516   1.2196   1.2931   1.3199   1.3668   1.3983
     1.4342   1.4724   1.4894   1.5177   1.5625   1.5688   1.5845   1.6258
     1.6642   1.7073   1.7709   1.8009   1.8129   1.8447   1.8783   1.9306
     1.9547   2.0782   2.1571   2.1937   2.2154   2.2754   2.3443   2.3755
     2.4125   2.4418   2.4463   2.5585   2.5965   2.6859   2.7902   2.8596
     2.8765   2.8817   2.8976   2.9144   2.9257   2.9392   2.9441   2.9550
     2.9697   2.9807   2.9983   3.0050   3.0165   3.0376   3.0506   3.0602
     3.0914   3.3924   3.4853   3.5280   3.5966   3.6513   3.8393   3.9359
     4.2962   4.4881   4.6972   4.9713   5.1655   5.6321   5.6819   5.7332
     5.8190   5.8785   6.0454   6.1640   6.2036   6.7844   6.8922   7.0603
     7.1947   7.5410   7.5901   7.6522   7.7003   7.8561   7.9533   8.1080
     8.1759   8.2052   8.2910   8.3330   8.4232   8.4453   8.6031   8.8568

     occupation numbers 
     1.0000   1.0000   1.0000   1.0000   1.0000   1.0000   1.0000   1.0000
     1.0000   1.0000   1.0000   1.0000   1.0000   1.0000   1.0000   1.0000
     1.0000   1.0000   1.0000   1.0000   1.0000   1.0000   1.0000   1.0000
     1.0000   1.0000   1.0000   1.0000   1.0000   1.0000   1.0000   1.0000
     1.0000   1.0000   1.0000   1.0000   1.0000   1.0000   1.0000   1.0000
     1.0000   1.0000   1.0000   1.0000   1.0000   1.0000   1.0000   1.0000
     1.0000   1.0000   1.0000   1.0000   1.0000   1.0000   1.0000   1.0000
     1.0000   1.0000   1.0000   1.0000   1.0000   1.0000   1.0000   1.0000
     1.0000   1.0000   1.0000   1.0000   1.0000   1.0000   1.0000   1.0000
     1.0000   1.0000   1.0000   1.0000   1.0000   1.0000   1.0000   1.0000
     1.0000   1.0000   1.0000   1.0000   1.0000   1.0000   1.0000   1.0000
     1.0000   1.0000   1.0000   1.0000   1.0000   1.0000   1.0000   1.0000
     1.0000   1.0000   1.0000   1.0000   1.0000   1.0000   1.0000   1.0000
     1.0000   1.0000   1.0000   1.0000   1.0000   1.0000   1.0000   1.0000
     1.0000   1.0000   1.0000   1.0000   1.0000   1.0000   1.0000   1.0000
     1.0000   1.0000   1.0000   1.0000   1.0000   1.0000   1.0000   1.0000
     1.0000   1.0000   1.0000   1.0000   1.0000   1.0000   1.0000   1.0000
     1.0000   1.0000   1.0000   1.0000   1.0000   1.0000   1.0000   1.0000
     1.0000   1.0000   1.0000   1.0000   1.0000   1.0000   1.0000   1.0000
     1.0000   1.0000   1.0000   1.0000   1.0000   1.0000   0.9999   0.9999
     0.9999   0.9998   0.9993   0.9990   0.9986   0.9984   0.9980   0.9977
     0.9973   0.9968   0.9965   0.9961   0.9952   0.9951   0.9948   0.9938
     0.9927   0.9913   0.9888   0.9874   0.9868   0.9851   0.9831   0.9796
     0.9778   0.9661   0.9563   0.9510   0.9477   0.9375   0.9238   0.9170
     0.9083   0.9009   0.8997   0.8672   0.8547   0.8223   0.7792   0.7474
     0.7393   0.7368   0.7290   0.7207   0.7150   0.7082   0.7057   0.7001
     0.6925   0.6867   0.6773   0.6738   0.6676   0.6562   0.6490   0.6437
     0.6263   0.4503   0.3963   0.3721   0.3343   0.3053   0.2152   0.1757
     0.0712   0.0399   0.0196   0.0068   0.0029   0.0003   0.0002   0.0002
     0.0001   0.0001   0.0000   0.0000   0.0000   0.0000   0.0000   0.0000
     0.0000   0.0000   0.0000   0.0000   0.0000   0.0000   0.0000   0.0000
     0.0000   0.0000   0.0000   0.0000   0.0000   0.0000   0.0000   0.0000

          k = 0.2500-0.5000 0.0000 ( 65138 PWs)   bands (ev):

   -92.7193 -92.6660 -92.5732 -92.5259 -92.4628 -92.4265 -92.4081 -92.2843
   -56.0727 -56.0528 -55.9306 -55.9200 -55.9125 -55.9068 -55.8690 -55.8425
   -55.8266 -55.8262 -55.8179 -55.7718 -55.7577 -55.7160 -55.6996 -55.6615
   -55.6593 -55.6139 -55.6117 -55.6114 -55.6030 -55.5586 -55.5386 -55.4508
   -31.2933 -31.2776 -31.1339 -31.1102 -31.0480 -30.9600 -30.9102 -30.7997
   -29.8653 -29.8250 -29.7990 -29.6911 -14.9994 -14.9547 -14.8849 -14.7721
   -14.7370 -14.6199 -14.5272 -14.4027 -14.0918 -14.0407 -14.0137 -13.9895
   -13.9756 -13.9614 -13.9260 -13.9107 -13.8792 -13.8383 -13.8197 -13.7717
   -13.6840 -13.6358 -13.5903 -13.5567 -13.4871 -13.4583 -13.3890 -13.3617
   -13.2248 -13.1598 -13.1402 -13.0570 -13.0368 -13.0077 -12.9918 -12.9614
   -12.9302 -12.9288 -12.9063 -12.8478 -12.8075 -12.7665 -12.7473 -12.7339
   -12.6732 -12.6415 -12.5388 -12.4541 -12.3383 -12.3061 -12.2134 -12.1848
   -11.7945 -11.7826 -11.7716 -11.7442 -11.7130 -11.6842 -11.6436 -11.6158
   -11.5938 -11.5481 -11.5222 -11.5115  -2.4688  -2.4043  -2.2748  -2.1976
    -2.0674  -1.9846  -1.8605  -1.7105  -1.6570  -1.6340  -1.5719  -1.5589
    -1.4610  -1.3950  -1.3090  -1.2599  -1.2507  -1.1874  -1.1455  -1.1103
    -1.0629  -1.0261  -0.9910  -0.9511  -0.9387  -0.8948  -0.8658  -0.8234
    -0.7927  -0.7257  -0.6246  -0.5862  -0.5062  -0.4403  -0.3920  -0.3501
    -0.3292  -0.2705  -0.1123  -0.1012  -0.0044   0.0314   0.0405   0.0843
     0.1229   0.1546   0.1898   0.2570   0.5335   0.6278   0.6749   0.7377
     1.0183   1.0347   1.1240   1.1515   1.3169   1.3500   1.3920   1.4177
     1.4310   1.4521   1.5133   1.5610   1.5959   1.6681   1.7756   1.8062
     1.8254   1.8313   1.8717   1.8840   1.8962   1.9359   1.9453   1.9677
     1.9892   2.0131   2.0396   2.0696   2.1307   2.1714   2.2523   2.3858
     2.5349   2.5511   2.5693   2.5930   2.6168   2.6514   2.6732   2.6869
     2.7026   2.8066   2.8146   2.8599   2.8776   2.8794   2.8985   2.9157
     2.9298   2.9476   2.9550   2.9879   2.9973   3.0141   3.0214   3.0296
     3.0410   3.5519   3.5929   3.7243   3.7868   4.1057   4.1621   4.1999
     4.3035   4.7302   4.9222   5.0457   5.1215   5.2859   5.4210   5.5890
     5.6187   5.7488   5.7778   6.1888   6.3859   6.4724   6.5934   7.0911
     7.4433   7.5323   7.6437   7.6929   7.8008   7.8654   8.0256   8.2256
     8.2995   8.3803   8.4433   8.5176   8.5240   8.5758   8.7051   8.7562

     occupation numbers 
     1.0000   1.0000   1.0000   1.0000   1.0000   1.0000   1.0000   1.0000
     1.0000   1.0000   1.0000   1.0000   1.0000   1.0000   1.0000   1.0000
     1.0000   1.0000   1.0000   1.0000   1.0000   1.0000   1.0000   1.0000
     1.0000   1.0000   1.0000   1.0000   1.0000   1.0000   1.0000   1.0000
     1.0000   1.0000   1.0000   1.0000   1.0000   1.0000   1.0000   1.0000
     1.0000   1.0000   1.0000   1.0000   1.0000   1.0000   1.0000   1.0000
     1.0000   1.0000   1.0000   1.0000   1.0000   1.0000   1.0000   1.0000
     1.0000   1.0000   1.0000   1.0000   1.0000   1.0000   1.0000   1.0000
     1.0000   1.0000   1.0000   1.0000   1.0000   1.0000   1.0000   1.0000
     1.0000   1.0000   1.0000   1.0000   1.0000   1.0000   1.0000   1.0000
     1.0000   1.0000   1.0000   1.0000   1.0000   1.0000   1.0000   1.0000
     1.0000   1.0000   1.0000   1.0000   1.0000   1.0000   1.0000   1.0000
     1.0000   1.0000   1.0000   1.0000   1.0000   1.0000   1.0000   1.0000
     1.0000   1.0000   1.0000   1.0000   1.0000   1.0000   1.0000   1.0000
     1.0000   1.0000   1.0000   1.0000   1.0000   1.0000   1.0000   1.0000
     1.0000   1.0000   1.0000   1.0000   1.0000   1.0000   1.0000   1.0000
     1.0000   1.0000   1.0000   1.0000   1.0000   1.0000   1.0000   1.0000
     1.0000   1.0000   1.0000   1.0000   1.0000   1.0000   1.0000   1.0000
     1.0000   1.0000   1.0000   1.0000   1.0000   1.0000   1.0000   1.0000
     1.0000   1.0000   1.0000   1.0000   1.0000   1.0000   1.0000   0.9999
     0.9997   0.9996   0.9994   0.9993   0.9984   0.9982   0.9978   0.9975
     0.9973   0.9971   0.9962   0.9953   0.9945   0.9926   0.9886   0.9871
     0.9862   0.9859   0.9835   0.9828   0.9820   0.9792   0.9785   0.9767
     0.9749   0.9728   0.9702   0.9671   0.9598   0.9543   0.9416   0.9146
     0.8746   0.8696   0.8638   0.8559   0.8478   0.8353   0.8272   0.8219
     0.8158   0.7719   0.7682   0.7473   0.7388   0.7379   0.7286   0.7201
     0.7130   0.7039   0.7001   0.6829   0.6779   0.6689   0.6650   0.6605
     0.6543   0.3588   0.3363   0.2684   0.2387   0.1182   0.1024   0.0928
     0.0697   0.0174   0.0083   0.0049   0.0035   0.0017   0.0009   0.0004
     0.0003   0.0001   0.0001   0.0000   0.0000   0.0000   0.0000   0.0000
     0.0000   0.0000   0.0000   0.0000   0.0000   0.0000   0.0000   0.0000
     0.0000   0.0000   0.0000   0.0000   0.0000   0.0000   0.0000   0.0000

          k =-0.5000-0.5000 0.0000 ( 65132 PWs)   bands (ev):

   -92.7193 -92.6660 -92.5732 -92.5259 -92.4628 -92.4265 -92.4081 -92.2843
   -56.0727 -56.0528 -55.9306 -55.9200 -55.9125 -55.9068 -55.8690 -55.8425
   -55.8266 -55.8262 -55.8179 -55.7718 -55.7577 -55.7160 -55.6996 -55.6615
   -55.6593 -55.6139 -55.6117 -55.6114 -55.6030 -55.5586 -55.5386 -55.4508
   -31.2911 -31.2799 -31.1335 -31.1100 -31.0484 -30.9602 -30.9099 -30.8000
   -29.8643 -29.8261 -29.7986 -29.6915 -14.9536 -14.9271 -14.8099 -14.7972
   -14.7009 -14.6672 -14.6325 -14.5008 -14.0043 -13.9903 -13.9588 -13.9387
   -13.9210 -13.9074 -13.8797 -13.8701 -13.8503 -13.8466 -13.8301 -13.7517
   -13.7454 -13.7120 -13.6844 -13.6816 -13.5769 -13.5244 -13.4270 -13.4118
   -13.1763 -13.1371 -13.0670 -13.0432 -13.0118 -13.0051 -13.0019 -12.9926
   -12.9737 -12.9046 -12.8629 -12.8447 -12.8202 -12.8055 -12.7651 -12.7591
   -12.6227 -12.6151 -12.5551 -12.4254 -12.3347 -12.2648 -12.2086 -12.1960
   -11.7910 -11.7786 -11.7609 -11.7440 -11.7093 -11.6920 -11.6562 -11.5961
   -11.5759 -11.5706 -11.5200 -11.5174  -2.2448  -2.1683  -2.1600  -2.0885
    -2.0491  -1.9704  -1.9023  -1.7774  -1.6608  -1.6309  -1.5916  -1.5341
    -1.4622  -1.4477  -1.3760  -1.3344  -1.2176  -1.1889  -1.1409  -1.1109
    -1.0467  -1.0007  -0.9820  -0.9701  -0.9175  -0.8715  -0.8562  -0.7441
    -0.6876  -0.6404  -0.5892  -0.5645  -0.5527  -0.5159  -0.4743  -0.4394
    -0.4281  -0.3433  -0.2720  -0.2290  -0.2034  -0.1293  -0.0690  -0.0614
    -0.0007   0.0194   0.0303   0.0375   0.5009   0.5556   0.6206   0.6456
     1.0466   1.0602   1.0909   1.1257   1.4012   1.4208   1.4276   1.4636
     1.5979   1.6913   1.7194   1.7557   1.7829   1.7963   1.8082   1.8402
     1.8532   1.8699   1.8772   1.9231   1.9320   1.9562   1.9766   1.9888
     2.0011   2.0450   2.0680   2.0804   2.1142   2.1406   2.2113   2.2785
     2.5490   2.5786   2.6004   2.6139   2.6227   2.6511   2.6596   2.6831
     2.6926   2.7093   2.7289   2.7408   2.8017   2.8106   2.8301   2.8333
     2.8466   2.8670   2.8813   2.8893   2.8945   2.9931   2.9999   3.0258
     3.0363   3.9709   4.0160   4.0337   4.1244   4.2997   4.3714   4.3998
     4.6406   4.7630   4.8454   4.9745   5.0620   5.0893   5.1880   5.2846
     5.3737   5.8591   5.8738   5.9500   6.0249   6.4208   6.5548   6.6008
     7.6611   7.8423   7.9023   7.9125   7.9391   7.9638   8.0062   8.0707
     8.2562   8.3745   8.4972   8.5741   8.5976   8.6178   8.6303   8.6619

     occupation numbers 
     1.0000   1.0000   1.0000   1.0000   1.0000   1.0000   1.0000   1.0000
     1.0000   1.0000   1.0000   1.0000   1.0000   1.0000   1.0000   1.0000
     1.0000   1.0000   1.0000   1.0000   1.0000   1.0000   1.0000   1.0000
     1.0000   1.0000   1.0000   1.0000   1.0000   1.0000   1.0000   1.0000
     1.0000   1.0000   1.0000   1.0000   1.0000   1.0000   1.0000   1.0000
     1.0000   1.0000   1.0000   1.0000   1.0000   1.0000   1.0000   1.0000
     1.0000   1.0000   1.0000   1.0000   1.0000   1.0000   1.0000   1.0000
     1.0000   1.0000   1.0000   1.0000   1.0000   1.0000   1.0000   1.0000
     1.0000   1.0000   1.0000   1.0000   1.0000   1.0000   1.0000   1.0000
     1.0000   1.0000   1.0000   1.0000   1.0000   1.0000   1.0000   1.0000
     1.0000   1.0000   1.0000   1.0000   1.0000   1.0000   1.0000   1.0000
     1.0000   1.0000   1.0000   1.0000   1.0000   1.0000   1.0000   1.0000
     1.0000   1.0000   1.0000   1.0000   1.0000   1.0000   1.0000   1.0000
     1.0000   1.0000   1.0000   1.0000   1.0000   1.0000   1.0000   1.0000
     1.0000   1.0000   1.0000   1.0000   1.0000   1.0000   1.0000   1.0000
     1.0000   1.0000   1.0000   1.0000   1.0000   1.0000   1.0000   1.0000
     1.0000   1.0000   1.0000   1.0000   1.0000   1.0000   1.0000   1.0000
     1.0000   1.0000   1.0000   1.0000   1.0000   1.0000   1.0000   1.0000
     1.0000   1.0000   1.0000   1.0000   1.0000   1.0000   1.0000   1.0000
     1.0000   1.0000   1.0000   1.0000   1.0000   1.0000   1.0000   1.0000
     0.9996   0.9996   0.9995   0.9994   0.9977   0.9975   0.9974   0.9969
     0.9945   0.9918   0.9908   0.9894   0.9882   0.9876   0.9870   0.9854
     0.9846   0.9837   0.9832   0.9802   0.9795   0.9777   0.9760   0.9750
     0.9739   0.9697   0.9672   0.9659   0.9619   0.9585   0.9483   0.9369
     0.8702   0.8607   0.8534   0.8488   0.8457   0.8354   0.8323   0.8234
[...]
     0.7446   0.7278   0.7172   0.7148   0.7039   0.6988   0.6914   0.6805
     0.6773   0.6647   0.6570   0.6542   0.6466   0.6333   0.6219   0.6191
     0.6141   0.6109   0.6053   0.5995   0.5199   0.3584   0.3174   0.2019
     0.0763   0.0468   0.0223   0.0057   0.0045   0.0003   0.0001   0.0000
     0.0000   0.0000   0.0000   0.0000   0.0000   0.0000   0.0000   0.0000
     0.0000   0.0000   0.0000   0.0000   0.0000   0.0000   0.0000   0.0000
     0.0000   0.0000   0.0000   0.0000   0.0000   0.0000   0.0000   0.0000

          k =-0.5000 0.0000 0.0000 ( 65180 PWs)   bands (ev):

   -92.7193 -92.6660 -92.5732 -92.5259 -92.4628 -92.4265 -92.4081 -92.2843
   -56.0727 -56.0528 -55.9306 -55.9200 -55.9125 -55.9068 -55.8690 -55.8425
   -55.8266 -55.8262 -55.8179 -55.7718 -55.7577 -55.7160 -55.6996 -55.6615
   -55.6593 -55.6139 -55.6117 -55.6114 -55.6030 -55.5586 -55.5386 -55.4508
   -31.2915 -31.2801 -31.1331 -31.1103 -31.0481 -30.9606 -30.9096 -30.7996
   -29.8655 -29.8267 -29.7973 -29.6908 -15.0341 -14.9848 -14.9224 -14.8120
   -14.7080 -14.5642 -14.4226 -14.2742 -14.1518 -14.1440 -14.1265 -14.0714
   -14.0100 -13.9788 -13.9320 -13.9226 -13.9058 -13.8566 -13.8369 -13.7416
   -13.5733 -13.5515 -13.5133 -13.5058 -13.4298 -13.3827 -13.3528 -13.2853
   -13.2621 -13.2604 -13.0800 -13.0717 -13.0570 -13.0333 -13.0215 -13.0038
   -12.9620 -12.9403 -12.8697 -12.8478 -12.8167 -12.7459 -12.7454 -12.7189
   -12.6579 -12.6487 -12.5583 -12.4764 -12.3448 -12.3296 -12.2227 -12.1865
   -11.7977 -11.7767 -11.7696 -11.7554 -11.7374 -11.6960 -11.6325 -11.6146
   -11.5820 -11.5378 -11.5286 -11.5127  -2.6010  -2.5623  -2.3986  -2.3593
    -2.0462  -1.9714  -1.8231  -1.7050  -1.6659  -1.6209  -1.5722  -1.5469
    -1.4242  -1.3795  -1.3652  -1.2826  -1.2467  -1.2332  -1.1996  -1.1417
    -1.0738  -1.0444  -1.0152  -0.9202  -0.8736  -0.8253  -0.7914  -0.7709
    -0.7413  -0.6918  -0.6677  -0.6274  -0.5320  -0.4625  -0.3942  -0.3335
    -0.1650  -0.1371  -0.0746  -0.0429   0.0295   0.0341   0.1727   0.2032
     0.2376   0.4221   0.5210   0.5690   0.6389   0.7177   0.8346   0.8517
     0.9884   1.0126   1.0642   1.0885   1.1271   1.1443   1.1878   1.2116
     1.2818   1.3249   1.3712   1.3809   1.6770   1.6896   1.7081   1.7301
     1.8412   1.8496   1.8632   1.8695   1.9002   1.9123   1.9484   1.9747
     1.9949   2.0588   2.0690   2.1221   2.1381   2.2009   2.2988   2.4133
     2.4825   2.4989   2.5728   2.6079   2.6371   2.6984   2.7075   2.7188
     2.7480   2.7956   2.8162   2.8647   2.9137   2.9464   2.9803   2.9855
     2.9878   3.0000   3.0123   3.0244   3.0404   3.0429   3.0678   3.0768
     3.0913   3.1107   3.1179   3.2459   3.2611   4.0323   4.1123   4.1930
     4.3131   4.7749   4.8593   5.0171   5.0367   5.4740   5.5051   5.5740
     5.6466   5.9811   6.0187   6.0583   6.7828   6.7947   6.9955   7.2722
     7.3092   7.3216   7.4187   7.5300   7.6538   7.7624   7.8635   7.8744
     8.0772   8.2279   8.3561   8.5060   8.6086   8.7346   8.7501   8.8551

     occupation numbers 
     1.0000   1.0000   1.0000   1.0000   1.0000   1.0000   1.0000   1.0000
     1.0000   1.0000   1.0000   1.0000   1.0000   1.0000   1.0000   1.0000
     1.0000   1.0000   1.0000   1.0000   1.0000   1.0000   1.0000   1.0000
     1.0000   1.0000   1.0000   1.0000   1.0000   1.0000   1.0000   1.0000
     1.0000   1.0000   1.0000   1.0000   1.0000   1.0000   1.0000   1.0000
     1.0000   1.0000   1.0000   1.0000   1.0000   1.0000   1.0000   1.0000
     1.0000   1.0000   1.0000   1.0000   1.0000   1.0000   1.0000   1.0000
     1.0000   1.0000   1.0000   1.0000   1.0000   1.0000   1.0000   1.0000
     1.0000   1.0000   1.0000   1.0000   1.0000   1.0000   1.0000   1.0000
     1.0000   1.0000   1.0000   1.0000   1.0000   1.0000   1.0000   1.0000
     1.0000   1.0000   1.0000   1.0000   1.0000   1.0000   1.0000   1.0000
     1.0000   1.0000   1.0000   1.0000   1.0000   1.0000   1.0000   1.0000
     1.0000   1.0000   1.0000   1.0000   1.0000   1.0000   1.0000   1.0000
     1.0000   1.0000   1.0000   1.0000   1.0000   1.0000   1.0000   1.0000
     1.0000   1.0000   1.0000   1.0000   1.0000   1.0000   1.0000   1.0000
     1.0000   1.0000   1.0000   1.0000   1.0000   1.0000   1.0000   1.0000
     1.0000   1.0000   1.0000   1.0000   1.0000   1.0000   1.0000   1.0000
     1.0000   1.0000   1.0000   1.0000   1.0000   1.0000   1.0000   1.0000
     1.0000   1.0000   1.0000   1.0000   1.0000   1.0000   1.0000   1.0000
     1.0000   1.0000   1.0000   1.0000   1.0000   0.9999   0.9999   0.9999
     0.9997   0.9997   0.9996   0.9995   0.9994   0.9993   0.9992   0.9991
     0.9987   0.9984   0.9980   0.9979   0.9923   0.9919   0.9913   0.9904
     0.9853   0.9848   0.9841   0.9837   0.9817   0.9809   0.9783   0.9762
     0.9744   0.9682   0.9671   0.9609   0.9589   0.9499   0.9331   0.9081
     0.8900   0.8853   0.8626   0.8508   0.8405   0.8174   0.8138   0.8093
     0.7973   0.7768   0.7675   0.7449   0.7210   0.7045   0.6869   0.6842
     0.6829   0.6764   0.6699   0.6633   0.6546   0.6532   0.6395   0.6345
     0.6264   0.6154   0.6113   0.5369   0.5280   0.1412   0.1163   0.0945
     0.0679   0.0147   0.0106   0.0056   0.0051   0.0007   0.0006   0.0004
     0.0003   0.0000   0.0000   0.0000   0.0000   0.0000   0.0000   0.0000
     0.0000   0.0000   0.0000   0.0000   0.0000   0.0000   0.0000   0.0000
     0.0000   0.0000   0.0000   0.0000   0.0000   0.0000   0.0000   0.0000

          k =-0.2500 0.2500 0.0000 ( 65198 PWs)   bands (ev):

   -92.7193 -92.6660 -92.5732 -92.5259 -92.4628 -92.4265 -92.4081 -92.2843
   -56.0727 -56.0528 -55.9306 -55.9200 -55.9125 -55.9068 -55.8690 -55.8425
   -55.8266 -55.8262 -55.8179 -55.7718 -55.7577 -55.7160 -55.6996 -55.6615
   -55.6593 -55.6139 -55.6117 -55.6114 -55.6030 -55.5586 -55.5386 -55.4508
   -31.2935 -31.2778 -31.1337 -31.1103 -31.0479 -30.9602 -30.9100 -30.7995
   -29.8660 -29.8254 -29.7983 -29.6907 -15.0362 -14.9984 -14.9223 -14.8043
   -14.6955 -14.5689 -14.4814 -14.2765 -14.1347 -14.1055 -14.0929 -14.0455
   -14.0209 -14.0006 -13.9891 -13.9386 -13.8563 -13.8448 -13.6902 -13.6645
   -13.6369 -13.6153 -13.5764 -13.5152 -13.4541 -13.4455 -13.3369 -13.3018
   -13.2411 -13.1646 -13.1219 -13.0597 -13.0490 -13.0219 -13.0022 -12.9645
   -12.9450 -12.9294 -12.8972 -12.8587 -12.8090 -12.7892 -12.7864 -12.7437
   -12.7120 -12.7077 -12.5363 -12.4595 -12.4430 -12.3005 -12.1555 -12.1057
   -11.8182 -11.7966 -11.7696 -11.7571 -11.7166 -11.6814 -11.6588 -11.6367
   -11.6145 -11.5299 -11.4845 -11.4748  -2.6859  -2.4773  -2.3559  -2.2688
    -2.1496  -2.0830  -1.8806  -1.7349  -1.7160  -1.6881  -1.5932  -1.5604
    -1.4669  -1.4331  -1.4068  -1.2637  -1.2084  -1.1406  -1.1122  -1.0516
    -1.0299  -0.9896  -0.9607  -0.9207  -0.8583  -0.8102  -0.7479  -0.6788
    -0.6530  -0.6020  -0.5745  -0.5282  -0.4712  -0.4282  -0.3849  -0.2846
    -0.2531  -0.2418  -0.1963  -0.1303  -0.0490  -0.0173   0.0119   0.0835
     0.1098   0.3702   0.5390   0.5817   0.6205   0.6781   0.7174   0.7774
     0.8496   0.8780   1.1595   1.2700   1.3100   1.3446   1.3479   1.3918
     1.4092   1.4531   1.4860   1.4997   1.5257   1.5701   1.5844   1.6245
     1.6426   1.6883   1.7848   1.7915   1.8127   1.8446   1.8762   1.9157
     1.9592   2.0691   2.1903   2.2134   2.2570   2.2770   2.3423   2.3876
     2.4148   2.4407   2.4587   2.5588   2.5959   2.6864   2.7873   2.8645
     2.8742   2.8907   2.8967   2.9077   2.9252   2.9284   2.9473   2.9554
     2.9687   2.9780   2.9915   2.9996   3.0069   3.0393   3.0501   3.0597
     3.0932   3.3855   3.4668   3.5301   3.5980   3.6621   3.8245   3.9451
     4.2951   4.4865   4.6978   4.9811   5.1654   5.6330   5.6789   5.7387
     5.8154   5.8796   6.0531   6.1748   6.1900   6.7397   6.8913   7.0709
     7.2213   7.5543   7.5994   7.6572   7.6948   7.8712   7.9365   8.1265
     8.1614   8.1914   8.3004   8.3317   8.4278   8.4505   8.5631   8.8391

     occupation numbers 
     1.0000   1.0000   1.0000   1.0000   1.0000   1.0000   1.0000   1.0000
     1.0000   1.0000   1.0000   1.0000   1.0000   1.0000   1.0000   1.0000
     1.0000   1.0000   1.0000   1.0000   1.0000   1.0000   1.0000   1.0000
     1.0000   1.0000   1.0000   1.0000   1.0000   1.0000   1.0000   1.0000
     1.0000   1.0000   1.0000   1.0000   1.0000   1.0000   1.0000   1.0000
     1.0000   1.0000   1.0000   1.0000   1.0000   1.0000   1.0000   1.0000
     1.0000   1.0000   1.0000   1.0000   1.0000   1.0000   1.0000   1.0000
     1.0000   1.0000   1.0000   1.0000   1.0000   1.0000   1.0000   1.0000
     1.0000   1.0000   1.0000   1.0000   1.0000   1.0000   1.0000   1.0000
     1.0000   1.0000   1.0000   1.0000   1.0000   1.0000   1.0000   1.0000
     1.0000   1.0000   1.0000   1.0000   1.0000   1.0000   1.0000   1.0000
     1.0000   1.0000   1.0000   1.0000   1.0000   1.0000   1.0000   1.0000
     1.0000   1.0000   1.0000   1.0000   1.0000   1.0000   1.0000   1.0000
     1.0000   1.0000   1.0000   1.0000   1.0000   1.0000   1.0000   1.0000
     1.0000   1.0000   1.0000   1.0000   1.0000   1.0000   1.0000   1.0000
     1.0000   1.0000   1.0000   1.0000   1.0000   1.0000   1.0000   1.0000
     1.0000   1.0000   1.0000   1.0000   1.0000   1.0000   1.0000   1.0000
     1.0000   1.0000   1.0000   1.0000   1.0000   1.0000   1.0000   1.0000
     1.0000   1.0000   1.0000   1.0000   1.0000   1.0000   1.0000   1.0000
     1.0000   1.0000   1.0000   1.0000   1.0000   1.0000   0.9999   0.9999
     0.9999   0.9998   0.9993   0.9988   0.9985   0.9982   0.9982   0.9978
     0.9976   0.9971   0.9966   0.9964   0.9959   0.9951   0.9948   0.9938
     0.9933   0.9919   0.9882   0.9879   0.9868   0.9851   0.9833   0.9807
     0.9774   0.9671   0.9516   0.9480   0.9407   0.9372   0.9243   0.9142
     0.9077   0.9012   0.8965   0.8671   0.8549   0.8221   0.7804   0.7451
     0.7404   0.7324   0.7294   0.7240   0.7153   0.7137   0.7040   0.6999
     0.6930   0.6881   0.6810   0.6767   0.6728   0.6552   0.6493   0.6440
     0.6253   0.4544   0.4070   0.3709   0.3335   0.2997   0.2217   0.1722
     0.0714   0.0401   0.0195   0.0065   0.0029   0.0003   0.0002   0.0002
     0.0001   0.0001   0.0000   0.0000   0.0000   0.0000   0.0000   0.0000
     0.0000   0.0000   0.0000   0.0000   0.0000   0.0000   0.0000   0.0000
     0.0000   0.0000   0.0000   0.0000   0.0000   0.0000   0.0000   0.0000

          k =-0.5000 0.2500 0.0000 ( 65138 PWs)   bands (ev):

   -92.7193 -92.6660 -92.5732 -92.5259 -92.4628 -92.4265 -92.4081 -92.2843
   -56.0727 -56.0528 -55.9306 -55.9200 -55.9125 -55.9068 -55.8690 -55.8425
   -55.8266 -55.8262 -55.8179 -55.7718 -55.7577 -55.7160 -55.6996 -55.6615
   -55.6593 -55.6139 -55.6117 -55.6114 -55.6030 -55.5586 -55.5386 -55.4508
   -31.2913 -31.2800 -31.1333 -31.1101 -31.0483 -30.9604 -30.9097 -30.7998
   -29.8649 -29.8264 -29.7979 -29.6912 -15.0016 -14.9581 -14.8795 -14.7788
   -14.7359 -14.6113 -14.5260 -14.3935 -14.0856 -14.0556 -14.0437 -13.9980
   -13.9779 -13.9510 -13.9176 -13.9086 -13.8849 -13.8433 -13.8337 -13.7326
   -13.6558 -13.6095 -13.6057 -13.5936 -13.4874 -13.4775 -13.3910 -13.3368
   -13.2183 -13.1822 -13.0863 -13.0488 -13.0360 -13.0315 -12.9984 -12.9665
   -12.9576 -12.9532 -12.8743 -12.8487 -12.8135 -12.7782 -12.7458 -12.7404
   -12.6399 -12.6323 -12.5565 -12.4494 -12.3400 -12.2985 -12.2148 -12.1904
   -11.7905 -11.7781 -11.7641 -11.7519 -11.7311 -11.7008 -11.6194 -11.6112
   -11.5877 -11.5522 -11.5241 -11.5151  -2.4586  -2.4166  -2.2683  -2.2260
    -2.0655  -1.9901  -1.8472  -1.7112  -1.6551  -1.6276  -1.5886  -1.5492
    -1.4692  -1.3539  -1.2969  -1.2735  -1.2486  -1.1733  -1.1427  -1.1051
    -1.0870  -1.0267  -0.9973  -0.9586  -0.9235  -0.8945  -0.8367  -0.8093
    -0.7673  -0.7331  -0.6295  -0.6011  -0.5150  -0.4539  -0.4225  -0.3659
    -0.2805  -0.2454  -0.1464  -0.1027  -0.0510   0.0029   0.0252   0.1023
     0.1225   0.1548   0.2123   0.2518   0.5595   0.6325   0.6752   0.6940
     0.9986   1.0497   1.1282   1.1509   1.3289   1.3661   1.4029   1.4153
     1.4338   1.4515   1.5210   1.5646   1.6077   1.6320   1.7632   1.7985
     1.8210   1.8321   1.8687   1.8986   1.9129   1.9226   1.9449   1.9689
     2.0093   2.0322   2.0633   2.0868   2.1155   2.1764   2.2943   2.3971
     2.4317   2.4980   2.5347   2.5915   2.6336   2.6392   2.6769   2.7014
     2.7300   2.8056   2.8173   2.8613   2.8759   2.8906   2.9020   2.9218
     2.9355   2.9500   2.9646   2.9834   2.9952   3.0069   3.0136   3.0240
     3.0356   3.5610   3.6317   3.7538   3.7792   4.0423   4.1392   4.1921
     4.3915   4.7686   4.8763   5.0138   5.0645   5.3847   5.4160   5.5858
     5.6192   5.7319   5.7632   6.1395   6.3879   6.4891   6.6805   7.0282
     7.4440   7.5457   7.6917   7.7092   7.7841   7.8775   8.0103   8.1905
     8.3022   8.3886   8.4088   8.5266   8.5525   8.5687   8.6544   8.7340

     occupation numbers 
     1.0000   1.0000   1.0000   1.0000   1.0000   1.0000   1.0000   1.0000
     1.0000   1.0000   1.0000   1.0000   1.0000   1.0000   1.0000   1.0000
     1.0000   1.0000   1.0000   1.0000   1.0000   1.0000   1.0000   1.0000
     1.0000   1.0000   1.0000   1.0000   1.0000   1.0000   1.0000   1.0000
     1.0000   1.0000   1.0000   1.0000   1.0000   1.0000   1.0000   1.0000
     1.0000   1.0000   1.0000   1.0000   1.0000   1.0000   1.0000   1.0000
     1.0000   1.0000   1.0000   1.0000   1.0000   1.0000   1.0000   1.0000
     1.0000   1.0000   1.0000   1.0000   1.0000   1.0000   1.0000   1.0000
     1.0000   1.0000   1.0000   1.0000   1.0000   1.0000   1.0000   1.0000
     1.0000   1.0000   1.0000   1.0000   1.0000   1.0000   1.0000   1.0000
     1.0000   1.0000   1.0000   1.0000   1.0000   1.0000   1.0000   1.0000
     1.0000   1.0000   1.0000   1.0000   1.0000   1.0000   1.0000   1.0000
     1.0000   1.0000   1.0000   1.0000   1.0000   1.0000   1.0000   1.0000
     1.0000   1.0000   1.0000   1.0000   1.0000   1.0000   1.0000   1.0000
     1.0000   1.0000   1.0000   1.0000   1.0000   1.0000   1.0000   1.0000
     1.0000   1.0000   1.0000   1.0000   1.0000   1.0000   1.0000   1.0000
     1.0000   1.0000   1.0000   1.0000   1.0000   1.0000   1.0000   1.0000
     1.0000   1.0000   1.0000   1.0000   1.0000   1.0000   1.0000   1.0000
     1.0000   1.0000   1.0000   1.0000   1.0000   1.0000   1.0000   1.0000
     1.0000   1.0000   1.0000   1.0000   1.0000   1.0000   1.0000   0.9999
     0.9997   0.9996   0.9994   0.9993   0.9984   0.9980   0.9977   0.9975
     0.9973   0.9971   0.9960   0.9952   0.9942   0.9936   0.9891   0.9875
     0.9864   0.9858   0.9837   0.9818   0.9809   0.9802   0.9785   0.9766
     0.9731   0.9709   0.9677   0.9651   0.9617   0.9536   0.9339   0.9120
     0.9035   0.8855   0.8747   0.8564   0.8418   0.8398   0.8258   0.8163
     0.8048   0.7723   0.7670   0.7466   0.7396   0.7324   0.7269   0.7170
     0.7100   0.7027   0.6951   0.6853   0.6790   0.6728   0.6691   0.6635
     0.6572   0.3537   0.3155   0.2541   0.2422   0.1379   0.1086   0.0947
     0.0539   0.0151   0.0099   0.0057   0.0046   0.0010   0.0009   0.0004
     0.0003   0.0002   0.0001   0.0000   0.0000   0.0000   0.0000   0.0000
     0.0000   0.0000   0.0000   0.0000   0.0000   0.0000   0.0000   0.0000
     0.0000   0.0000   0.0000   0.0000   0.0000   0.0000   0.0000   0.0000

     the Fermi energy is     3.3083 ev

!    total energy              =   -4399.91614067 Ry
     estimated scf accuracy    <          9.3E-09 Ry
     smearing contrib. (-TS)   =      -1.14524477 Ry
     internal energy E=F+TS    =   -4398.77089590 Ry

     The total energy is F=E-TS. E is the sum of the following terms:
     one-electron contribution =  -21252.90783187 Ry
     hartree contribution      =   10754.28974961 Ry
     xc contribution           =    -686.72701638 Ry
     ewald contribution        =    7053.21959030 Ry
     one-center paw contrib.   =    -266.64538756 Ry
      -> PAW hartree energy AE =      25.07458638 Ry
      -> PAW hartree energy PS =     -24.95969168 Ry
      -> PAW xc energy AE      =     -16.50485850 Ry
      -> PAW xc energy PS      =       6.86370134 Ry
      -> total E_H with PAW    =   10754.40464431 Ry
      -> total E_XC with PAW   =    -696.36817355 Ry

     convergence has been achieved in  50 iterations

     Writing all to output data dir /bsuhome/zayahcortright/scratch/pwscf.save/
 
     init_run     :      7.57s CPU      8.04s WALL (       1 calls)
     electrons    :    721.50s CPU    734.10s WALL (       1 calls)

     Called by init_run:
     wfcinit      :      6.00s CPU      6.13s WALL (       1 calls)
     wfcinit:atom :      0.06s CPU      0.07s WALL (       5 calls)
     wfcinit:wfcr :      5.65s CPU      5.72s WALL (       5 calls)
     potinit      :      0.19s CPU      0.20s WALL (       1 calls)
     hinit0       :      0.51s CPU      0.76s WALL (       1 calls)

     Called by electrons:
     c_bands      :    571.14s CPU    576.13s WALL (      50 calls)
     sum_band     :    112.93s CPU    117.32s WALL (      50 calls)
     v_of_rho     :      5.51s CPU      5.76s WALL (      51 calls)
     v_h          :      0.49s CPU      0.50s WALL (      51 calls)
     v_xc         :      5.02s CPU      5.26s WALL (      51 calls)
     newd         :     17.05s CPU     19.61s WALL (      51 calls)
     PAW_pot      :      1.62s CPU      1.64s WALL (      51 calls)
     mix_rho      :     12.92s CPU     13.19s WALL (      50 calls)

     Called by c_bands:
     init_us_2    :      7.28s CPU      7.33s WALL (     505 calls)
     init_us_2:cp :      7.28s CPU      7.32s WALL (     505 calls)
     cegterg      :    537.26s CPU    542.04s WALL (     250 calls)

     Called by sum_band:
     sum_band:wei :      0.35s CPU      0.36s WALL (      50 calls)
     sum_band:loo :     92.95s CPU     93.58s WALL (      50 calls)
     sum_band:buf :      1.43s CPU      1.46s WALL (     250 calls)
     sum_band:ini :      3.49s CPU      3.50s WALL (     250 calls)
     sum_band:cal :     18.85s CPU     18.90s WALL (     250 calls)
     sum_band:bec :      0.56s CPU      0.56s WALL (     250 calls)
     addusdens    :     18.71s CPU     22.44s WALL (      50 calls)
                                        0.00s GPU  (      50 calls)
     addusd:skk   :      0.35s CPU      0.70s WALL (     200 calls)
                                        0.00s GPU  (     200 calls)

     Called by *egterg:
     cdiaghg      :     58.55s CPU     58.79s WALL (    1376 calls)
     cegterg:over :     38.76s CPU     38.89s WALL (    1126 calls)
     cegterg:upda :     28.15s CPU     28.50s WALL (    1126 calls)
     cegterg:last :     58.75s CPU     58.92s WALL (     461 calls)
     cdiaghg:chol :      3.20s CPU      3.23s WALL (    1376 calls)
     cdiaghg:inve :      3.48s CPU      3.50s WALL (    1376 calls)
     cdiaghg:para :      6.78s CPU      6.82s WALL (    2752 calls)
     h_psi        :    297.37s CPU    300.05s WALL (    1381 calls)
     s_psi        :     39.82s CPU     39.99s WALL (    1381 calls)
     g_psi        :      1.13s CPU      1.14s WALL (    1126 calls)

     Called by h_psi:
     h_psi:calbec :     43.38s CPU     43.51s WALL (    1381 calls)
     vloc_psi     :    211.16s CPU    213.15s WALL (    1381 calls)
     add_vuspsi   :     39.46s CPU     39.60s WALL (    1381 calls)

     General routines
     calbec       :     62.23s CPU     62.41s WALL (    1631 calls)
     fft          :      3.54s CPU      3.58s WALL (     661 calls)
     ffts         :      4.79s CPU      4.82s WALL (    5324 calls)
     fftw         :    178.72s CPU    180.17s WALL (  334674 calls)
     interpolate  :      0.41s CPU      0.42s WALL (      51 calls)
 
     Parallel routines

     PAW routines
     PAW_pot      :      1.62s CPU      1.64s WALL (      51 calls)
 
     PWSCF        :  12m11.35s CPU  12m27.66s WALL

 
   This run was terminated on:  19:13:40  21Jun2024            

=------------------------------------------------------------------------------=
   JOB DONE.
=------------------------------------------------------------------------------=
