
     Program PWSCF v.7.2 starts on 21Jun2024 at 15:34:26 

     This program is part of the open-source Quantum ESPRESSO suite
     for quantum simulation of materials; please cite
         "P. Giannozzi et al., J. Phys.:Condens. Matter 21 395502 (2009);
         "P. Giannozzi et al., J. Phys.:Condens. Matter 29 465901 (2017);
         "P. Giannozzi et al., J. Chem. Phys. 152 154105 (2020);
          URL http://www.quantum-espresso.org", 
     in publications or presentations arising from this work. More details at
     http://www.quantum-espresso.org/quote

     Parallel version (MPI & OpenMP), running on      48 processor cores
     Number of MPI processes:                48
     Threads/MPI process:                     1

     MPI processes distributed on     1 nodes
     60571 MiB available memory on the printing compute node when the environment starts
 
     Reading input from espresso.pwi
Warning: card &CELL ignored
Warning: card / ignored
Warning: card &FCP ignored
Warning: card / ignored
Warning: card &RISM ignored
Warning: card / ignored

     Current dimensions of program PWSCF are:
     Max number of different atomic species (ntypx) = 10
     Max number of k-points (npk) =  40000
     Max angular momentum in pseudopotentials (lmaxx) =  4
     file O.pbe-n-kjpaw_psl.0.1.UPF: wavefunction(s)  2P renormalized
     signal trapping enabled: kill the code with -SIGUSR1 to stop cleanly the simulation 
 
     K-points division:     npool     =       2
     R & G space division:  proc/nbgrp/npool/nimage =      24
     Subspace diagonalization in iterative solution of the eigenvalue problem:
     one sub-group per band group will be used
     scalapack distributed-memory algorithm (size of sub-group:  3*  3 procs)

 
     Parallelization info
     --------------------
     sticks:   dense  smooth     PW     G-vecs:    dense   smooth      PW
     Min         350     175     47                61430    21716    3036
     Max         351     177     48                61449    21727    3041
     Sum        8421    4205   1137              1474595   521381   72913
 
     Using Slab Decomposition
 


     bravais-lattice index     =            0
     lattice parameter (alat)  =      14.8599  a.u.
     unit-cell volume          =    8305.1283 (a.u.)^3
     number of atoms/cell      =           49
     number of atomic types    =            3
     number of electrons       =       430.00
     number of Kohn-Sham states=          258
     kinetic-energy cutoff     =      60.0000  Ry
     charge density cutoff     =     480.0000  Ry
     scf convergence threshold =      1.0E-08
     mixing beta               =       0.1500
     number of iterations used =            8  local-TF  mixing
     Exchange-correlation= SLA  PW   PBE  PBE
                           (   1   4   3   4   0   0   0)

     celldm(1)=  14.859904  celldm(2)=   0.000000  celldm(3)=   0.000000
     celldm(4)=   0.000000  celldm(5)=   0.000000  celldm(6)=   0.000000

     crystal axes: (cart. coord. in units of alat)
               a(1) = (   1.000000   0.000000   0.000000 )  
               a(2) = (   0.000000   1.000000   0.000000 )  
               a(3) = (   0.000000   0.000000   2.531036 )  

     reciprocal axes: (cart. coord. in units 2 pi/alat)
               b(1) = (  1.000000  0.000000  0.000000 )  
               b(2) = (  0.000000  1.000000  0.000000 )  
               b(3) = (  0.000000  0.000000  0.395095 )  


     PseudoPot. # 1 for Sr read from file:
     /bsuhome/zayahcortright/q-e/pseudo/Sr_pbe_v1.uspp.F.UPF
     MD5 check sum: 6b418c05fbe9db5448babca5e47b7a5b
     Pseudo is Ultrasoft + core correction, Zval = 10.0
     Generated by new atomic code, or converted to UPF format
     Using radial grid of  883 points,  6 beta functions with: 
                l(1) =   0
                l(2) =   0
                l(3) =   1
                l(4) =   1
                l(5) =   2
                l(6) =   2
     Q(r) pseudized with  6 coefficients,  rinner =    1.400   1.400   1.400
                                                       1.400   1.400

     PseudoPot. # 2 for O  read from file:
     /bsuhome/zayahcortright/q-e/pseudo/O.pbe-n-kjpaw_psl.0.1.UPF
     MD5 check sum: 0234752ac141de4415c5fc33072bef88
     Pseudo is Projector augmented-wave + core cor, Zval =  6.0
     Generated using "atomic" code by A. Dal Corso  v.5.0.99 svn rev. 10869
     Shape of augmentation charge: BESSEL
     Using radial grid of 1095 points,  4 beta functions with: 
                l(1) =   0
                l(2) =   0
                l(3) =   1
                l(4) =   1
     Q(r) pseudized with 0 coefficients 


     PseudoPot. # 3 for Co read from file:
     /bsuhome/zayahcortright/q-e/pseudo/Co_pbe_v1.2.uspp.F.UPF
     MD5 check sum: 5f91765df6ddd3222702df6e7b74a16d
     Pseudo is Ultrasoft + core correction, Zval = 17.0
     Generated by new atomic code, or converted to UPF format
     Using radial grid of  863 points,  6 beta functions with: 
                l(1) =   0
                l(2) =   0
                l(3) =   1
                l(4) =   1
                l(5) =   2
                l(6) =   2
     Q(r) pseudized with  8 coefficients,  rinner =    1.200   1.200   1.200
                                                       1.200   1.200

     atomic species   valence    mass     pseudopotential
        Sr            10.00    87.62000     Sr( 1.00)
        O              6.00    15.99900     O ( 1.00)
        Co            17.00    58.93319     Co( 1.00)

     No symmetry found


                                    s                        frac. trans.

      isym =  1     identity                                     

 cryst.   s( 1) = (     1          0          0      )
                  (     0          1          0      )
                  (     0          0          1      )

 cart.    s( 1) = (  1.0000000  0.0000000  0.0000000 )
                  (  0.0000000  1.0000000  0.0000000 )
                  (  0.0000000  0.0000000  1.0000000 )


   Cartesian axes

     site n.     atom                  positions (alat units)
         1           Sr  tau(   1) = (   0.2508693   0.7491307   1.7574407  )
         2           O   tau(   2) = (   0.4985141   0.5014859   1.7715967  )
         3           Sr  tau(   3) = (   0.7482398   0.7454518   1.7648669  )
         4           Sr  tau(   4) = (   0.7441748   0.2558252   1.7667843  )
         5           Sr  tau(   5) = (   0.2508693   0.7491307   1.2696799  )
         6           Sr  tau(   6) = (   0.2508693   0.7491307   0.7632319  )
         7           Co  tau(   7) = (   0.4998914   0.5001086   1.0164559  )
         8           Co  tau(   8) = (   0.4936915   0.5063085   1.5135603  )
         9           O   tau(   9) = (   0.4988895   0.7610401   1.0164559  )
        10           O   tau(  10) = (   0.2389599   0.5011105   1.0164559  )
        11           O   tau(  11) = (   0.0070918   0.7374880   1.0164559  )
        12           O   tau(  12) = (   0.0088340   0.7405089   1.5135603  )
        13           O   tau(  13) = (   0.5066944   0.7415376   1.5135603  )
        14           O   tau(  14) = (   0.2584624   0.4933056   1.5135603  )
        15           O   tau(  15) = (   0.4985141   0.5014859   0.7773880  )
        16           O   tau(  16) = (   0.4985141   0.5014859   1.2555238  )
        17           Sr  tau(  17) = (   0.7482398   0.7454518   0.7706582  )
        18           Sr  tau(  18) = (   0.7482398   0.7454518   1.2622536  )
        19           Sr  tau(  19) = (   0.7441748   0.2558252   0.7725755  )
        20           Sr  tau(  20) = (   0.7441748   0.2558252   1.2603363  )
        21           O   tau(  21) = (   0.7322655   0.0078049   1.5135603  )
        22           O   tau(  22) = (   0.7558175   0.4996027   1.5135603  )
        23           O   tau(  23) = (   0.5003973   0.2441825   1.5135603  )
        24           O   tau(  24) = (   0.7527966   0.4978604   1.0164559  )
        25           O   tau(  25) = (   0.5021396   0.2472034   1.0164559  )
        26           O   tau(  26) = (   0.7517679   0.0000000   1.0164559  )
        27           O   tau(  27) = (   0.0114961   0.4948124   1.7455321  )
        28           O   tau(  28) = (   0.0048226   0.0077944   1.7715967  )
        29           Sr  tau(  29) = (   0.2545482   0.2517602   1.7648669  )
        30           O   tau(  30) = (   0.5048017   0.0015068   1.7786929  )
        31           Co  tau(  31) = (   0.0056869   0.5006215   1.0164559  )
        32           Co  tau(  32) = (   0.0065315   0.4997770   1.5135603  )
        33           Co  tau(  33) = (   0.0061999   0.0064171   1.0164559  )
        34           Co  tau(  34) = (   0.0000000   0.0126169   1.5135603  )
        35           O   tau(  35) = (   0.0114961   0.4948124   1.2815885  )
        36           O   tau(  36) = (   0.0114961   0.4948124   0.7513233  )
        37           O   tau(  37) = (   0.0051979   0.2673486   1.0164559  )
        38           O   tau(  38) = (   0.0130029   0.2478461   1.5135603  )
        39           O   tau(  39) = (   0.0048226   0.0077944   0.7773880  )
        40           O   tau(  40) = (   0.0048226   0.0077944   1.2555238  )
        41           Sr  tau(  41) = (   0.2545482   0.2517602   0.7706582  )
        42           Sr  tau(  42) = (   0.2545482   0.2517602   1.2622536  )
        43           Co  tau(  43) = (   0.4989925   0.0073160   1.5135603  )
        44           Co  tau(  44) = (   0.4998370   0.0064714   1.0164559  )
        45           O   tau(  45) = (   0.5048017   0.0015068   0.7844841  )
        46           O   tau(  46) = (   0.5048017   0.0015068   1.2484277  )
        47           O   tau(  47) = (   0.2621260   0.0059111   1.5135603  )
        48           O   tau(  48) = (   0.2591051   0.0041689   1.0164559  )
        49           O   tau(  49) = (   0.0000000   0.8529874   2.1602013  )

   Crystallographic axes

     site n.     atom                  positions (cryst. coord.)
         1           Sr  tau(   1) = (  0.2508693  0.7491307  0.6943562  )
         2           O   tau(   2) = (  0.4985141  0.5014859  0.6999492  )
         3           Sr  tau(   3) = (  0.7482398  0.7454518  0.6972903  )
         4           Sr  tau(   4) = (  0.7441748  0.2558252  0.6980478  )
         5           Sr  tau(   5) = (  0.2508693  0.7491307  0.5016443  )
         6           Sr  tau(   6) = (  0.2508693  0.7491307  0.3015492  )
         7           Co  tau(   7) = (  0.4998914  0.5001086  0.4015968  )
         8           Co  tau(   8) = (  0.4936915  0.5063085  0.5980003  )
         9           O   tau(   9) = (  0.4988895  0.7610401  0.4015968  )
        10           O   tau(  10) = (  0.2389599  0.5011105  0.4015968  )
        11           O   tau(  11) = (  0.0070918  0.7374880  0.4015968  )
        12           O   tau(  12) = (  0.0088340  0.7405089  0.5980003  )
        13           O   tau(  13) = (  0.5066944  0.7415376  0.5980003  )
        14           O   tau(  14) = (  0.2584624  0.4933056  0.5980003  )
        15           O   tau(  15) = (  0.4985141  0.5014859  0.3071422  )
        16           O   tau(  16) = (  0.4985141  0.5014859  0.4960513  )
        17           Sr  tau(  17) = (  0.7482398  0.7454518  0.3044833  )
        18           Sr  tau(  18) = (  0.7482398  0.7454518  0.4987103  )
        19           Sr  tau(  19) = (  0.7441748  0.2558252  0.3052408  )
        20           Sr  tau(  20) = (  0.7441748  0.2558252  0.4979527  )
        21           O   tau(  21) = (  0.7322655  0.0078049  0.5980003  )
        22           O   tau(  22) = (  0.7558175  0.4996027  0.5980003  )
        23           O   tau(  23) = (  0.5003973  0.2441825  0.5980003  )
        24           O   tau(  24) = (  0.7527966  0.4978604  0.4015968  )
        25           O   tau(  25) = (  0.5021396  0.2472034  0.4015968  )
        26           O   tau(  26) = (  0.7517679  0.0000000  0.4015968  )
        27           O   tau(  27) = (  0.0114961  0.4948124  0.6896512  )
        28           O   tau(  28) = (  0.0048226  0.0077944  0.6999492  )
        29           Sr  tau(  29) = (  0.2545482  0.2517602  0.6972903  )
        30           O   tau(  30) = (  0.5048017  0.0015068  0.7027529  )
        31           Co  tau(  31) = (  0.0056869  0.5006215  0.4015968  )
        32           Co  tau(  32) = (  0.0065315  0.4997770  0.5980003  )
        33           Co  tau(  33) = (  0.0061999  0.0064171  0.4015968  )
        34           Co  tau(  34) = (  0.0000000  0.0126169  0.5980003  )
        35           O   tau(  35) = (  0.0114961  0.4948124  0.5063494  )
        36           O   tau(  36) = (  0.0114961  0.4948124  0.2968442  )
        37           O   tau(  37) = (  0.0051979  0.2673486  0.4015968  )
        38           O   tau(  38) = (  0.0130029  0.2478461  0.5980003  )
        39           O   tau(  39) = (  0.0048226  0.0077944  0.3071422  )
        40           O   tau(  40) = (  0.0048226  0.0077944  0.4960513  )
        41           Sr  tau(  41) = (  0.2545482  0.2517602  0.3044833  )
        42           Sr  tau(  42) = (  0.2545482  0.2517602  0.4987103  )
        43           Co  tau(  43) = (  0.4989925  0.0073160  0.5980003  )
        44           Co  tau(  44) = (  0.4998370  0.0064714  0.4015968  )
        45           O   tau(  45) = (  0.5048017  0.0015068  0.3099459  )
        46           O   tau(  46) = (  0.5048017  0.0015068  0.4932477  )
        47           O   tau(  47) = (  0.2621260  0.0059111  0.5980003  )
        48           O   tau(  48) = (  0.2591051  0.0041689  0.4015968  )
        49           O   tau(  49) = (  0.0000000  0.8529874  0.8534850  )

     number of k points=    10  Gaussian smearing, width (Ry)=  0.0700
                       cart. coord. in units 2pi/alat
        k(    1) = (   0.0000000   0.0000000   0.0000000), wk =   0.1250000
        k(    2) = (   0.0000000   0.2500000   0.0000000), wk =   0.2500000
        k(    3) = (   0.0000000  -0.5000000   0.0000000), wk =   0.1250000
        k(    4) = (   0.2500000   0.2500000   0.0000000), wk =   0.2500000
        k(    5) = (   0.2500000  -0.5000000   0.0000000), wk =   0.2500000
        k(    6) = (  -0.5000000  -0.5000000   0.0000000), wk =   0.1250000
        k(    7) = (   0.2500000   0.0000000   0.0000000), wk =   0.2500000
        k(    8) = (  -0.5000000   0.0000000   0.0000000), wk =   0.1250000
        k(    9) = (  -0.2500000   0.2500000   0.0000000), wk =   0.2500000
        k(   10) = (  -0.5000000   0.2500000   0.0000000), wk =   0.2500000

                       cryst. coord.
        k(    1) = (   0.0000000   0.0000000   0.0000000), wk =   0.1250000
        k(    2) = (   0.0000000   0.2500000   0.0000000), wk =   0.2500000
        k(    3) = (   0.0000000  -0.5000000   0.0000000), wk =   0.1250000
        k(    4) = (   0.2500000   0.2500000   0.0000000), wk =   0.2500000
        k(    5) = (   0.2500000  -0.5000000   0.0000000), wk =   0.2500000
        k(    6) = (  -0.5000000  -0.5000000   0.0000000), wk =   0.1250000
        k(    7) = (   0.2500000   0.0000000   0.0000000), wk =   0.2500000
        k(    8) = (  -0.5000000   0.0000000   0.0000000), wk =   0.1250000
        k(    9) = (  -0.2500000   0.2500000   0.0000000), wk =   0.2500000
        k(   10) = (  -0.5000000   0.2500000   0.0000000), wk =   0.2500000

     Dense  grid:  1474595 G-vectors     FFT dimensions: ( 108, 108, 270)

     Smooth grid:   521381 G-vectors     FFT dimensions: (  75,  75, 192)

     Dynamical RAM for                 wfc:      10.69 MB

     Dynamical RAM for     wfc (w. buffer):      64.13 MB

     Dynamical RAM for           str. fact:       2.81 MB

     Dynamical RAM for           local pot:       0.00 MB

     Dynamical RAM for          nlocal pot:      24.53 MB

     Dynamical RAM for                qrad:       5.27 MB

     Dynamical RAM for          rho,v,vnew:       6.02 MB

     Dynamical RAM for               rhoin:       2.01 MB

     Dynamical RAM for            rho*nmix:      15.00 MB

     Dynamical RAM for           G-vectors:       3.68 MB

     Dynamical RAM for          h,s,v(r/c):       1.35 MB

     Dynamical RAM for          <psi|beta>:       2.33 MB

     Dynamical RAM for                 psi:      21.38 MB

     Dynamical RAM for                hpsi:      21.38 MB

     Dynamical RAM for                spsi:      21.38 MB

     Dynamical RAM for      wfcinit/wfcrot:      34.39 MB

     Dynamical RAM for           addusdens:     101.26 MB

     Estimated static dynamical RAM per process >     117.53 MB

     Estimated max dynamical RAM per process >     233.79 MB

     Estimated total dynamical RAM >      10.61 GB

     Check: negative core charge=   -0.000004

     Initial potential from superposition of free atoms

     starting charge     421.5961, renormalised to     430.0000

     negative rho (up, down):  7.826E-01 0.000E+00
     Starting wfcs are  376 randomized atomic wfcs
     Checking if some PAW data can be deallocated... 
       PAW data deallocated on   19 nodes for type:  2

     total cpu time spent up to now is        8.9 secs

     Self-consistent Calculation

     iteration #  1     ecut=    60.00 Ry     beta= 0.15
     Davidson diagonalization with overlap

---- Real-time Memory Report at c_bands before calling an iterative solver
             0 MiB given to the printing process from OS
             0 MiB allocation reported by mallinfo(arena+hblkhd)
         51488 MiB available memory on the node where the printing process lives
------------------
     ethr =  1.00E-02,  avg # of iterations =  2.0

     negative rho (up, down):  7.715E-01 0.000E+00

     total cpu time spent up to now is       24.2 secs

     total energy              =   -4445.19852065 Ry
     estimated scf accuracy    <      53.97498597 Ry

     iteration #  2     ecut=    60.00 Ry     beta= 0.15
     Davidson diagonalization with overlap

---- Real-time Memory Report at c_bands before calling an iterative solver
             0 MiB given to the printing process from OS
             0 MiB allocation reported by mallinfo(arena+hblkhd)
         51871 MiB available memory on the node where the printing process lives
------------------
     ethr =  1.00E-02,  avg # of iterations =  1.0

     negative rho (up, down):  7.590E-01 0.000E+00

     total cpu time spent up to now is       37.0 secs

     total energy              =   -4441.92228955 Ry
     estimated scf accuracy    <      28.21501567 Ry

     iteration #  3     ecut=    60.00 Ry     beta= 0.15
     Davidson diagonalization with overlap

---- Real-time Memory Report at c_bands before calling an iterative solver
             0 MiB given to the printing process from OS
             0 MiB allocation reported by mallinfo(arena+hblkhd)
         51095 MiB available memory on the node where the printing process lives
------------------
     ethr =  6.56E-03,  avg # of iterations =  1.0

     negative rho (up, down):  7.530E-01 0.000E+00

     total cpu time spent up to now is       49.7 secs

     total energy              =   -4442.60484523 Ry
     estimated scf accuracy    <      29.35539273 Ry

     iteration #  4     ecut=    60.00 Ry     beta= 0.15
     Davidson diagonalization with overlap

---- Real-time Memory Report at c_bands before calling an iterative solver
             0 MiB given to the printing process from OS
             0 MiB allocation reported by mallinfo(arena+hblkhd)
         51046 MiB available memory on the node where the printing process lives
------------------
     ethr =  6.56E-03,  avg # of iterations =  1.0

     negative rho (up, down):  7.538E-01 0.000E+00

     total cpu time spent up to now is       62.3 secs

     total energy              =   -4442.58625163 Ry
     estimated scf accuracy    <      27.30155227 Ry

     iteration #  5     ecut=    60.00 Ry     beta= 0.15
     Davidson diagonalization with overlap

---- Real-time Memory Report at c_bands before calling an iterative solver
             0 MiB given to the printing process from OS
             0 MiB allocation reported by mallinfo(arena+hblkhd)
         51032 MiB available memory on the node where the printing process lives
------------------
     ethr =  6.35E-03,  avg # of iterations =  1.0

     negative rho (up, down):  7.387E-01 0.000E+00

     total cpu time spent up to now is       74.8 secs

     total energy              =   -4441.72096649 Ry
     estimated scf accuracy    <      20.78128864 Ry

     iteration #  6     ecut=    60.00 Ry     beta= 0.15
     Davidson diagonalization with overlap

---- Real-time Memory Report at c_bands before calling an iterative solver
             0 MiB given to the printing process from OS
             0 MiB allocation reported by mallinfo(arena+hblkhd)
         51009 MiB available memory on the node where the printing process lives
------------------
     ethr =  4.83E-03,  avg # of iterations =  1.0

     negative rho (up, down):  7.434E-01 0.000E+00

     total cpu time spent up to now is       87.5 secs

     total energy              =   -4443.06773743 Ry
     estimated scf accuracy    <      58.90836684 Ry

     iteration #  7     ecut=    60.00 Ry     beta= 0.15
     Davidson diagonalization with overlap

---- Real-time Memory Report at c_bands before calling an iterative solver
             0 MiB given to the printing process from OS
             0 MiB allocation reported by mallinfo(arena+hblkhd)
         50991 MiB available memory on the node where the printing process lives
------------------
     ethr =  4.83E-03,  avg # of iterations =  1.0

     negative rho (up, down):  7.503E-01 0.000E+00

     total cpu time spent up to now is      100.2 secs

     total energy              =   -4439.03000147 Ry
     estimated scf accuracy    <      47.65100525 Ry

     iteration #  8     ecut=    60.00 Ry     beta= 0.15
     Davidson diagonalization with overlap

---- Real-time Memory Report at c_bands before calling an iterative solver
             0 MiB given to the printing process from OS
             0 MiB allocation reported by mallinfo(arena+hblkhd)
         50976 MiB available memory on the node where the printing process lives
------------------
     ethr =  4.83E-03,  avg # of iterations =  1.0

     negative rho (up, down):  7.462E-01 0.000E+00

     total cpu time spent up to now is      112.6 secs

     total energy              =   -4440.98412305 Ry
     estimated scf accuracy    <       9.94727260 Ry

     iteration #  9     ecut=    60.00 Ry     beta= 0.15
     Davidson diagonalization with overlap

---- Real-time Memory Report at c_bands before calling an iterative solver
             0 MiB given to the printing process from OS
             0 MiB allocation reported by mallinfo(arena+hblkhd)
         50959 MiB available memory on the node where the printing process lives
------------------
     ethr =  2.31E-03,  avg # of iterations =  1.1

     negative rho (up, down):  7.540E-01 0.000E+00

     total cpu time spent up to now is      125.3 secs

     total energy              =   -4441.17759652 Ry
     estimated scf accuracy    <       6.35576795 Ry

     iteration # 10     ecut=    60.00 Ry     beta= 0.15
     Davidson diagonalization with overlap

---- Real-time Memory Report at c_bands before calling an iterative solver
             0 MiB given to the printing process from OS
             0 MiB allocation reported by mallinfo(arena+hblkhd)
         50936 MiB available memory on the node where the printing process lives
------------------
     ethr =  1.48E-03,  avg # of iterations =  2.0

     negative rho (up, down):  7.719E-01 0.000E+00

     total cpu time spent up to now is      139.3 secs

     total energy              =   -4440.17916735 Ry
     estimated scf accuracy    <      14.06792763 Ry

     iteration # 11     ecut=    60.00 Ry     beta= 0.15
     Davidson diagonalization with overlap

---- Real-time Memory Report at c_bands before calling an iterative solver
             0 MiB given to the printing process from OS
             0 MiB allocation reported by mallinfo(arena+hblkhd)
         50927 MiB available memory on the node where the printing process lives
------------------
     ethr =  1.48E-03,  avg # of iterations =  6.2

     negative rho (up, down):  7.744E-01 0.000E+00

     total cpu time spent up to now is      155.4 secs

     total energy              =   -4439.79145525 Ry
     estimated scf accuracy    <      21.29125781 Ry

     iteration # 12     ecut=    60.00 Ry     beta= 0.15
     Davidson diagonalization with overlap

---- Real-time Memory Report at c_bands before calling an iterative solver
             0 MiB given to the printing process from OS
             0 MiB allocation reported by mallinfo(arena+hblkhd)
         50804 MiB available memory on the node where the printing process lives
------------------
     ethr =  1.48E-03,  avg # of iterations =  3.3

     negative rho (up, down):  7.791E-01 0.000E+00

     total cpu time spent up to now is      170.1 secs

     total energy              =   -4440.60613825 Ry
     estimated scf accuracy    <       2.49058460 Ry

     iteration # 13     ecut=    60.00 Ry     beta= 0.15
     Davidson diagonalization with overlap

---- Real-time Memory Report at c_bands before calling an iterative solver
             0 MiB given to the printing process from OS
             0 MiB allocation reported by mallinfo(arena+hblkhd)
         50779 MiB available memory on the node where the printing process lives
------------------
     ethr =  5.79E-04,  avg # of iterations = 11.2

     negative rho (up, down):  7.889E-01 0.000E+00

     total cpu time spent up to now is      188.4 secs

     total energy              =   -4440.38063788 Ry
     estimated scf accuracy    <       2.33590125 Ry

     iteration # 14     ecut=    60.00 Ry     beta= 0.15
     Davidson diagonalization with overlap

---- Real-time Memory Report at c_bands before calling an iterative solver
             0 MiB given to the printing process from OS
             0 MiB allocation reported by mallinfo(arena+hblkhd)
         50502 MiB available memory on the node where the printing process lives
------------------
     ethr =  5.43E-04,  avg # of iterations =  2.0

     negative rho (up, down):  8.026E-01 0.000E+00

     total cpu time spent up to now is      202.5 secs

     total energy              =   -4440.46363282 Ry
     estimated scf accuracy    <       2.61606415 Ry

     iteration # 15     ecut=    60.00 Ry     beta= 0.15
     Davidson diagonalization with overlap

---- Real-time Memory Report at c_bands before calling an iterative solver
             0 MiB given to the printing process from OS
             0 MiB allocation reported by mallinfo(arena+hblkhd)
         50403 MiB available memory on the node where the printing process lives
------------------
     ethr =  5.43E-04,  avg # of iterations =  1.0

     negative rho (up, down):  8.229E-01 0.000E+00

     total cpu time spent up to now is      215.2 secs

     total energy              =   -4440.38110241 Ry
     estimated scf accuracy    <       1.35631241 Ry

     iteration # 16     ecut=    60.00 Ry     beta= 0.15
     Davidson diagonalization with overlap

---- Real-time Memory Report at c_bands before calling an iterative solver
             0 MiB given to the printing process from OS
             0 MiB allocation reported by mallinfo(arena+hblkhd)
         50464 MiB available memory on the node where the printing process lives
------------------
     ethr =  3.15E-04,  avg # of iterations =  6.3

     negative rho (up, down):  8.246E-01 0.000E+00

     total cpu time spent up to now is      230.8 secs

     total energy              =   -4440.41114785 Ry
     estimated scf accuracy    <       1.40340536 Ry

     iteration # 17     ecut=    60.00 Ry     beta= 0.15
     Davidson diagonalization with overlap

---- Real-time Memory Report at c_bands before calling an iterative solver
             0 MiB given to the printing process from OS
             0 MiB allocation reported by mallinfo(arena+hblkhd)
         50445 MiB available memory on the node where the printing process lives
------------------
     ethr =  3.15E-04,  avg # of iterations =  1.1

     negative rho (up, down):  8.256E-01 0.000E+00

     total cpu time spent up to now is      243.8 secs

     total energy              =   -4440.31806205 Ry
     estimated scf accuracy    <       1.09628633 Ry

     iteration # 18     ecut=    60.00 Ry     beta= 0.15
     Davidson diagonalization with overlap

---- Real-time Memory Report at c_bands before calling an iterative solver
             0 MiB given to the printing process from OS
             0 MiB allocation reported by mallinfo(arena+hblkhd)
         50442 MiB available memory on the node where the printing process lives
------------------
     ethr =  2.55E-04,  avg # of iterations =  3.4

     negative rho (up, down):  8.239E-01 0.000E+00

     total cpu time spent up to now is      258.6 secs

     total energy              =   -4440.34176009 Ry
     estimated scf accuracy    <       0.20064368 Ry

     iteration # 19     ecut=    60.00 Ry     beta= 0.15
     Davidson diagonalization with overlap

---- Real-time Memory Report at c_bands before calling an iterative solver
             0 MiB given to the printing process from OS
             0 MiB allocation reported by mallinfo(arena+hblkhd)
         50444 MiB available memory on the node where the printing process lives
------------------
     ethr =  4.67E-05,  avg # of iterations = 15.9

     negative rho (up, down):  8.307E-01 0.000E+00

     total cpu time spent up to now is      278.9 secs

     total energy              =   -4440.31893529 Ry
     estimated scf accuracy    <       0.14501438 Ry

     iteration # 20     ecut=    60.00 Ry     beta= 0.15
     Davidson diagonalization with overlap

---- Real-time Memory Report at c_bands before calling an iterative solver
             0 MiB given to the printing process from OS
             0 MiB allocation reported by mallinfo(arena+hblkhd)
         50262 MiB available memory on the node where the printing process lives
------------------
     ethr =  3.37E-05,  avg # of iterations =  7.1

     negative rho (up, down):  8.379E-01 0.000E+00

     total cpu time spent up to now is      295.9 secs

     total energy              =   -4440.30726630 Ry
     estimated scf accuracy    <       0.11786502 Ry

     iteration # 21     ecut=    60.00 Ry     beta= 0.15
     Davidson diagonalization with overlap

---- Real-time Memory Report at c_bands before calling an iterative solver
             0 MiB given to the printing process from OS
             0 MiB allocation reported by mallinfo(arena+hblkhd)
         50251 MiB available memory on the node where the printing process lives
------------------
     ethr =  2.74E-05,  avg # of iterations =  7.5

     negative rho (up, down):  8.391E-01 0.000E+00

     total cpu time spent up to now is      312.8 secs

     total energy              =   -4440.30631555 Ry
     estimated scf accuracy    <       0.04350642 Ry

     iteration # 22     ecut=    60.00 Ry     beta= 0.15
     Davidson diagonalization with overlap

---- Real-time Memory Report at c_bands before calling an iterative solver
             0 MiB given to the printing process from OS
             0 MiB allocation reported by mallinfo(arena+hblkhd)
         50231 MiB available memory on the node where the printing process lives
------------------
     ethr =  1.01E-05,  avg # of iterations =  8.0

     negative rho (up, down):  8.143E-01 0.000E+00

     total cpu time spent up to now is      330.0 secs

     total energy              =   -4440.29910879 Ry
     estimated scf accuracy    <       0.16696576 Ry

     iteration # 23     ecut=    60.00 Ry     beta= 0.15
     Davidson diagonalization with overlap

---- Real-time Memory Report at c_bands before calling an iterative solver
             0 MiB given to the printing process from OS
             0 MiB allocation reported by mallinfo(arena+hblkhd)
         50272 MiB available memory on the node where the printing process lives
------------------
     ethr =  1.01E-05,  avg # of iterations =  3.8

     negative rho (up, down):  8.063E-01 0.000E+00

     total cpu time spent up to now is      344.8 secs

     total energy              =   -4440.30078365 Ry
     estimated scf accuracy    <       0.02849950 Ry

     iteration # 24     ecut=    60.00 Ry     beta= 0.15
     Davidson diagonalization with overlap

---- Real-time Memory Report at c_bands before calling an iterative solver
             0 MiB given to the printing process from OS
             0 MiB allocation reported by mallinfo(arena+hblkhd)
         50268 MiB available memory on the node where the printing process lives
------------------
     ethr =  6.63E-06,  avg # of iterations =  5.9

     negative rho (up, down):  7.971E-01 0.000E+00

     total cpu time spent up to now is      360.9 secs

     total energy              =   -4440.29876325 Ry
     estimated scf accuracy    <       0.01884001 Ry

     iteration # 25     ecut=    60.00 Ry     beta= 0.15
     Davidson diagonalization with overlap

---- Real-time Memory Report at c_bands before calling an iterative solver
             0 MiB given to the printing process from OS
             0 MiB allocation reported by mallinfo(arena+hblkhd)
         50310 MiB available memory on the node where the printing process lives
------------------
     c_bands:  1 eigenvalues not converged
     ethr =  4.38E-06,  avg # of iterations =  8.8

     negative rho (up, down):  7.945E-01 0.000E+00

     total cpu time spent up to now is      377.9 secs

     total energy              =   -4440.29867492 Ry
     estimated scf accuracy    <       0.02235194 Ry

     iteration # 26     ecut=    60.00 Ry     beta= 0.15
     Davidson diagonalization with overlap

---- Real-time Memory Report at c_bands before calling an iterative solver
             0 MiB given to the printing process from OS
             0 MiB allocation reported by mallinfo(arena+hblkhd)
         50291 MiB available memory on the node where the printing process lives
------------------
     ethr =  4.38E-06,  avg # of iterations =  5.6

     negative rho (up, down):  7.960E-01 0.000E+00

     total cpu time spent up to now is      394.0 secs

     total energy              =   -4440.29856755 Ry
     estimated scf accuracy    <       0.01295673 Ry

     iteration # 27     ecut=    60.00 Ry     beta= 0.15
     Davidson diagonalization with overlap

---- Real-time Memory Report at c_bands before calling an iterative solver
             0 MiB given to the printing process from OS
             0 MiB allocation reported by mallinfo(arena+hblkhd)
         50285 MiB available memory on the node where the printing process lives
------------------
     ethr =  3.01E-06,  avg # of iterations =  6.7

     negative rho (up, down):  7.968E-01 0.000E+00

     total cpu time spent up to now is      410.5 secs

     total energy              =   -4440.29873055 Ry
     estimated scf accuracy    <       0.00180782 Ry

     iteration # 28     ecut=    60.00 Ry     beta= 0.15
     Davidson diagonalization with overlap

---- Real-time Memory Report at c_bands before calling an iterative solver
             0 MiB given to the printing process from OS
             0 MiB allocation reported by mallinfo(arena+hblkhd)
         50290 MiB available memory on the node where the printing process lives
------------------
     c_bands:  1 eigenvalues not converged
     c_bands:  1 eigenvalues not converged
     ethr =  4.20E-07,  avg # of iterations = 11.3

     negative rho (up, down):  8.002E-01 0.000E+00

     total cpu time spent up to now is      428.7 secs

     total energy              =   -4440.29872766 Ry
     estimated scf accuracy    <       0.00126300 Ry

     iteration # 29     ecut=    60.00 Ry     beta= 0.15
     Davidson diagonalization with overlap

---- Real-time Memory Report at c_bands before calling an iterative solver
             0 MiB given to the printing process from OS
             0 MiB allocation reported by mallinfo(arena+hblkhd)
         50297 MiB available memory on the node where the printing process lives
------------------
     c_bands:  1 eigenvalues not converged
     c_bands:  2 eigenvalues not converged
     ethr =  2.94E-07,  avg # of iterations =  9.9

     negative rho (up, down):  8.007E-01 0.000E+00

     total cpu time spent up to now is      447.0 secs

     total energy              =   -4440.29876878 Ry
     estimated scf accuracy    <       0.00057339 Ry

     iteration # 30     ecut=    60.00 Ry     beta= 0.15
     Davidson diagonalization with overlap

---- Real-time Memory Report at c_bands before calling an iterative solver
             0 MiB given to the printing process from OS
             0 MiB allocation reported by mallinfo(arena+hblkhd)
         50212 MiB available memory on the node where the printing process lives
------------------
     ethr =  1.33E-07,  avg # of iterations =  5.0

     negative rho (up, down):  7.995E-01 0.000E+00

     total cpu time spent up to now is      462.5 secs

     total energy              =   -4440.29876464 Ry
     estimated scf accuracy    <       0.00025183 Ry

     iteration # 31     ecut=    60.00 Ry     beta= 0.15
     Davidson diagonalization with overlap

---- Real-time Memory Report at c_bands before calling an iterative solver
             0 MiB given to the printing process from OS
             0 MiB allocation reported by mallinfo(arena+hblkhd)
         50235 MiB available memory on the node where the printing process lives
------------------
     ethr =  5.86E-08,  avg # of iterations =  2.0

     negative rho (up, down):  7.960E-01 0.000E+00

     total cpu time spent up to now is      476.7 secs

     total energy              =   -4440.29869665 Ry
     estimated scf accuracy    <       0.00013452 Ry

     iteration # 32     ecut=    60.00 Ry     beta= 0.15
     Davidson diagonalization with overlap

---- Real-time Memory Report at c_bands before calling an iterative solver
             0 MiB given to the printing process from OS
             0 MiB allocation reported by mallinfo(arena+hblkhd)
         50214 MiB available memory on the node where the printing process lives
------------------
     ethr =  3.13E-08,  avg # of iterations =  3.9

     negative rho (up, down):  7.941E-01 0.000E+00

     total cpu time spent up to now is      491.8 secs

     total energy              =   -4440.29867213 Ry
     estimated scf accuracy    <       0.00007452 Ry

     iteration # 33     ecut=    60.00 Ry     beta= 0.15
     Davidson diagonalization with overlap

---- Real-time Memory Report at c_bands before calling an iterative solver
             0 MiB given to the printing process from OS
             0 MiB allocation reported by mallinfo(arena+hblkhd)
         50217 MiB available memory on the node where the printing process lives
------------------
     ethr =  1.73E-08,  avg # of iterations =  6.3

     negative rho (up, down):  7.936E-01 0.000E+00

     total cpu time spent up to now is      508.2 secs

     total energy              =   -4440.29866810 Ry
     estimated scf accuracy    <       0.00004849 Ry

     iteration # 34     ecut=    60.00 Ry     beta= 0.15
     Davidson diagonalization with overlap

---- Real-time Memory Report at c_bands before calling an iterative solver
             0 MiB given to the printing process from OS
             0 MiB allocation reported by mallinfo(arena+hblkhd)
         50246 MiB available memory on the node where the printing process lives
------------------
     ethr =  1.13E-08,  avg # of iterations =  2.0

     negative rho (up, down):  7.929E-01 0.000E+00

     total cpu time spent up to now is      522.2 secs

     total energy              =   -4440.29866751 Ry
     estimated scf accuracy    <       0.00002699 Ry

     iteration # 35     ecut=    60.00 Ry     beta= 0.15
     Davidson diagonalization with overlap

---- Real-time Memory Report at c_bands before calling an iterative solver
             0 MiB given to the printing process from OS
             0 MiB allocation reported by mallinfo(arena+hblkhd)
         50276 MiB available memory on the node where the printing process lives
------------------
     ethr =  6.28E-09,  avg # of iterations =  2.8

     negative rho (up, down):  7.926E-01 0.000E+00

     total cpu time spent up to now is      536.9 secs

     total energy              =   -4440.29866858 Ry
     estimated scf accuracy    <       0.00001540 Ry

     iteration # 36     ecut=    60.00 Ry     beta= 0.15
     Davidson diagonalization with overlap

---- Real-time Memory Report at c_bands before calling an iterative solver
             0 MiB given to the printing process from OS
             0 MiB allocation reported by mallinfo(arena+hblkhd)
         50274 MiB available memory on the node where the printing process lives
------------------
     ethr =  3.58E-09,  avg # of iterations =  2.4

     negative rho (up, down):  7.924E-01 0.000E+00

     total cpu time spent up to now is      551.1 secs

     total energy              =   -4440.29866855 Ry
     estimated scf accuracy    <       0.00000777 Ry

     iteration # 37     ecut=    60.00 Ry     beta= 0.15
     Davidson diagonalization with overlap

---- Real-time Memory Report at c_bands before calling an iterative solver
             0 MiB given to the printing process from OS
             0 MiB allocation reported by mallinfo(arena+hblkhd)
         50266 MiB available memory on the node where the printing process lives
------------------
     ethr =  1.81E-09,  avg # of iterations =  2.9

     negative rho (up, down):  7.925E-01 0.000E+00

     total cpu time spent up to now is      565.7 secs

     total energy              =   -4440.29866735 Ry
     estimated scf accuracy    <       0.00000497 Ry

     iteration # 38     ecut=    60.00 Ry     beta= 0.15
     Davidson diagonalization with overlap

---- Real-time Memory Report at c_bands before calling an iterative solver
             0 MiB given to the printing process from OS
             0 MiB allocation reported by mallinfo(arena+hblkhd)
         50279 MiB available memory on the node where the printing process lives
------------------
     ethr =  1.15E-09,  avg # of iterations =  2.6

     negative rho (up, down):  7.925E-01 0.000E+00

     total cpu time spent up to now is      580.1 secs

     total energy              =   -4440.29866683 Ry
     estimated scf accuracy    <       0.00000289 Ry

     iteration # 39     ecut=    60.00 Ry     beta= 0.15
     Davidson diagonalization with overlap

---- Real-time Memory Report at c_bands before calling an iterative solver
             0 MiB given to the printing process from OS
             0 MiB allocation reported by mallinfo(arena+hblkhd)
         50282 MiB available memory on the node where the printing process lives
------------------
     ethr =  6.73E-10,  avg # of iterations =  2.0

     negative rho (up, down):  7.925E-01 0.000E+00

     total cpu time spent up to now is      594.2 secs

     total energy              =   -4440.29866751 Ry
     estimated scf accuracy    <       0.00000252 Ry

     iteration # 40     ecut=    60.00 Ry     beta= 0.15
     Davidson diagonalization with overlap

---- Real-time Memory Report at c_bands before calling an iterative solver
             0 MiB given to the printing process from OS
             0 MiB allocation reported by mallinfo(arena+hblkhd)
         50299 MiB available memory on the node where the printing process lives
------------------
     ethr =  5.86E-10,  avg # of iterations =  1.7

     negative rho (up, down):  7.925E-01 0.000E+00

     total cpu time spent up to now is      608.0 secs

     total energy              =   -4440.29866778 Ry
     estimated scf accuracy    <       0.00000209 Ry

     iteration # 41     ecut=    60.00 Ry     beta= 0.15
     Davidson diagonalization with overlap

---- Real-time Memory Report at c_bands before calling an iterative solver
             0 MiB given to the printing process from OS
             0 MiB allocation reported by mallinfo(arena+hblkhd)
         50295 MiB available memory on the node where the printing process lives
------------------
     ethr =  4.85E-10,  avg # of iterations =  1.4

     negative rho (up, down):  7.925E-01 0.000E+00

     total cpu time spent up to now is      621.6 secs

     total energy              =   -4440.29866865 Ry
     estimated scf accuracy    <       0.00000154 Ry

     iteration # 42     ecut=    60.00 Ry     beta= 0.15
     Davidson diagonalization with overlap

---- Real-time Memory Report at c_bands before calling an iterative solver
             0 MiB given to the printing process from OS
             0 MiB allocation reported by mallinfo(arena+hblkhd)
         50295 MiB available memory on the node where the printing process lives
------------------
     ethr =  3.58E-10,  avg # of iterations =  2.0

     negative rho (up, down):  7.925E-01 0.000E+00

     total cpu time spent up to now is      635.6 secs

     total energy              =   -4440.29866917 Ry
     estimated scf accuracy    <       0.00000111 Ry

     iteration # 43     ecut=    60.00 Ry     beta= 0.15
     Davidson diagonalization with overlap

---- Real-time Memory Report at c_bands before calling an iterative solver
             0 MiB given to the printing process from OS
             0 MiB allocation reported by mallinfo(arena+hblkhd)
         50295 MiB available memory on the node where the printing process lives
------------------
     ethr =  2.59E-10,  avg # of iterations =  2.6

     negative rho (up, down):  7.926E-01 0.000E+00

     total cpu time spent up to now is      649.8 secs

     total energy              =   -4440.29866922 Ry
     estimated scf accuracy    <       0.00000052 Ry

     iteration # 44     ecut=    60.00 Ry     beta= 0.15
     Davidson diagonalization with overlap

---- Real-time Memory Report at c_bands before calling an iterative solver
             0 MiB given to the printing process from OS
             0 MiB allocation reported by mallinfo(arena+hblkhd)
         50305 MiB available memory on the node where the printing process lives
------------------
     ethr =  1.21E-10,  avg # of iterations =  2.8

     negative rho (up, down):  7.926E-01 0.000E+00

     total cpu time spent up to now is      664.2 secs

     total energy              =   -4440.29866911 Ry
     estimated scf accuracy    <       0.00000033 Ry

     iteration # 45     ecut=    60.00 Ry     beta= 0.15
     Davidson diagonalization with overlap

---- Real-time Memory Report at c_bands before calling an iterative solver
             0 MiB given to the printing process from OS
             0 MiB allocation reported by mallinfo(arena+hblkhd)
         50306 MiB available memory on the node where the printing process lives
------------------
     ethr =  7.78E-11,  avg # of iterations =  2.3

     negative rho (up, down):  7.926E-01 0.000E+00

     total cpu time spent up to now is      678.3 secs

     total energy              =   -4440.29866915 Ry
     estimated scf accuracy    <       0.00000015 Ry

     iteration # 46     ecut=    60.00 Ry     beta= 0.15
     Davidson diagonalization with overlap

---- Real-time Memory Report at c_bands before calling an iterative solver
             0 MiB given to the printing process from OS
             0 MiB allocation reported by mallinfo(arena+hblkhd)
         50348 MiB available memory on the node where the printing process lives
------------------
     ethr =  3.48E-11,  avg # of iterations =  2.0

     negative rho (up, down):  7.926E-01 0.000E+00

     total cpu time spent up to now is      692.3 secs

     total energy              =   -4440.29866917 Ry
     estimated scf accuracy    <       0.00000007 Ry

     iteration # 47     ecut=    60.00 Ry     beta= 0.15
     Davidson diagonalization with overlap

---- Real-time Memory Report at c_bands before calling an iterative solver
             0 MiB given to the printing process from OS
             0 MiB allocation reported by mallinfo(arena+hblkhd)
         50308 MiB available memory on the node where the printing process lives
------------------
     ethr =  1.64E-11,  avg # of iterations =  2.1

     negative rho (up, down):  7.926E-01 0.000E+00

     total cpu time spent up to now is      706.7 secs

     total energy              =   -4440.29866920 Ry
     estimated scf accuracy    <       0.00000003 Ry

     iteration # 48     ecut=    60.00 Ry     beta= 0.15
     Davidson diagonalization with overlap

---- Real-time Memory Report at c_bands before calling an iterative solver
             0 MiB given to the printing process from OS
             0 MiB allocation reported by mallinfo(arena+hblkhd)
         50306 MiB available memory on the node where the printing process lives
------------------
     ethr =  7.45E-12,  avg # of iterations =  2.6

     negative rho (up, down):  7.926E-01 0.000E+00

     total cpu time spent up to now is      721.0 secs

     total energy              =   -4440.29866924 Ry
     estimated scf accuracy    <       0.00000002 Ry

     iteration # 49     ecut=    60.00 Ry     beta= 0.15
     Davidson diagonalization with overlap

---- Real-time Memory Report at c_bands before calling an iterative solver
             0 MiB given to the printing process from OS
             0 MiB allocation reported by mallinfo(arena+hblkhd)
         50311 MiB available memory on the node where the printing process lives
------------------
     ethr =  4.48E-12,  avg # of iterations =  2.7

     negative rho (up, down):  7.926E-01 0.000E+00

     total cpu time spent up to now is      735.2 secs

     End of self-consistent calculation

          k = 0.0000 0.0000 0.0000 ( 65197 PWs)   bands (ev):

   -92.8707 -92.8208 -92.7248 -92.6776 -92.6197 -92.5771 -92.5603 -92.4370
   -56.2243 -56.2078 -56.0817 -56.0711 -56.0649 -56.0580 -56.0253 -55.9937
   -55.9793 -55.9769 -55.9697 -55.9271 -55.9077 -55.8707 -55.8516 -55.8195
   -55.8134 -55.7653 -55.7621 -55.7621 -55.7537 -55.7102 -55.6902 -55.6049
   -31.4344 -31.4145 -31.2740 -31.1871 -31.1753 -31.0855 -30.9504 -30.9057
   -30.0152 -29.9717 -29.9471 -29.8390 -15.2474 -15.2018 -15.1222 -14.9922
   -14.7949 -14.6725 -14.3834 -14.3595 -14.3338 -14.2872 -14.2423 -14.2318
   -14.2173 -14.2015 -14.1733 -14.1403 -14.0951 -13.9432 -13.7615 -13.7308
   -13.7018 -13.6663 -13.6514 -13.5940 -13.5631 -13.4772 -13.4096 -13.2821
   -13.2669 -13.2548 -13.2325 -13.2148 -13.1846 -13.1586 -13.1507 -13.1291
   -13.1097 -13.0804 -13.0583 -12.9995 -12.9908 -12.9763 -12.9176 -12.8895
   -12.8845 -12.8140 -12.7846 -12.7746 -12.5011 -12.3552 -12.1779 -12.1013
   -12.0285 -11.9807 -11.9544 -11.9437 -11.9206 -11.9031 -11.8397 -11.8227
   -11.7872 -11.7583 -11.6475 -11.5676 -11.5639  -3.1085  -2.8769  -2.6471
    -2.4998  -2.4376  -2.2958  -1.9881  -1.9737  -1.9547  -1.8687  -1.8494
    -1.7814  -1.7646  -1.7244  -1.6782  -1.4984  -1.2716  -1.2432  -1.0981
    -1.0835  -1.0356  -1.0180  -0.9713  -0.9536  -0.9008  -0.8743  -0.8000
    -0.7872  -0.7143  -0.5798  -0.5659  -0.5386  -0.4586  -0.4340  -0.4143
    -0.3599  -0.2938  -0.2488  -0.1927  -0.1690  -0.1014  -0.0216   0.0133
     0.0412   0.0549   0.3094   0.3238   0.4987   0.5593   0.6251   0.6813
     0.7639   0.7762   0.7951   0.8579   0.8847   0.9190   0.9758   1.1060
     1.1668   1.1888   1.2147   1.2239   1.2861   1.3527   1.4651   1.4809
     1.5413   1.5492   1.5954   1.6157   1.6240   1.6786   1.7377   1.7518
     1.7870   1.8252   1.8624   1.9942   2.0782   2.1191   2.1479   2.2877
     2.3055   2.3435   2.3459   2.4597   2.4907   2.5169   2.5367   2.5452
     2.6107   2.6242   2.6421   2.6624   2.7421   2.7734   2.7837   2.7905
     2.8574   2.8629   2.8859   2.8930   2.9036   2.9211   2.9237   2.9394
     2.9423   2.9565   2.9633   2.9730   2.9888   3.0096   3.0150   3.0270
     3.0518   3.1677   3.2767   3.9553   4.2643   4.6190   4.8343   4.8851
     5.7748   5.8010   5.8298   5.8948   6.1471   6.1933   6.4397   6.4511
     6.9514   6.9864   7.0843   7.1718   7.4372   7.5286   7.5538   7.5769
     7.5979   7.8398   7.8797   8.0394   8.0659   8.1405   8.3174   8.5186
     8.7546   8.9422

     occupation numbers 
     1.0000   1.0000   1.0000   1.0000   1.0000   1.0000   1.0000   1.0000
     1.0000   1.0000   1.0000   1.0000   1.0000   1.0000   1.0000   1.0000
     1.0000   1.0000   1.0000   1.0000   1.0000   1.0000   1.0000   1.0000
     1.0000   1.0000   1.0000   1.0000   1.0000   1.0000   1.0000   1.0000
     1.0000   1.0000   1.0000   1.0000   1.0000   1.0000   1.0000   1.0000
     1.0000   1.0000   1.0000   1.0000   1.0000   1.0000   1.0000   1.0000
     1.0000   1.0000   1.0000   1.0000   1.0000   1.0000   1.0000   1.0000
     1.0000   1.0000   1.0000   1.0000   1.0000   1.0000   1.0000   1.0000
     1.0000   1.0000   1.0000   1.0000   1.0000   1.0000   1.0000   1.0000
     1.0000   1.0000   1.0000   1.0000   1.0000   1.0000   1.0000   1.0000
     1.0000   1.0000   1.0000   1.0000   1.0000   1.0000   1.0000   1.0000
     1.0000   1.0000   1.0000   1.0000   1.0000   1.0000   1.0000   1.0000
     1.0000   1.0000   1.0000   1.0000   1.0000   1.0000   1.0000   1.0000
     1.0000   1.0000   1.0000   1.0000   1.0000   1.0000   1.0000   1.0000
     1.0000   1.0000   1.0000   1.0000   1.0000   1.0000   1.0000   1.0000
     1.0000   1.0000   1.0000   1.0000   1.0000   1.0000   1.0000   1.0000
     1.0000   1.0000   1.0000   1.0000   1.0000   1.0000   1.0000   1.0000
     1.0000   1.0000   1.0000   1.0000   1.0000   1.0000   1.0000   1.0000
     1.0000   1.0000   1.0000   1.0000   1.0000   1.0000   1.0000   1.0000
     1.0000   1.0000   1.0000   1.0000   1.0000   0.9999   0.9999   0.9999
     0.9998   0.9998   0.9998   0.9997   0.9996   0.9996   0.9994   0.9988
     0.9984   0.9983   0.9980   0.9980   0.9973   0.9963   0.9940   0.9936
     0.9918   0.9915   0.9898   0.9890   0.9886   0.9860   0.9825   0.9816
     0.9791   0.9761   0.9728   0.9580   0.9456   0.9385   0.9332   0.9019
     0.8972   0.8867   0.8861   0.8501   0.8391   0.8294   0.8219   0.8186
     0.7918   0.7860   0.7782   0.7691   0.7316   0.7160   0.7108   0.7073
     0.6723   0.6694   0.6569   0.6530   0.6472   0.6375   0.6360   0.6273
     0.6256   0.6176   0.6138   0.6082   0.5992   0.5872   0.5841   0.5771
     0.5626   0.4942   0.4300   0.1182   0.0502   0.0150   0.0064   0.0052
     0.0001   0.0000   0.0000   0.0000   0.0000   0.0000   0.0000   0.0000
     0.0000   0.0000   0.0000   0.0000   0.0000   0.0000   0.0000   0.0000
     0.0000   0.0000   0.0000   0.0000   0.0000   0.0000   0.0000   0.0000
     0.0000   0.0000

          k = 0.0000 0.2500 0.0000 ( 65257 PWs)   bands (ev):

   -92.8707 -92.8208 -92.7248 -92.6776 -92.6197 -92.5771 -92.5603 -92.4370
   -56.2243 -56.2078 -56.0817 -56.0711 -56.0649 -56.0580 -56.0253 -55.9937
   -55.9793 -55.9769 -55.9697 -55.9271 -55.9077 -55.8707 -55.8516 -55.8195
   -55.8134 -55.7653 -55.7621 -55.7621 -55.7537 -55.7102 -55.6902 -55.6049
   -31.4342 -31.4144 -31.2742 -31.1872 -31.1750 -31.0858 -30.9497 -30.9065
   -30.0145 -29.9714 -29.9478 -29.8394 -15.2109 -15.1757 -15.0972 -14.9626
   -14.8371 -14.6627 -14.5295 -14.3495 -14.3097 -14.2902 -14.2633 -14.2039
   -14.1993 -14.1846 -14.1594 -14.1092 -14.0138 -13.9729 -13.8099 -13.7867
   -13.7416 -13.7059 -13.6554 -13.6156 -13.5707 -13.5028 -13.4632 -13.3870
   -13.3112 -13.3027 -13.2654 -13.2457 -13.1675 -13.1446 -13.1159 -13.0924
   -13.0607 -13.0357 -13.0247 -12.9581 -12.9432 -12.9312 -12.9145 -12.8707
   -12.8518 -12.8077 -12.6995 -12.6260 -12.5624 -12.4064 -12.2358 -12.1700
   -11.9941 -11.9806 -11.9512 -11.9234 -11.8956 -11.8790 -11.8312 -11.8202
   -11.7975 -11.7625 -11.6620 -11.6093 -11.5986  -2.9731  -2.7526  -2.6144
    -2.4326  -2.3892  -2.2261  -2.0049  -1.9226  -1.9096  -1.8497  -1.7484
    -1.7315  -1.6969  -1.6707  -1.6263  -1.4297  -1.3003  -1.2889  -1.2109
    -1.2018  -1.0978  -1.0686  -1.0104  -0.9839  -0.9453  -0.8792  -0.8515
    -0.8211  -0.7885  -0.7722  -0.7393  -0.6652  -0.6150  -0.5410  -0.4332
    -0.4085  -0.3692  -0.2569  -0.2203  -0.1499  -0.1092  -0.0386  -0.0198
    -0.0030   0.0536   0.3570   0.4443   0.4743   0.5667   0.6129   0.6393
     0.7468   0.7656   0.8609   0.8869   0.9101   1.0256   1.1228   1.1419
     1.1660   1.1890   1.2099   1.2683   1.2979   1.3240   1.3716   1.4099
     1.4407   1.5262   1.5603   1.5965   1.6488   1.7010   1.7459   1.7747
     1.8016   1.8120   1.9097   2.0277   2.1026   2.1305   2.1933   2.2408
     2.2810   2.2919   2.3522   2.3872   2.4750   2.5118   2.5286   2.6075
     2.6239   2.6563   2.7023   2.7244   2.7533   2.7764   2.7927   2.8011
     2.8068   2.8170   2.8457   2.8506   2.8674   2.8759   2.8809   2.9009
     2.9149   2.9194   2.9401   2.9516   2.9572   2.9906   3.0074   3.0699
     3.4364   3.4916   3.7207   4.1491   4.2614   4.5552   4.9035   4.9980
     5.5211   5.6518   5.8214   5.9178   5.9635   6.0213   6.0776   6.5559
     7.0387   7.0918   7.2294   7.2537   7.3570   7.4152   7.5236   7.5551
     7.7184   7.9086   8.0786   8.2035   8.2852   8.3094   8.3382   8.4095
     8.5544   8.8243

     occupation numbers 
     1.0000   1.0000   1.0000   1.0000   1.0000   1.0000   1.0000   1.0000
     1.0000   1.0000   1.0000   1.0000   1.0000   1.0000   1.0000   1.0000
     1.0000   1.0000   1.0000   1.0000   1.0000   1.0000   1.0000   1.0000
     1.0000   1.0000   1.0000   1.0000   1.0000   1.0000   1.0000   1.0000
     1.0000   1.0000   1.0000   1.0000   1.0000   1.0000   1.0000   1.0000
     1.0000   1.0000   1.0000   1.0000   1.0000   1.0000   1.0000   1.0000
     1.0000   1.0000   1.0000   1.0000   1.0000   1.0000   1.0000   1.0000
     1.0000   1.0000   1.0000   1.0000   1.0000   1.0000   1.0000   1.0000
     1.0000   1.0000   1.0000   1.0000   1.0000   1.0000   1.0000   1.0000
     1.0000   1.0000   1.0000   1.0000   1.0000   1.0000   1.0000   1.0000
     1.0000   1.0000   1.0000   1.0000   1.0000   1.0000   1.0000   1.0000
     1.0000   1.0000   1.0000   1.0000   1.0000   1.0000   1.0000   1.0000
     1.0000   1.0000   1.0000   1.0000   1.0000   1.0000   1.0000   1.0000
     1.0000   1.0000   1.0000   1.0000   1.0000   1.0000   1.0000   1.0000
     1.0000   1.0000   1.0000   1.0000   1.0000   1.0000   1.0000   1.0000
     1.0000   1.0000   1.0000   1.0000   1.0000   1.0000   1.0000   1.0000
     1.0000   1.0000   1.0000   1.0000   1.0000   1.0000   1.0000   1.0000
     1.0000   1.0000   1.0000   1.0000   1.0000   1.0000   1.0000   1.0000
     1.0000   1.0000   1.0000   1.0000   1.0000   1.0000   1.0000   1.0000
     1.0000   1.0000   1.0000   1.0000   1.0000   0.9999   0.9999   0.9999
     0.9998   0.9998   0.9997   0.9996   0.9996   0.9992   0.9987   0.9986
     0.9985   0.9983   0.9981   0.9975   0.9971   0.9968   0.9960   0.9953
     0.9946   0.9923   0.9912   0.9898   0.9875   0.9847   0.9820   0.9800
     0.9780   0.9772   0.9681   0.9534   0.9415   0.9364   0.9240   0.9134
     0.9036   0.9008   0.8842   0.8738   0.8447   0.8313   0.8250   0.7931
     0.7861   0.7718   0.7507   0.7401   0.7260   0.7145   0.7062   0.7019
     0.6990   0.6937   0.6786   0.6760   0.6669   0.6624   0.6596   0.6487
     0.6409   0.6384   0.6268   0.6204   0.6172   0.5982   0.5884   0.5520
     0.3396   0.3102   0.2017   0.0706   0.0507   0.0190   0.0048   0.0031
     0.0002   0.0001   0.0000   0.0000   0.0000   0.0000   0.0000   0.0000
     0.0000   0.0000   0.0000   0.0000   0.0000   0.0000   0.0000   0.0000
     0.0000   0.0000   0.0000   0.0000   0.0000   0.0000   0.0000   0.0000
     0.0000   0.0000

          k = 0.0000-0.5000 0.0000 ( 65180 PWs)   bands (ev):

   -92.8707 -92.8208 -92.7248 -92.6776 -92.6197 -92.5771 -92.5603 -92.4370
   -56.2243 -56.2078 -56.0817 -56.0711 -56.0649 -56.0580 -56.0253 -55.9937
   -55.9793 -55.9769 -55.9697 -55.9271 -55.9077 -55.8707 -55.8516 -55.8195
   -55.8134 -55.7653 -55.7621 -55.7621 -55.7537 -55.7102 -55.6902 -55.6049
   -31.4340 -31.4143 -31.2744 -31.1873 -31.1746 -31.0862 -30.9489 -30.9072
   -30.0139 -29.9711 -29.9484 -29.8397 -15.1753 -15.1262 -15.0742 -14.9403
   -14.8626 -14.7205 -14.5718 -14.4362 -14.3224 -14.2462 -14.2060 -14.1996
   -14.1477 -14.1340 -14.0881 -14.0615 -14.0393 -13.9996 -13.9483 -13.9286
   -13.7485 -13.6893 -13.6599 -13.6203 -13.5674 -13.5209 -13.4592 -13.4388
   -13.3970 -13.3740 -13.2661 -13.2459 -13.1597 -13.1267 -13.1084 -13.0870
   -13.0771 -13.0401 -12.9442 -12.9252 -12.9074 -12.8648 -12.8563 -12.8372
   -12.8146 -12.8096 -12.6734 -12.5524 -12.4814 -12.3931 -12.3519 -12.3170
   -11.9805 -11.9481 -11.9456 -11.9183 -11.8821 -11.8473 -11.8359 -11.7924
   -11.7884 -11.7437 -11.6842 -11.6704 -11.6561  -2.7587  -2.6988  -2.5497
    -2.4776  -2.1945  -2.1110  -1.9856  -1.8480  -1.8089  -1.7911  -1.7114
    -1.6789  -1.5998  -1.5631  -1.4851  -1.4458  -1.4077  -1.3800  -1.3206
    -1.2851  -1.2354  -1.1998  -1.1698  -1.1332  -1.0256  -0.9808  -0.9440
    -0.9424  -0.8562  -0.8230  -0.8019  -0.7517  -0.6648  -0.5945  -0.5058
    -0.4750  -0.3743  -0.3314  -0.1955  -0.1422  -0.1301  -0.0601   0.0610
     0.1010   0.2251   0.2967   0.3028   0.4297   0.4877   0.6071   0.7083
     0.8185   0.8498   0.8882   0.8976   0.9401   0.9492   0.9841   1.0034
     1.0106   1.1218   1.1838   1.2184   1.2455   1.5077   1.5328   1.5573
     1.6559   1.6826   1.7061   1.7200   1.7462   1.7630   1.7805   1.8033
     1.8401   1.8705   1.9019   1.9062   1.9351   1.9880   2.0751   2.1044
     2.2870   2.4362   2.4452   2.4674   2.5017   2.5089   2.5157   2.5543
     2.5748   2.6077   2.6214   2.6267   2.6396   2.6762   2.7418   2.7496
     2.8138   2.8254   2.8422   2.8494   2.8630   2.8735   2.8751   2.8794
     2.8828   2.8980   2.9117   2.9124   2.9753   2.9825   2.9970   3.0503
     3.9726   3.9987   4.0161   4.1064   4.5921   4.7413   4.9188   5.0153
     5.2985   5.3693   5.5024   5.5945   5.8688   5.8889   6.2685   6.7130
     6.8036   6.8964   7.1548   7.3132   7.5716   7.5948   7.6740   7.7214
     7.7854   7.9075   8.0759   8.2026   8.2728   8.3572   8.4710   8.5296
     8.6984   8.7490

     occupation numbers 
     1.0000   1.0000   1.0000   1.0000   1.0000   1.0000   1.0000   1.0000
     1.0000   1.0000   1.0000   1.0000   1.0000   1.0000   1.0000   1.0000
     1.0000   1.0000   1.0000   1.0000   1.0000   1.0000   1.0000   1.0000
     1.0000   1.0000   1.0000   1.0000   1.0000   1.0000   1.0000   1.0000
     1.0000   1.0000   1.0000   1.0000   1.0000   1.0000   1.0000   1.0000
     1.0000   1.0000   1.0000   1.0000   1.0000   1.0000   1.0000   1.0000
     1.0000   1.0000   1.0000   1.0000   1.0000   1.0000   1.0000   1.0000
     1.0000   1.0000   1.0000   1.0000   1.0000   1.0000   1.0000   1.0000
     1.0000   1.0000   1.0000   1.0000   1.0000   1.0000   1.0000   1.0000
     1.0000   1.0000   1.0000   1.0000   1.0000   1.0000   1.0000   1.0000
     1.0000   1.0000   1.0000   1.0000   1.0000   1.0000   1.0000   1.0000
     1.0000   1.0000   1.0000   1.0000   1.0000   1.0000   1.0000   1.0000
     1.0000   1.0000   1.0000   1.0000   1.0000   1.0000   1.0000   1.0000
     1.0000   1.0000   1.0000   1.0000   1.0000   1.0000   1.0000   1.0000
     1.0000   1.0000   1.0000   1.0000   1.0000   1.0000   1.0000   1.0000
     1.0000   1.0000   1.0000   1.0000   1.0000   1.0000   1.0000   1.0000
     1.0000   1.0000   1.0000   1.0000   1.0000   1.0000   1.0000   1.0000
     1.0000   1.0000   1.0000   1.0000   1.0000   1.0000   1.0000   1.0000
     1.0000   1.0000   1.0000   1.0000   1.0000   1.0000   1.0000   1.0000
     1.0000   1.0000   1.0000   1.0000   1.0000   1.0000   0.9999   0.9999
     0.9997   0.9997   0.9996   0.9996   0.9995   0.9995   0.9994   0.9993
     0.9993   0.9988   0.9983   0.9980   0.9977   0.9929   0.9921   0.9913
     0.9871   0.9858   0.9845   0.9836   0.9820   0.9808   0.9796   0.9779
     0.9748   0.9720   0.9689   0.9685   0.9653   0.9588   0.9461   0.9411
     0.9020   0.8581   0.8551   0.8474   0.8351   0.8324   0.8299   0.8150
     0.8067   0.7931   0.7872   0.7849   0.7793   0.7628   0.7317   0.7279
     0.6953   0.6893   0.6804   0.6766   0.6693   0.6637   0.6627   0.6604
     0.6586   0.6503   0.6427   0.6423   0.6069   0.6028   0.5945   0.5635
     0.1132   0.1059   0.1013   0.0795   0.0166   0.0094   0.0045   0.0029
     0.0007   0.0005   0.0002   0.0001   0.0000   0.0000   0.0000   0.0000
     0.0000   0.0000   0.0000   0.0000   0.0000   0.0000   0.0000   0.0000
     0.0000   0.0000   0.0000   0.0000   0.0000   0.0000   0.0000   0.0000
     0.0000   0.0000

          k = 0.2500 0.2500 0.0000 ( 65198 PWs)   bands (ev):

   -92.8707 -92.8208 -92.7248 -92.6776 -92.6197 -92.5771 -92.5603 -92.4370
   -56.2243 -56.2078 -56.0817 -56.0711 -56.0649 -56.0580 -56.0253 -55.9937
   -55.9793 -55.9769 -55.9697 -55.9271 -55.9077 -55.8707 -55.8516 -55.8195
   -55.8134 -55.7653 -55.7621 -55.7621 -55.7537 -55.7102 -55.6902 -55.6049
   -31.4326 -31.4161 -31.2739 -31.1876 -31.1748 -31.0857 -30.9498 -30.9066
   -30.0136 -29.9724 -29.9474 -29.8398 -15.1821 -15.1410 -15.0693 -14.9520
   -14.8299 -14.7046 -14.6351 -14.4237 -14.2724 -14.2568 -14.2215 -14.1911
   -14.1716 -14.1437 -14.1051 -14.0717 -14.0044 -13.9861 -13.8262 -13.8113
   -13.7838 -13.7622 -13.6986 -13.6732 -13.6016 -13.5865 -13.4435 -13.3957
   -13.3828 -13.2984 -13.2586 -13.2068 -13.1760 -13.1473 -13.1250 -13.1040
   -13.0738 -13.0206 -12.9809 -12.9303 -12.9165 -12.9021 -12.8751 -12.8706
   -12.8150 -12.8043 -12.6362 -12.6109 -12.5387 -12.4354 -12.2676 -12.2169
   -11.9808 -11.9662 -11.9348 -11.9238 -11.9168 -11.8540 -11.8198 -11.8131
   -11.7775 -11.7694 -11.6786 -11.6375 -11.6201  -2.8347  -2.6268  -2.5082
    -2.4138  -2.2939  -2.2293  -2.0295  -1.8872  -1.8681  -1.8367  -1.7431
    -1.7073  -1.6139  -1.5865  -1.5361  -1.4054  -1.3571  -1.2832  -1.2390
    -1.1943  -1.1711  -1.1476  -1.1048  -1.0896  -0.9982  -0.9483  -0.8808
    -0.8314  -0.8022  -0.7549  -0.7388  -0.6754  -0.6264  -0.5644  -0.5341
    -0.4445  -0.3955  -0.3648  -0.3289  -0.2720  -0.1971  -0.1614  -0.1288
    -0.0536  -0.0085   0.2450   0.3936   0.4269   0.4893   0.5283   0.6042
     0.6492   0.7057   0.7415   1.0135   1.0760   1.1492   1.1727   1.2274
     1.2543   1.2903   1.3266   1.3439   1.3707   1.4174   1.4253   1.4407
     1.4897   1.5299   1.5641   1.6229   1.6653   1.6727   1.7096   1.7419
     1.8016   1.8282   1.9495   2.0114   2.0450   2.0678   2.1444   2.2049
     2.2303   2.2650   2.2913   2.3041   2.4192   2.4539   2.5385   2.6083
     2.6179   2.6710   2.7093   2.7281   2.7320   2.7480   2.7632   2.7772
     2.7889   2.7955   2.8076   2.8205   2.8354   2.8515   2.8575   2.8721
     2.8932   2.9032   2.9109   2.9441   3.2431   3.3371   3.3842   3.4563
     3.4871   3.7047   3.7877   4.1480   4.3559   4.5662   4.8226   5.1366
     5.5108   5.5716   5.6162   5.6710   5.7343   6.0927   6.1498   6.1702
     6.8430   7.0892   7.2004   7.3710   7.4632   7.4927   7.6026   7.7685
     7.8686   7.9647   8.2123   8.2581   8.3358   8.3902   8.4392   8.4697
     8.5555   8.6676

     occupation numbers 
     1.0000   1.0000   1.0000   1.0000   1.0000   1.0000   1.0000   1.0000
     1.0000   1.0000   1.0000   1.0000   1.0000   1.0000   1.0000   1.0000
     1.0000   1.0000   1.0000   1.0000   1.0000   1.0000   1.0000   1.0000
     1.0000   1.0000   1.0000   1.0000   1.0000   1.0000   1.0000   1.0000
     1.0000   1.0000   1.0000   1.0000   1.0000   1.0000   1.0000   1.0000
     1.0000   1.0000   1.0000   1.0000   1.0000   1.0000   1.0000   1.0000
     1.0000   1.0000   1.0000   1.0000   1.0000   1.0000   1.0000   1.0000
     1.0000   1.0000   1.0000   1.0000   1.0000   1.0000   1.0000   1.0000
     1.0000   1.0000   1.0000   1.0000   1.0000   1.0000   1.0000   1.0000
     1.0000   1.0000   1.0000   1.0000   1.0000   1.0000   1.0000   1.0000
     1.0000   1.0000   1.0000   1.0000   1.0000   1.0000   1.0000   1.0000
     1.0000   1.0000   1.0000   1.0000   1.0000   1.0000   1.0000   1.0000
     1.0000   1.0000   1.0000   1.0000   1.0000   1.0000   1.0000   1.0000
     1.0000   1.0000   1.0000   1.0000   1.0000   1.0000   1.0000   1.0000
     1.0000   1.0000   1.0000   1.0000   1.0000   1.0000   1.0000   1.0000
     1.0000   1.0000   1.0000   1.0000   1.0000   1.0000   1.0000   1.0000
     1.0000   1.0000   1.0000   1.0000   1.0000   1.0000   1.0000   1.0000
     1.0000   1.0000   1.0000   1.0000   1.0000   1.0000   1.0000   1.0000
     1.0000   1.0000   1.0000   1.0000   1.0000   1.0000   1.0000   1.0000
     1.0000   1.0000   1.0000   1.0000   1.0000   1.0000   1.0000   0.9999
     0.9999   0.9999   0.9998   0.9993   0.9990   0.9986   0.9984   0.9979
     0.9976   0.9972   0.9967   0.9965   0.9960   0.9951   0.9950   0.9946
     0.9934   0.9922   0.9910   0.9887   0.9867   0.9863   0.9842   0.9823
     0.9780   0.9758   0.9636   0.9557   0.9508   0.9472   0.9338   0.9215
     0.9158   0.9076   0.9009   0.8976   0.8637   0.8521   0.8212   0.7928
     0.7887   0.7652   0.7474   0.7384   0.7365   0.7287   0.7211   0.7141
     0.7082   0.7048   0.6986   0.6918   0.6840   0.6755   0.6723   0.6644
     0.6529   0.6474   0.6431   0.6246   0.4497   0.3951   0.3684   0.3289
     0.3125   0.2085   0.1749   0.0708   0.0376   0.0183   0.0067   0.0017
     0.0002   0.0002   0.0001   0.0001   0.0001   0.0000   0.0000   0.0000
     0.0000   0.0000   0.0000   0.0000   0.0000   0.0000   0.0000   0.0000
     0.0000   0.0000   0.0000   0.0000   0.0000   0.0000   0.0000   0.0000
     0.0000   0.0000

          k = 0.2500-0.5000 0.0000 ( 65138 PWs)   bands (ev):

   -92.8707 -92.8208 -92.7248 -92.6776 -92.6197 -92.5771 -92.5603 -92.4370
   -56.2243 -56.2078 -56.0817 -56.0711 -56.0649 -56.0580 -56.0253 -55.9937
   -55.9793 -55.9769 -55.9697 -55.9271 -55.9077 -55.8707 -55.8516 -55.8195
   -55.8134 -55.7653 -55.7621 -55.7621 -55.7537 -55.7102 -55.6902 -55.6049
   -31.4324 -31.4159 -31.2741 -31.1877 -31.1745 -31.0860 -30.9491 -30.9074
   -30.0129 -29.9721 -29.9480 -29.8401 -15.1448 -15.0994 -15.0311 -14.9108
   -14.8843 -14.7624 -14.6732 -14.5370 -14.2374 -14.1816 -14.1566 -14.1344
   -14.1167 -14.1074 -14.0723 -14.0504 -14.0144 -13.9804 -13.9469 -13.9130
   -13.8299 -13.7798 -13.7160 -13.7011 -13.6299 -13.6119 -13.4949 -13.4495
   -13.3641 -13.2995 -13.2756 -13.1910 -13.1538 -13.1397 -13.1175 -13.1007
   -13.0703 -13.0359 -12.9397 -12.9304 -12.9124 -12.8758 -12.8562 -12.8154
   -12.8102 -12.7823 -12.6798 -12.5360 -12.4788 -12.3756 -12.3406 -12.3129
   -11.9807 -11.9419 -11.9298 -11.9192 -11.8922 -11.8601 -11.8325 -11.7897
   -11.7637 -11.7407 -11.6971 -11.6715 -11.6600  -2.6165  -2.5504  -2.4234
    -2.3462  -2.2148  -2.1306  -2.0099  -1.8589  -1.8047  -1.7825  -1.7189
    -1.7065  -1.6106  -1.5416  -1.4579  -1.4068  -1.3972  -1.3353  -1.2913
    -1.2580  -1.2099  -1.1720  -1.1380  -1.0988  -1.0875  -1.0412  -1.0114
    -0.9685  -0.9382  -0.8710  -0.7677  -0.7281  -0.6498  -0.5840  -0.5338
    -0.4939  -0.4733  -0.4173  -0.2579  -0.2481  -0.1319  -0.1071  -0.0956
    -0.0499  -0.0220   0.0200   0.0420   0.1089   0.3895   0.4848   0.5708
     0.6226   0.8745   0.8991   0.9871   1.0092   1.1729   1.2110   1.2491
     1.2702   1.2848   1.3064   1.3706   1.4203   1.4539   1.5375   1.6258
     1.6643   1.6860   1.6954   1.7306   1.7449   1.7478   1.7954   1.8068
     1.8242   1.8691   1.8775   1.8943   1.9326   1.9881   2.0282   2.1084
     2.2473   2.3879   2.4070   2.4262   2.4540   2.4758   2.5027   2.5230
     2.5356   2.5527   2.6045   2.6177   2.6419   2.6874   2.7146   2.7277
     2.7419   2.7468   2.7658   2.7796   2.7983   2.8083   2.8413   2.8530
     2.8654   2.8755   2.8864   2.8956   3.4298   3.4330   3.5748   3.6257
     3.9794   4.0221   4.0383   4.1583   4.6091   4.7625   4.9390   4.9774
     5.1470   5.3145   5.5234   5.5342   5.6439   5.6746   6.3542   6.3712
     6.4482   6.8351   7.1880   7.5979   7.6698   7.7246   7.7537   7.8130
     7.8662   7.9336   8.1538   8.3792   8.4036   8.4290   8.5598   8.5995
     8.6465   8.6598

     occupation numbers 
     1.0000   1.0000   1.0000   1.0000   1.0000   1.0000   1.0000   1.0000
     1.0000   1.0000   1.0000   1.0000   1.0000   1.0000   1.0000   1.0000
     1.0000   1.0000   1.0000   1.0000   1.0000   1.0000   1.0000   1.0000
     1.0000   1.0000   1.0000   1.0000   1.0000   1.0000   1.0000   1.0000
     1.0000   1.0000   1.0000   1.0000   1.0000   1.0000   1.0000   1.0000
     1.0000   1.0000   1.0000   1.0000   1.0000   1.0000   1.0000   1.0000
     1.0000   1.0000   1.0000   1.0000   1.0000   1.0000   1.0000   1.0000
     1.0000   1.0000   1.0000   1.0000   1.0000   1.0000   1.0000   1.0000
     1.0000   1.0000   1.0000   1.0000   1.0000   1.0000   1.0000   1.0000
     1.0000   1.0000   1.0000   1.0000   1.0000   1.0000   1.0000   1.0000
     1.0000   1.0000   1.0000   1.0000   1.0000   1.0000   1.0000   1.0000
     1.0000   1.0000   1.0000   1.0000   1.0000   1.0000   1.0000   1.0000
     1.0000   1.0000   1.0000   1.0000   1.0000   1.0000   1.0000   1.0000
     1.0000   1.0000   1.0000   1.0000   1.0000   1.0000   1.0000   1.0000
     1.0000   1.0000   1.0000   1.0000   1.0000   1.0000   1.0000   1.0000
     1.0000   1.0000   1.0000   1.0000   1.0000   1.0000   1.0000   1.0000
     1.0000   1.0000   1.0000   1.0000   1.0000   1.0000   1.0000   1.0000
     1.0000   1.0000   1.0000   1.0000   1.0000   1.0000   1.0000   1.0000
     1.0000   1.0000   1.0000   1.0000   1.0000   1.0000   1.0000   1.0000
     1.0000   1.0000   1.0000   1.0000   1.0000   1.0000   1.0000   0.9999
     0.9999   0.9997   0.9996   0.9994   0.9993   0.9984   0.9981   0.9977
     0.9975   0.9973   0.9970   0.9960   0.9951   0.9943   0.9919   0.9886
     0.9867   0.9856   0.9851   0.9830   0.9821   0.9819   0.9785   0.9776
     0.9762   0.9722   0.9714   0.9697   0.9656   0.9588   0.9533   0.9404
     0.9119   0.8736   0.8676   0.8614   0.8521   0.8444   0.8347   0.8271
     0.8223   0.8156   0.7944   0.7888   0.7783   0.7576   0.7448   0.7386
     0.7317   0.7292   0.7198   0.7129   0.7033   0.6982   0.6809   0.6747
     0.6680   0.6626   0.6566   0.6516   0.3432   0.3415   0.2680   0.2437
     0.1113   0.0997   0.0956   0.0687   0.0156   0.0086   0.0041   0.0034
     0.0016   0.0007   0.0002   0.0002   0.0001   0.0001   0.0000   0.0000
     0.0000   0.0000   0.0000   0.0000   0.0000   0.0000   0.0000   0.0000
     0.0000   0.0000   0.0000   0.0000   0.0000   0.0000   0.0000   0.0000
     0.0000   0.0000

          k =-0.5000-0.5000 0.0000 ( 65132 PWs)   bands (ev):

   -92.8707 -92.8208 -92.7248 -92.6776 -92.6197 -92.5771 -92.5603 -92.4370
   -56.2243 -56.2078 -56.0817 -56.0711 -56.0649 -56.0580 -56.0253 -55.9937
   -55.9793 -55.9769 -55.9697 -55.9271 -55.9077 -55.8707 -55.8516 -55.8195
   -55.8134 -55.7653 -55.7621 -55.7621 -55.7537 -55.7102 -55.6902 -55.6049
   -31.4303 -31.4180 -31.2737 -31.1881 -31.1744 -31.0859 -30.9492 -30.9076
   -30.0119 -29.9731 -29.9476 -29.8405 -15.0984 -15.0726 -14.9540 -14.9427
   -14.8465 -14.8110 -14.7719 -14.6390 -14.1487 -14.1341 -14.1012 -14.0829
   -14.0672 -14.0499 -14.0238 -14.0120 -14.0002 -13.9840 -13.9676 -13.8964
   -13.8875 -13.8528 -13.8216 -13.8018 -13.7160 -13.6697 -13.5345 -13.4906
   -13.3139 -13.2735 -13.2086 -13.1838 -13.1523 -13.1424 -13.1332 -13.1169
   -13.1013 -13.0089 -12.9425 -12.9177 -12.9112 -12.8799 -12.8737 -12.8349
   -12.7636 -12.7556 -12.6960 -12.5206 -12.4750 -12.3569 -12.3290 -12.3097
   -11.9808 -11.9389 -11.9262 -11.9080 -11.8917 -11.8560 -11.8381 -11.8047
   -11.7444 -11.7236 -11.7192 -11.6690 -11.6658  -2.3913  -2.3169  -2.3071
    -2.2332  -2.1965  -2.1185  -2.0508  -1.9237  -1.8097  -1.7795  -1.7386
    -1.6830  -1.6103  -1.5965  -1.5254  -1.4822  -1.3643  -1.3343  -1.2859
    -1.2602  -1.1958  -1.1483  -1.1297  -1.1167  -1.0622  -1.0202  -1.0016
    -0.8902  -0.8323  -0.7878  -0.7368  -0.7059  -0.6938  -0.6619  -0.6183
    -0.5813  -0.5737  -0.4876  -0.4211  -0.3774  -0.3496  -0.2766  -0.2167
    -0.2029  -0.1464  -0.1118  -0.1038  -0.0826   0.3651   0.4026   0.5131
     0.5504   0.9066   0.9188   0.9508   0.9918   1.2603   1.2804   1.2866
     1.3288   1.4505   1.5467   1.5736   1.6098   1.6344   1.6592   1.6653
     1.6955   1.7075   1.7237   1.7365   1.7843   1.7857   1.8165   1.8372
     1.8533   1.8686   1.9049   1.9289   1.9472   1.9756   2.0095   2.0666
     2.1347   2.4004   2.4314   2.4524   2.4694   2.4833   2.5096   2.5131
     2.5340   2.5416   2.5581   2.5703   2.5921   2.6088   2.6156   2.6427
     2.6636   2.6733   2.6872   2.7076   2.7197   2.7352   2.7474   2.7490
     2.8505   2.8549   2.8818   2.8960   3.8697   3.8897   3.9013   3.9140
     4.1530   4.2340   4.2500   4.4907   4.6133   4.6957   4.8286   4.9312
     4.9517   5.0400   5.1766   5.2714   5.8131   5.8626   5.8983   6.0141
     6.5948   6.8013   7.0623   7.4318   7.8494   7.8611   7.9399   8.0870
     8.1300   8.1610   8.2269   8.2788   8.3279   8.4706   8.5098   8.5369
     8.6190   8.6437

     occupation numbers 
     1.0000   1.0000   1.0000   1.0000   1.0000   1.0000   1.0000   1.0000
     1.0000   1.0000   1.0000   1.0000   1.0000   1.0000   1.0000   1.0000
     1.0000   1.0000   1.0000   1.0000   1.0000   1.0000   1.0000   1.0000
     1.0000   1.0000   1.0000   1.0000   1.0000   1.0000   1.0000   1.0000
     1.0000   1.0000   1.0000   1.0000   1.0000   1.0000   1.0000   1.0000
     1.0000   1.0000   1.0000   1.0000   1.0000   1.0000   1.0000   1.0000
     1.0000   1.0000   1.0000   1.0000   1.0000   1.0000   1.0000   1.0000
     1.0000   1.0000   1.0000   1.0000   1.0000   1.0000   1.0000   1.0000
     1.0000   1.0000   1.0000   1.0000   1.0000   1.0000   1.0000   1.0000
     1.0000   1.0000   1.0000   1.0000   1.0000   1.0000   1.0000   1.0000
     1.0000   1.0000   1.0000   1.0000   1.0000   1.0000   1.0000   1.0000
     1.0000   1.0000   1.0000   1.0000   1.0000   1.0000   1.0000   1.0000
     1.0000   1.0000   1.0000   1.0000   1.0000   1.0000   1.0000   1.0000
     1.0000   1.0000   1.0000   1.0000   1.0000   1.0000   1.0000   1.0000
     1.0000   1.0000   1.0000   1.0000   1.0000   1.0000   1.0000   1.0000
     1.0000   1.0000   1.0000   1.0000   1.0000   1.0000   1.0000   1.0000
     1.0000   1.0000   1.0000   1.0000   1.0000   1.0000   1.0000   1.0000
     1.0000   1.0000   1.0000   1.0000   1.0000   1.0000   1.0000   1.0000
     1.0000   1.0000   1.0000   1.0000   1.0000   1.0000   1.0000   1.0000
     1.0000   1.0000   1.0000   1.0000   1.0000   1.0000   1.0000   1.0000
     0.9999   0.9996   0.9996   0.9995   0.9994   0.9976   0.9973   0.9973
     0.9967   0.9944   0.9916   0.9907   0.9892   0.9882   0.9870   0.9867
     0.9851   0.9844   0.9834   0.9826   0.9793   0.9792   0.9768   0.9751
     0.9736   0.9722   0.9686   0.9660   0.9639   0.9604   0.9559   0.9475
     0.9357   0.8697   0.8597   0.8526   0.8467   0.8418   0.8322   0.8309
     0.8229   0.8200   0.8134   0.8086   0.7996   0.7926   0.7897   0.7779
     0.7685   0.7642   0.7577   0.7482   0.7424   0.7349   0.7290   0.7282
     0.6760   0.6737   0.6591   0.6513   0.1453   0.1386   0.1349   0.1308
     0.0698   0.0550   0.0525   0.0239   0.0153   0.0112   0.0066   0.0042
     0.0039   0.0026   0.0014   0.0008   0.0000   0.0000   0.0000   0.0000
     0.0000   0.0000   0.0000   0.0000   0.0000   0.0000   0.0000   0.0000
     0.0000   0.0000   0.0000   0.0000   0.0000   0.0000   0.0000   0.0000
     0.0000   0.0000

          k = 0.2500 0.0000 0.0000 ( 65257 PWs)   bands (ev):

   -92.8707 -92.8208 -92.7248 -92.6776 -92.6197 -92.5771 -92.5603 -92.4370
   -56.2243 -56.2078 -56.0817 -56.0711 -56.0649 -56.0580 -56.0253 -55.9937
   -55.9793 -55.9769 -55.9697 -55.9271 -55.9077 -55.8707 -55.8516 -55.8195
   -55.8134 -55.7653 -55.7621 -55.7621 -55.7537 -55.7102 -55.6902 -55.6049
   -31.4328 -31.4162 -31.2737 -31.1874 -31.1752 -31.0853 -30.9506 -30.9059
[...]
     0.6341   0.6207   0.6186   0.6146   0.6096   0.6048   0.5993   0.5257
     0.3456   0.3141   0.2039   0.0756   0.0448   0.0206   0.0049   0.0031
     0.0002   0.0001   0.0000   0.0000   0.0000   0.0000   0.0000   0.0000
     0.0000   0.0000   0.0000   0.0000   0.0000   0.0000   0.0000   0.0000
     0.0000   0.0000   0.0000   0.0000   0.0000   0.0000   0.0000   0.0000
     0.0000   0.0000

          k =-0.5000 0.0000 0.0000 ( 65180 PWs)   bands (ev):

   -92.8707 -92.8208 -92.7248 -92.6776 -92.6197 -92.5771 -92.5603 -92.4370
   -56.2243 -56.2078 -56.0817 -56.0711 -56.0649 -56.0580 -56.0253 -55.9937
   -55.9793 -55.9769 -55.9697 -55.9271 -55.9077 -55.8707 -55.8516 -55.8195
   -55.8134 -55.7653 -55.7621 -55.7621 -55.7537 -55.7102 -55.6902 -55.6049
   -31.4307 -31.4183 -31.2733 -31.1878 -31.1750 -31.0852 -30.9507 -30.9061
   -30.0132 -29.9738 -29.9464 -29.8399 -15.1807 -15.1281 -15.0658 -14.9550
   -14.8543 -14.7095 -14.5620 -14.4153 -14.2968 -14.2787 -14.2732 -14.2049
   -14.1537 -14.1231 -14.0723 -14.0621 -14.0481 -13.9997 -13.9748 -13.8699
   -13.7196 -13.6838 -13.6582 -13.6510 -13.5782 -13.5269 -13.4534 -13.4239
   -13.4000 -13.3775 -13.2119 -13.1999 -13.1827 -13.1680 -13.1518 -13.1044
   -13.0834 -13.0649 -12.9859 -12.9589 -12.8949 -12.8225 -12.7993 -12.7895
   -12.7862 -12.7773 -12.6995 -12.6001 -12.4853 -12.4578 -12.3301 -12.2869
   -11.9808 -11.9456 -11.9237 -11.9172 -11.9027 -11.8843 -11.8427 -11.7810
   -11.7633 -11.7299 -11.6860 -11.6768 -11.6613  -2.7485  -2.7101  -2.5472
    -2.5079  -2.1934  -2.1177  -1.9711  -1.8536  -1.8141  -1.7668  -1.7205
    -1.6964  -1.5723  -1.5284  -1.5114  -1.4299  -1.3946  -1.3772  -1.3480
    -1.2884  -1.2209  -1.1925  -1.1618  -1.0661  -1.0208  -0.9707  -0.9386
    -0.9177  -0.8849  -0.8389  -0.8136  -0.7753  -0.6733  -0.6023  -0.5323
    -0.4724  -0.3111  -0.2628  -0.2223  -0.1806  -0.1243  -0.1076   0.0352
     0.0660   0.1199   0.2731   0.3730   0.4207   0.5252   0.5803   0.6990
     0.7109   0.8409   0.8660   0.9208   0.9551   0.9933   0.9977   1.0465
     1.0681   1.1366   1.1866   1.2345   1.2414   1.5436   1.5514   1.5693
     1.5900   1.6918   1.7082   1.7223   1.7314   1.7616   1.7742   1.8122
     1.8344   1.8589   1.9109   1.9304   1.9789   2.0061   2.0565   2.1775
     2.2650   2.3360   2.3494   2.4324   2.4582   2.4883   2.5381   2.5627
     2.5710   2.6016   2.6118   2.6311   2.6486   2.6924   2.7201   2.7665
     2.7880   2.8340   2.8374   2.8469   2.8528   2.8673   2.8782   2.8904
     2.8962   2.9158   2.9205   2.9421   2.9613   2.9660   3.0954   3.1080
     3.9418   3.9670   4.0258   4.1644   4.6296   4.7081   4.9045   4.9327
     5.3853   5.4156   5.4957   5.5271   5.8719   5.8812   6.3602   6.5431
     6.7381   6.9573   7.2071   7.2663   7.6041   7.6366   7.6896   7.7544
     7.7904   7.9351   8.1115   8.2030   8.2892   8.3813   8.4319   8.4967
     8.6456   8.7712

     occupation numbers 
     1.0000   1.0000   1.0000   1.0000   1.0000   1.0000   1.0000   1.0000
     1.0000   1.0000   1.0000   1.0000   1.0000   1.0000   1.0000   1.0000
     1.0000   1.0000   1.0000   1.0000   1.0000   1.0000   1.0000   1.0000
     1.0000   1.0000   1.0000   1.0000   1.0000   1.0000   1.0000   1.0000
     1.0000   1.0000   1.0000   1.0000   1.0000   1.0000   1.0000   1.0000
     1.0000   1.0000   1.0000   1.0000   1.0000   1.0000   1.0000   1.0000
     1.0000   1.0000   1.0000   1.0000   1.0000   1.0000   1.0000   1.0000
     1.0000   1.0000   1.0000   1.0000   1.0000   1.0000   1.0000   1.0000
     1.0000   1.0000   1.0000   1.0000   1.0000   1.0000   1.0000   1.0000
     1.0000   1.0000   1.0000   1.0000   1.0000   1.0000   1.0000   1.0000
     1.0000   1.0000   1.0000   1.0000   1.0000   1.0000   1.0000   1.0000
     1.0000   1.0000   1.0000   1.0000   1.0000   1.0000   1.0000   1.0000
     1.0000   1.0000   1.0000   1.0000   1.0000   1.0000   1.0000   1.0000
     1.0000   1.0000   1.0000   1.0000   1.0000   1.0000   1.0000   1.0000
     1.0000   1.0000   1.0000   1.0000   1.0000   1.0000   1.0000   1.0000
     1.0000   1.0000   1.0000   1.0000   1.0000   1.0000   1.0000   1.0000
     1.0000   1.0000   1.0000   1.0000   1.0000   1.0000   1.0000   1.0000
     1.0000   1.0000   1.0000   1.0000   1.0000   1.0000   1.0000   1.0000
     1.0000   1.0000   1.0000   1.0000   1.0000   1.0000   1.0000   1.0000
     1.0000   1.0000   1.0000   1.0000   1.0000   1.0000   0.9999   0.9999
     0.9999   0.9997   0.9997   0.9996   0.9995   0.9993   0.9993   0.9991
     0.9990   0.9987   0.9983   0.9979   0.9978   0.9917   0.9915   0.9908
     0.9901   0.9853   0.9843   0.9835   0.9829   0.9809   0.9800   0.9772
     0.9753   0.9731   0.9680   0.9658   0.9600   0.9564   0.9490   0.9273
     0.9076   0.8889   0.8851   0.8593   0.8506   0.8400   0.8213   0.8116
     0.8083   0.7956   0.7913   0.7830   0.7753   0.7553   0.7422   0.7195
     0.7086   0.6848   0.6829   0.6779   0.6748   0.6670   0.6611   0.6544
     0.6512   0.6404   0.6378   0.6257   0.6149   0.6122   0.5370   0.5295
     0.1222   0.1148   0.0988   0.0675   0.0144   0.0107   0.0048   0.0042
     0.0005   0.0004   0.0003   0.0002   0.0000   0.0000   0.0000   0.0000
     0.0000   0.0000   0.0000   0.0000   0.0000   0.0000   0.0000   0.0000
     0.0000   0.0000   0.0000   0.0000   0.0000   0.0000   0.0000   0.0000
     0.0000   0.0000

          k =-0.2500 0.2500 0.0000 ( 65198 PWs)   bands (ev):

   -92.8707 -92.8208 -92.7248 -92.6776 -92.6197 -92.5771 -92.5603 -92.4370
   -56.2243 -56.2078 -56.0817 -56.0711 -56.0649 -56.0580 -56.0253 -55.9937
   -55.9793 -55.9769 -55.9697 -55.9271 -55.9077 -55.8707 -55.8516 -55.8195
   -55.8134 -55.7653 -55.7621 -55.7621 -55.7537 -55.7102 -55.6902 -55.6049
   -31.4326 -31.4161 -31.2739 -31.1876 -31.1748 -31.0857 -30.9498 -30.9066
   -30.0136 -29.9724 -29.9474 -29.8398 -15.1834 -15.1400 -15.0675 -14.9508
   -14.8357 -14.7092 -14.6272 -14.4147 -14.2785 -14.2489 -14.2332 -14.1880
   -14.1637 -14.1455 -14.1199 -14.0741 -13.9999 -13.9866 -13.8337 -13.8089
   -13.7790 -13.7590 -13.7044 -13.6606 -13.5963 -13.5916 -13.4474 -13.3978
   -13.3786 -13.3027 -13.2596 -13.1970 -13.1671 -13.1501 -13.1324 -13.1018
   -13.0853 -13.0212 -12.9760 -12.9353 -12.9302 -12.9064 -12.8663 -12.8508
   -12.8255 -12.8021 -12.6383 -12.6006 -12.5401 -12.4411 -12.2686 -12.2152
   -11.9808 -11.9654 -11.9440 -11.9172 -11.9049 -11.8634 -11.8295 -11.8058
   -11.7848 -11.7621 -11.6784 -11.6330 -11.6233  -2.8331  -2.6257  -2.5041
    -2.4153  -2.2982  -2.2320  -2.0271  -1.8842  -1.8658  -1.8347  -1.7438
    -1.7061  -1.6139  -1.5794  -1.5535  -1.4116  -1.3549  -1.2859  -1.2586
    -1.1977  -1.1772  -1.1373  -1.1086  -1.0685  -1.0042  -0.9570  -0.8907
    -0.8239  -0.7981  -0.7486  -0.7188  -0.6736  -0.6158  -0.5679  -0.5288
    -0.4264  -0.3966  -0.3824  -0.3410  -0.2748  -0.2022  -0.1579  -0.1211
    -0.0500  -0.0099   0.2253   0.3985   0.4347   0.4764   0.5359   0.6040
     0.6524   0.7125   0.7394   1.0213   1.1265   1.1661   1.1989   1.2074
     1.2476   1.2630   1.3093   1.3395   1.3529   1.3788   1.4263   1.4421
     1.4850   1.5072   1.5505   1.6351   1.6563   1.6728   1.7156   1.7388
     1.7793   1.8381   1.9388   2.0410   2.0677   2.1170   2.1395   2.2036
     2.2422   2.2674   2.2917   2.3150   2.4190   2.4524   2.5381   2.6097
     2.6162   2.6705   2.7161   2.7259   2.7385   2.7475   2.7582   2.7725
     2.7801   2.7984   2.8091   2.8202   2.8317   2.8422   2.8540   2.8604
     2.8940   2.9043   2.9101   2.9462   3.2365   3.3185   3.3865   3.4676
     3.4874   3.6910   3.7964   4.1473   4.3533   4.5678   4.8321   5.1368
     5.5121   5.5683   5.6199   5.6679   5.7353   6.1064   6.1403   6.1639
     6.8442   7.0783   7.2157   7.3756   7.4721   7.4985   7.5779   7.7789
     7.8452   7.9854   8.2120   8.2338   8.3369   8.4090   8.4495   8.4647
     8.5552   8.6579

     occupation numbers 
     1.0000   1.0000   1.0000   1.0000   1.0000   1.0000   1.0000   1.0000
     1.0000   1.0000   1.0000   1.0000   1.0000   1.0000   1.0000   1.0000
     1.0000   1.0000   1.0000   1.0000   1.0000   1.0000   1.0000   1.0000
     1.0000   1.0000   1.0000   1.0000   1.0000   1.0000   1.0000   1.0000
     1.0000   1.0000   1.0000   1.0000   1.0000   1.0000   1.0000   1.0000
     1.0000   1.0000   1.0000   1.0000   1.0000   1.0000   1.0000   1.0000
     1.0000   1.0000   1.0000   1.0000   1.0000   1.0000   1.0000   1.0000
     1.0000   1.0000   1.0000   1.0000   1.0000   1.0000   1.0000   1.0000
     1.0000   1.0000   1.0000   1.0000   1.0000   1.0000   1.0000   1.0000
     1.0000   1.0000   1.0000   1.0000   1.0000   1.0000   1.0000   1.0000
     1.0000   1.0000   1.0000   1.0000   1.0000   1.0000   1.0000   1.0000
     1.0000   1.0000   1.0000   1.0000   1.0000   1.0000   1.0000   1.0000
     1.0000   1.0000   1.0000   1.0000   1.0000   1.0000   1.0000   1.0000
     1.0000   1.0000   1.0000   1.0000   1.0000   1.0000   1.0000   1.0000
     1.0000   1.0000   1.0000   1.0000   1.0000   1.0000   1.0000   1.0000
     1.0000   1.0000   1.0000   1.0000   1.0000   1.0000   1.0000   1.0000
     1.0000   1.0000   1.0000   1.0000   1.0000   1.0000   1.0000   1.0000
     1.0000   1.0000   1.0000   1.0000   1.0000   1.0000   1.0000   1.0000
     1.0000   1.0000   1.0000   1.0000   1.0000   1.0000   1.0000   1.0000
     1.0000   1.0000   1.0000   1.0000   1.0000   1.0000   1.0000   0.9999
     0.9999   0.9999   0.9998   0.9992   0.9987   0.9985   0.9982   0.9981
     0.9977   0.9976   0.9970   0.9965   0.9963   0.9959   0.9949   0.9946
     0.9935   0.9929   0.9915   0.9881   0.9871   0.9863   0.9839   0.9825
     0.9797   0.9750   0.9649   0.9514   0.9473   0.9389   0.9348   0.9218
     0.9130   0.9070   0.9008   0.8947   0.8637   0.8526   0.8213   0.7922
     0.7894   0.7654   0.7441   0.7394   0.7333   0.7289   0.7236   0.7165
     0.7126   0.7033   0.6978   0.6920   0.6860   0.6804   0.6741   0.6707
     0.6524   0.6468   0.6436   0.6234   0.4536   0.4058   0.3672   0.3228
     0.3123   0.2143   0.1716   0.0709   0.0379   0.0182   0.0065   0.0016
     0.0002   0.0002   0.0001   0.0001   0.0001   0.0000   0.0000   0.0000
     0.0000   0.0000   0.0000   0.0000   0.0000   0.0000   0.0000   0.0000
     0.0000   0.0000   0.0000   0.0000   0.0000   0.0000   0.0000   0.0000
     0.0000   0.0000

          k =-0.5000 0.2500 0.0000 ( 65138 PWs)   bands (ev):

   -92.8707 -92.8208 -92.7248 -92.6776 -92.6197 -92.5771 -92.5603 -92.4370
   -56.2243 -56.2078 -56.0817 -56.0711 -56.0649 -56.0580 -56.0253 -55.9937
   -55.9793 -55.9769 -55.9697 -55.9271 -55.9077 -55.8707 -55.8516 -55.8195
   -55.8134 -55.7653 -55.7621 -55.7621 -55.7537 -55.7102 -55.6902 -55.6049
   -31.4305 -31.4182 -31.2735 -31.1880 -31.1747 -31.0855 -30.9500 -30.9068
   -30.0125 -29.9735 -29.9470 -29.8402 -15.1478 -15.1020 -15.0230 -14.9215
   -14.8828 -14.7563 -14.6652 -14.5334 -14.2296 -14.1976 -14.1850 -14.1412
   -14.1173 -14.0962 -14.0588 -14.0459 -14.0279 -13.9873 -13.9735 -13.8637
   -13.8005 -13.7520 -13.7453 -13.7254 -13.6301 -13.6237 -13.4901 -13.4394
   -13.3569 -13.3218 -13.2245 -13.1842 -13.1737 -13.1495 -13.1288 -13.1063
   -13.0963 -13.0249 -12.9943 -12.9275 -12.9095 -12.8449 -12.8245 -12.8113
   -12.7807 -12.7722 -12.6975 -12.5558 -12.4804 -12.4122 -12.3245 -12.2963
   -11.9808 -11.9384 -11.9257 -11.9112 -11.8993 -11.8778 -11.8476 -11.7676
   -11.7596 -11.7356 -11.7005 -11.6724 -11.6639  -2.6058  -2.5640  -2.4168
    -2.3744  -2.2127  -2.1360  -1.9953  -1.8594  -1.8023  -1.7750  -1.7368
    -1.6989  -1.6178  -1.5021  -1.4448  -1.4217  -1.3950  -1.3170  -1.2908
    -1.2510  -1.2349  -1.1741  -1.1439  -1.1056  -1.0704  -1.0416  -0.9829
    -0.9559  -0.9146  -0.8788  -0.7736  -0.7482  -0.6554  -0.5962  -0.5642
    -0.5057  -0.4232  -0.3903  -0.2892  -0.2510  -0.1883  -0.1410  -0.1105
    -0.0450  -0.0114   0.0260   0.0665   0.1049   0.4303   0.4792   0.5583
     0.5877   0.8533   0.9173   0.9864   1.0139   1.1878   1.2228   1.2607
     1.2716   1.2899   1.3075   1.3769   1.4222   1.4631   1.4957   1.6128
     1.6532   1.6834   1.6981   1.7330   1.7549   1.7724   1.7894   1.8043
     1.8268   1.8743   1.8865   1.9252   1.9479   1.9820   2.0363   2.1624
     2.2546   2.2819   2.3481   2.3850   2.4495   2.4845   2.4906   2.5266
     2.5623   2.5828   2.6092   2.6145   2.6469   2.6947   2.7208   2.7257
     2.7318   2.7517   2.7749   2.7867   2.8023   2.8141   2.8367   2.8500
     2.8590   2.8691   2.8787   2.8932   3.4282   3.4593   3.6111   3.6279
     3.9431   3.9851   4.0376   4.2450   4.6223   4.7208   4.8989   4.9486
     5.2495   5.2771   5.4980   5.5855   5.6205   5.6589   6.3362   6.4478
     6.4647   6.6473   7.3687   7.6110   7.6724   7.6916   7.7331   7.7838
     7.8534   7.9511   8.1394   8.4188   8.4418   8.4588   8.5145   8.5727
     8.6399   8.7090

     occupation numbers 
     1.0000   1.0000   1.0000   1.0000   1.0000   1.0000   1.0000   1.0000
     1.0000   1.0000   1.0000   1.0000   1.0000   1.0000   1.0000   1.0000
     1.0000   1.0000   1.0000   1.0000   1.0000   1.0000   1.0000   1.0000
     1.0000   1.0000   1.0000   1.0000   1.0000   1.0000   1.0000   1.0000
     1.0000   1.0000   1.0000   1.0000   1.0000   1.0000   1.0000   1.0000
     1.0000   1.0000   1.0000   1.0000   1.0000   1.0000   1.0000   1.0000
     1.0000   1.0000   1.0000   1.0000   1.0000   1.0000   1.0000   1.0000
     1.0000   1.0000   1.0000   1.0000   1.0000   1.0000   1.0000   1.0000
     1.0000   1.0000   1.0000   1.0000   1.0000   1.0000   1.0000   1.0000
     1.0000   1.0000   1.0000   1.0000   1.0000   1.0000   1.0000   1.0000
     1.0000   1.0000   1.0000   1.0000   1.0000   1.0000   1.0000   1.0000
     1.0000   1.0000   1.0000   1.0000   1.0000   1.0000   1.0000   1.0000
     1.0000   1.0000   1.0000   1.0000   1.0000   1.0000   1.0000   1.0000
     1.0000   1.0000   1.0000   1.0000   1.0000   1.0000   1.0000   1.0000
     1.0000   1.0000   1.0000   1.0000   1.0000   1.0000   1.0000   1.0000
     1.0000   1.0000   1.0000   1.0000   1.0000   1.0000   1.0000   1.0000
     1.0000   1.0000   1.0000   1.0000   1.0000   1.0000   1.0000   1.0000
     1.0000   1.0000   1.0000   1.0000   1.0000   1.0000   1.0000   1.0000
     1.0000   1.0000   1.0000   1.0000   1.0000   1.0000   1.0000   1.0000
     1.0000   1.0000   1.0000   1.0000   1.0000   1.0000   1.0000   0.9999
     0.9999   0.9997   0.9996   0.9994   0.9993   0.9983   0.9980   0.9976
     0.9975   0.9972   0.9970   0.9959   0.9950   0.9941   0.9932   0.9891
     0.9873   0.9857   0.9849   0.9828   0.9814   0.9802   0.9789   0.9778
     0.9760   0.9717   0.9705   0.9664   0.9638   0.9596   0.9521   0.9303
     0.9101   0.9033   0.8854   0.8745   0.8536   0.8413   0.8392   0.8258
     0.8118   0.8035   0.7924   0.7902   0.7760   0.7543   0.7419   0.7395
     0.7366   0.7268   0.7153   0.7093   0.7013   0.6952   0.6833   0.6763
     0.6715   0.6660   0.6608   0.6529   0.3441   0.3273   0.2505   0.2427
     0.1218   0.1097   0.0958   0.0532   0.0148   0.0102   0.0049   0.0039
     0.0009   0.0008   0.0003   0.0002   0.0001   0.0001   0.0000   0.0000
     0.0000   0.0000   0.0000   0.0000   0.0000   0.0000   0.0000   0.0000
     0.0000   0.0000   0.0000   0.0000   0.0000   0.0000   0.0000   0.0000
     0.0000   0.0000

     the Fermi energy is     3.1580 ev

!    total energy              =   -4440.29866927 Ry
     estimated scf accuracy    <          9.3E-09 Ry
     smearing contrib. (-TS)   =      -1.20712735 Ry
     internal energy E=F+TS    =   -4439.09154192 Ry

     The total energy is F=E-TS. E is the sum of the following terms:
     one-electron contribution =  -20889.16424678 Ry
     hartree contribution      =   10573.74768932 Ry
     xc contribution           =    -693.24533253 Ry
     ewald contribution        =    6845.76192707 Ry
     one-center paw contrib.   =    -276.19157900 Ry
      -> PAW hartree energy AE =      25.16946185 Ry
      -> PAW hartree energy PS =     -25.05328238 Ry
      -> PAW xc energy AE      =     -16.51845037 Ry
      -> PAW xc energy PS      =       6.87795029 Ry
      -> total E_H with PAW    =   10573.86386880 Ry
      -> total E_XC with PAW   =    -702.88583261 Ry

     convergence has been achieved in  49 iterations

     Writing all to output data dir /bsuhome/zayahcortright/scratch/pwscf.save/
 
     init_run     :      7.43s CPU      8.37s WALL (       1 calls)
     electrons    :    696.07s CPU    726.44s WALL (       1 calls)

     Called by init_run:
     wfcinit      :      6.04s CPU      6.26s WALL (       1 calls)
     wfcinit:atom :      0.04s CPU      0.06s WALL (       5 calls)
     wfcinit:wfcr :      5.72s CPU      5.86s WALL (       5 calls)
     potinit      :      0.16s CPU      0.18s WALL (       1 calls)
     hinit0       :      0.29s CPU      0.71s WALL (       1 calls)

     Called by electrons:
     c_bands      :    549.89s CPU    555.58s WALL (      49 calls)
     sum_band     :    110.04s CPU    122.75s WALL (      49 calls)
     v_of_rho     :      5.29s CPU      5.69s WALL (      50 calls)
     v_h          :      0.43s CPU      0.44s WALL (      50 calls)
     v_xc         :      4.86s CPU      5.25s WALL (      50 calls)
     newd         :     16.32s CPU     27.57s WALL (      50 calls)
     PAW_pot      :      1.59s CPU      1.62s WALL (      50 calls)
     mix_rho      :     12.56s CPU     12.93s WALL (      49 calls)

     Called by c_bands:
     init_us_2    :      7.01s CPU      7.11s WALL (     495 calls)
     init_us_2:cp :      7.00s CPU      7.11s WALL (     495 calls)
     cegterg      :    516.45s CPU    521.79s WALL (     245 calls)

     Called by sum_band:
     sum_band:wei :      0.34s CPU      0.35s WALL (      49 calls)
     sum_band:loo :     90.53s CPU     91.26s WALL (      49 calls)
     sum_band:buf :      1.45s CPU      1.53s WALL (     245 calls)
     sum_band:ini :      3.32s CPU      3.34s WALL (     245 calls)
     sum_band:cal :     19.67s CPU     19.73s WALL (     245 calls)
     sum_band:bec :      0.55s CPU      0.56s WALL (     245 calls)
     addusdens    :     16.82s CPU     28.75s WALL (      49 calls)
                                        0.00s GPU  (      49 calls)
     addusd:skk   :      0.29s CPU      0.95s WALL (     147 calls)
                                        0.00s GPU  (     147 calls)

     Called by *egterg:
     cdiaghg      :     51.29s CPU     51.52s WALL (    1236 calls)
     cegterg:over :     38.81s CPU     38.97s WALL (     991 calls)
     cegterg:upda :     27.16s CPU     27.57s WALL (     991 calls)
     cegterg:last :     56.31s CPU     56.56s WALL (     434 calls)
     cdiaghg:chol :      2.90s CPU      2.92s WALL (    1236 calls)
     cdiaghg:inve :      2.64s CPU      2.66s WALL (    1236 calls)
     cdiaghg:para :      6.72s CPU      6.76s WALL (    2472 calls)
     h_psi        :    288.19s CPU    291.08s WALL (    1241 calls)
     s_psi        :     38.88s CPU     39.00s WALL (    1241 calls)
     g_psi        :      1.05s CPU      1.06s WALL (     991 calls)

     Called by h_psi:
     h_psi:calbec :     44.03s CPU     44.27s WALL (    1241 calls)
     vloc_psi     :    202.44s CPU    204.42s WALL (    1241 calls)
     add_vuspsi   :     38.84s CPU     39.03s WALL (    1241 calls)

     General routines
     calbec       :     63.69s CPU     63.99s WALL (    1486 calls)
     fft          :      4.59s CPU      4.63s WALL (     648 calls)
     ffts         :      4.72s CPU      4.76s WALL (    5197 calls)
     fftw         :    173.07s CPU    174.60s WALL (  327890 calls)
     interpolate  :      0.41s CPU      0.41s WALL (      50 calls)
 
     Parallel routines

     PAW routines
     PAW_pot      :      1.59s CPU      1.62s WALL (      50 calls)
 
     PWSCF        :  11m45.11s CPU  12m19.29s WALL

 
   This run was terminated on:  15:46:45  21Jun2024            

=------------------------------------------------------------------------------=
   JOB DONE.
=------------------------------------------------------------------------------=
