
     Program PWSCF v.7.2 starts on 21Jun2024 at 17:24:11 

     This program is part of the open-source Quantum ESPRESSO suite
     for quantum simulation of materials; please cite
         "P. Giannozzi et al., J. Phys.:Condens. Matter 21 395502 (2009);
         "P. Giannozzi et al., J. Phys.:Condens. Matter 29 465901 (2017);
         "P. Giannozzi et al., J. Chem. Phys. 152 154105 (2020);
          URL http://www.quantum-espresso.org", 
     in publications or presentations arising from this work. More details at
     http://www.quantum-espresso.org/quote

     Parallel version (MPI & OpenMP), running on      48 processor cores
     Number of MPI processes:                48
     Threads/MPI process:                     1

     MPI processes distributed on     1 nodes
     33240 MiB available memory on the printing compute node when the environment starts
 
     Reading input from espresso.pwi
Warning: card &CELL ignored
Warning: card / ignored
Warning: card &FCP ignored
Warning: card / ignored
Warning: card &RISM ignored
Warning: card / ignored

     Current dimensions of program PWSCF are:
     Max number of different atomic species (ntypx) = 10
     Max number of k-points (npk) =  40000
     Max angular momentum in pseudopotentials (lmaxx) =  4
     file O.pbe-n-kjpaw_psl.0.1.UPF: wavefunction(s)  2P renormalized
     signal trapping enabled: kill the code with -SIGUSR1 to stop cleanly the simulation 
 
     K-points division:     npool     =       2
     R & G space division:  proc/nbgrp/npool/nimage =      24
     Subspace diagonalization in iterative solution of the eigenvalue problem:
     one sub-group per band group will be used
     scalapack distributed-memory algorithm (size of sub-group:  3*  3 procs)

 
     Parallelization info
     --------------------
     sticks:   dense  smooth     PW     G-vecs:    dense   smooth      PW
     Min         350     175     47                61430    21716    3036
     Max         351     177     48                61449    21727    3041
     Sum        8421    4205   1137              1474595   521381   72913
 
     Using Slab Decomposition
 


     bravais-lattice index     =            0
     lattice parameter (alat)  =      14.8599  a.u.
     unit-cell volume          =    8305.1283 (a.u.)^3
     number of atoms/cell      =           50
     number of atomic types    =            4
     number of electrons       =       431.00
     number of Kohn-Sham states=          259
     kinetic-energy cutoff     =      60.0000  Ry
     charge density cutoff     =     480.0000  Ry
     scf convergence threshold =      1.0E-08
     mixing beta               =       0.1500
     number of iterations used =            8  local-TF  mixing
     Exchange-correlation= PBE
                           (   1   4   3   4   0   0   0)

     celldm(1)=  14.859904  celldm(2)=   0.000000  celldm(3)=   0.000000
     celldm(4)=   0.000000  celldm(5)=   0.000000  celldm(6)=   0.000000

     crystal axes: (cart. coord. in units of alat)
               a(1) = (   1.000000   0.000000   0.000000 )  
               a(2) = (   0.000000   1.000000   0.000000 )  
               a(3) = (   0.000000   0.000000   2.531036 )  

     reciprocal axes: (cart. coord. in units 2 pi/alat)
               b(1) = (  1.000000  0.000000  0.000000 )  
               b(2) = (  0.000000  1.000000  0.000000 )  
               b(3) = (  0.000000  0.000000  0.395095 )  


     PseudoPot. # 1 for Sr read from file:
     /bsuhome/zayahcortright/q-e/pseudo/Sr_pbe_v1.uspp.F.UPF
     MD5 check sum: 6b418c05fbe9db5448babca5e47b7a5b
     Pseudo is Ultrasoft + core correction, Zval = 10.0
     Generated by new atomic code, or converted to UPF format
     Using radial grid of  883 points,  6 beta functions with: 
                l(1) =   0
                l(2) =   0
                l(3) =   1
                l(4) =   1
                l(5) =   2
                l(6) =   2
     Q(r) pseudized with  6 coefficients,  rinner =    1.400   1.400   1.400
                                                       1.400   1.400

     PseudoPot. # 2 for O  read from file:
     /bsuhome/zayahcortright/q-e/pseudo/O.pbe-n-kjpaw_psl.0.1.UPF
     MD5 check sum: 0234752ac141de4415c5fc33072bef88
     Pseudo is Projector augmented-wave + core cor, Zval =  6.0
     Generated using "atomic" code by A. Dal Corso  v.5.0.99 svn rev. 10869
     Shape of augmentation charge: BESSEL
     Using radial grid of 1095 points,  4 beta functions with: 
                l(1) =   0
                l(2) =   0
                l(3) =   1
                l(4) =   1
     Q(r) pseudized with 0 coefficients 


     PseudoPot. # 3 for Co read from file:
     /bsuhome/zayahcortright/q-e/pseudo/Co_pbe_v1.2.uspp.F.UPF
     MD5 check sum: 5f91765df6ddd3222702df6e7b74a16d
     Pseudo is Ultrasoft + core correction, Zval = 17.0
     Generated by new atomic code, or converted to UPF format
     Using radial grid of  863 points,  6 beta functions with: 
                l(1) =   0
                l(2) =   0
                l(3) =   1
                l(4) =   1
                l(5) =   2
                l(6) =   2
     Q(r) pseudized with  8 coefficients,  rinner =    1.200   1.200   1.200
                                                       1.200   1.200

     PseudoPot. # 4 for H  read from file:
     /bsuhome/zayahcortright/q-e/pseudo/H.pbe-rrkjus_psl.1.0.0.UPF
     MD5 check sum: f52b6d4d1c606e5624b1dc7b2218f220
     Pseudo is Ultrasoft, Zval =  1.0
     Generated using "atomic" code by A. Dal Corso  v.5.1
     Using radial grid of  929 points,  2 beta functions with: 
                l(1) =   0
                l(2) =   0
     Q(r) pseudized with 0 coefficients 


     atomic species   valence    mass     pseudopotential
        Sr            10.00    87.62000     Sr( 1.00)
        O              6.00    15.99900     O ( 1.00)
        Co            17.00    58.93319     Co( 1.00)
        H              1.00     1.00800     H ( 1.00)

     No symmetry found


                                    s                        frac. trans.

      isym =  1     identity                                     

 cryst.   s( 1) = (     1          0          0      )
                  (     0          1          0      )
                  (     0          0          1      )

 cart.    s( 1) = (  1.0000000  0.0000000  0.0000000 )
                  (  0.0000000  1.0000000  0.0000000 )
                  (  0.0000000  0.0000000  1.0000000 )


   Cartesian axes

     site n.     atom                  positions (alat units)
         1           Sr  tau(   1) = (   0.2508693   0.7491307   1.7574407  )
         2           O   tau(   2) = (   0.4985141   0.5014859   1.7715967  )
         3           Sr  tau(   3) = (   0.7482398   0.7454518   1.7648669  )
         4           Sr  tau(   4) = (   0.7441748   0.2558252   1.7667843  )
         5           Sr  tau(   5) = (   0.2508693   0.7491307   1.2696799  )
         6           Sr  tau(   6) = (   0.2508693   0.7491307   0.7632319  )
         7           Co  tau(   7) = (   0.4998914   0.5001086   1.0164559  )
         8           Co  tau(   8) = (   0.4936915   0.5063085   1.5135603  )
         9           O   tau(   9) = (   0.4988895   0.7610401   1.0164559  )
        10           O   tau(  10) = (   0.2389599   0.5011105   1.0164559  )
        11           O   tau(  11) = (   0.0070918   0.7374880   1.0164559  )
        12           O   tau(  12) = (   0.0088340   0.7405089   1.5135603  )
        13           O   tau(  13) = (   0.5066944   0.7415376   1.5135603  )
        14           O   tau(  14) = (   0.2584624   0.4933056   1.5135603  )
        15           O   tau(  15) = (   0.4985141   0.5014859   0.7773880  )
        16           O   tau(  16) = (   0.4985141   0.5014859   1.2555238  )
        17           Sr  tau(  17) = (   0.7482398   0.7454518   0.7706582  )
        18           Sr  tau(  18) = (   0.7482398   0.7454518   1.2622536  )
        19           Sr  tau(  19) = (   0.7441748   0.2558252   0.7725755  )
        20           Sr  tau(  20) = (   0.7441748   0.2558252   1.2603363  )
        21           O   tau(  21) = (   0.7322655   0.0078049   1.5135603  )
        22           O   tau(  22) = (   0.7558175   0.4996027   1.5135603  )
        23           O   tau(  23) = (   0.5003973   0.2441825   1.5135603  )
        24           O   tau(  24) = (   0.7527966   0.4978604   1.0164559  )
        25           O   tau(  25) = (   0.5021396   0.2472034   1.0164559  )
        26           O   tau(  26) = (   0.7517679   0.0000000   1.0164559  )
        27           O   tau(  27) = (   0.0114961   0.4948124   1.7455321  )
        28           O   tau(  28) = (   0.0048226   0.0077944   1.7715967  )
        29           Sr  tau(  29) = (   0.2545482   0.2517602   1.7648669  )
        30           O   tau(  30) = (   0.5048017   0.0015068   1.7786929  )
        31           Co  tau(  31) = (   0.0056869   0.5006215   1.0164559  )
        32           Co  tau(  32) = (   0.0065315   0.4997770   1.5135603  )
        33           Co  tau(  33) = (   0.0061999   0.0064171   1.0164559  )
        34           Co  tau(  34) = (   0.0000000   0.0126169   1.5135603  )
        35           O   tau(  35) = (   0.0114961   0.4948124   1.2815885  )
        36           O   tau(  36) = (   0.0114961   0.4948124   0.7513233  )
        37           O   tau(  37) = (   0.0051979   0.2673486   1.0164559  )
        38           O   tau(  38) = (   0.0130029   0.2478461   1.5135603  )
        39           O   tau(  39) = (   0.0048226   0.0077944   0.7773880  )
        40           O   tau(  40) = (   0.0048226   0.0077944   1.2555238  )
        41           Sr  tau(  41) = (   0.2545482   0.2517602   0.7706582  )
        42           Sr  tau(  42) = (   0.2545482   0.2517602   1.2622536  )
        43           Co  tau(  43) = (   0.4989925   0.0073160   1.5135603  )
        44           Co  tau(  44) = (   0.4998370   0.0064714   1.0164559  )
        45           O   tau(  45) = (   0.5048017   0.0015068   0.7844841  )
        46           O   tau(  46) = (   0.5048017   0.0015068   1.2484277  )
        47           O   tau(  47) = (   0.2621260   0.0059111   1.5135603  )
        48           O   tau(  48) = (   0.2591051   0.0041689   1.0164559  )
        49           O   tau(  49) = (   0.1421646   0.7108228   2.1602013  )
        50           H   tau(  50) = (   0.1421646   0.7108228   2.2847091  )

   Crystallographic axes

     site n.     atom                  positions (cryst. coord.)
         1           Sr  tau(   1) = (  0.2508693  0.7491307  0.6943562  )
         2           O   tau(   2) = (  0.4985141  0.5014859  0.6999492  )
         3           Sr  tau(   3) = (  0.7482398  0.7454518  0.6972903  )
         4           Sr  tau(   4) = (  0.7441748  0.2558252  0.6980478  )
         5           Sr  tau(   5) = (  0.2508693  0.7491307  0.5016443  )
         6           Sr  tau(   6) = (  0.2508693  0.7491307  0.3015492  )
         7           Co  tau(   7) = (  0.4998914  0.5001086  0.4015968  )
         8           Co  tau(   8) = (  0.4936915  0.5063085  0.5980003  )
         9           O   tau(   9) = (  0.4988895  0.7610401  0.4015968  )
        10           O   tau(  10) = (  0.2389599  0.5011105  0.4015968  )
        11           O   tau(  11) = (  0.0070918  0.7374880  0.4015968  )
        12           O   tau(  12) = (  0.0088340  0.7405089  0.5980003  )
        13           O   tau(  13) = (  0.5066944  0.7415376  0.5980003  )
        14           O   tau(  14) = (  0.2584624  0.4933056  0.5980003  )
        15           O   tau(  15) = (  0.4985141  0.5014859  0.3071422  )
        16           O   tau(  16) = (  0.4985141  0.5014859  0.4960513  )
        17           Sr  tau(  17) = (  0.7482398  0.7454518  0.3044833  )
        18           Sr  tau(  18) = (  0.7482398  0.7454518  0.4987103  )
        19           Sr  tau(  19) = (  0.7441748  0.2558252  0.3052408  )
        20           Sr  tau(  20) = (  0.7441748  0.2558252  0.4979527  )
        21           O   tau(  21) = (  0.7322655  0.0078049  0.5980003  )
        22           O   tau(  22) = (  0.7558175  0.4996027  0.5980003  )
        23           O   tau(  23) = (  0.5003973  0.2441825  0.5980003  )
        24           O   tau(  24) = (  0.7527966  0.4978604  0.4015968  )
        25           O   tau(  25) = (  0.5021396  0.2472034  0.4015968  )
        26           O   tau(  26) = (  0.7517679  0.0000000  0.4015968  )
        27           O   tau(  27) = (  0.0114961  0.4948124  0.6896512  )
        28           O   tau(  28) = (  0.0048226  0.0077944  0.6999492  )
        29           Sr  tau(  29) = (  0.2545482  0.2517602  0.6972903  )
        30           O   tau(  30) = (  0.5048017  0.0015068  0.7027529  )
        31           Co  tau(  31) = (  0.0056869  0.5006215  0.4015968  )
        32           Co  tau(  32) = (  0.0065315  0.4997770  0.5980003  )
        33           Co  tau(  33) = (  0.0061999  0.0064171  0.4015968  )
        34           Co  tau(  34) = (  0.0000000  0.0126169  0.5980003  )
        35           O   tau(  35) = (  0.0114961  0.4948124  0.5063494  )
        36           O   tau(  36) = (  0.0114961  0.4948124  0.2968442  )
        37           O   tau(  37) = (  0.0051979  0.2673486  0.4015968  )
        38           O   tau(  38) = (  0.0130029  0.2478461  0.5980003  )
        39           O   tau(  39) = (  0.0048226  0.0077944  0.3071422  )
        40           O   tau(  40) = (  0.0048226  0.0077944  0.4960513  )
        41           Sr  tau(  41) = (  0.2545482  0.2517602  0.3044833  )
        42           Sr  tau(  42) = (  0.2545482  0.2517602  0.4987103  )
        43           Co  tau(  43) = (  0.4989925  0.0073160  0.5980003  )
        44           Co  tau(  44) = (  0.4998370  0.0064714  0.4015968  )
        45           O   tau(  45) = (  0.5048017  0.0015068  0.3099459  )
        46           O   tau(  46) = (  0.5048017  0.0015068  0.4932477  )
        47           O   tau(  47) = (  0.2621260  0.0059111  0.5980003  )
        48           O   tau(  48) = (  0.2591051  0.0041689  0.4015968  )
        49           O   tau(  49) = (  0.1421646  0.7108228  0.8534850  )
        50           H   tau(  50) = (  0.1421646  0.7108228  0.9026774  )

     number of k points=    10  Gaussian smearing, width (Ry)=  0.0700
                       cart. coord. in units 2pi/alat
        k(    1) = (   0.0000000   0.0000000   0.0000000), wk =   0.1250000
        k(    2) = (   0.0000000   0.2500000   0.0000000), wk =   0.2500000
        k(    3) = (   0.0000000  -0.5000000   0.0000000), wk =   0.1250000
        k(    4) = (   0.2500000   0.2500000   0.0000000), wk =   0.2500000
        k(    5) = (   0.2500000  -0.5000000   0.0000000), wk =   0.2500000
        k(    6) = (  -0.5000000  -0.5000000   0.0000000), wk =   0.1250000
        k(    7) = (   0.2500000   0.0000000   0.0000000), wk =   0.2500000
        k(    8) = (  -0.5000000   0.0000000   0.0000000), wk =   0.1250000
        k(    9) = (  -0.2500000   0.2500000   0.0000000), wk =   0.2500000
        k(   10) = (  -0.5000000   0.2500000   0.0000000), wk =   0.2500000

                       cryst. coord.
        k(    1) = (   0.0000000   0.0000000   0.0000000), wk =   0.1250000
        k(    2) = (   0.0000000   0.2500000   0.0000000), wk =   0.2500000
        k(    3) = (   0.0000000  -0.5000000   0.0000000), wk =   0.1250000
        k(    4) = (   0.2500000   0.2500000   0.0000000), wk =   0.2500000
        k(    5) = (   0.2500000  -0.5000000   0.0000000), wk =   0.2500000
        k(    6) = (  -0.5000000  -0.5000000   0.0000000), wk =   0.1250000
        k(    7) = (   0.2500000   0.0000000   0.0000000), wk =   0.2500000
        k(    8) = (  -0.5000000   0.0000000   0.0000000), wk =   0.1250000
        k(    9) = (  -0.2500000   0.2500000   0.0000000), wk =   0.2500000
        k(   10) = (  -0.5000000   0.2500000   0.0000000), wk =   0.2500000

     Dense  grid:  1474595 G-vectors     FFT dimensions: ( 108, 108, 270)

     Smooth grid:   521381 G-vectors     FFT dimensions: (  75,  75, 192)

     Dynamical RAM for                 wfc:      10.73 MB

     Dynamical RAM for     wfc (w. buffer):      64.38 MB

     Dynamical RAM for           str. fact:       3.75 MB

     Dynamical RAM for           local pot:       0.00 MB

     Dynamical RAM for          nlocal pot:      24.61 MB

     Dynamical RAM for                qrad:       7.03 MB

     Dynamical RAM for          rho,v,vnew:       6.02 MB

     Dynamical RAM for               rhoin:       2.01 MB

     Dynamical RAM for            rho*nmix:      15.00 MB

     Dynamical RAM for           G-vectors:       3.68 MB

     Dynamical RAM for          h,s,v(r/c):       1.35 MB

     Dynamical RAM for          <psi|beta>:       2.35 MB

     Dynamical RAM for                 psi:      21.46 MB

     Dynamical RAM for                hpsi:      21.46 MB

     Dynamical RAM for                spsi:      21.46 MB

     Dynamical RAM for      wfcinit/wfcrot:      34.49 MB

     Dynamical RAM for           addusdens:     101.26 MB

     Estimated static dynamical RAM per process >     121.50 MB

     Estimated max dynamical RAM per process >     237.76 MB

     Estimated total dynamical RAM >      10.79 GB

     Check: negative core charge=   -0.000004

     Initial potential from superposition of free atoms

     starting charge     422.5961, renormalised to     431.0000

     negative rho (up, down):  7.819E-01 0.000E+00
     Starting wfcs are  377 randomized atomic wfcs
     Checking if some PAW data can be deallocated... 
       PAW data deallocated on   19 nodes for type:  2

     total cpu time spent up to now is        9.9 secs

     Self-consistent Calculation

     iteration #  1     ecut=    60.00 Ry     beta= 0.15
     Davidson diagonalization with overlap

---- Real-time Memory Report at c_bands before calling an iterative solver
             0 MiB given to the printing process from OS
             0 MiB allocation reported by mallinfo(arena+hblkhd)
         23984 MiB available memory on the node where the printing process lives
------------------
     ethr =  1.00E-02,  avg # of iterations =  2.0

     negative rho (up, down):  7.714E-01 0.000E+00

     total cpu time spent up to now is       27.3 secs

     total energy              =   -4446.57757934 Ry
     estimated scf accuracy    <      44.57837554 Ry

     iteration #  2     ecut=    60.00 Ry     beta= 0.15
     Davidson diagonalization with overlap

---- Real-time Memory Report at c_bands before calling an iterative solver
             0 MiB given to the printing process from OS
             0 MiB allocation reported by mallinfo(arena+hblkhd)
         24250 MiB available memory on the node where the printing process lives
------------------
     ethr =  1.00E-02,  avg # of iterations =  1.0

     negative rho (up, down):  7.584E-01 0.000E+00

     total cpu time spent up to now is       42.5 secs

     total energy              =   -4443.36643095 Ry
     estimated scf accuracy    <      29.54288944 Ry

     iteration #  3     ecut=    60.00 Ry     beta= 0.15
     Davidson diagonalization with overlap

---- Real-time Memory Report at c_bands before calling an iterative solver
             0 MiB given to the printing process from OS
             0 MiB allocation reported by mallinfo(arena+hblkhd)
         23417 MiB available memory on the node where the printing process lives
------------------
     ethr =  6.85E-03,  avg # of iterations =  1.0

     negative rho (up, down):  7.555E-01 0.000E+00

     total cpu time spent up to now is       57.7 secs

     total energy              =   -4444.26424591 Ry
     estimated scf accuracy    <      27.60738979 Ry

     iteration #  4     ecut=    60.00 Ry     beta= 0.15
     Davidson diagonalization with overlap

---- Real-time Memory Report at c_bands before calling an iterative solver
             0 MiB given to the printing process from OS
             0 MiB allocation reported by mallinfo(arena+hblkhd)
         23386 MiB available memory on the node where the printing process lives
------------------
     ethr =  6.41E-03,  avg # of iterations =  1.0

     negative rho (up, down):  7.501E-01 0.000E+00

     total cpu time spent up to now is       72.7 secs

     total energy              =   -4443.06582745 Ry
     estimated scf accuracy    <      20.22986249 Ry

     iteration #  5     ecut=    60.00 Ry     beta= 0.15
     Davidson diagonalization with overlap

---- Real-time Memory Report at c_bands before calling an iterative solver
             0 MiB given to the printing process from OS
             0 MiB allocation reported by mallinfo(arena+hblkhd)
         23375 MiB available memory on the node where the printing process lives
------------------
     ethr =  4.69E-03,  avg # of iterations =  1.0

     negative rho (up, down):  7.401E-01 0.000E+00

     total cpu time spent up to now is       88.0 secs

     total energy              =   -4442.51571332 Ry
     estimated scf accuracy    <      11.86958672 Ry

     iteration #  6     ecut=    60.00 Ry     beta= 0.15
     Davidson diagonalization with overlap

---- Real-time Memory Report at c_bands before calling an iterative solver
             0 MiB given to the printing process from OS
             0 MiB allocation reported by mallinfo(arena+hblkhd)
         23356 MiB available memory on the node where the printing process lives
------------------
     ethr =  2.75E-03,  avg # of iterations =  1.0

     negative rho (up, down):  7.428E-01 0.000E+00

     total cpu time spent up to now is      103.3 secs

     total energy              =   -4442.82598340 Ry
     estimated scf accuracy    <       5.00377496 Ry

     iteration #  7     ecut=    60.00 Ry     beta= 0.15
     Davidson diagonalization with overlap

---- Real-time Memory Report at c_bands before calling an iterative solver
             0 MiB given to the printing process from OS
             0 MiB allocation reported by mallinfo(arena+hblkhd)
         23336 MiB available memory on the node where the printing process lives
------------------
     ethr =  1.16E-03,  avg # of iterations =  1.7

     negative rho (up, down):  7.651E-01 0.000E+00

     total cpu time spent up to now is      119.1 secs

     total energy              =   -4441.65720606 Ry
     estimated scf accuracy    <       3.94830584 Ry

     iteration #  8     ecut=    60.00 Ry     beta= 0.15
     Davidson diagonalization with overlap

---- Real-time Memory Report at c_bands before calling an iterative solver
             0 MiB given to the printing process from OS
             0 MiB allocation reported by mallinfo(arena+hblkhd)
         23316 MiB available memory on the node where the printing process lives
------------------
     ethr =  9.16E-04,  avg # of iterations =  3.9

     negative rho (up, down):  7.738E-01 0.000E+00

     total cpu time spent up to now is      138.8 secs

     total energy              =   -4441.34483777 Ry
     estimated scf accuracy    <      21.06012133 Ry

     iteration #  9     ecut=    60.00 Ry     beta= 0.15
     Davidson diagonalization with overlap

---- Real-time Memory Report at c_bands before calling an iterative solver
             0 MiB given to the printing process from OS
             0 MiB allocation reported by mallinfo(arena+hblkhd)
         23201 MiB available memory on the node where the printing process lives
------------------
     ethr =  9.16E-04,  avg # of iterations =  9.7

     negative rho (up, down):  7.706E-01 0.000E+00

     total cpu time spent up to now is      161.4 secs

     total energy              =   -4441.71714810 Ry
     estimated scf accuracy    <       3.75853699 Ry

     iteration # 10     ecut=    60.00 Ry     beta= 0.15
     Davidson diagonalization with overlap

---- Real-time Memory Report at c_bands before calling an iterative solver
             0 MiB given to the printing process from OS
             0 MiB allocation reported by mallinfo(arena+hblkhd)
         22868 MiB available memory on the node where the printing process lives
------------------
     ethr =  8.72E-04,  avg # of iterations =  1.1

     negative rho (up, down):  7.747E-01 0.000E+00

     total cpu time spent up to now is      177.0 secs

     total energy              =   -4441.89739544 Ry
     estimated scf accuracy    <       1.52811013 Ry

     iteration # 11     ecut=    60.00 Ry     beta= 0.15
     Davidson diagonalization with overlap

---- Real-time Memory Report at c_bands before calling an iterative solver
             0 MiB given to the printing process from OS
             0 MiB allocation reported by mallinfo(arena+hblkhd)
         22843 MiB available memory on the node where the printing process lives
------------------
     ethr =  3.55E-04,  avg # of iterations =  2.6

     negative rho (up, down):  8.019E-01 0.000E+00

     total cpu time spent up to now is      194.3 secs

     total energy              =   -4441.77269810 Ry
     estimated scf accuracy    <       1.01770541 Ry

     iteration # 12     ecut=    60.00 Ry     beta= 0.15
     Davidson diagonalization with overlap

---- Real-time Memory Report at c_bands before calling an iterative solver
             0 MiB given to the printing process from OS
             0 MiB allocation reported by mallinfo(arena+hblkhd)
         22841 MiB available memory on the node where the printing process lives
------------------
     ethr =  2.36E-04,  avg # of iterations =  5.9

     negative rho (up, down):  8.161E-01 0.000E+00

     total cpu time spent up to now is      214.0 secs

     total energy              =   -4441.87557750 Ry
     estimated scf accuracy    <       1.41073300 Ry

     iteration # 13     ecut=    60.00 Ry     beta= 0.15
     Davidson diagonalization with overlap

---- Real-time Memory Report at c_bands before calling an iterative solver
             0 MiB given to the printing process from OS
             0 MiB allocation reported by mallinfo(arena+hblkhd)
         22805 MiB available memory on the node where the printing process lives
------------------
     ethr =  2.36E-04,  avg # of iterations = 10.2

     negative rho (up, down):  8.187E-01 0.000E+00

     total cpu time spent up to now is      235.7 secs

     total energy              =   -4441.81554910 Ry
     estimated scf accuracy    <       1.00831785 Ry

     iteration # 14     ecut=    60.00 Ry     beta= 0.15
     Davidson diagonalization with overlap

---- Real-time Memory Report at c_bands before calling an iterative solver
             0 MiB given to the printing process from OS
             0 MiB allocation reported by mallinfo(arena+hblkhd)
         22773 MiB available memory on the node where the printing process lives
------------------
     ethr =  2.34E-04,  avg # of iterations =  2.2

     negative rho (up, down):  8.180E-01 0.000E+00

     total cpu time spent up to now is      252.5 secs

     total energy              =   -4441.76197787 Ry
     estimated scf accuracy    <       0.44234693 Ry

     iteration # 15     ecut=    60.00 Ry     beta= 0.15
     Davidson diagonalization with overlap

---- Real-time Memory Report at c_bands before calling an iterative solver
             0 MiB given to the printing process from OS
             0 MiB allocation reported by mallinfo(arena+hblkhd)
         22780 MiB available memory on the node where the printing process lives
------------------
     c_bands:  2 eigenvalues not converged
     ethr =  1.03E-04,  avg # of iterations =  8.6

     negative rho (up, down):  8.273E-01 0.000E+00

     total cpu time spent up to now is      273.8 secs

     total energy              =   -4441.73707711 Ry
     estimated scf accuracy    <       0.31335933 Ry

     iteration # 16     ecut=    60.00 Ry     beta= 0.15
     Davidson diagonalization with overlap

---- Real-time Memory Report at c_bands before calling an iterative solver
             0 MiB given to the printing process from OS
             0 MiB allocation reported by mallinfo(arena+hblkhd)
         22784 MiB available memory on the node where the printing process lives
------------------
     ethr =  7.27E-05,  avg # of iterations = 13.4

     negative rho (up, down):  8.305E-01 0.000E+00

     total cpu time spent up to now is      297.4 secs

     total energy              =   -4441.73458769 Ry
     estimated scf accuracy    <       0.31355319 Ry

     iteration # 17     ecut=    60.00 Ry     beta= 0.15
     Davidson diagonalization with overlap

---- Real-time Memory Report at c_bands before calling an iterative solver
             0 MiB given to the printing process from OS
             0 MiB allocation reported by mallinfo(arena+hblkhd)
         22758 MiB available memory on the node where the printing process lives
------------------
     ethr =  7.27E-05,  avg # of iterations =  1.1

     negative rho (up, down):  8.272E-01 0.000E+00

     total cpu time spent up to now is      313.3 secs

     total energy              =   -4441.71545465 Ry
     estimated scf accuracy    <       0.24464320 Ry

     iteration # 18     ecut=    60.00 Ry     beta= 0.15
     Davidson diagonalization with overlap

---- Real-time Memory Report at c_bands before calling an iterative solver
             0 MiB given to the printing process from OS
             0 MiB allocation reported by mallinfo(arena+hblkhd)
         22767 MiB available memory on the node where the printing process lives
------------------
     ethr =  5.68E-05,  avg # of iterations =  4.1

     negative rho (up, down):  8.164E-01 0.000E+00

     total cpu time spent up to now is      331.7 secs

     total energy              =   -4441.69189598 Ry
     estimated scf accuracy    <       0.16101795 Ry

     iteration # 19     ecut=    60.00 Ry     beta= 0.15
     Davidson diagonalization with overlap

---- Real-time Memory Report at c_bands before calling an iterative solver
             0 MiB given to the printing process from OS
             0 MiB allocation reported by mallinfo(arena+hblkhd)
         22756 MiB available memory on the node where the printing process lives
------------------
     ethr =  3.74E-05,  avg # of iterations =  7.4

     negative rho (up, down):  8.282E-01 0.000E+00

     total cpu time spent up to now is      353.0 secs

     total energy              =   -4441.67852035 Ry
     estimated scf accuracy    <       0.11181429 Ry

     iteration # 20     ecut=    60.00 Ry     beta= 0.15
     Davidson diagonalization with overlap

---- Real-time Memory Report at c_bands before calling an iterative solver
             0 MiB given to the printing process from OS
             0 MiB allocation reported by mallinfo(arena+hblkhd)
         22709 MiB available memory on the node where the printing process lives
------------------
     ethr =  2.59E-05,  avg # of iterations =  9.7

     negative rho (up, down):  8.214E-01 0.000E+00

     total cpu time spent up to now is      374.7 secs

     total energy              =   -4441.67478350 Ry
     estimated scf accuracy    <       0.05892188 Ry

     iteration # 21     ecut=    60.00 Ry     beta= 0.15
     Davidson diagonalization with overlap

---- Real-time Memory Report at c_bands before calling an iterative solver
             0 MiB given to the printing process from OS
             0 MiB allocation reported by mallinfo(arena+hblkhd)
         22717 MiB available memory on the node where the printing process lives
------------------
     ethr =  1.37E-05,  avg # of iterations = 11.2

     negative rho (up, down):  8.170E-01 0.000E+00

     total cpu time spent up to now is      397.6 secs

     total energy              =   -4441.67379043 Ry
     estimated scf accuracy    <       0.03209142 Ry

     iteration # 22     ecut=    60.00 Ry     beta= 0.15
     Davidson diagonalization with overlap

---- Real-time Memory Report at c_bands before calling an iterative solver
             0 MiB given to the printing process from OS
             0 MiB allocation reported by mallinfo(arena+hblkhd)
         22705 MiB available memory on the node where the printing process lives
------------------
     ethr =  7.45E-06,  avg # of iterations =  7.4

     negative rho (up, down):  8.110E-01 0.000E+00

     total cpu time spent up to now is      418.3 secs

     total energy              =   -4441.67287648 Ry
     estimated scf accuracy    <       0.02120891 Ry

     iteration # 23     ecut=    60.00 Ry     beta= 0.15
     Davidson diagonalization with overlap

---- Real-time Memory Report at c_bands before calling an iterative solver
             0 MiB given to the printing process from OS
             0 MiB allocation reported by mallinfo(arena+hblkhd)
         22701 MiB available memory on the node where the printing process lives
------------------
     ethr =  4.92E-06,  avg # of iterations =  4.9

     negative rho (up, down):  7.900E-01 0.000E+00

     total cpu time spent up to now is      437.3 secs

     total energy              =   -4441.66901245 Ry
     estimated scf accuracy    <       0.01612620 Ry

     iteration # 24     ecut=    60.00 Ry     beta= 0.15
     Davidson diagonalization with overlap

---- Real-time Memory Report at c_bands before calling an iterative solver
             0 MiB given to the printing process from OS
             0 MiB allocation reported by mallinfo(arena+hblkhd)
         22724 MiB available memory on the node where the printing process lives
------------------
     c_bands:  1 eigenvalues not converged
     ethr =  3.74E-06,  avg # of iterations = 13.7

     negative rho (up, down):  7.970E-01 0.000E+00

     total cpu time spent up to now is      461.5 secs

     total energy              =   -4441.66861302 Ry
     estimated scf accuracy    <       0.00970583 Ry

     iteration # 25     ecut=    60.00 Ry     beta= 0.15
     Davidson diagonalization with overlap

---- Real-time Memory Report at c_bands before calling an iterative solver
             0 MiB given to the printing process from OS
             0 MiB allocation reported by mallinfo(arena+hblkhd)
         22750 MiB available memory on the node where the printing process lives
------------------
     c_bands:  1 eigenvalues not converged
     c_bands:  1 eigenvalues not converged
     ethr =  2.25E-06,  avg # of iterations = 12.9

     negative rho (up, down):  7.976E-01 0.000E+00

     total cpu time spent up to now is      486.1 secs

     total energy              =   -4441.66865741 Ry
     estimated scf accuracy    <       0.00413154 Ry

     iteration # 26     ecut=    60.00 Ry     beta= 0.15
     Davidson diagonalization with overlap

---- Real-time Memory Report at c_bands before calling an iterative solver
             0 MiB given to the printing process from OS
             0 MiB allocation reported by mallinfo(arena+hblkhd)
         22652 MiB available memory on the node where the printing process lives
------------------
     ethr =  9.59E-07,  avg # of iterations =  3.9

     negative rho (up, down):  7.949E-01 0.000E+00

     total cpu time spent up to now is      504.4 secs

     total energy              =   -4441.66846207 Ry
     estimated scf accuracy    <       0.00295075 Ry

     iteration # 27     ecut=    60.00 Ry     beta= 0.15
     Davidson diagonalization with overlap

---- Real-time Memory Report at c_bands before calling an iterative solver
             0 MiB given to the printing process from OS
             0 MiB allocation reported by mallinfo(arena+hblkhd)
         22701 MiB available memory on the node where the printing process lives
------------------
     ethr =  6.85E-07,  avg # of iterations =  7.1

     negative rho (up, down):  7.926E-01 0.000E+00

     total cpu time spent up to now is      524.6 secs

     total energy              =   -4441.66848863 Ry
     estimated scf accuracy    <       0.00189454 Ry

     iteration # 28     ecut=    60.00 Ry     beta= 0.15
     Davidson diagonalization with overlap

---- Real-time Memory Report at c_bands before calling an iterative solver
             0 MiB given to the printing process from OS
             0 MiB allocation reported by mallinfo(arena+hblkhd)
         22704 MiB available memory on the node where the printing process lives
------------------
     c_bands:  1 eigenvalues not converged
     ethr =  4.40E-07,  avg # of iterations = 11.3

     negative rho (up, down):  7.932E-01 0.000E+00

     total cpu time spent up to now is      547.3 secs

     total energy              =   -4441.66856468 Ry
     estimated scf accuracy    <       0.00104419 Ry

     iteration # 29     ecut=    60.00 Ry     beta= 0.15
     Davidson diagonalization with overlap

---- Real-time Memory Report at c_bands before calling an iterative solver
             0 MiB given to the printing process from OS
             0 MiB allocation reported by mallinfo(arena+hblkhd)
         22747 MiB available memory on the node where the printing process lives
------------------
     ethr =  2.42E-07,  avg # of iterations =  4.2

     negative rho (up, down):  7.927E-01 0.000E+00

     total cpu time spent up to now is      566.0 secs

     total energy              =   -4441.66854705 Ry
     estimated scf accuracy    <       0.00056132 Ry

     iteration # 30     ecut=    60.00 Ry     beta= 0.15
     Davidson diagonalization with overlap

---- Real-time Memory Report at c_bands before calling an iterative solver
             0 MiB given to the printing process from OS
             0 MiB allocation reported by mallinfo(arena+hblkhd)
         22763 MiB available memory on the node where the printing process lives
------------------
     ethr =  1.30E-07,  avg # of iterations = 10.0

     negative rho (up, down):  7.921E-01 0.000E+00

     total cpu time spent up to now is      587.5 secs

     total energy              =   -4441.66855004 Ry
     estimated scf accuracy    <       0.00031621 Ry

     iteration # 31     ecut=    60.00 Ry     beta= 0.15
     Davidson diagonalization with overlap

---- Real-time Memory Report at c_bands before calling an iterative solver
             0 MiB given to the printing process from OS
             0 MiB allocation reported by mallinfo(arena+hblkhd)
         22763 MiB available memory on the node where the printing process lives
------------------
     ethr =  7.34E-08,  avg # of iterations =  2.0

     negative rho (up, down):  7.917E-01 0.000E+00

     total cpu time spent up to now is      605.4 secs

     total energy              =   -4441.66855703 Ry
     estimated scf accuracy    <       0.00017820 Ry

     iteration # 32     ecut=    60.00 Ry     beta= 0.15
     Davidson diagonalization with overlap

---- Real-time Memory Report at c_bands before calling an iterative solver
             0 MiB given to the printing process from OS
             0 MiB allocation reported by mallinfo(arena+hblkhd)
         22768 MiB available memory on the node where the printing process lives
------------------
     ethr =  4.13E-08,  avg # of iterations =  2.1

     negative rho (up, down):  7.912E-01 0.000E+00

     total cpu time spent up to now is      623.1 secs

     total energy              =   -4441.66854148 Ry
     estimated scf accuracy    <       0.00010418 Ry

     iteration # 33     ecut=    60.00 Ry     beta= 0.15
     Davidson diagonalization with overlap

---- Real-time Memory Report at c_bands before calling an iterative solver
             0 MiB given to the printing process from OS
             0 MiB allocation reported by mallinfo(arena+hblkhd)
         22775 MiB available memory on the node where the printing process lives
------------------
     ethr =  2.42E-08,  avg # of iterations =  3.3

     negative rho (up, down):  7.914E-01 0.000E+00

     total cpu time spent up to now is      641.0 secs

     total energy              =   -4441.66854451 Ry
     estimated scf accuracy    <       0.00006336 Ry

     iteration # 34     ecut=    60.00 Ry     beta= 0.15
     Davidson diagonalization with overlap

---- Real-time Memory Report at c_bands before calling an iterative solver
             0 MiB given to the printing process from OS
             0 MiB allocation reported by mallinfo(arena+hblkhd)
         22774 MiB available memory on the node where the printing process lives
------------------
     ethr =  1.47E-08,  avg # of iterations =  2.1

     negative rho (up, down):  7.918E-01 0.000E+00

     total cpu time spent up to now is      658.3 secs

     total energy              =   -4441.66854457 Ry
     estimated scf accuracy    <       0.00003468 Ry

     iteration # 35     ecut=    60.00 Ry     beta= 0.15
     Davidson diagonalization with overlap

---- Real-time Memory Report at c_bands before calling an iterative solver
             0 MiB given to the printing process from OS
             0 MiB allocation reported by mallinfo(arena+hblkhd)
         22774 MiB available memory on the node where the printing process lives
------------------
     ethr =  8.05E-09,  avg # of iterations =  2.1

     negative rho (up, down):  7.923E-01 0.000E+00

     total cpu time spent up to now is      675.7 secs

     total energy              =   -4441.66855136 Ry
     estimated scf accuracy    <       0.00001977 Ry

     iteration # 36     ecut=    60.00 Ry     beta= 0.15
     Davidson diagonalization with overlap

---- Real-time Memory Report at c_bands before calling an iterative solver
             0 MiB given to the printing process from OS
             0 MiB allocation reported by mallinfo(arena+hblkhd)
         22774 MiB available memory on the node where the printing process lives
------------------
     ethr =  4.59E-09,  avg # of iterations =  2.7

     negative rho (up, down):  7.925E-01 0.000E+00

     total cpu time spent up to now is      693.6 secs

     total energy              =   -4441.66855704 Ry
     estimated scf accuracy    <       0.00000948 Ry

     iteration # 37     ecut=    60.00 Ry     beta= 0.15
     Davidson diagonalization with overlap

---- Real-time Memory Report at c_bands before calling an iterative solver
             0 MiB given to the printing process from OS
             0 MiB allocation reported by mallinfo(arena+hblkhd)
         22784 MiB available memory on the node where the printing process lives
------------------
     ethr =  2.20E-09,  avg # of iterations =  2.9

     negative rho (up, down):  7.925E-01 0.000E+00

     total cpu time spent up to now is      711.5 secs

     total energy              =   -4441.66856062 Ry
     estimated scf accuracy    <       0.00000555 Ry

     iteration # 38     ecut=    60.00 Ry     beta= 0.15
     Davidson diagonalization with overlap

---- Real-time Memory Report at c_bands before calling an iterative solver
             0 MiB given to the printing process from OS
             0 MiB allocation reported by mallinfo(arena+hblkhd)
         22794 MiB available memory on the node where the printing process lives
------------------
     ethr =  1.29E-09,  avg # of iterations =  3.0

     negative rho (up, down):  7.925E-01 0.000E+00

     total cpu time spent up to now is      729.2 secs

     total energy              =   -4441.66856305 Ry
     estimated scf accuracy    <       0.00000301 Ry

     iteration # 39     ecut=    60.00 Ry     beta= 0.15
     Davidson diagonalization with overlap

---- Real-time Memory Report at c_bands before calling an iterative solver
             0 MiB given to the printing process from OS
             0 MiB allocation reported by mallinfo(arena+hblkhd)
         22804 MiB available memory on the node where the printing process lives
------------------
     ethr =  7.00E-10,  avg # of iterations =  3.7

     negative rho (up, down):  7.925E-01 0.000E+00

     total cpu time spent up to now is      747.4 secs

     total energy              =   -4441.66856394 Ry
     estimated scf accuracy    <       0.00000137 Ry

     iteration # 40     ecut=    60.00 Ry     beta= 0.15
     Davidson diagonalization with overlap

---- Real-time Memory Report at c_bands before calling an iterative solver
             0 MiB given to the printing process from OS
             0 MiB allocation reported by mallinfo(arena+hblkhd)
         22802 MiB available memory on the node where the printing process lives
------------------
     ethr =  3.18E-10,  avg # of iterations =  3.8

     negative rho (up, down):  7.925E-01 0.000E+00

     total cpu time spent up to now is      765.8 secs

     total energy              =   -4441.66856417 Ry
     estimated scf accuracy    <       0.00000063 Ry

     iteration # 41     ecut=    60.00 Ry     beta= 0.15
     Davidson diagonalization with overlap

---- Real-time Memory Report at c_bands before calling an iterative solver
             0 MiB given to the printing process from OS
             0 MiB allocation reported by mallinfo(arena+hblkhd)
         22796 MiB available memory on the node where the printing process lives
------------------
     ethr =  1.46E-10,  avg # of iterations =  2.2

     negative rho (up, down):  7.925E-01 0.000E+00

     total cpu time spent up to now is      783.3 secs

     total energy              =   -4441.66856430 Ry
     estimated scf accuracy    <       0.00000041 Ry

     iteration # 42     ecut=    60.00 Ry     beta= 0.15
     Davidson diagonalization with overlap

---- Real-time Memory Report at c_bands before calling an iterative solver
             0 MiB given to the printing process from OS
             0 MiB allocation reported by mallinfo(arena+hblkhd)
         22800 MiB available memory on the node where the printing process lives
------------------
     ethr =  9.47E-11,  avg # of iterations =  2.8

     negative rho (up, down):  7.925E-01 0.000E+00

     total cpu time spent up to now is      801.0 secs

     total energy              =   -4441.66856434 Ry
     estimated scf accuracy    <       0.00000024 Ry

     iteration # 43     ecut=    60.00 Ry     beta= 0.15
     Davidson diagonalization with overlap

---- Real-time Memory Report at c_bands before calling an iterative solver
             0 MiB given to the printing process from OS
             0 MiB allocation reported by mallinfo(arena+hblkhd)
         22799 MiB available memory on the node where the printing process lives
------------------
     ethr =  5.60E-11,  avg # of iterations =  3.0

     negative rho (up, down):  7.925E-01 0.000E+00

     total cpu time spent up to now is      818.8 secs

     total energy              =   -4441.66856435 Ry
     estimated scf accuracy    <       0.00000013 Ry

     iteration # 44     ecut=    60.00 Ry     beta= 0.15
     Davidson diagonalization with overlap

---- Real-time Memory Report at c_bands before calling an iterative solver
             0 MiB given to the printing process from OS
             0 MiB allocation reported by mallinfo(arena+hblkhd)
         22800 MiB available memory on the node where the printing process lives
------------------
     ethr =  3.10E-11,  avg # of iterations =  2.2

     negative rho (up, down):  7.925E-01 0.000E+00

     total cpu time spent up to now is      836.4 secs

     total energy              =   -4441.66856434 Ry
     estimated scf accuracy    <       0.00000005 Ry

     iteration # 45     ecut=    60.00 Ry     beta= 0.15
     Davidson diagonalization with overlap

---- Real-time Memory Report at c_bands before calling an iterative solver
             0 MiB given to the printing process from OS
             0 MiB allocation reported by mallinfo(arena+hblkhd)
         22802 MiB available memory on the node where the printing process lives
------------------
     ethr =  1.22E-11,  avg # of iterations =  2.4

     negative rho (up, down):  7.925E-01 0.000E+00

     total cpu time spent up to now is      853.9 secs

     total energy              =   -4441.66856435 Ry
     estimated scf accuracy    <       0.00000004 Ry

     iteration # 46     ecut=    60.00 Ry     beta= 0.15
     Davidson diagonalization with overlap

---- Real-time Memory Report at c_bands before calling an iterative solver
             0 MiB given to the printing process from OS
             0 MiB allocation reported by mallinfo(arena+hblkhd)
         22802 MiB available memory on the node where the printing process lives
------------------
     ethr =  8.73E-12,  avg # of iterations =  1.9

     negative rho (up, down):  7.925E-01 0.000E+00

     total cpu time spent up to now is      871.0 secs

     total energy              =   -4441.66856435 Ry
     estimated scf accuracy    <       0.00000002 Ry

     iteration # 47     ecut=    60.00 Ry     beta= 0.15
     Davidson diagonalization with overlap

---- Real-time Memory Report at c_bands before calling an iterative solver
             0 MiB given to the printing process from OS
             0 MiB allocation reported by mallinfo(arena+hblkhd)
         22804 MiB available memory on the node where the printing process lives
------------------
     ethr =  4.65E-12,  avg # of iterations =  1.2

     negative rho (up, down):  7.925E-01 0.000E+00

     total cpu time spent up to now is      887.0 secs

     total energy              =   -4441.66856435 Ry
     estimated scf accuracy    <       0.00000002 Ry

     iteration # 48     ecut=    60.00 Ry     beta= 0.15
     Davidson diagonalization with overlap

---- Real-time Memory Report at c_bands before calling an iterative solver
             0 MiB given to the printing process from OS
             0 MiB allocation reported by mallinfo(arena+hblkhd)
         22801 MiB available memory on the node where the printing process lives
------------------
     ethr =  4.20E-12,  avg # of iterations =  2.1

     negative rho (up, down):  7.925E-01 0.000E+00

     total cpu time spent up to now is      904.4 secs

     total energy              =   -4441.66856435 Ry
     estimated scf accuracy    <       0.00000001 Ry

     iteration # 49     ecut=    60.00 Ry     beta= 0.15
     Davidson diagonalization with overlap

---- Real-time Memory Report at c_bands before calling an iterative solver
             0 MiB given to the printing process from OS
             0 MiB allocation reported by mallinfo(arena+hblkhd)
         22802 MiB available memory on the node where the printing process lives
------------------
     ethr =  3.40E-12,  avg # of iterations =  1.7

     negative rho (up, down):  7.925E-01 0.000E+00

     total cpu time spent up to now is      921.2 secs

     total energy              =   -4441.66856436 Ry
     estimated scf accuracy    <       0.00000001 Ry

     iteration # 50     ecut=    60.00 Ry     beta= 0.15
     Davidson diagonalization with overlap

---- Real-time Memory Report at c_bands before calling an iterative solver
             0 MiB given to the printing process from OS
             0 MiB allocation reported by mallinfo(arena+hblkhd)
         22807 MiB available memory on the node where the printing process lives
------------------
     ethr =  2.76E-12,  avg # of iterations =  2.6

     negative rho (up, down):  7.925E-01 0.000E+00

     total cpu time spent up to now is      938.5 secs

     End of self-consistent calculation

          k = 0.0000 0.0000 0.0000 ( 65197 PWs)   bands (ev):

   -92.7037 -92.6554 -92.5582 -92.5109 -92.4547 -92.4102 -92.3929 -92.2727
   -56.0571 -56.0422 -55.9152 -55.9044 -55.8984 -55.8912 -55.8592 -55.8272
   -55.8116 -55.8097 -55.8048 -55.7615 -55.7414 -55.7059 -55.6848 -55.6545
   -55.6465 -55.5985 -55.5981 -55.5954 -55.5870 -55.5480 -55.5232 -55.4386
   -31.2808 -31.2612 -31.1200 -31.0588 -31.0426 -31.0329 -30.7755 -30.5768
   -29.8495 -29.8060 -29.7824 -29.6725 -15.0838 -15.0339 -14.9580 -14.8285
   -14.6302 -14.5087 -14.2196 -14.1997 -14.1700 -14.1255 -14.0811 -14.0684
   -14.0556 -14.0363 -14.0055 -13.9878 -13.9793 -13.9308 -13.7796 -13.5969
   -13.5674 -13.5373 -13.5014 -13.4850 -13.4347 -13.4008 -13.3253 -13.2531
   -13.1300 -13.1126 -13.1037 -13.0773 -13.0730 -13.0600 -13.0112 -13.0042
   -12.9791 -12.9586 -12.9257 -12.9077 -12.8982 -12.8856 -12.8746 -12.7686
   -12.7432 -12.7327 -12.5424 -12.5263 -12.4777 -12.3455 -12.1996 -11.9939
   -11.9194 -11.8626 -11.7885 -11.7784 -11.7546 -11.7375 -11.6737 -11.6570
   -11.6213 -11.5932 -11.4812 -11.4017 -11.3980  -2.9429  -2.7113  -2.4820
    -2.3334  -2.2718  -2.1302  -1.8221  -1.8078  -1.7891  -1.7017  -1.6843
    -1.6164  -1.5997  -1.5593  -1.5148  -1.3350  -1.2264  -1.1044  -1.0767
    -0.9334  -0.9186  -0.8686  -0.8524  -0.8067  -0.7875  -0.7356  -0.7090
    -0.6339  -0.6221  -0.5491  -0.4172  -0.4046  -0.3745  -0.2933  -0.2729
    -0.2318  -0.2004  -0.1276  -0.0820  -0.0290  -0.0042   0.0625   0.1348
     0.1786   0.2042   0.2128   0.4717   0.4899   0.6625   0.7243   0.7900
     0.8416   0.9245   0.9385   0.9556   1.0229   1.0493   1.0854   1.1404
     1.2718   1.3312   1.3534   1.3774   1.3872   1.4504   1.5186   1.6302
     1.6461   1.7078   1.7135   1.7574   1.7783   1.7887   1.8423   1.9036
     1.9105   1.9547   1.9846   2.0271   2.1576   2.2442   2.2854   2.3062
     2.4325   2.4508   2.4579   2.4772   2.5099   2.5162   2.6255   2.6563
     2.6837   2.7030   2.7201   2.8026   2.9053   2.9399   2.9491   2.9551
     3.0231   3.0280   3.0506   3.0585   3.0679   3.0810   3.0871   3.1017
     3.1076   3.1182   3.1271   3.1352   3.1546   3.1754   3.1804   3.1928
     3.2162   3.3328   3.4145   4.1044   4.4269   4.7664   4.8633   5.0423
     5.7939   5.9448   5.9826   6.0083   6.3115   6.3584   6.4761   6.4875
     6.7371   7.0047   7.0980   7.3137   7.4320   7.6450   7.6675   7.6864
     7.7419   7.9027   7.9502   8.0063   8.1089   8.1709   8.4531   8.5696
     8.7058   8.7944   8.8757

     occupation numbers 
     1.0000   1.0000   1.0000   1.0000   1.0000   1.0000   1.0000   1.0000
     1.0000   1.0000   1.0000   1.0000   1.0000   1.0000   1.0000   1.0000
     1.0000   1.0000   1.0000   1.0000   1.0000   1.0000   1.0000   1.0000
     1.0000   1.0000   1.0000   1.0000   1.0000   1.0000   1.0000   1.0000
     1.0000   1.0000   1.0000   1.0000   1.0000   1.0000   1.0000   1.0000
     1.0000   1.0000   1.0000   1.0000   1.0000   1.0000   1.0000   1.0000
     1.0000   1.0000   1.0000   1.0000   1.0000   1.0000   1.0000   1.0000
     1.0000   1.0000   1.0000   1.0000   1.0000   1.0000   1.0000   1.0000
     1.0000   1.0000   1.0000   1.0000   1.0000   1.0000   1.0000   1.0000
     1.0000   1.0000   1.0000   1.0000   1.0000   1.0000   1.0000   1.0000
     1.0000   1.0000   1.0000   1.0000   1.0000   1.0000   1.0000   1.0000
     1.0000   1.0000   1.0000   1.0000   1.0000   1.0000   1.0000   1.0000
     1.0000   1.0000   1.0000   1.0000   1.0000   1.0000   1.0000   1.0000
     1.0000   1.0000   1.0000   1.0000   1.0000   1.0000   1.0000   1.0000
     1.0000   1.0000   1.0000   1.0000   1.0000   1.0000   1.0000   1.0000
     1.0000   1.0000   1.0000   1.0000   1.0000   1.0000   1.0000   1.0000
     1.0000   1.0000   1.0000   1.0000   1.0000   1.0000   1.0000   1.0000
     1.0000   1.0000   1.0000   1.0000   1.0000   1.0000   1.0000   1.0000
     1.0000   1.0000   1.0000   1.0000   1.0000   1.0000   1.0000   1.0000
     1.0000   1.0000   1.0000   1.0000   1.0000   1.0000   0.9999   0.9999
     0.9999   0.9998   0.9998   0.9998   0.9997   0.9996   0.9996   0.9994
     0.9988   0.9985   0.9983   0.9981   0.9980   0.9973   0.9963   0.9940
     0.9936   0.9918   0.9916   0.9900   0.9891   0.9887   0.9861   0.9825
     0.9821   0.9790   0.9766   0.9729   0.9584   0.9456   0.9385   0.9346
     0.9072   0.9026   0.9008   0.8957   0.8866   0.8848   0.8501   0.8392
     0.8291   0.8217   0.8150   0.7806   0.7329   0.7157   0.7111   0.7081
     0.6725   0.6698   0.6576   0.6533   0.6481   0.6408   0.6374   0.6293
     0.6260   0.6200   0.6150   0.6103   0.5992   0.5873   0.5844   0.5772
     0.5636   0.4947   0.4465   0.1232   0.0507   0.0161   0.0111   0.0054
     0.0001   0.0000   0.0000   0.0000   0.0000   0.0000   0.0000   0.0000
     0.0000   0.0000   0.0000   0.0000   0.0000   0.0000   0.0000   0.0000
     0.0000   0.0000   0.0000   0.0000   0.0000   0.0000   0.0000   0.0000
     0.0000   0.0000   0.0000

          k = 0.0000 0.2500 0.0000 ( 65257 PWs)   bands (ev):

   -92.7037 -92.6554 -92.5582 -92.5109 -92.4547 -92.4102 -92.3929 -92.2727
   -56.0571 -56.0422 -55.9152 -55.9044 -55.8984 -55.8912 -55.8592 -55.8272
   -55.8116 -55.8097 -55.8048 -55.7615 -55.7414 -55.7059 -55.6848 -55.6545
   -55.6465 -55.5985 -55.5981 -55.5954 -55.5870 -55.5480 -55.5232 -55.4386
   -31.2806 -31.2611 -31.1202 -31.0567 -31.0447 -31.0330 -30.7754 -30.5769
   -29.8488 -29.8057 -29.7830 -29.6729 -15.0475 -15.0077 -14.9330 -14.7988
   -14.6715 -14.4990 -14.3657 -14.1870 -14.1468 -14.1307 -14.1019 -14.0417
   -14.0357 -14.0199 -13.9973 -13.9832 -13.9481 -13.8496 -13.8084 -13.6502
   -13.6199 -13.5790 -13.5428 -13.4871 -13.4547 -13.4081 -13.3451 -13.3107
   -13.2424 -13.1668 -13.1499 -13.1117 -13.0948 -13.0506 -12.9942 -12.9715
   -12.9417 -12.9274 -12.9030 -12.8693 -12.8234 -12.8016 -12.7984 -12.7623
   -12.7303 -12.7038 -12.4875 -12.4595 -12.4075 -12.4064 -12.2508 -12.0511
   -11.9863 -11.8282 -11.7854 -11.7577 -11.7302 -11.7137 -11.6653 -11.6545
   -11.6321 -11.5965 -11.4959 -11.4434 -11.4327  -2.8075  -2.5871  -2.4490
    -2.2666  -2.2234  -2.0605  -1.8395  -1.7567  -1.7437  -1.6825  -1.5830
    -1.5663  -1.5333  -1.5058  -1.4622  -1.2689  -1.2234  -1.1345  -1.1220
    -1.0454  -1.0351  -0.9318  -0.9037  -0.8456  -0.8185  -0.7800  -0.7136
    -0.6861  -0.6552  -0.6239  -0.6071  -0.5729  -0.5025  -0.4500  -0.3741
    -0.2708  -0.2417  -0.2011  -0.0917  -0.0518   0.0131   0.0560   0.1232
     0.1331   0.1582   0.2181   0.5221   0.6093   0.6407   0.7301   0.7745
     0.7969   0.9103   0.9286   1.0229   1.0508   1.0760   1.1902   1.2868
     1.3060   1.3321   1.3520   1.3741   1.4339   1.4623   1.4892   1.5361
     1.5722   1.6045   1.6920   1.7288   1.7591   1.8113   1.8642   1.9043
     1.9352   1.9603   1.9742   2.0802   2.1957   2.2691   2.2885   2.3585
     2.4029   2.4337   2.4487   2.4540   2.4669   2.5184   2.5523   2.6406
     2.6819   2.6991   2.8635   2.8843   2.9178   2.9421   2.9564   2.9649
     2.9719   2.9809   3.0108   3.0135   3.0310   3.0387   3.0450   3.0642
     3.0766   3.0833   3.1051   3.1166   3.1218   3.1567   3.1733   3.2326
     3.6013   3.6371   3.8793   4.2962   4.4211   4.7111   5.0159   5.0654
     5.6423   5.8189   5.9451   5.9836   6.0828   6.1066   6.1809   6.5933
     6.8437   7.0788   7.1303   7.3274   7.4840   7.4949   7.6417   7.6704
     7.8738   7.9546   8.0258   8.1793   8.2732   8.3880   8.4063   8.5122
     8.5664   8.8511   8.9455

     occupation numbers 
     1.0000   1.0000   1.0000   1.0000   1.0000   1.0000   1.0000   1.0000
     1.0000   1.0000   1.0000   1.0000   1.0000   1.0000   1.0000   1.0000
     1.0000   1.0000   1.0000   1.0000   1.0000   1.0000   1.0000   1.0000
     1.0000   1.0000   1.0000   1.0000   1.0000   1.0000   1.0000   1.0000
     1.0000   1.0000   1.0000   1.0000   1.0000   1.0000   1.0000   1.0000
     1.0000   1.0000   1.0000   1.0000   1.0000   1.0000   1.0000   1.0000
     1.0000   1.0000   1.0000   1.0000   1.0000   1.0000   1.0000   1.0000
     1.0000   1.0000   1.0000   1.0000   1.0000   1.0000   1.0000   1.0000
     1.0000   1.0000   1.0000   1.0000   1.0000   1.0000   1.0000   1.0000
     1.0000   1.0000   1.0000   1.0000   1.0000   1.0000   1.0000   1.0000
     1.0000   1.0000   1.0000   1.0000   1.0000   1.0000   1.0000   1.0000
     1.0000   1.0000   1.0000   1.0000   1.0000   1.0000   1.0000   1.0000
     1.0000   1.0000   1.0000   1.0000   1.0000   1.0000   1.0000   1.0000
     1.0000   1.0000   1.0000   1.0000   1.0000   1.0000   1.0000   1.0000
     1.0000   1.0000   1.0000   1.0000   1.0000   1.0000   1.0000   1.0000
     1.0000   1.0000   1.0000   1.0000   1.0000   1.0000   1.0000   1.0000
     1.0000   1.0000   1.0000   1.0000   1.0000   1.0000   1.0000   1.0000
     1.0000   1.0000   1.0000   1.0000   1.0000   1.0000   1.0000   1.0000
     1.0000   1.0000   1.0000   1.0000   1.0000   1.0000   1.0000   1.0000
     1.0000   1.0000   1.0000   1.0000   1.0000   1.0000   0.9999   0.9999
     0.9999   0.9998   0.9998   0.9997   0.9996   0.9996   0.9992   0.9988
     0.9986   0.9985   0.9983   0.9981   0.9975   0.9971   0.9968   0.9960
     0.9954   0.9947   0.9923   0.9911   0.9899   0.9877   0.9849   0.9825
     0.9804   0.9786   0.9775   0.9676   0.9531   0.9414   0.9379   0.9242
     0.9143   0.9069   0.9031   0.9018   0.8984   0.8842   0.8741   0.8449
     0.8298   0.8232   0.7529   0.7431   0.7268   0.7147   0.7074   0.7030
     0.6994   0.6948   0.6790   0.6776   0.6682   0.6641   0.6606   0.6502
     0.6433   0.6396   0.6274   0.6209   0.6180   0.5980   0.5885   0.5539
     0.3402   0.3209   0.2048   0.0744   0.0516   0.0197   0.0060   0.0049
     0.0003   0.0001   0.0000   0.0000   0.0000   0.0000   0.0000   0.0000
     0.0000   0.0000   0.0000   0.0000   0.0000   0.0000   0.0000   0.0000
     0.0000   0.0000   0.0000   0.0000   0.0000   0.0000   0.0000   0.0000
     0.0000   0.0000   0.0000

          k = 0.0000-0.5000 0.0000 ( 65180 PWs)   bands (ev):

   -92.7037 -92.6554 -92.5582 -92.5109 -92.4547 -92.4102 -92.3929 -92.2727
   -56.0571 -56.0422 -55.9152 -55.9044 -55.8984 -55.8912 -55.8592 -55.8272
   -55.8116 -55.8097 -55.8048 -55.7615 -55.7414 -55.7059 -55.6848 -55.6545
   -55.6465 -55.5985 -55.5981 -55.5954 -55.5870 -55.5480 -55.5232 -55.4386
   -31.2804 -31.2610 -31.1204 -31.0532 -31.0482 -31.0332 -30.7752 -30.5771
   -29.8482 -29.8054 -29.7837 -29.6732 -15.0101 -14.9612 -14.9090 -14.7741
   -14.6984 -14.5565 -14.4084 -14.2730 -14.1601 -14.0865 -14.0429 -14.0368
   -13.9904 -13.9822 -13.9702 -13.9257 -13.8968 -13.8780 -13.8383 -13.7829
   -13.7635 -13.5863 -13.5269 -13.4904 -13.4594 -13.4066 -13.3607 -13.3154
   -13.2861 -13.2504 -13.2209 -13.1125 -13.0961 -13.0231 -12.9992 -12.9705
   -12.9536 -12.9318 -12.8848 -12.8045 -12.7917 -12.7627 -12.7142 -12.7067
   -12.6834 -12.6549 -12.5180 -12.4820 -12.3318 -12.3251 -12.2097 -12.1485
   -12.1391 -11.7822 -11.7798 -11.7528 -11.7170 -11.6819 -11.6709 -11.6267
   -11.6228 -11.5771 -11.5182 -11.5044 -11.4899  -2.5926  -2.5338  -2.3838
    -2.3121  -2.0284  -1.9466  -1.8197  -1.6826  -1.6411  -1.6253  -1.5474
    -1.5135  -1.4341  -1.3979  -1.3190  -1.2807  -1.2425  -1.2334  -1.2132
    -1.1546  -1.1209  -1.0638  -1.0349  -1.0050  -0.9657  -0.8605  -0.8159
    -0.7788  -0.7768  -0.6899  -0.6590  -0.6364  -0.5881  -0.4997  -0.4315
    -0.3392  -0.3001  -0.2097  -0.1739  -0.0319   0.0282   0.0365   0.0909
     0.2155   0.2692   0.3893   0.4620   0.4692   0.5953   0.6582   0.7543
     0.8758   0.9801   1.0141   1.0526   1.0644   1.1001   1.1132   1.1481
     1.1673   1.1753   1.2863   1.3460   1.3814   1.4104   1.6747   1.6981
     1.7218   1.8133   1.8375   1.8701   1.8868   1.9110   1.9326   1.9420
     1.9650   2.0070   2.0313   2.0654   2.0694   2.0987   2.1514   2.2416
     2.2722   2.4365   2.4455   2.4608   2.6026   2.6154   2.6322   2.6682
     2.6762   2.6817   2.7314   2.7416   2.7962   2.8175   2.8983   2.9118
     2.9815   2.9827   3.0080   3.0139   3.0280   3.0324   3.0359   3.0429
     3.0453   3.0567   3.0750   3.0770   3.1413   3.1470   3.1629   3.2167
     4.1289   4.1403   4.1848   4.2619   4.7397   4.9012   5.0228   5.1731
     5.4111   5.4624   5.5823   5.7352   6.0314   6.0447   6.2825   6.5197
     6.8489   6.9491   7.2105   7.3089   7.3757   7.4908   7.7432   7.7894
     7.9058   7.9991   8.2072   8.3550   8.3688   8.4743   8.5236   8.6645
     8.8090   8.8195   8.8633

     occupation numbers 
     1.0000   1.0000   1.0000   1.0000   1.0000   1.0000   1.0000   1.0000
     1.0000   1.0000   1.0000   1.0000   1.0000   1.0000   1.0000   1.0000
     1.0000   1.0000   1.0000   1.0000   1.0000   1.0000   1.0000   1.0000
     1.0000   1.0000   1.0000   1.0000   1.0000   1.0000   1.0000   1.0000
     1.0000   1.0000   1.0000   1.0000   1.0000   1.0000   1.0000   1.0000
     1.0000   1.0000   1.0000   1.0000   1.0000   1.0000   1.0000   1.0000
     1.0000   1.0000   1.0000   1.0000   1.0000   1.0000   1.0000   1.0000
     1.0000   1.0000   1.0000   1.0000   1.0000   1.0000   1.0000   1.0000
     1.0000   1.0000   1.0000   1.0000   1.0000   1.0000   1.0000   1.0000
     1.0000   1.0000   1.0000   1.0000   1.0000   1.0000   1.0000   1.0000
     1.0000   1.0000   1.0000   1.0000   1.0000   1.0000   1.0000   1.0000
     1.0000   1.0000   1.0000   1.0000   1.0000   1.0000   1.0000   1.0000
     1.0000   1.0000   1.0000   1.0000   1.0000   1.0000   1.0000   1.0000
     1.0000   1.0000   1.0000   1.0000   1.0000   1.0000   1.0000   1.0000
     1.0000   1.0000   1.0000   1.0000   1.0000   1.0000   1.0000   1.0000
     1.0000   1.0000   1.0000   1.0000   1.0000   1.0000   1.0000   1.0000
     1.0000   1.0000   1.0000   1.0000   1.0000   1.0000   1.0000   1.0000
     1.0000   1.0000   1.0000   1.0000   1.0000   1.0000   1.0000   1.0000
     1.0000   1.0000   1.0000   1.0000   1.0000   1.0000   1.0000   1.0000
     1.0000   1.0000   1.0000   1.0000   1.0000   1.0000   1.0000   0.9999
     0.9999   0.9997   0.9997   0.9996   0.9996   0.9995   0.9995   0.9994
     0.9993   0.9993   0.9988   0.9983   0.9980   0.9978   0.9928   0.9921
     0.9913   0.9876   0.9864   0.9846   0.9836   0.9820   0.9806   0.9799
     0.9782   0.9747   0.9725   0.9692   0.9688   0.9656   0.9592   0.9460
     0.9408   0.9062   0.9040   0.9000   0.8579   0.8536   0.8478   0.8349
     0.8319   0.8299   0.8105   0.8064   0.7834   0.7740   0.7363   0.7297
     0.6944   0.6938   0.6805   0.6774   0.6698   0.6675   0.6656   0.6618
     0.6605   0.6543   0.6442   0.6431   0.6069   0.6036   0.5945   0.5633
     0.1160   0.1127   0.1006   0.0818   0.0178   0.0096   0.0058   0.0030
     0.0010   0.0007   0.0004   0.0002   0.0000   0.0000   0.0000   0.0000
     0.0000   0.0000   0.0000   0.0000   0.0000   0.0000   0.0000   0.0000
     0.0000   0.0000   0.0000   0.0000   0.0000   0.0000   0.0000   0.0000
     0.0000   0.0000   0.0000

          k = 0.2500 0.2500 0.0000 ( 65198 PWs)   bands (ev):

   -92.7037 -92.6554 -92.5582 -92.5109 -92.4547 -92.4102 -92.3929 -92.2727
   -56.0571 -56.0422 -55.9152 -55.9044 -55.8984 -55.8912 -55.8592 -55.8272
   -55.8116 -55.8097 -55.8048 -55.7615 -55.7414 -55.7059 -55.6848 -55.6545
   -55.6465 -55.5985 -55.5981 -55.5954 -55.5870 -55.5480 -55.5232 -55.4386
   -31.2789 -31.2628 -31.1198 -31.0566 -31.0446 -31.0334 -30.7755 -30.5770
   -29.8479 -29.8067 -29.7826 -29.6733 -15.0184 -14.9728 -14.9051 -14.7882
   -14.6649 -14.5402 -14.4716 -14.2605 -14.1105 -14.0967 -14.0591 -14.0298
   -14.0074 -13.9848 -13.9759 -13.9419 -13.9128 -13.8411 -13.8217 -13.6661
   -13.6493 -13.6201 -13.6014 -13.5291 -13.5115 -13.4358 -13.4289 -13.2935
   -13.2543 -13.2319 -13.1442 -13.1048 -13.0534 -13.0296 -13.0202 -12.9866
   -12.9499 -12.9369 -12.9158 -12.8606 -12.8273 -12.7500 -12.7397 -12.7168
   -12.6990 -12.6205 -12.4840 -12.4553 -12.4110 -12.3694 -12.2798 -12.0892
   -12.0181 -11.8005 -11.7690 -11.7579 -11.7513 -11.6881 -11.6548 -11.6475
   -11.6112 -11.6044 -11.5123 -11.4717 -11.4540  -2.6691  -2.4613  -2.3432
    -2.2477  -2.1281  -2.0637  -1.8641  -1.7209  -1.7025  -1.6699  -1.5774
    -1.5435  -1.4490  -1.4219  -1.3716  -1.2466  -1.2270  -1.1869  -1.1154
    -1.0722  -1.0287  -1.0054  -0.9824  -0.9397  -0.9239  -0.8329  -0.7826
    -0.7142  -0.6664  -0.6377  -0.5898  -0.5737  -0.5110  -0.4609  -0.3963
    -0.3703  -0.2781  -0.2301  -0.1987  -0.1641  -0.1088  -0.0305   0.0030
     0.0357   0.1086   0.1428   0.4101   0.5606   0.5917   0.6563   0.6937
     0.7572   0.8061   0.8706   0.9031   1.1770   1.2412   1.3143   1.3370
     1.3919   1.4183   1.4562   1.4924   1.5084   1.5360   1.5820   1.5899
     1.6062   1.6538   1.6908   1.7276   1.7866   1.8287   1.8403   1.8696
     1.9033   1.9622   1.9857   2.1173   2.1771   2.2117   2.2329   2.3040
     2.3671   2.3935   2.4281   2.4327   2.4582   2.4623   2.4754   2.5846
     2.6212   2.7122   2.8742   2.8917   2.8968   2.9133   2.9284   2.9420
     2.9546   2.9606   2.9723   2.9858   3.0004   3.0156   3.0215   3.0343
     3.0577   3.0675   3.0768   3.1082   3.4085   3.5013   3.5478   3.6183
     3.6328   3.8599   3.9514   4.3038   4.5089   4.7175   4.9807   5.1639
     5.6453   5.7028   5.7812   5.8343   5.8937   6.0977   6.1571   6.2110
     6.8897   6.9466   7.1284   7.2972   7.5494   7.6040   7.7105   7.8583
     7.8889   8.0233   8.2165   8.2545   8.3400   8.3839   8.4411   8.4980
     8.5646   8.7454   8.9195

     occupation numbers 
     1.0000   1.0000   1.0000   1.0000   1.0000   1.0000   1.0000   1.0000
     1.0000   1.0000   1.0000   1.0000   1.0000   1.0000   1.0000   1.0000
     1.0000   1.0000   1.0000   1.0000   1.0000   1.0000   1.0000   1.0000
     1.0000   1.0000   1.0000   1.0000   1.0000   1.0000   1.0000   1.0000
     1.0000   1.0000   1.0000   1.0000   1.0000   1.0000   1.0000   1.0000
     1.0000   1.0000   1.0000   1.0000   1.0000   1.0000   1.0000   1.0000
     1.0000   1.0000   1.0000   1.0000   1.0000   1.0000   1.0000   1.0000
     1.0000   1.0000   1.0000   1.0000   1.0000   1.0000   1.0000   1.0000
     1.0000   1.0000   1.0000   1.0000   1.0000   1.0000   1.0000   1.0000
     1.0000   1.0000   1.0000   1.0000   1.0000   1.0000   1.0000   1.0000
     1.0000   1.0000   1.0000   1.0000   1.0000   1.0000   1.0000   1.0000
     1.0000   1.0000   1.0000   1.0000   1.0000   1.0000   1.0000   1.0000
     1.0000   1.0000   1.0000   1.0000   1.0000   1.0000   1.0000   1.0000
     1.0000   1.0000   1.0000   1.0000   1.0000   1.0000   1.0000   1.0000
     1.0000   1.0000   1.0000   1.0000   1.0000   1.0000   1.0000   1.0000
     1.0000   1.0000   1.0000   1.0000   1.0000   1.0000   1.0000   1.0000
     1.0000   1.0000   1.0000   1.0000   1.0000   1.0000   1.0000   1.0000
     1.0000   1.0000   1.0000   1.0000   1.0000   1.0000   1.0000   1.0000
     1.0000   1.0000   1.0000   1.0000   1.0000   1.0000   1.0000   1.0000
     1.0000   1.0000   1.0000   1.0000   1.0000   1.0000   1.0000   1.0000
     0.9999   0.9999   0.9999   0.9998   0.9993   0.9990   0.9986   0.9984
     0.9979   0.9977   0.9972   0.9967   0.9965   0.9960   0.9952   0.9950
     0.9946   0.9934   0.9923   0.9911   0.9888   0.9868   0.9862   0.9846
     0.9825   0.9784   0.9766   0.9634   0.9557   0.9507   0.9474   0.9351
     0.9223   0.9165   0.9083   0.9071   0.9007   0.8996   0.8962   0.8639
     0.8516   0.8181   0.7479   0.7395   0.7370   0.7290   0.7215   0.7147
     0.7083   0.7052   0.6992   0.6922   0.6845   0.6765   0.6733   0.6664
     0.6537   0.6483   0.6432   0.6256   0.4501   0.3961   0.3698   0.3310
     0.3232   0.2131   0.1757   0.0728   0.0392   0.0193   0.0069   0.0031
     0.0003   0.0002   0.0001   0.0001   0.0001   0.0000   0.0000   0.0000
     0.0000   0.0000   0.0000   0.0000   0.0000   0.0000   0.0000   0.0000
     0.0000   0.0000   0.0000   0.0000   0.0000   0.0000   0.0000   0.0000
     0.0000   0.0000   0.0000

          k = 0.2500-0.5000 0.0000 ( 65138 PWs)   bands (ev):

   -92.7037 -92.6554 -92.5582 -92.5109 -92.4547 -92.4102 -92.3929 -92.2727
   -56.0571 -56.0422 -55.9152 -55.9044 -55.8984 -55.8912 -55.8592 -55.8272
   -55.8116 -55.8097 -55.8048 -55.7615 -55.7414 -55.7059 -55.6848 -55.6545
   -55.6465 -55.5985 -55.5981 -55.5954 -55.5870 -55.5480 -55.5232 -55.4386
   -31.2787 -31.2627 -31.1200 -31.0532 -31.0481 -31.0336 -30.7753 -30.5772
   -29.8472 -29.8064 -29.7833 -29.6736 -14.9793 -14.9343 -14.8656 -14.7451
   -14.7203 -14.5985 -14.5102 -14.3729 -14.0755 -14.0197 -13.9946 -13.9860
   -13.9703 -13.9561 -13.9444 -13.9088 -13.8859 -13.8516 -13.8208 -13.7833
   -13.7466 -13.6684 -13.6196 -13.5456 -13.5408 -13.4723 -13.4508 -13.3519
   -13.3051 -13.2095 -13.1451 -13.1224 -13.0375 -13.0116 -12.9882 -12.9742
   -12.9673 -12.9452 -12.9143 -12.8159 -12.7959 -12.7471 -12.7067 -12.6980
   -12.6584 -12.6271 -12.5253 -12.4844 -12.3252 -12.3196 -12.2020 -12.1378
   -12.1276 -11.7761 -11.7640 -11.7536 -11.7270 -11.6944 -11.6674 -11.6241
   -11.5982 -11.5749 -11.5309 -11.5055 -11.4936  -2.4503  -2.3857  -2.2575
    -2.1808  -2.0489  -1.9664  -1.8439  -1.6933  -1.6377  -1.6162  -1.5539
    -1.5415  -1.4451  -1.3761  -1.2926  -1.2412  -1.2341  -1.2282  -1.1702
    -1.1253  -1.0932  -1.0447  -1.0054  -0.9711  -0.9332  -0.9214  -0.8754
    -0.8453  -0.8028  -0.7725  -0.7058  -0.6017  -0.5652  -0.4850  -0.4189
    -0.3659  -0.3284  -0.3098  -0.2477  -0.0951  -0.0861   0.0371   0.0556
     0.0636   0.1084   0.1437   0.1803   0.2089   0.2745   0.5567   0.6582
     0.7183   0.7749   1.0415   1.0596   1.1515   1.1725   1.3383   1.3762
     1.4125   1.4351   1.4495   1.4715   1.5356   1.5862   1.6197   1.6949
     1.7926   1.8261   1.8490   1.8548   1.8949   1.9079   1.9136   1.9598
     1.9712   1.9901   2.0283   2.0409   2.0588   2.0942   2.1516   2.1957
     2.2722   2.4072   2.4341   2.4632   2.5549   2.5729   2.5919   2.6207
     2.6445   2.6683   2.6892   2.7039   2.7264   2.8235   2.8757   2.8924
     2.9006   2.9109   2.9307   2.9445   2.9633   2.9723   3.0086   3.0186
     3.0309   3.0389   3.0483   3.0581   3.5790   3.5962   3.7401   3.7926
     4.1312   4.1872   4.1902   4.3177   4.7590   4.9230   5.0597   5.1403
     5.3026   5.4310   5.6056   5.6502   5.7687   5.7873   6.3766   6.3991
     6.4866   6.6486   7.2707   7.3696   7.5828   7.6991   7.8099   7.8680
     7.9620   8.0377   8.2632   8.4487   8.5137   8.5297   8.5608   8.5752
     8.7121   8.7588   8.7937

     occupation numbers 
     1.0000   1.0000   1.0000   1.0000   1.0000   1.0000   1.0000   1.0000
     1.0000   1.0000   1.0000   1.0000   1.0000   1.0000   1.0000   1.0000
     1.0000   1.0000   1.0000   1.0000   1.0000   1.0000   1.0000   1.0000
     1.0000   1.0000   1.0000   1.0000   1.0000   1.0000   1.0000   1.0000
     1.0000   1.0000   1.0000   1.0000   1.0000   1.0000   1.0000   1.0000
     1.0000   1.0000   1.0000   1.0000   1.0000   1.0000   1.0000   1.0000
     1.0000   1.0000   1.0000   1.0000   1.0000   1.0000   1.0000   1.0000
     1.0000   1.0000   1.0000   1.0000   1.0000   1.0000   1.0000   1.0000
     1.0000   1.0000   1.0000   1.0000   1.0000   1.0000   1.0000   1.0000
     1.0000   1.0000   1.0000   1.0000   1.0000   1.0000   1.0000   1.0000
     1.0000   1.0000   1.0000   1.0000   1.0000   1.0000   1.0000   1.0000
     1.0000   1.0000   1.0000   1.0000   1.0000   1.0000   1.0000   1.0000
     1.0000   1.0000   1.0000   1.0000   1.0000   1.0000   1.0000   1.0000
     1.0000   1.0000   1.0000   1.0000   1.0000   1.0000   1.0000   1.0000
     1.0000   1.0000   1.0000   1.0000   1.0000   1.0000   1.0000   1.0000
     1.0000   1.0000   1.0000   1.0000   1.0000   1.0000   1.0000   1.0000
     1.0000   1.0000   1.0000   1.0000   1.0000   1.0000   1.0000   1.0000
     1.0000   1.0000   1.0000   1.0000   1.0000   1.0000   1.0000   1.0000
     1.0000   1.0000   1.0000   1.0000   1.0000   1.0000   1.0000   1.0000
     1.0000   1.0000   1.0000   1.0000   1.0000   1.0000   1.0000   1.0000
     0.9999   0.9999   0.9996   0.9996   0.9994   0.9993   0.9984   0.9981
     0.9977   0.9975   0.9973   0.9970   0.9960   0.9951   0.9943   0.9922
     0.9885   0.9869   0.9857   0.9854   0.9831   0.9823   0.9819   0.9786
     0.9777   0.9762   0.9728   0.9716   0.9698   0.9661   0.9591   0.9531
     0.9408   0.9133   0.9068   0.8994   0.8733   0.8676   0.8615   0.8518
     0.8435   0.8349   0.8270   0.8214   0.8125   0.7713   0.7471   0.7392
     0.7352   0.7302   0.7204   0.7134   0.7038   0.6992   0.6802   0.6749
     0.6683   0.6639   0.6588   0.6535   0.3524   0.3430   0.2683   0.2432
     0.1153   0.0999   0.0992   0.0700   0.0165   0.0088   0.0050   0.0035
     0.0017   0.0009   0.0004   0.0003   0.0001   0.0001   0.0000   0.0000
     0.0000   0.0000   0.0000   0.0000   0.0000   0.0000   0.0000   0.0000
     0.0000   0.0000   0.0000   0.0000   0.0000   0.0000   0.0000   0.0000
     0.0000   0.0000   0.0000

          k =-0.5000-0.5000 0.0000 ( 65132 PWs)   bands (ev):

   -92.7037 -92.6554 -92.5582 -92.5109 -92.4547 -92.4102 -92.3929 -92.2727
   -56.0571 -56.0422 -55.9152 -55.9044 -55.8984 -55.8912 -55.8592 -55.8272
   -55.8116 -55.8097 -55.8048 -55.7615 -55.7414 -55.7059 -55.6848 -55.6545
   -55.6465 -55.5985 -55.5981 -55.5954 -55.5870 -55.5480 -55.5232 -55.4386
   -31.2766 -31.2648 -31.1196 -31.0531 -31.0480 -31.0340 -30.7755 -30.5773
   -29.8462 -29.8074 -29.7829 -29.6740 -14.9319 -14.9074 -14.7890 -14.7775
   -14.6835 -14.6461 -14.6094 -14.4744 -13.9862 -13.9835 -13.9722 -13.9377
   -13.9222 -13.9033 -13.8849 -13.8587 -13.8486 -13.8378 -13.8216 -13.8086
   -13.7359 -13.7275 -13.6940 -13.6633 -13.6251 -13.5591 -13.5080 -13.3919
   -13.3490 -13.1588 -13.1205 -13.0544 -13.0285 -13.0027 -12.9874 -12.9801
   -12.9737 -12.9566 -12.9490 -12.8197 -12.7985 -12.7452 -12.7152 -12.6896
   -12.6087 -12.6005 -12.5422 -12.4913 -12.3211 -12.3103 -12.1928 -12.1267
   -12.1171 -11.7731 -11.7605 -11.7423 -11.7262 -11.6901 -11.6719 -11.6404
   -11.5789 -11.5585 -11.5527 -11.5029 -11.4990  -2.2247  -2.1509  -2.1424
    -2.0697  -2.0310  -1.9529  -1.8852  -1.7581  -1.6440  -1.6137  -1.5713
    -1.5172  -1.4449  -1.4310  -1.3598  -1.3177  -1.2299  -1.1998  -1.1692
    -1.1183  -1.0949  -1.0302  -0.9829  -0.9640  -0.9517  -0.8955  -0.8552
    -0.8365  -0.7228  -0.6640  -0.6212  -0.5724  -0.5421  -0.5271  -0.4971
    -0.4555  -0.4144  -0.4093  -0.3218  -0.2543  -0.2127  -0.1830  -0.1120
    -0.0501  -0.0443   0.0175   0.0518   0.0637   0.0715   0.5316   0.5796
     0.6634   0.6940   1.0680   1.0845   1.1162   1.1567   1.4243   1.4434
     1.4485   1.4937   1.6161   1.7124   1.7388   1.7758   1.8037   1.8217
     1.8290   1.8593   1.8704   1.8896   1.8968   1.9480   1.9490   1.9795
     1.9976   2.0170   2.0308   2.0682   2.0928   2.1072   2.1380   2.1728
     2.2307   2.3008   2.4293   2.4597   2.5704   2.5984   2.6190   2.6354
     2.6501   2.6781   2.6787   2.6987   2.7100   2.7277   2.7506   2.7592
     2.8251   2.8293   2.8486   2.8646   2.8776   2.9000   2.9007   2.9098
     3.0161   3.0212   3.0437   3.0562   4.0116   4.0421   4.0574   4.0794
     4.3167   4.3926   4.4159   4.6559   4.7789   4.8613   4.9907   5.0818
     5.0911   5.2052   5.2961   5.4397   5.8543   5.8810   5.9542   6.0292
     6.5752   6.8842   6.9369   7.1869   7.8964   7.9464   7.9583   7.9757
     8.0069   8.0688   8.1239   8.2709   8.4281   8.5856   8.6210   8.6575
     8.7052   8.7391   8.7863

     occupation numbers 
     1.0000   1.0000   1.0000   1.0000   1.0000   1.0000   1.0000   1.0000
     1.0000   1.0000   1.0000   1.0000   1.0000   1.0000   1.0000   1.0000
     1.0000   1.0000   1.0000   1.0000   1.0000   1.0000   1.0000   1.0000
     1.0000   1.0000   1.0000   1.0000   1.0000   1.0000   1.0000   1.0000
     1.0000   1.0000   1.0000   1.0000   1.0000   1.0000   1.0000   1.0000
     1.0000   1.0000   1.0000   1.0000   1.0000   1.0000   1.0000   1.0000
     1.0000   1.0000   1.0000   1.0000   1.0000   1.0000   1.0000   1.0000
     1.0000   1.0000   1.0000   1.0000   1.0000   1.0000   1.0000   1.0000
     1.0000   1.0000   1.0000   1.0000   1.0000   1.0000   1.0000   1.0000
     1.0000   1.0000   1.0000   1.0000   1.0000   1.0000   1.0000   1.0000
     1.0000   1.0000   1.0000   1.0000   1.0000   1.0000   1.0000   1.0000
     1.0000   1.0000   1.0000   1.0000   1.0000   1.0000   1.0000   1.0000
     1.0000   1.0000   1.0000   1.0000   1.0000   1.0000   1.0000   1.0000
     1.0000   1.0000   1.0000   1.0000   1.0000   1.0000   1.0000   1.0000
     1.0000   1.0000   1.0000   1.0000   1.0000   1.0000   1.0000   1.0000
     1.0000   1.0000   1.0000   1.0000   1.0000   1.0000   1.0000   1.0000
     1.0000   1.0000   1.0000   1.0000   1.0000   1.0000   1.0000   1.0000
     1.0000   1.0000   1.0000   1.0000   1.0000   1.0000   1.0000   1.0000
     1.0000   1.0000   1.0000   1.0000   1.0000   1.0000   1.0000   1.0000
     1.0000   1.0000   1.0000   1.0000   1.0000   1.0000   1.0000   1.0000
[...]
     0.3521   0.3266   0.2042   0.0787   0.0461   0.0217   0.0059   0.0048
     0.0003   0.0001   0.0000   0.0000   0.0000   0.0000   0.0000   0.0000
     0.0000   0.0000   0.0000   0.0000   0.0000   0.0000   0.0000   0.0000
     0.0000   0.0000   0.0000   0.0000   0.0000   0.0000   0.0000   0.0000
     0.0000   0.0000   0.0000

          k =-0.5000 0.0000 0.0000 ( 65180 PWs)   bands (ev):

   -92.7037 -92.6554 -92.5582 -92.5109 -92.4547 -92.4102 -92.3929 -92.2727
   -56.0571 -56.0422 -55.9152 -55.9044 -55.8984 -55.8912 -55.8592 -55.8272
   -55.8116 -55.8097 -55.8048 -55.7615 -55.7414 -55.7059 -55.6848 -55.6545
   -55.6465 -55.5985 -55.5981 -55.5954 -55.5870 -55.5480 -55.5232 -55.4386
   -31.2769 -31.2651 -31.1192 -31.0586 -31.0424 -31.0337 -30.7758 -30.5769
   -29.8475 -29.8081 -29.7816 -29.6733 -15.0166 -14.9607 -14.8996 -14.7925
   -14.6895 -14.5462 -14.3939 -14.2577 -14.1343 -14.1181 -14.1109 -14.0365
   -13.9939 -13.9843 -13.9582 -13.9089 -13.8998 -13.8837 -13.8395 -13.8197
   -13.7054 -13.5577 -13.5129 -13.4950 -13.4875 -13.4149 -13.3667 -13.2933
   -13.2708 -13.2472 -13.2258 -13.0703 -13.0574 -13.0454 -13.0212 -13.0131
   -12.9500 -12.9450 -12.9294 -12.8986 -12.8817 -12.7318 -12.6435 -12.6344
   -12.5687 -12.5443 -12.5438 -12.4826 -12.4433 -12.3322 -12.3289 -12.1274
   -12.0755 -11.7799 -11.7577 -11.7515 -11.7367 -11.7185 -11.6765 -11.6158
   -11.5986 -11.5658 -11.5191 -11.5101 -11.4950  -2.5827  -2.5448  -2.3814
    -2.3425  -2.0275  -1.9518  -1.8050  -1.6879  -1.6483  -1.6016  -1.5546
    -1.5310  -1.4072  -1.3634  -1.3457  -1.2699  -1.2476  -1.2293  -1.1918
    -1.1796  -1.1213  -1.0538  -1.0270  -0.9963  -0.9007  -0.8552  -0.8039
    -0.7736  -0.7524  -0.7188  -0.6749  -0.6492  -0.6092  -0.5065  -0.4400
    -0.3655  -0.3074  -0.1458  -0.1068  -0.0587  -0.0115   0.0431   0.0576
     0.1975   0.2308   0.2759   0.4379   0.5374   0.5864   0.6814   0.7435
     0.8619   0.8714   1.0034   1.0302   1.0859   1.1178   1.1567   1.1626
     1.2100   1.2351   1.3035   1.3483   1.3967   1.4058   1.7062   1.7199
     1.7369   1.7570   1.8588   1.8696   1.8873   1.8925   1.9241   1.9352
     1.9755   1.9977   2.0201   2.0754   2.0926   2.1439   2.1664   2.2217
     2.3346   2.4230   2.4359   2.4669   2.5023   2.5146   2.6005   2.6239
     2.6562   2.7248   2.7332   2.7400   2.7699   2.8349   2.8795   2.9316
     2.9530   2.9984   3.0026   3.0052   3.0151   3.0313   3.0429   3.0562
     3.0612   3.0805   3.0847   3.1072   3.1268   3.1319   3.2612   3.2670
     4.0734   4.1307   4.1882   4.3170   4.7899   4.8630   5.0435   5.0562
     5.4813   5.5090   5.6030   5.6512   6.0320   6.0459   6.2726   6.5476
     6.7941   7.0016   7.2765   7.3050   7.3842   7.4183   7.7712   7.7822
     7.8805   7.9086   8.2140   8.3320   8.4814   8.5157   8.5420   8.6351
     8.7582   8.8165   8.8977

     occupation numbers 
     1.0000   1.0000   1.0000   1.0000   1.0000   1.0000   1.0000   1.0000
     1.0000   1.0000   1.0000   1.0000   1.0000   1.0000   1.0000   1.0000
     1.0000   1.0000   1.0000   1.0000   1.0000   1.0000   1.0000   1.0000
     1.0000   1.0000   1.0000   1.0000   1.0000   1.0000   1.0000   1.0000
     1.0000   1.0000   1.0000   1.0000   1.0000   1.0000   1.0000   1.0000
     1.0000   1.0000   1.0000   1.0000   1.0000   1.0000   1.0000   1.0000
     1.0000   1.0000   1.0000   1.0000   1.0000   1.0000   1.0000   1.0000
     1.0000   1.0000   1.0000   1.0000   1.0000   1.0000   1.0000   1.0000
     1.0000   1.0000   1.0000   1.0000   1.0000   1.0000   1.0000   1.0000
     1.0000   1.0000   1.0000   1.0000   1.0000   1.0000   1.0000   1.0000
     1.0000   1.0000   1.0000   1.0000   1.0000   1.0000   1.0000   1.0000
     1.0000   1.0000   1.0000   1.0000   1.0000   1.0000   1.0000   1.0000
     1.0000   1.0000   1.0000   1.0000   1.0000   1.0000   1.0000   1.0000
     1.0000   1.0000   1.0000   1.0000   1.0000   1.0000   1.0000   1.0000
     1.0000   1.0000   1.0000   1.0000   1.0000   1.0000   1.0000   1.0000
     1.0000   1.0000   1.0000   1.0000   1.0000   1.0000   1.0000   1.0000
     1.0000   1.0000   1.0000   1.0000   1.0000   1.0000   1.0000   1.0000
     1.0000   1.0000   1.0000   1.0000   1.0000   1.0000   1.0000   1.0000
     1.0000   1.0000   1.0000   1.0000   1.0000   1.0000   1.0000   1.0000
     1.0000   1.0000   1.0000   1.0000   1.0000   1.0000   1.0000   0.9999
     0.9999   0.9999   0.9997   0.9997   0.9996   0.9995   0.9994   0.9993
     0.9992   0.9990   0.9987   0.9983   0.9979   0.9978   0.9918   0.9914
     0.9908   0.9900   0.9852   0.9846   0.9836   0.9832   0.9812   0.9804
     0.9774   0.9755   0.9736   0.9681   0.9663   0.9601   0.9572   0.9492
     0.9291   0.9095   0.9064   0.8984   0.8888   0.8853   0.8586   0.8507
     0.8393   0.8132   0.8098   0.8071   0.7947   0.7661   0.7453   0.7199
     0.7091   0.6856   0.6833   0.6820   0.6767   0.6680   0.6618   0.6545
     0.6518   0.6411   0.6388   0.6262   0.6151   0.6122   0.5371   0.5337
     0.1329   0.1155   0.0997   0.0702   0.0147   0.0111   0.0053   0.0051
     0.0007   0.0006   0.0004   0.0003   0.0000   0.0000   0.0000   0.0000
     0.0000   0.0000   0.0000   0.0000   0.0000   0.0000   0.0000   0.0000
     0.0000   0.0000   0.0000   0.0000   0.0000   0.0000   0.0000   0.0000
     0.0000   0.0000   0.0000

          k =-0.2500 0.2500 0.0000 ( 65198 PWs)   bands (ev):

   -92.7037 -92.6554 -92.5582 -92.5109 -92.4547 -92.4102 -92.3929 -92.2727
   -56.0571 -56.0422 -55.9152 -55.9044 -55.8984 -55.8912 -55.8592 -55.8272
   -55.8116 -55.8097 -55.8048 -55.7615 -55.7414 -55.7059 -55.6848 -55.6545
   -55.6465 -55.5985 -55.5981 -55.5954 -55.5870 -55.5480 -55.5232 -55.4386
   -31.2789 -31.2628 -31.1198 -31.0566 -31.0446 -31.0334 -30.7755 -30.5770
   -29.8479 -29.8067 -29.7827 -29.6733 -15.0196 -14.9719 -14.9033 -14.7871
   -14.6710 -14.5439 -14.4641 -14.2519 -14.1164 -14.0871 -14.0743 -14.0243
   -14.0027 -13.9871 -13.9800 -13.9500 -13.9143 -13.8376 -13.8229 -13.6746
   -13.6468 -13.6143 -13.5978 -13.5318 -13.4993 -13.4384 -13.4322 -13.3048
   -13.2438 -13.2251 -13.1485 -13.1063 -13.0424 -13.0299 -13.0123 -12.9904
   -12.9581 -12.9313 -12.9238 -12.8566 -12.8295 -12.7741 -12.7399 -12.6950
   -12.6881 -12.6441 -12.4891 -12.4471 -12.4430 -12.3231 -12.2855 -12.0725
   -12.0382 -11.7996 -11.7782 -11.7515 -11.7393 -11.6976 -11.6645 -11.6399
   -11.6196 -11.5963 -11.5120 -11.4671 -11.4572  -2.6675  -2.4602  -2.3391
    -2.2491  -2.1324  -2.0664  -1.8617  -1.7179  -1.7001  -1.6679  -1.5780
    -1.5424  -1.4493  -1.4151  -1.3884  -1.2480  -1.2312  -1.1838  -1.1201
    -1.0928  -1.0308  -1.0115  -0.9718  -0.9432  -0.9026  -0.8391  -0.7910
    -0.7251  -0.6586  -0.6335  -0.5838  -0.5550  -0.5089  -0.4507  -0.3997
    -0.3647  -0.2606  -0.2305  -0.2163  -0.1751  -0.1110  -0.0353   0.0048
     0.0441   0.1145   0.1400   0.3897   0.5653   0.5998   0.6418   0.7031
     0.7585   0.8076   0.8729   0.9043   1.1846   1.2911   1.3311   1.3638
     1.3722   1.4140   1.4276   1.4744   1.5047   1.5178   1.5435   1.5921
     1.6060   1.6475   1.6709   1.7130   1.8044   1.8159   1.8385   1.8722
     1.9026   1.9405   1.9965   2.1062   2.2082   2.2323   2.2824   2.3016
     2.3646   2.4042   2.4269   2.4408   2.4565   2.4649   2.4824   2.5832
     2.6197   2.7126   2.8822   2.8889   2.9031   2.9124   2.9234   2.9379
     2.9452   2.9629   2.9723   2.9855   2.9960   3.0077   3.0171   3.0240
     3.0590   3.0688   3.0758   3.1101   3.4018   3.4831   3.5503   3.6226
     3.6411   3.8445   3.9601   4.3032   4.5064   4.7189   4.9904   5.1640
     5.6459   5.7014   5.7857   5.8315   5.8943   6.0966   6.1677   6.1975
     6.8908   6.9584   7.0977   7.3223   7.5633   7.6107   7.6706   7.8690
     7.9151   8.0006   8.2017   8.2831   8.3164   8.3753   8.4469   8.5131
     8.5652   8.7489   8.9215

     occupation numbers 
     1.0000   1.0000   1.0000   1.0000   1.0000   1.0000   1.0000   1.0000
     1.0000   1.0000   1.0000   1.0000   1.0000   1.0000   1.0000   1.0000
     1.0000   1.0000   1.0000   1.0000   1.0000   1.0000   1.0000   1.0000
     1.0000   1.0000   1.0000   1.0000   1.0000   1.0000   1.0000   1.0000
     1.0000   1.0000   1.0000   1.0000   1.0000   1.0000   1.0000   1.0000
     1.0000   1.0000   1.0000   1.0000   1.0000   1.0000   1.0000   1.0000
     1.0000   1.0000   1.0000   1.0000   1.0000   1.0000   1.0000   1.0000
     1.0000   1.0000   1.0000   1.0000   1.0000   1.0000   1.0000   1.0000
     1.0000   1.0000   1.0000   1.0000   1.0000   1.0000   1.0000   1.0000
     1.0000   1.0000   1.0000   1.0000   1.0000   1.0000   1.0000   1.0000
     1.0000   1.0000   1.0000   1.0000   1.0000   1.0000   1.0000   1.0000
     1.0000   1.0000   1.0000   1.0000   1.0000   1.0000   1.0000   1.0000
     1.0000   1.0000   1.0000   1.0000   1.0000   1.0000   1.0000   1.0000
     1.0000   1.0000   1.0000   1.0000   1.0000   1.0000   1.0000   1.0000
     1.0000   1.0000   1.0000   1.0000   1.0000   1.0000   1.0000   1.0000
     1.0000   1.0000   1.0000   1.0000   1.0000   1.0000   1.0000   1.0000
     1.0000   1.0000   1.0000   1.0000   1.0000   1.0000   1.0000   1.0000
     1.0000   1.0000   1.0000   1.0000   1.0000   1.0000   1.0000   1.0000
     1.0000   1.0000   1.0000   1.0000   1.0000   1.0000   1.0000   1.0000
     1.0000   1.0000   1.0000   1.0000   1.0000   1.0000   1.0000   1.0000
     0.9999   0.9999   0.9999   0.9998   0.9993   0.9987   0.9985   0.9982
     0.9981   0.9977   0.9976   0.9970   0.9965   0.9963   0.9959   0.9949
     0.9946   0.9936   0.9929   0.9916   0.9880   0.9874   0.9863   0.9844
     0.9826   0.9800   0.9756   0.9647   0.9512   0.9475   0.9390   0.9355
     0.9229   0.9140   0.9086   0.9051   0.9011   0.8990   0.8943   0.8643
     0.8522   0.8180   0.7441   0.7409   0.7340   0.7294   0.7240   0.7168
     0.7131   0.7040   0.6992   0.6924   0.6869   0.6807   0.6757   0.6720
     0.6530   0.6476   0.6437   0.6246   0.4540   0.4066   0.3684   0.3287
     0.3188   0.2198   0.1724   0.0729   0.0396   0.0192   0.0067   0.0031
     0.0003   0.0002   0.0001   0.0001   0.0001   0.0000   0.0000   0.0000
     0.0000   0.0000   0.0000   0.0000   0.0000   0.0000   0.0000   0.0000
     0.0000   0.0000   0.0000   0.0000   0.0000   0.0000   0.0000   0.0000
     0.0000   0.0000   0.0000

          k =-0.5000 0.2500 0.0000 ( 65138 PWs)   bands (ev):

   -92.7037 -92.6554 -92.5582 -92.5109 -92.4547 -92.4102 -92.3929 -92.2727
   -56.0571 -56.0422 -55.9152 -55.9044 -55.8984 -55.8912 -55.8592 -55.8272
   -55.8116 -55.8097 -55.8048 -55.7615 -55.7414 -55.7059 -55.6848 -55.6545
   -55.6465 -55.5985 -55.5981 -55.5954 -55.5870 -55.5480 -55.5232 -55.4386
   -31.2768 -31.2650 -31.1194 -31.0566 -31.0445 -31.0338 -30.7756 -30.5771
   -29.8468 -29.8077 -29.7823 -29.6737 -14.9832 -14.9350 -14.8567 -14.7584
   -14.7195 -14.5928 -14.4982 -14.3723 -14.0671 -14.0350 -14.0228 -13.9868
   -13.9764 -13.9528 -13.9330 -13.8953 -13.8837 -13.8637 -13.8271 -13.8158
   -13.6998 -13.6401 -13.5911 -13.5839 -13.5524 -13.4729 -13.4606 -13.3385
   -13.2964 -13.2025 -13.1672 -13.0711 -13.0307 -13.0243 -13.0182 -12.9927
   -12.9602 -12.9427 -12.9244 -12.8847 -12.8347 -12.7383 -12.6445 -12.6282
   -12.6229 -12.6174 -12.5426 -12.4852 -12.3660 -12.3249 -12.2586 -12.1267
   -12.0904 -11.7727 -11.7598 -11.7454 -11.7337 -11.7118 -11.6816 -11.6028
   -11.5943 -11.5711 -11.5337 -11.5057 -11.4976  -2.4401  -2.3988  -2.2510
    -2.2090  -2.0471  -1.9703  -1.8293  -1.6941  -1.6359  -1.6099  -1.5707
    -1.5337  -1.4521  -1.3370  -1.2799  -1.2592  -1.2341  -1.2293  -1.1454
    -1.1254  -1.0835  -1.0693  -1.0070  -0.9781  -0.9393  -0.9045  -0.8760
    -0.8175  -0.7906  -0.7498  -0.7140  -0.6082  -0.5828  -0.4880  -0.4345
    -0.3983  -0.3375  -0.2601  -0.2273  -0.1224  -0.0868  -0.0271   0.0222
     0.0616   0.1200   0.1489   0.1825   0.2300   0.2705   0.5959   0.6530
     0.7109   0.7352   1.0167   1.0809   1.1495   1.1802   1.3520   1.3863
     1.4244   1.4366   1.4547   1.4720   1.5430   1.5865   1.6274   1.6615
     1.7793   1.8204   1.8455   1.8566   1.8961   1.9205   1.9361   1.9511
     1.9689   1.9907   2.0356   2.0504   2.0870   2.1115   2.1442   2.1996
     2.3244   2.4145   2.4284   2.4549   2.4625   2.5147   2.5513   2.6166
     2.6520   2.6571   2.6993   2.7299   2.7541   2.8348   2.8772   2.8916
     2.8962   2.9173   2.9390   2.9514   2.9672   2.9788   3.0019   3.0151
     3.0246   3.0336   3.0420   3.0539   3.5843   3.6237   3.7737   3.7932
     4.0809   4.1471   4.1981   4.4017   4.7842   4.8805   5.0464   5.0757
     5.4094   5.4304   5.5873   5.6265   5.7440   5.8019   6.3677   6.3955
     6.4931   6.6764   7.2648   7.3761   7.5533   7.7117   7.7922   7.8824
     7.9634   8.0366   8.2332   8.4323   8.5202   8.5491   8.5801   8.6047
     8.6715   8.7506   8.8078

     occupation numbers 
     1.0000   1.0000   1.0000   1.0000   1.0000   1.0000   1.0000   1.0000
     1.0000   1.0000   1.0000   1.0000   1.0000   1.0000   1.0000   1.0000
     1.0000   1.0000   1.0000   1.0000   1.0000   1.0000   1.0000   1.0000
     1.0000   1.0000   1.0000   1.0000   1.0000   1.0000   1.0000   1.0000
     1.0000   1.0000   1.0000   1.0000   1.0000   1.0000   1.0000   1.0000
     1.0000   1.0000   1.0000   1.0000   1.0000   1.0000   1.0000   1.0000
     1.0000   1.0000   1.0000   1.0000   1.0000   1.0000   1.0000   1.0000
     1.0000   1.0000   1.0000   1.0000   1.0000   1.0000   1.0000   1.0000
     1.0000   1.0000   1.0000   1.0000   1.0000   1.0000   1.0000   1.0000
     1.0000   1.0000   1.0000   1.0000   1.0000   1.0000   1.0000   1.0000
     1.0000   1.0000   1.0000   1.0000   1.0000   1.0000   1.0000   1.0000
     1.0000   1.0000   1.0000   1.0000   1.0000   1.0000   1.0000   1.0000
     1.0000   1.0000   1.0000   1.0000   1.0000   1.0000   1.0000   1.0000
     1.0000   1.0000   1.0000   1.0000   1.0000   1.0000   1.0000   1.0000
     1.0000   1.0000   1.0000   1.0000   1.0000   1.0000   1.0000   1.0000
     1.0000   1.0000   1.0000   1.0000   1.0000   1.0000   1.0000   1.0000
     1.0000   1.0000   1.0000   1.0000   1.0000   1.0000   1.0000   1.0000
     1.0000   1.0000   1.0000   1.0000   1.0000   1.0000   1.0000   1.0000
     1.0000   1.0000   1.0000   1.0000   1.0000   1.0000   1.0000   1.0000
     1.0000   1.0000   1.0000   1.0000   1.0000   1.0000   1.0000   1.0000
     0.9999   0.9999   0.9997   0.9996   0.9994   0.9993   0.9983   0.9980
     0.9976   0.9975   0.9972   0.9970   0.9959   0.9951   0.9941   0.9932
     0.9891   0.9872   0.9859   0.9853   0.9830   0.9814   0.9803   0.9793
     0.9779   0.9761   0.9721   0.9707   0.9669   0.9641   0.9601   0.9525
     0.9311   0.9116   0.9082   0.9015   0.8996   0.8852   0.8744   0.8532
     0.8408   0.8390   0.8232   0.8111   0.8013   0.7662   0.7465   0.7396
     0.7373   0.7270   0.7162   0.7099   0.7018   0.6958   0.6838   0.6767
     0.6717   0.6668   0.6622   0.6558   0.3495   0.3281   0.2521   0.2429
     0.1305   0.1108   0.0971   0.0548   0.0151   0.0104   0.0053   0.0046
     0.0010   0.0009   0.0004   0.0003   0.0002   0.0001   0.0000   0.0000
     0.0000   0.0000   0.0000   0.0000   0.0000   0.0000   0.0000   0.0000
     0.0000   0.0000   0.0000   0.0000   0.0000   0.0000   0.0000   0.0000
     0.0000   0.0000   0.0000

     the Fermi energy is     3.3239 ev

!    total energy              =   -4441.66856436 Ry
     estimated scf accuracy    <          9.5E-09 Ry
     smearing contrib. (-TS)   =      -1.15496371 Ry
     internal energy E=F+TS    =   -4440.51360066 Ry

     The total energy is F=E-TS. E is the sum of the following terms:
     one-electron contribution =  -20803.44160774 Ry
     hartree contribution      =   10533.67909897 Ry
     xc contribution           =    -694.18818398 Ry
     ewald contribution        =    6799.60522578 Ry
     one-center paw contrib.   =    -276.16813369 Ry
      -> PAW hartree energy AE =      25.15495910 Ry
      -> PAW hartree energy PS =     -25.03893124 Ry
      -> PAW xc energy AE      =     -16.51638292 Ry
      -> PAW xc energy PS      =       6.87578607 Ry
      -> total E_H with PAW    =   10533.79512684 Ry
      -> total E_XC with PAW   =    -703.82878084 Ry

     convergence has been achieved in  50 iterations

     Writing all to output data dir /bsuhome/zayahcortright/scratch/pwscf.save/
 
     init_run     :      8.24s CPU      9.15s WALL (       1 calls)
     electrons    :    840.91s CPU    928.78s WALL (       1 calls)

     Called by init_run:
     wfcinit      :      6.59s CPU      6.95s WALL (       1 calls)
     wfcinit:atom :      0.05s CPU      0.06s WALL (       5 calls)
     wfcinit:wfcr :      6.28s CPU      6.55s WALL (       5 calls)
     potinit      :      0.16s CPU      0.19s WALL (       1 calls)
     hinit0       :      0.61s CPU      0.86s WALL (       1 calls)

     Called by electrons:
     c_bands      :    680.64s CPU    693.30s WALL (      50 calls)
     sum_band     :    119.29s CPU    161.43s WALL (      50 calls)
     v_of_rho     :      5.47s CPU      5.91s WALL (      51 calls)
     v_h          :      0.44s CPU      0.44s WALL (      51 calls)
     v_xc         :      5.03s CPU      5.47s WALL (      51 calls)
     newd         :     20.00s CPU     52.08s WALL (      51 calls)
     PAW_pot      :      1.65s CPU      1.69s WALL (      51 calls)
     mix_rho      :     13.47s CPU     13.99s WALL (      50 calls)

     Called by c_bands:
     init_us_2    :      6.25s CPU      6.37s WALL (     505 calls)
     init_us_2:cp :      6.25s CPU      6.37s WALL (     505 calls)
     cegterg      :    646.49s CPU    658.79s WALL (     250 calls)

     Called by sum_band:
     sum_band:wei :      0.36s CPU      0.36s WALL (      50 calls)
     sum_band:loo :     98.48s CPU     99.18s WALL (      50 calls)
     sum_band:buf :      1.22s CPU      1.30s WALL (     250 calls)
     sum_band:ini :      2.63s CPU      2.64s WALL (     250 calls)
     sum_band:cal :     20.43s CPU     20.49s WALL (     250 calls)
     sum_band:bec :      0.57s CPU      0.59s WALL (     250 calls)
     addusdens    :     18.33s CPU     59.70s WALL (      50 calls)
                                        0.00s GPU  (      50 calls)
     addusd:skk   :      0.31s CPU      2.30s WALL (     200 calls)
                                        0.00s GPU  (     200 calls)

     Called by *egterg:
     cdiaghg      :     61.31s CPU     61.60s WALL (    1369 calls)
     cegterg:over :     55.41s CPU     55.65s WALL (    1119 calls)
     cegterg:upda :     52.76s CPU     53.90s WALL (    1119 calls)
     cegterg:last :     74.13s CPU     74.52s WALL (     448 calls)
     cdiaghg:chol :      3.44s CPU      3.46s WALL (    1369 calls)
     cdiaghg:inve :      3.69s CPU      3.71s WALL (    1369 calls)
     cdiaghg:para :      7.72s CPU      7.78s WALL (    2738 calls)
     h_psi        :    334.92s CPU    339.61s WALL (    1374 calls)
     s_psi        :     39.17s CPU     39.29s WALL (    1374 calls)
     g_psi        :      2.36s CPU      2.37s WALL (    1119 calls)

     Called by h_psi:
     h_psi:calbec :     49.64s CPU     49.95s WALL (    1374 calls)
     vloc_psi     :    239.81s CPU    241.91s WALL (    1374 calls)
     add_vuspsi   :     39.51s CPU     39.72s WALL (    1374 calls)

     General routines
     calbec       :     70.06s CPU     70.44s WALL (    1624 calls)
     fft          :      4.88s CPU      4.93s WALL (     661 calls)
     ffts         :      4.82s CPU      4.87s WALL (    5378 calls)
     fftw         :    220.71s CPU    222.34s WALL (  337574 calls)
     interpolate  :      0.42s CPU      0.43s WALL (      51 calls)
 
     Parallel routines

     PAW routines
     PAW_pot      :      1.65s CPU      1.69s WALL (      51 calls)
 
     PWSCF        :  14m11.08s CPU  15m42.76s WALL

 
   This run was terminated on:  17:39:53  21Jun2024            

=------------------------------------------------------------------------------=
   JOB DONE.
=------------------------------------------------------------------------------=
