
     Program PWSCF v.7.2 starts on 20Jun2024 at 15:30: 8 

     This program is part of the open-source Quantum ESPRESSO suite
     for quantum simulation of materials; please cite
         "P. Giannozzi et al., J. Phys.:Condens. Matter 21 395502 (2009);
         "P. Giannozzi et al., J. Phys.:Condens. Matter 29 465901 (2017);
         "P. Giannozzi et al., J. Chem. Phys. 152 154105 (2020);
          URL http://www.quantum-espresso.org", 
     in publications or presentations arising from this work. More details at
     http://www.quantum-espresso.org/quote

     Parallel version (MPI & OpenMP), running on      48 processor cores
     Number of MPI processes:                48
     Threads/MPI process:                     1

     MPI processes distributed on     1 nodes
     41858 MiB available memory on the printing compute node when the environment starts
 
     Reading input from espresso.pwi
Warning: card &CELL ignored
Warning: card / ignored
Warning: card &FCP ignored
Warning: card / ignored
Warning: card &RISM ignored
Warning: card / ignored

     Current dimensions of program PWSCF are:
     Max number of different atomic species (ntypx) = 10
     Max number of k-points (npk) =  40000
     Max angular momentum in pseudopotentials (lmaxx) =  4
     file O.pbe-n-kjpaw_psl.0.1.UPF: wavefunction(s)  2P renormalized
     signal trapping enabled: kill the code with -SIGUSR1 to stop cleanly the simulation 
 
     K-points division:     npool     =       2
     R & G space division:  proc/nbgrp/npool/nimage =      24
     Subspace diagonalization in iterative solution of the eigenvalue problem:
     one sub-group per band group will be used
     scalapack distributed-memory algorithm (size of sub-group:  3*  3 procs)

 
     Parallelization info
     --------------------
     sticks:   dense  smooth     PW     G-vecs:    dense   smooth      PW
     Min         350     175     47                61430    21716    3036
     Max         351     177     48                61449    21727    3041
     Sum        8421    4205   1137              1474595   521381   72913
 
     Using Slab Decomposition
 


     bravais-lattice index     =            0
     lattice parameter (alat)  =      14.8599  a.u.
     unit-cell volume          =    8305.1283 (a.u.)^3
     number of atoms/cell      =           51
     number of atomic types    =            4
     number of electrons       =       437.00
     number of Kohn-Sham states=          263
     kinetic-energy cutoff     =      60.0000  Ry
     charge density cutoff     =     480.0000  Ry
     scf convergence threshold =      1.0E-08
     mixing beta               =       0.1500
     number of iterations used =            8  local-TF  mixing
     Exchange-correlation= PBE
                           (   1   4   3   4   0   0   0)

     celldm(1)=  14.859904  celldm(2)=   0.000000  celldm(3)=   0.000000
     celldm(4)=   0.000000  celldm(5)=   0.000000  celldm(6)=   0.000000

     crystal axes: (cart. coord. in units of alat)
               a(1) = (   1.000000   0.000000   0.000000 )  
               a(2) = (   0.000000   1.000000   0.000000 )  
               a(3) = (   0.000000   0.000000   2.531036 )  

     reciprocal axes: (cart. coord. in units 2 pi/alat)
               b(1) = (  1.000000  0.000000  0.000000 )  
               b(2) = (  0.000000  1.000000  0.000000 )  
               b(3) = (  0.000000  0.000000  0.395095 )  


     PseudoPot. # 1 for Sr read from file:
     /bsuhome/zayahcortright/q-e/pseudo/Sr_pbe_v1.uspp.F.UPF
     MD5 check sum: 6b418c05fbe9db5448babca5e47b7a5b
     Pseudo is Ultrasoft + core correction, Zval = 10.0
     Generated by new atomic code, or converted to UPF format
     Using radial grid of  883 points,  6 beta functions with: 
                l(1) =   0
                l(2) =   0
                l(3) =   1
                l(4) =   1
                l(5) =   2
                l(6) =   2
     Q(r) pseudized with  6 coefficients,  rinner =    1.400   1.400   1.400
                                                       1.400   1.400

     PseudoPot. # 2 for O  read from file:
     /bsuhome/zayahcortright/q-e/pseudo/O.pbe-n-kjpaw_psl.0.1.UPF
     MD5 check sum: 0234752ac141de4415c5fc33072bef88
     Pseudo is Projector augmented-wave + core cor, Zval =  6.0
     Generated using "atomic" code by A. Dal Corso  v.5.0.99 svn rev. 10869
     Shape of augmentation charge: BESSEL
     Using radial grid of 1095 points,  4 beta functions with: 
                l(1) =   0
                l(2) =   0
                l(3) =   1
                l(4) =   1
     Q(r) pseudized with 0 coefficients 


     PseudoPot. # 3 for Co read from file:
     /bsuhome/zayahcortright/q-e/pseudo/Co_pbe_v1.2.uspp.F.UPF
     MD5 check sum: 5f91765df6ddd3222702df6e7b74a16d
     Pseudo is Ultrasoft + core correction, Zval = 17.0
     Generated by new atomic code, or converted to UPF format
     Using radial grid of  863 points,  6 beta functions with: 
                l(1) =   0
                l(2) =   0
                l(3) =   1
                l(4) =   1
                l(5) =   2
                l(6) =   2
     Q(r) pseudized with  8 coefficients,  rinner =    1.200   1.200   1.200
                                                       1.200   1.200

     PseudoPot. # 4 for H  read from file:
     /bsuhome/zayahcortright/q-e/pseudo/H.pbe-rrkjus_psl.1.0.0.UPF
     MD5 check sum: f52b6d4d1c606e5624b1dc7b2218f220
     Pseudo is Ultrasoft, Zval =  1.0
     Generated using "atomic" code by A. Dal Corso  v.5.1
     Using radial grid of  929 points,  2 beta functions with: 
                l(1) =   0
                l(2) =   0
     Q(r) pseudized with 0 coefficients 


     atomic species   valence    mass     pseudopotential
        Sr            10.00    87.62000     Sr( 1.00)
        O              6.00    15.99900     O ( 1.00)
        Co            17.00    58.93319     Co( 1.00)
        H              1.00     1.00800     H ( 1.00)

     No symmetry found


                                    s                        frac. trans.

      isym =  1     identity                                     

 cryst.   s( 1) = (     1          0          0      )
                  (     0          1          0      )
                  (     0          0          1      )

 cart.    s( 1) = (  1.0000000  0.0000000  0.0000000 )
                  (  0.0000000  1.0000000  0.0000000 )
                  (  0.0000000  0.0000000  1.0000000 )


   Cartesian axes

     site n.     atom                  positions (alat units)
         1           Sr  tau(   1) = (   0.2508693   0.7491307   1.7574407  )
         2           O   tau(   2) = (   0.4985141   0.5014859   1.7715967  )
         3           Sr  tau(   3) = (   0.7482398   0.7454518   1.7648669  )
         4           Sr  tau(   4) = (   0.7441748   0.2558252   1.7667843  )
         5           Sr  tau(   5) = (   0.2508693   0.7491307   1.2696799  )
         6           Sr  tau(   6) = (   0.2508693   0.7491307   0.7632319  )
         7           Co  tau(   7) = (   0.4998914   0.5001086   1.0164559  )
         8           Co  tau(   8) = (   0.4936915   0.5063085   1.5135603  )
         9           O   tau(   9) = (   0.4988895   0.7610401   1.0164559  )
        10           O   tau(  10) = (   0.2389599   0.5011105   1.0164559  )
        11           O   tau(  11) = (   0.0070918   0.7374880   1.0164559  )
        12           O   tau(  12) = (   0.0088340   0.7405089   1.5135603  )
        13           O   tau(  13) = (   0.5066944   0.7415376   1.5135603  )
        14           O   tau(  14) = (   0.2584624   0.4933056   1.5135603  )
        15           O   tau(  15) = (   0.4985141   0.5014859   0.7773880  )
        16           O   tau(  16) = (   0.4985141   0.5014859   1.2555238  )
        17           Sr  tau(  17) = (   0.7482398   0.7454518   0.7706582  )
        18           Sr  tau(  18) = (   0.7482398   0.7454518   1.2622536  )
        19           Sr  tau(  19) = (   0.7441748   0.2558252   0.7725755  )
        20           Sr  tau(  20) = (   0.7441748   0.2558252   1.2603363  )
        21           O   tau(  21) = (   0.7322655   0.0078049   1.5135603  )
        22           O   tau(  22) = (   0.7558175   0.4996027   1.5135603  )
        23           O   tau(  23) = (   0.5003973   0.2441825   1.5135603  )
        24           O   tau(  24) = (   0.7527966   0.4978604   1.0164559  )
        25           O   tau(  25) = (   0.5021396   0.2472034   1.0164559  )
        26           O   tau(  26) = (   0.7517679   0.0000000   1.0164559  )
        27           O   tau(  27) = (   0.0114961   0.4948124   1.7455321  )
        28           O   tau(  28) = (   0.0048226   0.0077944   1.7715967  )
        29           Sr  tau(  29) = (   0.2545482   0.2517602   1.7648669  )
        30           O   tau(  30) = (   0.5048017   0.0015068   1.7786929  )
        31           Co  tau(  31) = (   0.0056869   0.5006215   1.0164559  )
        32           Co  tau(  32) = (   0.0065315   0.4997770   1.5135603  )
        33           Co  tau(  33) = (   0.0061999   0.0064171   1.0164559  )
        34           Co  tau(  34) = (   0.0000000   0.0126169   1.5135603  )
        35           O   tau(  35) = (   0.0114961   0.4948124   1.2815885  )
        36           O   tau(  36) = (   0.0114961   0.4948124   0.7513233  )
        37           O   tau(  37) = (   0.0051979   0.2673486   1.0164559  )
        38           O   tau(  38) = (   0.0130029   0.2478461   1.5135603  )
        39           O   tau(  39) = (   0.0048226   0.0077944   0.7773880  )
        40           O   tau(  40) = (   0.0048226   0.0077944   1.2555238  )
        41           Sr  tau(  41) = (   0.2545482   0.2517602   0.7706582  )
        42           Sr  tau(  42) = (   0.2545482   0.2517602   1.2622536  )
        43           Co  tau(  43) = (   0.4989925   0.0073160   1.5135603  )
        44           Co  tau(  44) = (   0.4998370   0.0064714   1.0164559  )
        45           O   tau(  45) = (   0.5048017   0.0015068   0.7844841  )
        46           O   tau(  46) = (   0.5048017   0.0015068   1.2484277  )
        47           O   tau(  47) = (   0.2621260   0.0059111   1.5135603  )
        48           O   tau(  48) = (   0.2591051   0.0041689   1.0164559  )
        49           O   tau(  49) = (   0.7108228   0.0000000   2.1602013  )
        50           O   tau(  50) = (   0.7108228   0.0000000   2.3186489  )
        51           H   tau(  51) = (   0.7108228   0.0000000   2.4431567  )

   Crystallographic axes

     site n.     atom                  positions (cryst. coord.)
         1           Sr  tau(   1) = (  0.2508693  0.7491307  0.6943562  )
         2           O   tau(   2) = (  0.4985141  0.5014859  0.6999492  )
         3           Sr  tau(   3) = (  0.7482398  0.7454518  0.6972903  )
         4           Sr  tau(   4) = (  0.7441748  0.2558252  0.6980478  )
         5           Sr  tau(   5) = (  0.2508693  0.7491307  0.5016443  )
         6           Sr  tau(   6) = (  0.2508693  0.7491307  0.3015492  )
         7           Co  tau(   7) = (  0.4998914  0.5001086  0.4015968  )
         8           Co  tau(   8) = (  0.4936915  0.5063085  0.5980003  )
         9           O   tau(   9) = (  0.4988895  0.7610401  0.4015968  )
        10           O   tau(  10) = (  0.2389599  0.5011105  0.4015968  )
        11           O   tau(  11) = (  0.0070918  0.7374880  0.4015968  )
        12           O   tau(  12) = (  0.0088340  0.7405089  0.5980003  )
        13           O   tau(  13) = (  0.5066944  0.7415376  0.5980003  )
        14           O   tau(  14) = (  0.2584624  0.4933056  0.5980003  )
        15           O   tau(  15) = (  0.4985141  0.5014859  0.3071422  )
        16           O   tau(  16) = (  0.4985141  0.5014859  0.4960513  )
        17           Sr  tau(  17) = (  0.7482398  0.7454518  0.3044833  )
        18           Sr  tau(  18) = (  0.7482398  0.7454518  0.4987103  )
        19           Sr  tau(  19) = (  0.7441748  0.2558252  0.3052408  )
        20           Sr  tau(  20) = (  0.7441748  0.2558252  0.4979527  )
        21           O   tau(  21) = (  0.7322655  0.0078049  0.5980003  )
        22           O   tau(  22) = (  0.7558175  0.4996027  0.5980003  )
        23           O   tau(  23) = (  0.5003973  0.2441825  0.5980003  )
        24           O   tau(  24) = (  0.7527966  0.4978604  0.4015968  )
        25           O   tau(  25) = (  0.5021396  0.2472034  0.4015968  )
        26           O   tau(  26) = (  0.7517679  0.0000000  0.4015968  )
        27           O   tau(  27) = (  0.0114961  0.4948124  0.6896512  )
        28           O   tau(  28) = (  0.0048226  0.0077944  0.6999492  )
        29           Sr  tau(  29) = (  0.2545482  0.2517602  0.6972903  )
        30           O   tau(  30) = (  0.5048017  0.0015068  0.7027529  )
        31           Co  tau(  31) = (  0.0056869  0.5006215  0.4015968  )
        32           Co  tau(  32) = (  0.0065315  0.4997770  0.5980003  )
        33           Co  tau(  33) = (  0.0061999  0.0064171  0.4015968  )
        34           Co  tau(  34) = (  0.0000000  0.0126169  0.5980003  )
        35           O   tau(  35) = (  0.0114961  0.4948124  0.5063494  )
        36           O   tau(  36) = (  0.0114961  0.4948124  0.2968442  )
        37           O   tau(  37) = (  0.0051979  0.2673486  0.4015968  )
        38           O   tau(  38) = (  0.0130029  0.2478461  0.5980003  )
        39           O   tau(  39) = (  0.0048226  0.0077944  0.3071422  )
        40           O   tau(  40) = (  0.0048226  0.0077944  0.4960513  )
        41           Sr  tau(  41) = (  0.2545482  0.2517602  0.3044833  )
        42           Sr  tau(  42) = (  0.2545482  0.2517602  0.4987103  )
        43           Co  tau(  43) = (  0.4989925  0.0073160  0.5980003  )
        44           Co  tau(  44) = (  0.4998370  0.0064714  0.4015968  )
        45           O   tau(  45) = (  0.5048017  0.0015068  0.3099459  )
        46           O   tau(  46) = (  0.5048017  0.0015068  0.4932477  )
        47           O   tau(  47) = (  0.2621260  0.0059111  0.5980003  )
        48           O   tau(  48) = (  0.2591051  0.0041689  0.4015968  )
        49           O   tau(  49) = (  0.7108228  0.0000000  0.8534850  )
        50           O   tau(  50) = (  0.7108228  0.0000000  0.9160869  )
        51           H   tau(  51) = (  0.7108228  0.0000000  0.9652793  )

     number of k points=    10  Gaussian smearing, width (Ry)=  0.0700
                       cart. coord. in units 2pi/alat
        k(    1) = (   0.0000000   0.0000000   0.0000000), wk =   0.1250000
        k(    2) = (   0.0000000   0.2500000   0.0000000), wk =   0.2500000
        k(    3) = (   0.0000000  -0.5000000   0.0000000), wk =   0.1250000
        k(    4) = (   0.2500000   0.2500000   0.0000000), wk =   0.2500000
        k(    5) = (   0.2500000  -0.5000000   0.0000000), wk =   0.2500000
        k(    6) = (  -0.5000000  -0.5000000   0.0000000), wk =   0.1250000
        k(    7) = (   0.2500000   0.0000000   0.0000000), wk =   0.2500000
        k(    8) = (  -0.5000000   0.0000000   0.0000000), wk =   0.1250000
        k(    9) = (  -0.2500000   0.2500000   0.0000000), wk =   0.2500000
        k(   10) = (  -0.5000000   0.2500000   0.0000000), wk =   0.2500000

                       cryst. coord.
        k(    1) = (   0.0000000   0.0000000   0.0000000), wk =   0.1250000
        k(    2) = (   0.0000000   0.2500000   0.0000000), wk =   0.2500000
        k(    3) = (   0.0000000  -0.5000000   0.0000000), wk =   0.1250000
        k(    4) = (   0.2500000   0.2500000   0.0000000), wk =   0.2500000
        k(    5) = (   0.2500000  -0.5000000   0.0000000), wk =   0.2500000
        k(    6) = (  -0.5000000  -0.5000000   0.0000000), wk =   0.1250000
        k(    7) = (   0.2500000   0.0000000   0.0000000), wk =   0.2500000
        k(    8) = (  -0.5000000   0.0000000   0.0000000), wk =   0.1250000
        k(    9) = (  -0.2500000   0.2500000   0.0000000), wk =   0.2500000
        k(   10) = (  -0.5000000   0.2500000   0.0000000), wk =   0.2500000

     Dense  grid:  1474595 G-vectors     FFT dimensions: ( 108, 108, 270)

     Smooth grid:   521381 G-vectors     FFT dimensions: (  75,  75, 192)

     Dynamical RAM for                 wfc:      10.90 MB

     Dynamical RAM for     wfc (w. buffer):      65.37 MB

     Dynamical RAM for           str. fact:       3.75 MB

     Dynamical RAM for           local pot:       0.00 MB

     Dynamical RAM for          nlocal pot:      24.94 MB

     Dynamical RAM for                qrad:       7.03 MB

     Dynamical RAM for          rho,v,vnew:       6.02 MB

     Dynamical RAM for               rhoin:       2.01 MB

     Dynamical RAM for            rho*nmix:      15.00 MB

     Dynamical RAM for           G-vectors:       3.68 MB

     Dynamical RAM for          h,s,v(r/c):       1.40 MB

     Dynamical RAM for          <psi|beta>:       2.42 MB

     Dynamical RAM for                 psi:      21.79 MB

     Dynamical RAM for                hpsi:      21.79 MB

     Dynamical RAM for                spsi:      21.79 MB

     Dynamical RAM for      wfcinit/wfcrot:      34.89 MB

     Dynamical RAM for           addusdens:     101.73 MB

     Estimated static dynamical RAM per process >     122.82 MB

     Estimated max dynamical RAM per process >     239.55 MB

     Estimated total dynamical RAM >      10.88 GB

     Check: negative core charge=   -0.000004

     Initial potential from superposition of free atoms

     starting charge     428.5961, renormalised to     437.0000

     negative rho (up, down):  7.813E-01 0.000E+00
     Starting wfcs are  381 randomized atomic wfcs
     Checking if some PAW data can be deallocated... 
       PAW data deallocated on   18 nodes for type:  2

     total cpu time spent up to now is       10.1 secs

     Self-consistent Calculation

     iteration #  1     ecut=    60.00 Ry     beta= 0.15
     Davidson diagonalization with overlap

---- Real-time Memory Report at c_bands before calling an iterative solver
             0 MiB given to the printing process from OS
             0 MiB allocation reported by mallinfo(arena+hblkhd)
         32105 MiB available memory on the node where the printing process lives
------------------
     ethr =  1.00E-02,  avg # of iterations =  2.0

     negative rho (up, down):  7.715E-01 0.000E+00

     total cpu time spent up to now is       25.9 secs

     total energy              =   -4489.29903369 Ry
     estimated scf accuracy    <      49.72568097 Ry

     iteration #  2     ecut=    60.00 Ry     beta= 0.15
     Davidson diagonalization with overlap

---- Real-time Memory Report at c_bands before calling an iterative solver
             0 MiB given to the printing process from OS
             0 MiB allocation reported by mallinfo(arena+hblkhd)
         32485 MiB available memory on the node where the printing process lives
------------------
     ethr =  1.00E-02,  avg # of iterations =  1.0

     negative rho (up, down):  7.613E-01 0.000E+00

     total cpu time spent up to now is       38.9 secs

     total energy              =   -4486.80473328 Ry
     estimated scf accuracy    <      35.33699943 Ry

     iteration #  3     ecut=    60.00 Ry     beta= 0.15
     Davidson diagonalization with overlap

---- Real-time Memory Report at c_bands before calling an iterative solver
             0 MiB given to the printing process from OS
             0 MiB allocation reported by mallinfo(arena+hblkhd)
         31734 MiB available memory on the node where the printing process lives
------------------
     ethr =  8.09E-03,  avg # of iterations =  1.0

     negative rho (up, down):  7.563E-01 0.000E+00

     total cpu time spent up to now is       51.8 secs

     total energy              =   -4486.77570783 Ry
     estimated scf accuracy    <      35.45372798 Ry

     iteration #  4     ecut=    60.00 Ry     beta= 0.15
     Davidson diagonalization with overlap

---- Real-time Memory Report at c_bands before calling an iterative solver
             0 MiB given to the printing process from OS
             0 MiB allocation reported by mallinfo(arena+hblkhd)
         31702 MiB available memory on the node where the printing process lives
------------------
     ethr =  8.09E-03,  avg # of iterations =  1.0

     negative rho (up, down):  7.576E-01 0.000E+00

     total cpu time spent up to now is       64.7 secs

     total energy              =   -4486.56760129 Ry
     estimated scf accuracy    <      34.21620683 Ry

     iteration #  5     ecut=    60.00 Ry     beta= 0.15
     Davidson diagonalization with overlap

---- Real-time Memory Report at c_bands before calling an iterative solver
             0 MiB given to the printing process from OS
             0 MiB allocation reported by mallinfo(arena+hblkhd)
         31693 MiB available memory on the node where the printing process lives
------------------
     ethr =  7.83E-03,  avg # of iterations =  1.0

     negative rho (up, down):  7.336E-01 0.000E+00

     total cpu time spent up to now is       77.5 secs

     total energy              =   -4482.43604581 Ry
     estimated scf accuracy    <      22.46637378 Ry

     iteration #  6     ecut=    60.00 Ry     beta= 0.15
     Davidson diagonalization with overlap

---- Real-time Memory Report at c_bands before calling an iterative solver
             0 MiB given to the printing process from OS
             0 MiB allocation reported by mallinfo(arena+hblkhd)
         31676 MiB available memory on the node where the printing process lives
------------------
     ethr =  5.14E-03,  avg # of iterations =  2.0

     negative rho (up, down):  7.491E-01 0.000E+00

     total cpu time spent up to now is       91.8 secs

     total energy              =   -4483.43136981 Ry
     estimated scf accuracy    <      32.92178643 Ry

     iteration #  7     ecut=    60.00 Ry     beta= 0.15
     Davidson diagonalization with overlap

---- Real-time Memory Report at c_bands before calling an iterative solver
             0 MiB given to the printing process from OS
             0 MiB allocation reported by mallinfo(arena+hblkhd)
         31659 MiB available memory on the node where the printing process lives
------------------
     ethr =  5.14E-03,  avg # of iterations =  1.0

     negative rho (up, down):  7.540E-01 0.000E+00

     total cpu time spent up to now is      104.6 secs

     total energy              =   -4483.67338457 Ry
     estimated scf accuracy    <      31.98051202 Ry

     iteration #  8     ecut=    60.00 Ry     beta= 0.15
     Davidson diagonalization with overlap

---- Real-time Memory Report at c_bands before calling an iterative solver
             0 MiB given to the printing process from OS
             0 MiB allocation reported by mallinfo(arena+hblkhd)
         31635 MiB available memory on the node where the printing process lives
------------------
     ethr =  5.14E-03,  avg # of iterations =  1.0

     negative rho (up, down):  7.517E-01 0.000E+00

     total cpu time spent up to now is      117.7 secs

     total energy              =   -4483.86414878 Ry
     estimated scf accuracy    <       6.46916122 Ry

     iteration #  9     ecut=    60.00 Ry     beta= 0.15
     Davidson diagonalization with overlap

---- Real-time Memory Report at c_bands before calling an iterative solver
             0 MiB given to the printing process from OS
             0 MiB allocation reported by mallinfo(arena+hblkhd)
         31605 MiB available memory on the node where the printing process lives
------------------
     ethr =  1.48E-03,  avg # of iterations =  3.2

     negative rho (up, down):  7.667E-01 0.000E+00

     total cpu time spent up to now is      134.2 secs

     total energy              =   -4483.75369413 Ry
     estimated scf accuracy    <       3.87143117 Ry

     iteration # 10     ecut=    60.00 Ry     beta= 0.15
     Davidson diagonalization with overlap

---- Real-time Memory Report at c_bands before calling an iterative solver
             0 MiB given to the printing process from OS
             0 MiB allocation reported by mallinfo(arena+hblkhd)
         31577 MiB available memory on the node where the printing process lives
------------------
     ethr =  8.86E-04,  avg # of iterations = 12.2

     negative rho (up, down):  7.898E-01 0.000E+00

     total cpu time spent up to now is      153.6 secs

     total energy              =   -4483.48559319 Ry
     estimated scf accuracy    <       4.35366468 Ry

     iteration # 11     ecut=    60.00 Ry     beta= 0.15
     Davidson diagonalization with overlap

---- Real-time Memory Report at c_bands before calling an iterative solver
             0 MiB given to the printing process from OS
             0 MiB allocation reported by mallinfo(arena+hblkhd)
         31253 MiB available memory on the node where the printing process lives
------------------
     ethr =  8.86E-04,  avg # of iterations =  5.8

     negative rho (up, down):  7.932E-01 0.000E+00

     total cpu time spent up to now is      170.1 secs

     total energy              =   -4483.20044993 Ry
     estimated scf accuracy    <       3.83683667 Ry

     iteration # 12     ecut=    60.00 Ry     beta= 0.15
     Davidson diagonalization with overlap

---- Real-time Memory Report at c_bands before calling an iterative solver
             0 MiB given to the printing process from OS
             0 MiB allocation reported by mallinfo(arena+hblkhd)
         31196 MiB available memory on the node where the printing process lives
------------------
     ethr =  8.78E-04,  avg # of iterations =  6.2

     negative rho (up, down):  8.024E-01 0.000E+00

     total cpu time spent up to now is      186.5 secs

     total energy              =   -4483.22317782 Ry
     estimated scf accuracy    <       1.94383014 Ry

     iteration # 13     ecut=    60.00 Ry     beta= 0.15
     Davidson diagonalization with overlap

---- Real-time Memory Report at c_bands before calling an iterative solver
             0 MiB given to the printing process from OS
             0 MiB allocation reported by mallinfo(arena+hblkhd)
         31158 MiB available memory on the node where the printing process lives
------------------
     ethr =  4.45E-04,  avg # of iterations =  3.8

     negative rho (up, down):  8.046E-01 0.000E+00

     total cpu time spent up to now is      201.9 secs

     total energy              =   -4483.24966863 Ry
     estimated scf accuracy    <       0.97185450 Ry

     iteration # 14     ecut=    60.00 Ry     beta= 0.15
     Davidson diagonalization with overlap

---- Real-time Memory Report at c_bands before calling an iterative solver
             0 MiB given to the printing process from OS
             0 MiB allocation reported by mallinfo(arena+hblkhd)
         31171 MiB available memory on the node where the printing process lives
------------------
     ethr =  2.22E-04,  avg # of iterations =  9.5

     negative rho (up, down):  8.173E-01 0.000E+00

     total cpu time spent up to now is      220.2 secs

     total energy              =   -4483.09802524 Ry
     estimated scf accuracy    <       0.68012175 Ry

     iteration # 15     ecut=    60.00 Ry     beta= 0.15
     Davidson diagonalization with overlap

---- Real-time Memory Report at c_bands before calling an iterative solver
             0 MiB given to the printing process from OS
             0 MiB allocation reported by mallinfo(arena+hblkhd)
         31092 MiB available memory on the node where the printing process lives
------------------
     ethr =  1.56E-04,  avg # of iterations =  5.9

     negative rho (up, down):  8.198E-01 0.000E+00

     total cpu time spent up to now is      236.6 secs

     total energy              =   -4483.13904087 Ry
     estimated scf accuracy    <       3.46206165 Ry

     iteration # 16     ecut=    60.00 Ry     beta= 0.15
     Davidson diagonalization with overlap

---- Real-time Memory Report at c_bands before calling an iterative solver
             0 MiB given to the printing process from OS
             0 MiB allocation reported by mallinfo(arena+hblkhd)
         31093 MiB available memory on the node where the printing process lives
------------------
     ethr =  1.56E-04,  avg # of iterations =  2.6

     negative rho (up, down):  8.168E-01 0.000E+00

     total cpu time spent up to now is      251.1 secs

     total energy              =   -4483.09868866 Ry
     estimated scf accuracy    <       1.53421042 Ry

     iteration # 17     ecut=    60.00 Ry     beta= 0.15
     Davidson diagonalization with overlap

---- Real-time Memory Report at c_bands before calling an iterative solver
             0 MiB given to the printing process from OS
             0 MiB allocation reported by mallinfo(arena+hblkhd)
         31113 MiB available memory on the node where the printing process lives
------------------
     ethr =  1.56E-04,  avg # of iterations =  2.5

     negative rho (up, down):  8.204E-01 0.000E+00

     total cpu time spent up to now is      265.7 secs

     total energy              =   -4483.05235516 Ry
     estimated scf accuracy    <       0.44757622 Ry

     iteration # 18     ecut=    60.00 Ry     beta= 0.15
     Davidson diagonalization with overlap

---- Real-time Memory Report at c_bands before calling an iterative solver
             0 MiB given to the printing process from OS
             0 MiB allocation reported by mallinfo(arena+hblkhd)
         31118 MiB available memory on the node where the printing process lives
------------------
     ethr =  1.02E-04,  avg # of iterations = 11.2

     negative rho (up, down):  8.203E-01 0.000E+00

     total cpu time spent up to now is      284.8 secs

     total energy              =   -4483.02969753 Ry
     estimated scf accuracy    <       1.45246157 Ry

     iteration # 19     ecut=    60.00 Ry     beta= 0.15
     Davidson diagonalization with overlap

---- Real-time Memory Report at c_bands before calling an iterative solver
             0 MiB given to the printing process from OS
             0 MiB allocation reported by mallinfo(arena+hblkhd)
         31095 MiB available memory on the node where the printing process lives
------------------
     ethr =  1.02E-04,  avg # of iterations =  3.6

     negative rho (up, down):  8.310E-01 0.000E+00

     total cpu time spent up to now is      300.3 secs

     total energy              =   -4483.01830465 Ry
     estimated scf accuracy    <       0.41596463 Ry

     iteration # 20     ecut=    60.00 Ry     beta= 0.15
     Davidson diagonalization with overlap

---- Real-time Memory Report at c_bands before calling an iterative solver
             0 MiB given to the printing process from OS
             0 MiB allocation reported by mallinfo(arena+hblkhd)
         31104 MiB available memory on the node where the printing process lives
------------------
     ethr =  9.52E-05,  avg # of iterations =  6.6

     negative rho (up, down):  8.271E-01 0.000E+00

     total cpu time spent up to now is      316.9 secs

     total energy              =   -4482.96542507 Ry
     estimated scf accuracy    <       0.67053961 Ry

     iteration # 21     ecut=    60.00 Ry     beta= 0.15
     Davidson diagonalization with overlap

---- Real-time Memory Report at c_bands before calling an iterative solver
             0 MiB given to the printing process from OS
             0 MiB allocation reported by mallinfo(arena+hblkhd)
         31102 MiB available memory on the node where the printing process lives
------------------
     ethr =  9.52E-05,  avg # of iterations =  9.4

     negative rho (up, down):  8.443E-01 0.000E+00

     total cpu time spent up to now is      335.1 secs

     total energy              =   -4482.98001026 Ry
     estimated scf accuracy    <       0.06267231 Ry

     iteration # 22     ecut=    60.00 Ry     beta= 0.15
     Davidson diagonalization with overlap

---- Real-time Memory Report at c_bands before calling an iterative solver
             0 MiB given to the printing process from OS
             0 MiB allocation reported by mallinfo(arena+hblkhd)
         31135 MiB available memory on the node where the printing process lives
------------------
     ethr =  1.43E-05,  avg # of iterations = 10.1

     negative rho (up, down):  8.411E-01 0.000E+00

     total cpu time spent up to now is      354.6 secs

     total energy              =   -4482.97885272 Ry
     estimated scf accuracy    <       0.03970259 Ry

     iteration # 23     ecut=    60.00 Ry     beta= 0.15
     Davidson diagonalization with overlap

---- Real-time Memory Report at c_bands before calling an iterative solver
             0 MiB given to the printing process from OS
             0 MiB allocation reported by mallinfo(arena+hblkhd)
         30952 MiB available memory on the node where the printing process lives
------------------
     ethr =  9.09E-06,  avg # of iterations =  2.2

     negative rho (up, down):  8.210E-01 0.000E+00

     total cpu time spent up to now is      369.0 secs

     total energy              =   -4482.97319790 Ry
     estimated scf accuracy    <       0.02894675 Ry

     iteration # 24     ecut=    60.00 Ry     beta= 0.15
     Davidson diagonalization with overlap

---- Real-time Memory Report at c_bands before calling an iterative solver
             0 MiB given to the printing process from OS
             0 MiB allocation reported by mallinfo(arena+hblkhd)
         30978 MiB available memory on the node where the printing process lives
------------------
     c_bands:  2 eigenvalues not converged
     ethr =  6.62E-06,  avg # of iterations = 13.8

     negative rho (up, down):  8.177E-01 0.000E+00

     total cpu time spent up to now is      389.5 secs

     total energy              =   -4482.97369157 Ry
     estimated scf accuracy    <       0.01408071 Ry

     iteration # 25     ecut=    60.00 Ry     beta= 0.15
     Davidson diagonalization with overlap

---- Real-time Memory Report at c_bands before calling an iterative solver
             0 MiB given to the printing process from OS
             0 MiB allocation reported by mallinfo(arena+hblkhd)
         30916 MiB available memory on the node where the printing process lives
------------------
     ethr =  3.22E-06,  avg # of iterations =  2.6

     negative rho (up, down):  8.097E-01 0.000E+00

     total cpu time spent up to now is      404.0 secs

     total energy              =   -4482.97216591 Ry
     estimated scf accuracy    <       0.01072566 Ry

     iteration # 26     ecut=    60.00 Ry     beta= 0.15
     Davidson diagonalization with overlap

---- Real-time Memory Report at c_bands before calling an iterative solver
             0 MiB given to the printing process from OS
             0 MiB allocation reported by mallinfo(arena+hblkhd)
         30921 MiB available memory on the node where the printing process lives
------------------
     ethr =  2.45E-06,  avg # of iterations =  8.2

     negative rho (up, down):  7.973E-01 0.000E+00

     total cpu time spent up to now is      421.6 secs

     total energy              =   -4482.97104264 Ry
     estimated scf accuracy    <       0.00712031 Ry

     iteration # 27     ecut=    60.00 Ry     beta= 0.15
     Davidson diagonalization with overlap

---- Real-time Memory Report at c_bands before calling an iterative solver
             0 MiB given to the printing process from OS
             0 MiB allocation reported by mallinfo(arena+hblkhd)
         30893 MiB available memory on the node where the printing process lives
------------------
     ethr =  1.63E-06,  avg # of iterations = 10.9

     negative rho (up, down):  7.958E-01 0.000E+00

     total cpu time spent up to now is      442.2 secs

     total energy              =   -4482.97144066 Ry
     estimated scf accuracy    <       0.00171899 Ry

     iteration # 28     ecut=    60.00 Ry     beta= 0.15
     Davidson diagonalization with overlap

---- Real-time Memory Report at c_bands before calling an iterative solver
             0 MiB given to the printing process from OS
             0 MiB allocation reported by mallinfo(arena+hblkhd)
         30811 MiB available memory on the node where the printing process lives
------------------
     ethr =  3.93E-07,  avg # of iterations =  3.0

     negative rho (up, down):  7.962E-01 0.000E+00

     total cpu time spent up to now is      457.2 secs

     total energy              =   -4482.97149176 Ry
     estimated scf accuracy    <       0.00096881 Ry

     iteration # 29     ecut=    60.00 Ry     beta= 0.15
     Davidson diagonalization with overlap

---- Real-time Memory Report at c_bands before calling an iterative solver
             0 MiB given to the printing process from OS
             0 MiB allocation reported by mallinfo(arena+hblkhd)
         30844 MiB available memory on the node where the printing process lives
------------------
     ethr =  2.22E-07,  avg # of iterations =  6.0

     negative rho (up, down):  7.950E-01 0.000E+00

     total cpu time spent up to now is      473.4 secs

     total energy              =   -4482.97141961 Ry
     estimated scf accuracy    <       0.00064857 Ry

     iteration # 30     ecut=    60.00 Ry     beta= 0.15
     Davidson diagonalization with overlap

---- Real-time Memory Report at c_bands before calling an iterative solver
             0 MiB given to the printing process from OS
             0 MiB allocation reported by mallinfo(arena+hblkhd)
         30819 MiB available memory on the node where the printing process lives
------------------
     ethr =  1.48E-07,  avg # of iterations =  4.8

     negative rho (up, down):  7.935E-01 0.000E+00

     total cpu time spent up to now is      489.3 secs

     total energy              =   -4482.97138531 Ry
     estimated scf accuracy    <       0.00031827 Ry

     iteration # 31     ecut=    60.00 Ry     beta= 0.15
     Davidson diagonalization with overlap

---- Real-time Memory Report at c_bands before calling an iterative solver
             0 MiB given to the printing process from OS
             0 MiB allocation reported by mallinfo(arena+hblkhd)
         30862 MiB available memory on the node where the printing process lives
------------------
     c_bands:  1 eigenvalues not converged
     ethr =  7.28E-08,  avg # of iterations =  7.7

     negative rho (up, down):  7.924E-01 0.000E+00

     total cpu time spent up to now is      506.0 secs

     total energy              =   -4482.97135125 Ry
     estimated scf accuracy    <       0.00019757 Ry

     iteration # 32     ecut=    60.00 Ry     beta= 0.15
     Davidson diagonalization with overlap

---- Real-time Memory Report at c_bands before calling an iterative solver
             0 MiB given to the printing process from OS
             0 MiB allocation reported by mallinfo(arena+hblkhd)
         30847 MiB available memory on the node where the printing process lives
------------------
     ethr =  4.52E-08,  avg # of iterations =  7.4

     negative rho (up, down):  7.921E-01 0.000E+00

     total cpu time spent up to now is      522.5 secs

     total energy              =   -4482.97133909 Ry
     estimated scf accuracy    <       0.00014051 Ry

     iteration # 33     ecut=    60.00 Ry     beta= 0.15
     Davidson diagonalization with overlap

---- Real-time Memory Report at c_bands before calling an iterative solver
             0 MiB given to the printing process from OS
             0 MiB allocation reported by mallinfo(arena+hblkhd)
         30865 MiB available memory on the node where the printing process lives
------------------
     ethr =  3.22E-08,  avg # of iterations =  4.9

     negative rho (up, down):  7.920E-01 0.000E+00

     total cpu time spent up to now is      538.5 secs

     total energy              =   -4482.97134768 Ry
     estimated scf accuracy    <       0.00004144 Ry

     iteration # 34     ecut=    60.00 Ry     beta= 0.15
     Davidson diagonalization with overlap

---- Real-time Memory Report at c_bands before calling an iterative solver
             0 MiB given to the printing process from OS
             0 MiB allocation reported by mallinfo(arena+hblkhd)
         30890 MiB available memory on the node where the printing process lives
------------------
     ethr =  9.48E-09,  avg # of iterations =  4.7

     negative rho (up, down):  7.921E-01 0.000E+00

     total cpu time spent up to now is      554.2 secs

     total energy              =   -4482.97135529 Ry
     estimated scf accuracy    <       0.00002291 Ry

     iteration # 35     ecut=    60.00 Ry     beta= 0.15
     Davidson diagonalization with overlap

---- Real-time Memory Report at c_bands before calling an iterative solver
             0 MiB given to the printing process from OS
             0 MiB allocation reported by mallinfo(arena+hblkhd)
         30903 MiB available memory on the node where the printing process lives
------------------
     ethr =  5.24E-09,  avg # of iterations =  3.9

     negative rho (up, down):  7.921E-01 0.000E+00

     total cpu time spent up to now is      569.3 secs

     total energy              =   -4482.97136166 Ry
     estimated scf accuracy    <       0.00001806 Ry

     iteration # 36     ecut=    60.00 Ry     beta= 0.15
     Davidson diagonalization with overlap

---- Real-time Memory Report at c_bands before calling an iterative solver
             0 MiB given to the printing process from OS
             0 MiB allocation reported by mallinfo(arena+hblkhd)
         30915 MiB available memory on the node where the printing process lives
------------------
     ethr =  4.13E-09,  avg # of iterations =  4.2

     negative rho (up, down):  7.921E-01 0.000E+00

     total cpu time spent up to now is      584.5 secs

     total energy              =   -4482.97136609 Ry
     estimated scf accuracy    <       0.00001227 Ry

     iteration # 37     ecut=    60.00 Ry     beta= 0.15
     Davidson diagonalization with overlap

---- Real-time Memory Report at c_bands before calling an iterative solver
             0 MiB given to the printing process from OS
             0 MiB allocation reported by mallinfo(arena+hblkhd)
         30916 MiB available memory on the node where the printing process lives
------------------
     ethr =  2.81E-09,  avg # of iterations =  3.6

     negative rho (up, down):  7.922E-01 0.000E+00

     total cpu time spent up to now is      599.7 secs

     total energy              =   -4482.97136688 Ry
     estimated scf accuracy    <       0.00001152 Ry

     iteration # 38     ecut=    60.00 Ry     beta= 0.15
     Davidson diagonalization with overlap

---- Real-time Memory Report at c_bands before calling an iterative solver
             0 MiB given to the printing process from OS
             0 MiB allocation reported by mallinfo(arena+hblkhd)
         30900 MiB available memory on the node where the printing process lives
------------------
     ethr =  2.64E-09,  avg # of iterations =  6.9

     negative rho (up, down):  7.922E-01 0.000E+00

     total cpu time spent up to now is      615.8 secs

     total energy              =   -4482.97136551 Ry
     estimated scf accuracy    <       0.00000742 Ry

     iteration # 39     ecut=    60.00 Ry     beta= 0.15
     Davidson diagonalization with overlap

---- Real-time Memory Report at c_bands before calling an iterative solver
             0 MiB given to the printing process from OS
             0 MiB allocation reported by mallinfo(arena+hblkhd)
         30921 MiB available memory on the node where the printing process lives
------------------
     ethr =  1.70E-09,  avg # of iterations =  3.7

     negative rho (up, down):  7.923E-01 0.000E+00

     total cpu time spent up to now is      630.8 secs

     total energy              =   -4482.97136527 Ry
     estimated scf accuracy    <       0.00000618 Ry

     iteration # 40     ecut=    60.00 Ry     beta= 0.15
     Davidson diagonalization with overlap

---- Real-time Memory Report at c_bands before calling an iterative solver
             0 MiB given to the printing process from OS
             0 MiB allocation reported by mallinfo(arena+hblkhd)
         30940 MiB available memory on the node where the printing process lives
------------------
     ethr =  1.41E-09,  avg # of iterations =  2.3

     negative rho (up, down):  7.923E-01 0.000E+00

     total cpu time spent up to now is      645.0 secs

     total energy              =   -4482.97136704 Ry
     estimated scf accuracy    <       0.00000570 Ry

     iteration # 41     ecut=    60.00 Ry     beta= 0.15
     Davidson diagonalization with overlap

---- Real-time Memory Report at c_bands before calling an iterative solver
             0 MiB given to the printing process from OS
             0 MiB allocation reported by mallinfo(arena+hblkhd)
         30950 MiB available memory on the node where the printing process lives
------------------
     ethr =  1.30E-09,  avg # of iterations =  3.5

     negative rho (up, down):  7.923E-01 0.000E+00

     total cpu time spent up to now is      659.7 secs

     total energy              =   -4482.97136684 Ry
     estimated scf accuracy    <       0.00000520 Ry

     iteration # 42     ecut=    60.00 Ry     beta= 0.15
     Davidson diagonalization with overlap

---- Real-time Memory Report at c_bands before calling an iterative solver
             0 MiB given to the printing process from OS
             0 MiB allocation reported by mallinfo(arena+hblkhd)
         30944 MiB available memory on the node where the printing process lives
------------------
     ethr =  1.19E-09,  avg # of iterations =  2.9

     negative rho (up, down):  7.922E-01 0.000E+00

     total cpu time spent up to now is      674.1 secs

     total energy              =   -4482.97136909 Ry
     estimated scf accuracy    <       0.00000339 Ry

     iteration # 43     ecut=    60.00 Ry     beta= 0.15
     Davidson diagonalization with overlap

---- Real-time Memory Report at c_bands before calling an iterative solver
             0 MiB given to the printing process from OS
             0 MiB allocation reported by mallinfo(arena+hblkhd)
         30947 MiB available memory on the node where the printing process lives
------------------
     ethr =  7.76E-10,  avg # of iterations =  5.5

     negative rho (up, down):  7.922E-01 0.000E+00

     total cpu time spent up to now is      689.9 secs

     total energy              =   -4482.97136920 Ry
     estimated scf accuracy    <       0.00000184 Ry

     iteration # 44     ecut=    60.00 Ry     beta= 0.15
     Davidson diagonalization with overlap

---- Real-time Memory Report at c_bands before calling an iterative solver
             0 MiB given to the printing process from OS
             0 MiB allocation reported by mallinfo(arena+hblkhd)
         30934 MiB available memory on the node where the printing process lives
------------------
     ethr =  4.22E-10,  avg # of iterations =  4.2

     negative rho (up, down):  7.922E-01 0.000E+00

     total cpu time spent up to now is      705.1 secs

     total energy              =   -4482.97136922 Ry
     estimated scf accuracy    <       0.00000085 Ry

     iteration # 45     ecut=    60.00 Ry     beta= 0.15
     Davidson diagonalization with overlap

---- Real-time Memory Report at c_bands before calling an iterative solver
             0 MiB given to the printing process from OS
             0 MiB allocation reported by mallinfo(arena+hblkhd)
         30948 MiB available memory on the node where the printing process lives
------------------
     ethr =  1.94E-10,  avg # of iterations =  2.9

     negative rho (up, down):  7.922E-01 0.000E+00

     total cpu time spent up to now is      720.0 secs

     total energy              =   -4482.97136930 Ry
     estimated scf accuracy    <       0.00000056 Ry

     iteration # 46     ecut=    60.00 Ry     beta= 0.15
     Davidson diagonalization with overlap

---- Real-time Memory Report at c_bands before calling an iterative solver
             0 MiB given to the printing process from OS
             0 MiB allocation reported by mallinfo(arena+hblkhd)
         30949 MiB available memory on the node where the printing process lives
------------------
     ethr =  1.28E-10,  avg # of iterations =  3.1

     negative rho (up, down):  7.922E-01 0.000E+00

     total cpu time spent up to now is      734.8 secs

     total energy              =   -4482.97136930 Ry
     estimated scf accuracy    <       0.00000040 Ry

     iteration # 47     ecut=    60.00 Ry     beta= 0.15
     Davidson diagonalization with overlap

---- Real-time Memory Report at c_bands before calling an iterative solver
             0 MiB given to the printing process from OS
             0 MiB allocation reported by mallinfo(arena+hblkhd)
         30957 MiB available memory on the node where the printing process lives
------------------
     ethr =  9.16E-11,  avg # of iterations =  2.4

     negative rho (up, down):  7.923E-01 0.000E+00

     total cpu time spent up to now is      749.2 secs

     total energy              =   -4482.97136933 Ry
     estimated scf accuracy    <       0.00000026 Ry

     iteration # 48     ecut=    60.00 Ry     beta= 0.15
     Davidson diagonalization with overlap

---- Real-time Memory Report at c_bands before calling an iterative solver
             0 MiB given to the printing process from OS
             0 MiB allocation reported by mallinfo(arena+hblkhd)
         30980 MiB available memory on the node where the printing process lives
------------------
     ethr =  5.87E-11,  avg # of iterations =  4.6

     negative rho (up, down):  7.923E-01 0.000E+00

     total cpu time spent up to now is      764.8 secs

     total energy              =   -4482.97136930 Ry
     estimated scf accuracy    <       0.00000014 Ry

     iteration # 49     ecut=    60.00 Ry     beta= 0.15
     Davidson diagonalization with overlap

---- Real-time Memory Report at c_bands before calling an iterative solver
             0 MiB given to the printing process from OS
             0 MiB allocation reported by mallinfo(arena+hblkhd)
         30981 MiB available memory on the node where the printing process lives
------------------
     ethr =  3.11E-11,  avg # of iterations =  4.5

     negative rho (up, down):  7.923E-01 0.000E+00

     total cpu time spent up to now is      780.1 secs

     total energy              =   -4482.97136930 Ry
     estimated scf accuracy    <       0.00000006 Ry

     iteration # 50     ecut=    60.00 Ry     beta= 0.15
     Davidson diagonalization with overlap

---- Real-time Memory Report at c_bands before calling an iterative solver
             0 MiB given to the printing process from OS
             0 MiB allocation reported by mallinfo(arena+hblkhd)
         30973 MiB available memory on the node where the printing process lives
------------------
     ethr =  1.27E-11,  avg # of iterations =  3.5

     negative rho (up, down):  7.923E-01 0.000E+00

     total cpu time spent up to now is      795.1 secs

     total energy              =   -4482.97136933 Ry
     estimated scf accuracy    <       0.00000002 Ry

     iteration # 51     ecut=    60.00 Ry     beta= 0.15
     Davidson diagonalization with overlap

---- Real-time Memory Report at c_bands before calling an iterative solver
             0 MiB given to the printing process from OS
             0 MiB allocation reported by mallinfo(arena+hblkhd)
         30970 MiB available memory on the node where the printing process lives
------------------
     ethr =  5.64E-12,  avg # of iterations =  4.5

     negative rho (up, down):  7.923E-01 0.000E+00

     total cpu time spent up to now is      811.2 secs

     End of self-consistent calculation

          k = 0.0000 0.0000 0.0000 ( 65197 PWs)   bands (ev):

   -92.3320 -92.2754 -92.1855 -92.1373 -92.0775 -92.0380 -92.0208 -91.8975
   -55.6852 -55.6616 -55.5434 -55.5330 -55.5247 -55.5198 -55.4809 -55.4552
   -55.4388 -55.4370 -55.4269 -55.3861 -55.3686 -55.3294 -55.3113 -55.2772
   -55.2726 -55.2270 -55.2241 -55.2238 -55.2153 -55.1721 -55.1516 -55.0647
   -30.9185 -30.8996 -30.7585 -30.7192 -30.6719 -30.6318 -30.6205 -30.5084
   -29.4830 -29.4401 -29.4137 -29.3057 -22.2492 -14.7171 -14.6829 -14.5951
   -14.4650 -14.2829 -14.1601 -13.8576 -13.8405 -13.8085 -13.7737 -13.7622
   -13.7250 -13.7183 -13.7014 -13.6845 -13.6670 -13.6231 -13.5664 -13.4185
   -13.2514 -13.2081 -13.1756 -13.1505 -13.1304 -13.0846 -13.0450 -12.9655
   -12.8926 -12.7850 -12.7520 -12.7505 -12.7404 -12.7163 -12.6983 -12.6773
   -12.6457 -12.6351 -12.6012 -12.5682 -12.5611 -12.5441 -12.5333 -12.5286
   -12.5029 -12.4812 -12.4562 -12.4338 -12.3902 -12.3793 -11.9838 -11.8388
   -11.7185 -11.6550 -11.4972 -11.4225 -11.4111 -11.3894 -11.3716 -11.3076
   -11.2902 -11.2558 -11.2264 -11.1157 -11.0349 -11.0314  -5.8584  -3.1597
    -3.1438  -2.5778  -2.3440  -2.1146  -1.9691  -1.9044  -1.7613  -1.4558
    -1.4416  -1.4198  -1.3392  -1.3198  -1.2518  -1.2360  -1.1937  -1.1487
    -0.9683  -0.7468  -0.7174  -0.5651  -0.5517  -0.5091  -0.4900  -0.4461
    -0.4309  -0.3688  -0.3425  -0.2755  -0.2620  -0.1814  -0.0557  -0.0407
    -0.0120   0.0589   0.0710   0.0845   0.1560   0.2343   0.2651   0.3274
     0.3527   0.4057   0.4883   0.5440   0.5639   0.5713   0.8263   0.8416
     1.0134   1.0840   1.1477   1.1823   1.2826   1.2968   1.3112   1.3819
     1.4097   1.4444   1.5037   1.6387   1.6916   1.7119   1.7266   1.7387
     1.8104   1.8888   1.9806   1.9929   2.0544   2.0758   2.1129   2.1330
     2.1381   2.1948   2.2439   2.2703   2.2882   2.3238   2.3865   2.5155
     2.5939   2.6444   2.6573   2.8099   2.8249   2.8696   2.8806   2.9815
     3.0207   3.0372   3.0444   3.0635   3.0769   3.1008   3.1566   3.2708
     3.3019   3.3174   3.3246   3.3912   3.3945   3.4199   3.4281   3.4354
     3.4458   3.4545   3.4668   3.4719   3.4861   3.4947   3.5026   3.5230
     3.5443   3.5495   3.5612   3.5851   3.7025   3.7493   4.4270   4.7468
     4.8109   5.1438   5.3925   5.4910   5.6967   6.2791   6.3244   6.3575
     6.6206   6.6334   6.6812   6.7293   6.9702   7.1427   7.3108   7.3676
     7.4198   7.6556   7.8483   7.9032   7.9441   7.9620   8.0233   8.0642
     8.3144   8.3594   8.3878   8.4520   8.4608   8.5481   8.6520

     occupation numbers 
     1.0000   1.0000   1.0000   1.0000   1.0000   1.0000   1.0000   1.0000
     1.0000   1.0000   1.0000   1.0000   1.0000   1.0000   1.0000   1.0000
     1.0000   1.0000   1.0000   1.0000   1.0000   1.0000   1.0000   1.0000
     1.0000   1.0000   1.0000   1.0000   1.0000   1.0000   1.0000   1.0000
     1.0000   1.0000   1.0000   1.0000   1.0000   1.0000   1.0000   1.0000
     1.0000   1.0000   1.0000   1.0000   1.0000   1.0000   1.0000   1.0000
     1.0000   1.0000   1.0000   1.0000   1.0000   1.0000   1.0000   1.0000
     1.0000   1.0000   1.0000   1.0000   1.0000   1.0000   1.0000   1.0000
     1.0000   1.0000   1.0000   1.0000   1.0000   1.0000   1.0000   1.0000
     1.0000   1.0000   1.0000   1.0000   1.0000   1.0000   1.0000   1.0000
     1.0000   1.0000   1.0000   1.0000   1.0000   1.0000   1.0000   1.0000
     1.0000   1.0000   1.0000   1.0000   1.0000   1.0000   1.0000   1.0000
     1.0000   1.0000   1.0000   1.0000   1.0000   1.0000   1.0000   1.0000
     1.0000   1.0000   1.0000   1.0000   1.0000   1.0000   1.0000   1.0000
     1.0000   1.0000   1.0000   1.0000   1.0000   1.0000   1.0000   1.0000
     1.0000   1.0000   1.0000   1.0000   1.0000   1.0000   1.0000   1.0000
     1.0000   1.0000   1.0000   1.0000   1.0000   1.0000   1.0000   1.0000
     1.0000   1.0000   1.0000   1.0000   1.0000   1.0000   1.0000   1.0000
     1.0000   1.0000   1.0000   1.0000   1.0000   1.0000   1.0000   1.0000
     1.0000   1.0000   1.0000   1.0000   1.0000   1.0000   1.0000   1.0000
     1.0000   0.9999   0.9999   0.9999   0.9998   0.9998   0.9998   0.9997
     0.9997   0.9996   0.9994   0.9989   0.9985   0.9984   0.9983   0.9982
     0.9974   0.9963   0.9945   0.9942   0.9926   0.9919   0.9906   0.9898
     0.9896   0.9870   0.9844   0.9828   0.9816   0.9791   0.9740   0.9600
     0.9489   0.9405   0.9382   0.9055   0.9017   0.8897   0.8866   0.8552
     0.8415   0.8355   0.8328   0.8257   0.8205   0.8110   0.7878   0.7354
     0.7201   0.7123   0.7086   0.6738   0.6720   0.6583   0.6538   0.6498
     0.6441   0.6392   0.6324   0.6296   0.6215   0.6167   0.6122   0.6006
     0.5883   0.5853   0.5785   0.5646   0.4953   0.4676   0.1384   0.0591
     0.0487   0.0157   0.0058   0.0038   0.0015   0.0001   0.0000   0.0000
     0.0000   0.0000   0.0000   0.0000   0.0000   0.0000   0.0000   0.0000
     0.0000   0.0000   0.0000   0.0000   0.0000   0.0000   0.0000   0.0000
     0.0000   0.0000   0.0000   0.0000   0.0000   0.0000   0.0000

          k = 0.0000 0.2500 0.0000 ( 65257 PWs)   bands (ev):

   -92.3320 -92.2754 -92.1855 -92.1373 -92.0775 -92.0380 -92.0208 -91.8975
   -55.6852 -55.6616 -55.5434 -55.5330 -55.5247 -55.5198 -55.4809 -55.4552
   -55.4388 -55.4370 -55.4269 -55.3861 -55.3686 -55.3294 -55.3113 -55.2772
   -55.2726 -55.2270 -55.2241 -55.2238 -55.2153 -55.1721 -55.1516 -55.0647
   -30.9183 -30.8994 -30.7587 -30.7189 -30.6721 -30.6321 -30.6202 -30.5087
   -29.4824 -29.4398 -29.4143 -29.3061 -22.2492 -14.6799 -14.6572 -14.5701
   -14.4358 -14.3213 -14.1497 -14.0032 -13.8231 -13.7950 -13.7730 -13.7686
   -13.7404 -13.6866 -13.6793 -13.6668 -13.6500 -13.6073 -13.4870 -13.4497
   -13.2879 -13.2752 -13.2175 -13.1838 -13.1436 -13.0994 -13.0617 -12.9837
   -12.9509 -12.9009 -12.8497 -12.7893 -12.7500 -12.7389 -12.7295 -12.6340
   -12.6114 -12.5949 -12.5758 -12.5470 -12.5387 -12.5130 -12.5048 -12.4842
   -12.4425 -12.4382 -12.4320 -12.4031 -12.2932 -12.2089 -12.0451 -11.8901
   -11.7744 -11.7223 -11.4627 -11.4193 -11.3918 -11.3633 -11.3466 -11.2997
   -11.2881 -11.2655 -11.2316 -11.1299 -11.0766 -11.0659  -5.8584  -3.1599
    -3.1438  -2.4426  -2.2196  -2.0829  -1.9006  -1.8570  -1.6922  -1.4760
    -1.3878  -1.3747  -1.3204  -1.2164  -1.2013  -1.1671  -1.1414  -1.0981
    -0.8994  -0.7719  -0.7594  -0.6847  -0.6724  -0.5675  -0.5364  -0.4817
    -0.4574  -0.4130  -0.3520  -0.3268  -0.2929  -0.2628  -0.2456  -0.2122
    -0.1396  -0.0866  -0.0329   0.0811   0.0979   0.1447   0.2654   0.2975
     0.3616   0.4126   0.4694   0.4881   0.5220   0.5791   0.8741   0.9620
     0.9913   1.0800   1.1234   1.1403   1.2709   1.2889   1.3850   1.4076
     1.4386   1.5536   1.6371   1.6683   1.6890   1.7040   1.7376   1.7979
     1.8231   1.8505   1.8999   1.9291   1.9592   2.0364   2.0653   2.1066
     2.1603   2.2127   2.2583   2.2767   2.3062   2.3326   2.4195   2.5503
     2.6216   2.6404   2.7230   2.7677   2.8050   2.8128   2.8769   2.9200
     2.9997   3.0342   3.0354   3.0525   3.1006   3.2309   3.2530   3.2847
     3.3047   3.3236   3.3329   3.3404   3.3486   3.3782   3.3802   3.3973
     3.4013   3.4147   3.4307   3.4403   3.4516   3.4743   3.4845   3.4892
     3.5246   3.5416   3.6020   3.9605   3.9801   4.2421   4.6124   4.7529
     4.9140   5.0856   5.4170   5.5378   5.8264   5.9044   6.1640   6.3168
     6.3386   6.4637   6.5310   6.7488   6.9126   7.0612   7.2516   7.5013
     7.5566   7.7341   7.8019   7.8632   7.9096   7.9535   8.0851   8.2082
     8.3050   8.3816   8.5286   8.5901   8.6336   8.6887   8.9671

     occupation numbers 
     1.0000   1.0000   1.0000   1.0000   1.0000   1.0000   1.0000   1.0000
     1.0000   1.0000   1.0000   1.0000   1.0000   1.0000   1.0000   1.0000
     1.0000   1.0000   1.0000   1.0000   1.0000   1.0000   1.0000   1.0000
     1.0000   1.0000   1.0000   1.0000   1.0000   1.0000   1.0000   1.0000
     1.0000   1.0000   1.0000   1.0000   1.0000   1.0000   1.0000   1.0000
     1.0000   1.0000   1.0000   1.0000   1.0000   1.0000   1.0000   1.0000
     1.0000   1.0000   1.0000   1.0000   1.0000   1.0000   1.0000   1.0000
     1.0000   1.0000   1.0000   1.0000   1.0000   1.0000   1.0000   1.0000
     1.0000   1.0000   1.0000   1.0000   1.0000   1.0000   1.0000   1.0000
     1.0000   1.0000   1.0000   1.0000   1.0000   1.0000   1.0000   1.0000
     1.0000   1.0000   1.0000   1.0000   1.0000   1.0000   1.0000   1.0000
     1.0000   1.0000   1.0000   1.0000   1.0000   1.0000   1.0000   1.0000
     1.0000   1.0000   1.0000   1.0000   1.0000   1.0000   1.0000   1.0000
     1.0000   1.0000   1.0000   1.0000   1.0000   1.0000   1.0000   1.0000
     1.0000   1.0000   1.0000   1.0000   1.0000   1.0000   1.0000   1.0000
     1.0000   1.0000   1.0000   1.0000   1.0000   1.0000   1.0000   1.0000
     1.0000   1.0000   1.0000   1.0000   1.0000   1.0000   1.0000   1.0000
     1.0000   1.0000   1.0000   1.0000   1.0000   1.0000   1.0000   1.0000
     1.0000   1.0000   1.0000   1.0000   1.0000   1.0000   1.0000   1.0000
     1.0000   1.0000   1.0000   1.0000   1.0000   1.0000   1.0000   1.0000
     1.0000   0.9999   0.9999   0.9999   0.9998   0.9998   0.9997   0.9997
     0.9996   0.9993   0.9989   0.9987   0.9985   0.9984   0.9982   0.9976
     0.9973   0.9969   0.9961   0.9956   0.9950   0.9931   0.9922   0.9908
     0.9886   0.9861   0.9835   0.9824   0.9804   0.9784   0.9708   0.9554
     0.9445   0.9412   0.9254   0.9156   0.9067   0.9048   0.8877   0.8749
     0.8489   0.8366   0.8361   0.8298   0.8111   0.7544   0.7440   0.7286
     0.7187   0.7091   0.7044   0.7005   0.6963   0.6808   0.6797   0.6705
     0.6684   0.6612   0.6524   0.6471   0.6409   0.6282   0.6225   0.6198
     0.5996   0.5899   0.5547   0.3465   0.3358   0.2081   0.0865   0.0580
     0.0351   0.0194   0.0053   0.0031   0.0008   0.0005   0.0001   0.0000
     0.0000   0.0000   0.0000   0.0000   0.0000   0.0000   0.0000   0.0000
     0.0000   0.0000   0.0000   0.0000   0.0000   0.0000   0.0000   0.0000
     0.0000   0.0000   0.0000   0.0000   0.0000   0.0000   0.0000

          k = 0.0000-0.5000 0.0000 ( 65180 PWs)   bands (ev):

   -92.3320 -92.2754 -92.1855 -92.1373 -92.0775 -92.0380 -92.0208 -91.8975
   -55.6852 -55.6616 -55.5434 -55.5330 -55.5247 -55.5198 -55.4809 -55.4552
   -55.4388 -55.4370 -55.4269 -55.3861 -55.3686 -55.3294 -55.3113 -55.2772
   -55.2726 -55.2270 -55.2241 -55.2238 -55.2153 -55.1721 -55.1516 -55.0647
   -30.9181 -30.8993 -30.7589 -30.7185 -30.6722 -30.6325 -30.6200 -30.5089
   -29.4818 -29.4394 -29.4150 -29.3064 -22.2492 -14.6492 -14.5999 -14.5484
   -14.4235 -14.3342 -14.1978 -14.0519 -13.9289 -13.7932 -13.7713 -13.7286
   -13.6868 -13.6739 -13.6307 -13.6097 -13.5624 -13.5484 -13.5189 -13.4841
   -13.4640 -13.4169 -13.2201 -13.1661 -13.1525 -13.0937 -13.0681 -12.9973
   -12.9747 -12.9279 -12.9254 -12.8602 -12.7509 -12.7378 -12.7180 -12.6570
   -12.6145 -12.5991 -12.5707 -12.5411 -12.5222 -12.5057 -12.4814 -12.4358
   -12.4255 -12.4002 -12.3462 -12.2927 -12.1563 -12.1466 -11.9832 -11.9653
   -11.8884 -11.8414 -11.4163 -11.4143 -11.3869 -11.3487 -11.3147 -11.3036
   -11.2614 -11.2575 -11.2135 -11.1513 -11.1374 -11.1230  -5.8584  -3.1600
    -3.1437  -2.2283  -2.1679  -2.0168  -1.9438  -1.6653  -1.5805  -1.4528
    -1.3139  -1.2806  -1.2584  -1.1793  -1.1484  -1.0670  -1.0316  -0.9564
    -0.9143  -0.8746  -0.8479  -0.7944  -0.7540  -0.7098  -0.6722  -0.6380
    -0.6046  -0.4937  -0.4485  -0.4170  -0.4162  -0.3299  -0.2967  -0.2738
    -0.2258  -0.1435  -0.0732   0.0037   0.0311   0.1384   0.1882   0.3349
     0.3555   0.3932   0.4436   0.5691   0.6137   0.7571   0.8211   0.8292
     0.9575   0.9923   1.0955   1.2353   1.3433   1.3738   1.4061   1.4145
     1.4520   1.4725   1.5103   1.5282   1.5379   1.6454   1.7050   1.7294
     1.7560   2.0122   2.0491   2.0712   2.1692   2.1885   2.2194   2.2380
     2.2711   2.2797   2.2877   2.3239   2.3627   2.3895   2.4137   2.4298
     2.4597   2.5135   2.5911   2.6164   2.8032   2.9671   2.9741   2.9916
     3.0265   3.0325   3.0400   3.0493   3.0905   3.1061   3.1107   3.1652
     3.1856   3.2606   3.2740   3.3411   3.3515   3.3753   3.3762   3.3969
     3.3995   3.4029   3.4073   3.4117   3.4241   3.4448   3.4450   3.5100
     3.5156   3.5311   3.5854   4.4815   4.5040   4.5322   4.5943   4.9562
     5.1221   5.2329   5.4588   5.5064   5.5821   5.8292   5.9485   5.9973
     6.2406   6.3765   6.4036   6.4350   7.0271   7.0923   7.1410   7.4085
     7.5733   7.6148   7.6848   8.0441   8.0732   8.1414   8.2199   8.2900
     8.4386   8.6071   8.6638   8.7171   8.7625   8.8504   8.9772

     occupation numbers 
     1.0000   1.0000   1.0000   1.0000   1.0000   1.0000   1.0000   1.0000
     1.0000   1.0000   1.0000   1.0000   1.0000   1.0000   1.0000   1.0000
     1.0000   1.0000   1.0000   1.0000   1.0000   1.0000   1.0000   1.0000
     1.0000   1.0000   1.0000   1.0000   1.0000   1.0000   1.0000   1.0000
     1.0000   1.0000   1.0000   1.0000   1.0000   1.0000   1.0000   1.0000
     1.0000   1.0000   1.0000   1.0000   1.0000   1.0000   1.0000   1.0000
     1.0000   1.0000   1.0000   1.0000   1.0000   1.0000   1.0000   1.0000
     1.0000   1.0000   1.0000   1.0000   1.0000   1.0000   1.0000   1.0000
     1.0000   1.0000   1.0000   1.0000   1.0000   1.0000   1.0000   1.0000
     1.0000   1.0000   1.0000   1.0000   1.0000   1.0000   1.0000   1.0000
     1.0000   1.0000   1.0000   1.0000   1.0000   1.0000   1.0000   1.0000
     1.0000   1.0000   1.0000   1.0000   1.0000   1.0000   1.0000   1.0000
     1.0000   1.0000   1.0000   1.0000   1.0000   1.0000   1.0000   1.0000
     1.0000   1.0000   1.0000   1.0000   1.0000   1.0000   1.0000   1.0000
     1.0000   1.0000   1.0000   1.0000   1.0000   1.0000   1.0000   1.0000
     1.0000   1.0000   1.0000   1.0000   1.0000   1.0000   1.0000   1.0000
     1.0000   1.0000   1.0000   1.0000   1.0000   1.0000   1.0000   1.0000
     1.0000   1.0000   1.0000   1.0000   1.0000   1.0000   1.0000   1.0000
     1.0000   1.0000   1.0000   1.0000   1.0000   1.0000   1.0000   1.0000
     1.0000   1.0000   1.0000   1.0000   1.0000   1.0000   1.0000   1.0000
     1.0000   1.0000   0.9999   0.9999   0.9998   0.9997   0.9997   0.9996
     0.9996   0.9995   0.9994   0.9994   0.9993   0.9988   0.9984   0.9982
     0.9980   0.9938   0.9927   0.9920   0.9882   0.9873   0.9858   0.9847
     0.9827   0.9822   0.9817   0.9791   0.9760   0.9737   0.9714   0.9698
     0.9667   0.9603   0.9493   0.9453   0.9072   0.8600   0.8577   0.8517
     0.8394   0.8372   0.8345   0.8310   0.8151   0.8089   0.8070   0.7841
     0.7751   0.7403   0.7339   0.7002   0.6948   0.6823   0.6818   0.6708
     0.6693   0.6675   0.6651   0.6628   0.6560   0.6446   0.6445   0.6080
     0.6048   0.5959   0.5644   0.1213   0.1147   0.1068   0.0908   0.0305
     0.0170   0.0112   0.0044   0.0036   0.0025   0.0008   0.0004   0.0003
     0.0001   0.0000   0.0000   0.0000   0.0000   0.0000   0.0000   0.0000
     0.0000   0.0000   0.0000   0.0000   0.0000   0.0000   0.0000   0.0000
     0.0000   0.0000   0.0000   0.0000   0.0000   0.0000   0.0000

          k = 0.2500 0.2500 0.0000 ( 65198 PWs)   bands (ev):

   -92.3320 -92.2754 -92.1855 -92.1373 -92.0775 -92.0380 -92.0208 -91.8975
   -55.6852 -55.6616 -55.5434 -55.5330 -55.5247 -55.5198 -55.4809 -55.4552
   -55.4388 -55.4370 -55.4269 -55.3861 -55.3686 -55.3294 -55.3113 -55.2772
   -55.2726 -55.2270 -55.2241 -55.2238 -55.2153 -55.1721 -55.1516 -55.0647
   -30.9165 -30.9012 -30.7583 -30.7186 -30.6724 -30.6319 -30.6206 -30.5089
   -29.4814 -29.4408 -29.4139 -29.3065 -22.2492 -14.6522 -14.6217 -14.5423
   -14.4254 -14.3125 -14.1885 -14.1080 -13.9082 -13.7714 -13.7465 -13.7357
   -13.7006 -13.6708 -13.6497 -13.6292 -13.5980 -13.5665 -13.4790 -13.4640
   -13.3029 -13.2900 -13.2599 -13.2398 -13.2054 -13.1509 -13.1076 -13.0664
   -12.9701 -12.9318 -12.8716 -12.7843 -12.7435 -12.6956 -12.6790 -12.6614
   -12.6241 -12.5937 -12.5890 -12.5684 -12.5551 -12.5100 -12.4776 -12.4573
   -12.4251 -12.4070 -12.3840 -12.3550 -12.2181 -12.0980 -12.0935 -11.9193
   -11.8055 -11.7721 -11.4348 -11.4030 -11.3923 -11.3847 -11.3228 -11.2874
   -11.2811 -11.2459 -11.2376 -11.1465 -11.1049 -11.0874  -5.8584  -3.1598
    -3.1439  -2.3046  -2.0939  -1.9771  -1.8837  -1.7612  -1.6955  -1.5011
    -1.3533  -1.3328  -1.3068  -1.2114  -1.1767  -1.0837  -1.0575  -1.0072
    -0.8742  -0.8275  -0.7560  -0.7097  -0.6666  -0.6408  -0.6155  -0.5739
    -0.5580  -0.4686  -0.4186  -0.3577  -0.3075  -0.2775  -0.2236  -0.2137
    -0.1508  -0.1009  -0.0503  -0.0103   0.0704   0.1257   0.1542   0.1968
     0.2501   0.3151   0.3598   0.3839   0.4555   0.4916   0.7679   0.9118
     0.9533   1.0011   1.0502   1.0988   1.1601   1.2184   1.2542   1.5272
     1.6004   1.6746   1.7017   1.7425   1.7811   1.8148   1.8515   1.8695
     1.8980   1.9357   1.9460   1.9656   2.0034   2.0460   2.0869   2.1329
     2.1743   2.1831   2.2175   2.2528   2.3069   2.3346   2.4616   2.5298
     2.5709   2.6003   2.6551   2.7291   2.7588   2.7954   2.8171   2.8305
     2.9434   2.9776   3.0357   3.0658   3.0976   3.2419   3.2593   3.2661
     3.2812   3.2949   3.3083   3.3209   3.3288   3.3384   3.3520   3.3631
     3.3835   3.3897   3.4009   3.4214   3.4354   3.4453   3.4760   3.7781
     3.8699   3.9043   3.9722   3.9919   4.2102   4.3198   4.6504   4.8005
     4.9902   5.1347   5.3329   5.5887   5.9184   5.9414   5.9976   6.1303
     6.2084   6.2506   6.3473   6.4334   6.9095   7.0187   7.1041   7.1917
     7.7090   7.7902   7.8431   7.8939   8.0293   8.1391   8.2322   8.2816
     8.3601   8.4811   8.5405   8.6817   8.7281   8.7806   8.9707

     occupation numbers 
     1.0000   1.0000   1.0000   1.0000   1.0000   1.0000   1.0000   1.0000
     1.0000   1.0000   1.0000   1.0000   1.0000   1.0000   1.0000   1.0000
     1.0000   1.0000   1.0000   1.0000   1.0000   1.0000   1.0000   1.0000
     1.0000   1.0000   1.0000   1.0000   1.0000   1.0000   1.0000   1.0000
     1.0000   1.0000   1.0000   1.0000   1.0000   1.0000   1.0000   1.0000
     1.0000   1.0000   1.0000   1.0000   1.0000   1.0000   1.0000   1.0000
     1.0000   1.0000   1.0000   1.0000   1.0000   1.0000   1.0000   1.0000
     1.0000   1.0000   1.0000   1.0000   1.0000   1.0000   1.0000   1.0000
     1.0000   1.0000   1.0000   1.0000   1.0000   1.0000   1.0000   1.0000
     1.0000   1.0000   1.0000   1.0000   1.0000   1.0000   1.0000   1.0000
     1.0000   1.0000   1.0000   1.0000   1.0000   1.0000   1.0000   1.0000
     1.0000   1.0000   1.0000   1.0000   1.0000   1.0000   1.0000   1.0000
     1.0000   1.0000   1.0000   1.0000   1.0000   1.0000   1.0000   1.0000
     1.0000   1.0000   1.0000   1.0000   1.0000   1.0000   1.0000   1.0000
     1.0000   1.0000   1.0000   1.0000   1.0000   1.0000   1.0000   1.0000
     1.0000   1.0000   1.0000   1.0000   1.0000   1.0000   1.0000   1.0000
     1.0000   1.0000   1.0000   1.0000   1.0000   1.0000   1.0000   1.0000
     1.0000   1.0000   1.0000   1.0000   1.0000   1.0000   1.0000   1.0000
     1.0000   1.0000   1.0000   1.0000   1.0000   1.0000   1.0000   1.0000
     1.0000   1.0000   1.0000   1.0000   1.0000   1.0000   1.0000   1.0000
     1.0000   1.0000   1.0000   0.9999   0.9999   0.9999   0.9999   0.9994
     0.9991   0.9986   0.9985   0.9981   0.9978   0.9974   0.9969   0.9966
     0.9962   0.9955   0.9953   0.9949   0.9940   0.9928   0.9915   0.9898
     0.9880   0.9876   0.9859   0.9839   0.9803   0.9783   0.9664   0.9581
     0.9524   0.9479   0.9386   0.9242   0.9177   0.9091   0.9037   0.9003
     0.8677   0.8565   0.8361   0.8248   0.8123   0.7492   0.7410   0.7377
     0.7303   0.7236   0.7169   0.7105   0.7065   0.7016   0.6945   0.6887
     0.6779   0.6746   0.6686   0.6575   0.6498   0.6444   0.6273   0.4507
     0.3973   0.3777   0.3401   0.3294   0.2219   0.1766   0.0779   0.0503
     0.0272   0.0162   0.0075   0.0025   0.0005   0.0004   0.0003   0.0001
     0.0001   0.0001   0.0000   0.0000   0.0000   0.0000   0.0000   0.0000
     0.0000   0.0000   0.0000   0.0000   0.0000   0.0000   0.0000   0.0000
     0.0000   0.0000   0.0000   0.0000   0.0000   0.0000   0.0000

          k = 0.2500-0.5000 0.0000 ( 65138 PWs)   bands (ev):

   -92.3320 -92.2754 -92.1855 -92.1373 -92.0775 -92.0380 -92.0208 -91.8975
   -55.6852 -55.6616 -55.5434 -55.5330 -55.5247 -55.5198 -55.4809 -55.4552
   -55.4388 -55.4370 -55.4269 -55.3861 -55.3686 -55.3294 -55.3113 -55.2772
   -55.2726 -55.2270 -55.2241 -55.2238 -55.2153 -55.1721 -55.1515 -55.0647
   -30.9163 -30.9011 -30.7585 -30.7182 -30.6726 -30.6322 -30.6203 -30.5092
   -29.4808 -29.4404 -29.4146 -29.3068 -22.2492 -14.6192 -14.5729 -14.5057
   -14.3923 -14.3579 -14.2376 -14.1526 -14.0244 -13.7712 -13.7097 -13.6626
   -13.6334 -13.6143 -13.5965 -13.5813 -13.5483 -13.5359 -13.4999 -13.4590
   -13.4443 -13.4101 -13.3039 -13.2557 -13.2227 -13.1763 -13.1278 -13.1063
   -13.0185 -12.9899 -12.8481 -12.7838 -12.7627 -12.6782 -12.6660 -12.6357
   -12.6230 -12.6055 -12.5857 -12.5616 -12.5531 -12.4965 -12.4807 -12.4614
   -12.4300 -12.4149 -12.2967 -12.2652 -12.1629 -12.1221 -11.9631 -11.9546
   -11.8824 -11.8429 -11.4103 -11.3984 -11.3874 -11.3600 -11.3287 -11.3001
   -11.2592 -11.2316 -11.2094 -11.1645 -11.1383 -11.1272  -5.8584  -3.1600
    -3.1439  -2.0872  -2.0201  -1.8909  -1.8128  -1.6859  -1.6009  -1.4773
    -1.3258  -1.2742  -1.2511  -1.1876  -1.1741  -1.0776  -1.0105  -0.9248
    -0.8782  -0.8684  -0.8031  -0.7637  -0.7265  -0.6797  -0.6432  -0.6080
    -0.5670  -0.5566  -0.5109  -0.4830  -0.4423  -0.4113  -0.3436  -0.2450
    -0.2036  -0.1276  -0.0643  -0.0180   0.0286   0.0520   0.0966   0.2614
     0.2739   0.3683   0.4149   0.4237   0.4684   0.4953   0.5395   0.5643
     0.6390   0.8961   0.9858   1.0629   1.1291   1.3830   1.4130   1.4999
     1.5270   1.6973   1.7269   1.7725   1.7966   1.8144   1.8338   1.8930
     1.9354   1.9753   2.0521   2.1331   2.1776   2.2014   2.2105   2.2491
     2.2618   2.2671   2.3117   2.3266   2.3429   2.3699   2.3967   2.4221
     2.4514   2.5114   2.5464   2.6229   2.7714   2.9209   2.9371   2.9542
     2.9797   3.0010   3.0280   3.0419   3.0579   3.0700   3.0867   3.1068
     3.1919   3.2394   3.2599   3.2616   3.2788   3.2993   3.3133   3.3318
     3.3388   3.3683   3.3808   3.3973   3.4062   3.4139   3.4265   3.9416
     3.9482   4.1093   4.1577   4.4977   4.5376   4.5449   4.6631   5.0238
     5.1478   5.2629   5.4658   5.5032   5.6221   5.6840   5.8805   5.9381
     6.0926   6.1096   6.3109   6.5052   6.5837   6.6537   7.1142   7.2625
     7.5525   7.6188   7.9638   8.0758   8.1792   8.2172   8.3405   8.4382
     8.4815   8.5950   8.6759   8.7907   8.8697   8.9269   8.9971

     occupation numbers 
     1.0000   1.0000   1.0000   1.0000   1.0000   1.0000   1.0000   1.0000
     1.0000   1.0000   1.0000   1.0000   1.0000   1.0000   1.0000   1.0000
     1.0000   1.0000   1.0000   1.0000   1.0000   1.0000   1.0000   1.0000
     1.0000   1.0000   1.0000   1.0000   1.0000   1.0000   1.0000   1.0000
     1.0000   1.0000   1.0000   1.0000   1.0000   1.0000   1.0000   1.0000
     1.0000   1.0000   1.0000   1.0000   1.0000   1.0000   1.0000   1.0000
     1.0000   1.0000   1.0000   1.0000   1.0000   1.0000   1.0000   1.0000
     1.0000   1.0000   1.0000   1.0000   1.0000   1.0000   1.0000   1.0000
     1.0000   1.0000   1.0000   1.0000   1.0000   1.0000   1.0000   1.0000
     1.0000   1.0000   1.0000   1.0000   1.0000   1.0000   1.0000   1.0000
     1.0000   1.0000   1.0000   1.0000   1.0000   1.0000   1.0000   1.0000
     1.0000   1.0000   1.0000   1.0000   1.0000   1.0000   1.0000   1.0000
     1.0000   1.0000   1.0000   1.0000   1.0000   1.0000   1.0000   1.0000
     1.0000   1.0000   1.0000   1.0000   1.0000   1.0000   1.0000   1.0000
     1.0000   1.0000   1.0000   1.0000   1.0000   1.0000   1.0000   1.0000
     1.0000   1.0000   1.0000   1.0000   1.0000   1.0000   1.0000   1.0000
     1.0000   1.0000   1.0000   1.0000   1.0000   1.0000   1.0000   1.0000
     1.0000   1.0000   1.0000   1.0000   1.0000   1.0000   1.0000   1.0000
     1.0000   1.0000   1.0000   1.0000   1.0000   1.0000   1.0000   1.0000
     1.0000   1.0000   1.0000   1.0000   1.0000   1.0000   1.0000   1.0000
     1.0000   1.0000   1.0000   1.0000   0.9999   0.9997   0.9996   0.9994
     0.9994   0.9985   0.9983   0.9978   0.9976   0.9974   0.9971   0.9963
     0.9955   0.9947   0.9926   0.9898   0.9879   0.9867   0.9862   0.9841
     0.9833   0.9830   0.9800   0.9789   0.9776   0.9754   0.9730   0.9706
     0.9676   0.9605   0.9559   0.9442   0.9148   0.8747   0.8696   0.8642
     0.8558   0.8485   0.8389   0.8338   0.8278   0.8232   0.8167   0.8086
     0.7723   0.7505   0.7407   0.7399   0.7315   0.7214   0.7144   0.7049
     0.7013   0.6860   0.6794   0.6705   0.6658   0.6616   0.6547   0.3569
     0.3532   0.2690   0.2458   0.1165   0.1053   0.1034   0.0752   0.0242
     0.0155   0.0099   0.0043   0.0036   0.0021   0.0016   0.0006   0.0004
     0.0002   0.0002   0.0001   0.0000   0.0000   0.0000   0.0000   0.0000
     0.0000   0.0000   0.0000   0.0000   0.0000   0.0000   0.0000   0.0000
     0.0000   0.0000   0.0000   0.0000   0.0000   0.0000   0.0000

          k =-0.5000-0.5000 0.0000 ( 65132 PWs)   bands (ev):

   -92.3320 -92.2754 -92.1855 -92.1373 -92.0775 -92.0380 -92.0208 -91.8975
   -55.6852 -55.6616 -55.5434 -55.5330 -55.5247 -55.5198 -55.4809 -55.4552
   -55.4388 -55.4370 -55.4269 -55.3861 -55.3686 -55.3294 -55.3113 -55.2772
   -55.2726 -55.2270 -55.2241 -55.2238 -55.2153 -55.1721 -55.1515 -55.0647
   -30.9140 -30.9034 -30.7581 -30.7179 -30.6730 -30.6320 -30.6206 -30.5095
   -29.4798 -29.4415 -29.4142 -29.3072 -22.2492 -14.5746 -14.5451 -14.4287
   -14.4175 -14.3234 -14.2851 -14.2550 -14.1230 -13.7712 -13.6230 -13.6133
   -13.5763 -13.5578 -13.5403 -13.5347 -13.4974 -13.4898 -13.4732 -13.4680
   -13.4505 -13.3721 -13.3667 -13.3418 -13.3229 -13.3034 -13.2062 -13.1955
   -13.0647 -13.0400 -12.8002 -12.7590 -12.6911 -12.6663 -12.6348 -12.6289
   -12.6246 -12.6171 -12.5972 -12.5735 -12.5567 -12.5001 -12.4869 -12.4739
   -12.4565 -12.4251 -12.2464 -12.2388 -12.1793 -12.1002 -11.9595 -11.9212
   -11.8832 -11.8431 -11.4067 -11.3944 -11.3765 -11.3598 -11.3251 -11.3078
   -11.2722 -11.2121 -11.1914 -11.1866 -11.1361 -11.1331  -5.8584  -3.1600
    -3.1441  -1.8646  -1.7876  -1.7759  -1.7043  -1.6655  -1.5868  -1.5193
    -1.3940  -1.2760  -1.2462  -1.2085  -1.1496  -1.0776  -1.0638  -0.9923
    -0.9496  -0.8340  -0.8079  -0.7582  -0.7255  -0.6618  -0.6194  -0.5988
    -0.5883  -0.5365  -0.4869  -0.4758  -0.3608  -0.3047  -0.2578  -0.2076
    -0.1851  -0.1740  -0.1354  -0.0947  -0.0632  -0.0455   0.0388   0.1039
     0.1550   0.1746   0.2515   0.2987   0.3196   0.3723   0.3857   0.4116
     0.4191   0.8633   0.9000   1.0152   1.0367   1.4187   1.4302   1.4635
     1.5015   1.7789   1.7989   1.8057   1.8414   1.9790   2.0749   2.1014
     2.1363   2.1454   2.1766   2.1851   2.2185   2.2237   2.2364   2.2464
     2.3071   2.3118   2.3381   2.3530   2.3677   2.3838   2.4202   2.4511
     2.4587   2.4947   2.5175   2.5943   2.6616   2.9345   2.9650   2.9823
     3.0038   3.0100   3.0272   3.0400   3.0538   3.0641   3.0792   3.0914
     3.1030   3.1161   3.1276   3.1933   3.1964   3.2173   3.2311   3.2424
     3.2604   3.2656   3.2757   3.3766   3.3809   3.4101   3.4194   4.3598
     4.3796   4.4176   4.4303   4.6861   4.7562   4.7860   5.0263   5.1394
     5.1592   5.2314   5.3560   5.4020   5.4405   5.5682   5.6775   5.7075
     5.9742   6.0279   6.1183   6.2750   6.5873   6.6641   6.7322   7.1893
     7.5062   7.5282   7.7112   8.2887   8.3089   8.3883   8.4310   8.5689
     8.6316   8.8154   8.8843   8.9027   8.9219   8.9674   9.0550

     occupation numbers 
     1.0000   1.0000   1.0000   1.0000   1.0000   1.0000   1.0000   1.0000
     1.0000   1.0000   1.0000   1.0000   1.0000   1.0000   1.0000   1.0000
     1.0000   1.0000   1.0000   1.0000   1.0000   1.0000   1.0000   1.0000
     1.0000   1.0000   1.0000   1.0000   1.0000   1.0000   1.0000   1.0000
     1.0000   1.0000   1.0000   1.0000   1.0000   1.0000   1.0000   1.0000
     1.0000   1.0000   1.0000   1.0000   1.0000   1.0000   1.0000   1.0000
[...]
     0.0000   0.0000   0.0000   0.0000   0.0000   0.0000   0.0000   0.0000
     0.0000   0.0000   0.0000   0.0000   0.0000   0.0000   0.0000

          k =-0.5000 0.0000 0.0000 ( 65180 PWs)   bands (ev):

   -92.3320 -92.2754 -92.1855 -92.1373 -92.0775 -92.0380 -92.0208 -91.8975
   -55.6852 -55.6616 -55.5434 -55.5330 -55.5247 -55.5198 -55.4809 -55.4552
   -55.4388 -55.4370 -55.4269 -55.3861 -55.3686 -55.3294 -55.3113 -55.2772
   -55.2726 -55.2270 -55.2241 -55.2238 -55.2153 -55.1721 -55.1516 -55.0647
   -30.9144 -30.9036 -30.7577 -30.7186 -30.6727 -30.6313 -30.6212 -30.5089
   -29.4810 -29.4421 -29.4129 -29.3066 -22.2492 -14.6522 -14.6056 -14.5418
   -14.4339 -14.3273 -14.1829 -14.0475 -13.9006 -13.7723 -13.7704 -13.7642
   -13.7435 -13.6953 -13.6328 -13.6004 -13.5582 -13.5471 -13.5300 -13.4774
   -13.4643 -13.3712 -13.1918 -13.1809 -13.1328 -13.1235 -13.0861 -13.0030
   -12.9831 -12.9104 -12.8871 -12.8847 -12.7147 -12.6953 -12.6849 -12.6766
   -12.6599 -12.6504 -12.5878 -12.5676 -12.5255 -12.5084 -12.4867 -12.4481
   -12.4197 -12.3906 -12.2811 -12.2721 -12.1823 -12.1468 -11.9880 -11.9693
   -11.8823 -11.8461 -11.4134 -11.3926 -11.3853 -11.3711 -11.3531 -11.3119
   -11.2482 -11.2305 -11.1977 -11.1541 -11.1446 -11.1285  -5.8584  -3.1596
    -3.1441  -2.2180  -2.1788  -2.0141  -1.9748  -1.6639  -1.5894  -1.4392
    -1.3206  -1.2827  -1.2373  -1.1886  -1.1619  -1.0407  -0.9949  -0.9823
    -0.8988  -0.8623  -0.8511  -0.8154  -0.7606  -0.6910  -0.6601  -0.6346
    -0.5390  -0.4901  -0.4428  -0.4099  -0.3875  -0.3598  -0.3104  -0.2855
    -0.2489  -0.1577  -0.0795  -0.0226   0.0430   0.2037   0.2419   0.3077
     0.3251   0.3904   0.4153   0.5490   0.5810   0.6201   0.8051   0.9029
     0.9497   1.0200   1.0918   1.2181   1.2327   1.3624   1.3914   1.4438
     1.4648   1.5090   1.5227   1.5685   1.5925   1.6552   1.7045   1.7511
     1.7594   2.0511   2.0641   2.0773   2.0897   2.2136   2.2222   2.2322
     2.2506   2.2776   2.2889   2.3268   2.3595   2.3788   2.4424   2.4464
     2.5040   2.5190   2.5822   2.6830   2.7872   2.8642   2.8799   2.9649
     2.9934   3.0185   3.0385   3.0768   3.0922   3.1024   3.1059   3.1329
     3.2016   3.2462   3.2874   3.3208   3.3654   3.3695   3.3704   3.3835
     3.3965   3.4093   3.4238   3.4266   3.4484   3.4532   3.4765   3.4963
     3.5007   3.6290   3.6349   4.4235   4.4688   4.5315   4.6723   4.9787
     5.1581   5.2052   5.3546   5.4881   5.6615   5.8818   5.9293   6.0054
     6.1984   6.3537   6.3893   6.4359   6.9662   7.0910   7.1850   7.4481
     7.5404   7.6765   7.6917   7.9443   8.0946   8.1341   8.2040   8.3005
     8.5393   8.6213   8.7038   8.7263   8.7659   8.8707   8.9757

     occupation numbers 
     1.0000   1.0000   1.0000   1.0000   1.0000   1.0000   1.0000   1.0000
     1.0000   1.0000   1.0000   1.0000   1.0000   1.0000   1.0000   1.0000
     1.0000   1.0000   1.0000   1.0000   1.0000   1.0000   1.0000   1.0000
     1.0000   1.0000   1.0000   1.0000   1.0000   1.0000   1.0000   1.0000
     1.0000   1.0000   1.0000   1.0000   1.0000   1.0000   1.0000   1.0000
     1.0000   1.0000   1.0000   1.0000   1.0000   1.0000   1.0000   1.0000
     1.0000   1.0000   1.0000   1.0000   1.0000   1.0000   1.0000   1.0000
     1.0000   1.0000   1.0000   1.0000   1.0000   1.0000   1.0000   1.0000
     1.0000   1.0000   1.0000   1.0000   1.0000   1.0000   1.0000   1.0000
     1.0000   1.0000   1.0000   1.0000   1.0000   1.0000   1.0000   1.0000
     1.0000   1.0000   1.0000   1.0000   1.0000   1.0000   1.0000   1.0000
     1.0000   1.0000   1.0000   1.0000   1.0000   1.0000   1.0000   1.0000
     1.0000   1.0000   1.0000   1.0000   1.0000   1.0000   1.0000   1.0000
     1.0000   1.0000   1.0000   1.0000   1.0000   1.0000   1.0000   1.0000
     1.0000   1.0000   1.0000   1.0000   1.0000   1.0000   1.0000   1.0000
     1.0000   1.0000   1.0000   1.0000   1.0000   1.0000   1.0000   1.0000
     1.0000   1.0000   1.0000   1.0000   1.0000   1.0000   1.0000   1.0000
     1.0000   1.0000   1.0000   1.0000   1.0000   1.0000   1.0000   1.0000
     1.0000   1.0000   1.0000   1.0000   1.0000   1.0000   1.0000   1.0000
     1.0000   1.0000   1.0000   1.0000   1.0000   1.0000   1.0000   1.0000
     1.0000   1.0000   0.9999   0.9999   0.9999   0.9997   0.9997   0.9996
     0.9995   0.9994   0.9994   0.9992   0.9991   0.9988   0.9984   0.9980
     0.9980   0.9927   0.9923   0.9918   0.9914   0.9861   0.9856   0.9851
     0.9840   0.9823   0.9816   0.9789   0.9763   0.9746   0.9685   0.9681
     0.9615   0.9596   0.9507   0.9335   0.9111   0.8912   0.8868   0.8607
     0.8511   0.8423   0.8350   0.8205   0.8145   0.8104   0.8090   0.7979
     0.7679   0.7472   0.7273   0.7105   0.6875   0.6853   0.6849   0.6779
     0.6710   0.6641   0.6562   0.6546   0.6426   0.6400   0.6270   0.6158
     0.6133   0.5388   0.5353   0.1395   0.1251   0.1070   0.0733   0.0283
     0.0149   0.0124   0.0069   0.0039   0.0017   0.0006   0.0005   0.0003
     0.0001   0.0000   0.0000   0.0000   0.0000   0.0000   0.0000   0.0000
     0.0000   0.0000   0.0000   0.0000   0.0000   0.0000   0.0000   0.0000
     0.0000   0.0000   0.0000   0.0000   0.0000   0.0000   0.0000

          k =-0.2500 0.2500 0.0000 ( 65198 PWs)   bands (ev):

   -92.3320 -92.2754 -92.1855 -92.1373 -92.0775 -92.0380 -92.0208 -91.8975
   -55.6852 -55.6616 -55.5434 -55.5330 -55.5247 -55.5198 -55.4809 -55.4552
   -55.4388 -55.4370 -55.4269 -55.3861 -55.3686 -55.3294 -55.3113 -55.2772
   -55.2726 -55.2270 -55.2241 -55.2238 -55.2153 -55.1721 -55.1516 -55.0647
   -30.9165 -30.9012 -30.7583 -30.7186 -30.6724 -30.6319 -30.6206 -30.5089
   -29.4814 -29.4408 -29.4139 -29.3065 -22.2492 -14.6538 -14.6204 -14.5408
   -14.4233 -14.3189 -14.1933 -14.0997 -13.8996 -13.7716 -13.7541 -13.7246
   -13.7135 -13.6672 -13.6413 -13.6266 -13.6181 -13.5687 -13.4753 -13.4642
   -13.3125 -13.2852 -13.2600 -13.2370 -13.2074 -13.1366 -13.0986 -13.0760
   -12.9712 -12.9374 -12.8652 -12.7883 -12.7452 -12.6834 -12.6794 -12.6506
   -12.6292 -12.5946 -12.5881 -12.5743 -12.5671 -12.5121 -12.4740 -12.4600
   -12.4334 -12.4111 -12.3968 -12.3330 -12.2047 -12.1103 -12.0833 -11.9250
   -11.8066 -11.7700 -11.4341 -11.4122 -11.3853 -11.3728 -11.3324 -11.2972
   -11.2745 -11.2525 -11.2302 -11.1463 -11.1002 -11.0907  -5.8584  -3.1598
    -3.1439  -2.3030  -2.0929  -1.9727  -1.8856  -1.7654  -1.6981  -1.4988
    -1.3499  -1.3306  -1.3048  -1.2119  -1.1756  -1.0836  -1.0508  -1.0247
    -0.8801  -0.8252  -0.7590  -0.7296  -0.6705  -0.6459  -0.6058  -0.5767
    -0.5370  -0.4749  -0.4276  -0.3692  -0.2987  -0.2736  -0.2203  -0.1915
    -0.1472  -0.0922  -0.0524  -0.0047   0.0887   0.1272   0.1337   0.1831
     0.2480   0.3153   0.3625   0.3885   0.4575   0.4904   0.7498   0.9131
     0.9612   0.9961   1.0524   1.0963   1.1658   1.2243   1.2522   1.5346
     1.6519   1.6904   1.7201   1.7307   1.7724   1.7910   1.8339   1.8645
     1.8817   1.9077   1.9455   1.9584   2.0071   2.0208   2.0668   2.1439
     2.1644   2.1833   2.2228   2.2492   2.2898   2.3402   2.4510   2.5588
     2.5961   2.6376   2.6599   2.7272   2.7710   2.7972   2.8187   2.8411
     2.9438   2.9762   3.0353   3.0659   3.0979   3.2483   3.2572   3.2708
     3.2816   3.2916   3.3048   3.3105   3.3290   3.3366   3.3533   3.3624
     3.3755   3.3846   3.3911   3.4229   3.4349   3.4444   3.4776   3.7711
     3.8523   3.9085   3.9802   3.9952   4.1950   4.3284   4.6492   4.8013
     4.9863   5.1379   5.3421   5.5858   5.9275   5.9382   5.9949   6.1334
     6.2052   6.2538   6.3551   6.4203   6.9311   7.0176   7.0896   7.1720
     7.7111   7.8133   7.8519   7.8958   7.9914   8.1862   8.2196   8.2583
     8.3783   8.4622   8.5481   8.6853   8.7283   8.7849   8.9581

     occupation numbers 
     1.0000   1.0000   1.0000   1.0000   1.0000   1.0000   1.0000   1.0000
     1.0000   1.0000   1.0000   1.0000   1.0000   1.0000   1.0000   1.0000
     1.0000   1.0000   1.0000   1.0000   1.0000   1.0000   1.0000   1.0000
     1.0000   1.0000   1.0000   1.0000   1.0000   1.0000   1.0000   1.0000
     1.0000   1.0000   1.0000   1.0000   1.0000   1.0000   1.0000   1.0000
     1.0000   1.0000   1.0000   1.0000   1.0000   1.0000   1.0000   1.0000
     1.0000   1.0000   1.0000   1.0000   1.0000   1.0000   1.0000   1.0000
     1.0000   1.0000   1.0000   1.0000   1.0000   1.0000   1.0000   1.0000
     1.0000   1.0000   1.0000   1.0000   1.0000   1.0000   1.0000   1.0000
     1.0000   1.0000   1.0000   1.0000   1.0000   1.0000   1.0000   1.0000
     1.0000   1.0000   1.0000   1.0000   1.0000   1.0000   1.0000   1.0000
     1.0000   1.0000   1.0000   1.0000   1.0000   1.0000   1.0000   1.0000
     1.0000   1.0000   1.0000   1.0000   1.0000   1.0000   1.0000   1.0000
     1.0000   1.0000   1.0000   1.0000   1.0000   1.0000   1.0000   1.0000
     1.0000   1.0000   1.0000   1.0000   1.0000   1.0000   1.0000   1.0000
     1.0000   1.0000   1.0000   1.0000   1.0000   1.0000   1.0000   1.0000
     1.0000   1.0000   1.0000   1.0000   1.0000   1.0000   1.0000   1.0000
     1.0000   1.0000   1.0000   1.0000   1.0000   1.0000   1.0000   1.0000
     1.0000   1.0000   1.0000   1.0000   1.0000   1.0000   1.0000   1.0000
     1.0000   1.0000   1.0000   1.0000   1.0000   1.0000   1.0000   1.0000
     1.0000   1.0000   1.0000   0.9999   0.9999   0.9999   0.9999   0.9993
     0.9988   0.9985   0.9983   0.9982   0.9978   0.9976   0.9971   0.9967
     0.9964   0.9960   0.9953   0.9950   0.9939   0.9935   0.9922   0.9893
     0.9885   0.9876   0.9856   0.9841   0.9815   0.9778   0.9676   0.9542
     0.9486   0.9417   0.9378   0.9246   0.9149   0.9087   0.9033   0.8975
     0.8676   0.8570   0.8362   0.8247   0.8122   0.7462   0.7420   0.7354
     0.7301   0.7252   0.7186   0.7158   0.7064   0.7025   0.6938   0.6891
     0.6822   0.6774   0.6739   0.6567   0.6501   0.6449   0.6263   0.4548
     0.4074   0.3754   0.3357   0.3277   0.2287   0.1733   0.0782   0.0502
     0.0276   0.0160   0.0072   0.0025   0.0005   0.0004   0.0003   0.0001
     0.0001   0.0001   0.0000   0.0000   0.0000   0.0000   0.0000   0.0000
     0.0000   0.0000   0.0000   0.0000   0.0000   0.0000   0.0000   0.0000
     0.0000   0.0000   0.0000   0.0000   0.0000   0.0000   0.0000

          k =-0.5000 0.2500 0.0000 ( 65138 PWs)   bands (ev):

   -92.3320 -92.2754 -92.1855 -92.1373 -92.0775 -92.0380 -92.0208 -91.8975
   -55.6852 -55.6616 -55.5434 -55.5330 -55.5247 -55.5198 -55.4809 -55.4552
   -55.4388 -55.4370 -55.4269 -55.3861 -55.3686 -55.3294 -55.3113 -55.2772
   -55.2726 -55.2270 -55.2241 -55.2238 -55.2153 -55.1721 -55.1516 -55.0647
   -30.9142 -30.9035 -30.7579 -30.7182 -30.6728 -30.6316 -30.6209 -30.5092
   -29.4804 -29.4418 -29.4135 -29.3069 -22.2492 -14.6203 -14.5785 -14.4991
   -14.3998 -14.3561 -14.2295 -14.1493 -14.0170 -13.7713 -13.7046 -13.6752
   -13.6631 -13.6212 -13.6017 -13.5723 -13.5428 -13.5316 -13.5090 -13.4676
   -13.4559 -13.3585 -13.2761 -13.2418 -13.2251 -13.2155 -13.1442 -13.1092
   -13.0250 -12.9632 -12.8423 -12.8051 -12.7097 -12.6733 -12.6617 -12.6567
   -12.6296 -12.6198 -12.5960 -12.5823 -12.5560 -12.5017 -12.4727 -12.4656
   -12.4305 -12.4103 -12.2634 -12.2560 -12.1805 -12.1222 -11.9649 -11.9574
   -11.8784 -11.8459 -11.4064 -11.3939 -11.3797 -11.3677 -11.3469 -11.3166
   -11.2353 -11.2270 -11.2033 -11.1684 -11.1402 -11.1309  -5.8584  -3.1598
    -3.1441  -2.0761  -2.0335  -1.8840  -1.8418  -1.6830  -1.6082  -1.4633
    -1.3269  -1.2718  -1.2438  -1.2047  -1.1645  -1.0849  -0.9700  -0.9136
    -0.8897  -0.8653  -0.7918  -0.7588  -0.7237  -0.7031  -0.6431  -0.6162
    -0.5750  -0.5395  -0.5110  -0.4544  -0.4277  -0.3854  -0.3524  -0.2491
    -0.2223  -0.1408  -0.0727  -0.0439   0.0113   0.1009   0.1319   0.2338
     0.2660   0.3250   0.3750   0.3922   0.4793   0.5070   0.5366   0.5956
     0.6333   0.9317   0.9857   1.0646   1.0830   1.3699   1.4232   1.5035
     1.5247   1.7088   1.7458   1.7827   1.7981   1.8164   1.8342   1.9017
     1.9443   1.9814   2.0074   2.1251   2.1581   2.1977   2.2104   2.2469
     2.2723   2.2851   2.3033   2.3234   2.3473   2.3930   2.4143   2.4444
     2.4682   2.4941   2.5605   2.6760   2.7818   2.8094   2.8787   2.9202
     2.9809   3.0152   3.0247   3.0381   3.0579   3.0898   3.0979   3.1178
     3.2014   3.2430   3.2551   3.2630   3.2840   3.3068   3.3196   3.3333
     3.3475   3.3662   3.3793   3.3905   3.3985   3.4086   3.4202   3.9422
     3.9855   4.1398   4.1623   4.4321   4.4961   4.5467   4.7593   5.0423
     5.1645   5.2261   5.3594   5.5050   5.7024   5.7761   5.8154   5.9444
     6.0547   6.1059   6.3233   6.4624   6.5883   6.6457   7.1440   7.2944
     7.5183   7.6045   7.9751   8.0737   8.1826   8.2391   8.3285   8.4428
     8.4927   8.5778   8.6792   8.7913   8.8669   8.9216   8.9940

     occupation numbers 
     1.0000   1.0000   1.0000   1.0000   1.0000   1.0000   1.0000   1.0000
     1.0000   1.0000   1.0000   1.0000   1.0000   1.0000   1.0000   1.0000
     1.0000   1.0000   1.0000   1.0000   1.0000   1.0000   1.0000   1.0000
     1.0000   1.0000   1.0000   1.0000   1.0000   1.0000   1.0000   1.0000
     1.0000   1.0000   1.0000   1.0000   1.0000   1.0000   1.0000   1.0000
     1.0000   1.0000   1.0000   1.0000   1.0000   1.0000   1.0000   1.0000
     1.0000   1.0000   1.0000   1.0000   1.0000   1.0000   1.0000   1.0000
     1.0000   1.0000   1.0000   1.0000   1.0000   1.0000   1.0000   1.0000
     1.0000   1.0000   1.0000   1.0000   1.0000   1.0000   1.0000   1.0000
     1.0000   1.0000   1.0000   1.0000   1.0000   1.0000   1.0000   1.0000
     1.0000   1.0000   1.0000   1.0000   1.0000   1.0000   1.0000   1.0000
     1.0000   1.0000   1.0000   1.0000   1.0000   1.0000   1.0000   1.0000
     1.0000   1.0000   1.0000   1.0000   1.0000   1.0000   1.0000   1.0000
     1.0000   1.0000   1.0000   1.0000   1.0000   1.0000   1.0000   1.0000
     1.0000   1.0000   1.0000   1.0000   1.0000   1.0000   1.0000   1.0000
     1.0000   1.0000   1.0000   1.0000   1.0000   1.0000   1.0000   1.0000
     1.0000   1.0000   1.0000   1.0000   1.0000   1.0000   1.0000   1.0000
     1.0000   1.0000   1.0000   1.0000   1.0000   1.0000   1.0000   1.0000
     1.0000   1.0000   1.0000   1.0000   1.0000   1.0000   1.0000   1.0000
     1.0000   1.0000   1.0000   1.0000   1.0000   1.0000   1.0000   1.0000
     1.0000   1.0000   1.0000   1.0000   0.9999   0.9997   0.9996   0.9994
     0.9994   0.9984   0.9981   0.9977   0.9976   0.9974   0.9971   0.9961
     0.9953   0.9945   0.9939   0.9901   0.9887   0.9869   0.9862   0.9842
     0.9827   0.9818   0.9806   0.9791   0.9773   0.9734   0.9714   0.9683
     0.9657   0.9627   0.9539   0.9348   0.9123   0.9056   0.8871   0.8749
     0.8554   0.8435   0.8401   0.8352   0.8278   0.8154   0.8122   0.8041
     0.7680   0.7487   0.7430   0.7392   0.7290   0.7176   0.7111   0.7042
     0.6968   0.6871   0.6802   0.6742   0.6699   0.6645   0.6581   0.3565
     0.3329   0.2543   0.2437   0.1367   0.1170   0.1029   0.0569   0.0227
     0.0145   0.0115   0.0067   0.0036   0.0014   0.0010   0.0008   0.0004
     0.0002   0.0002   0.0000   0.0000   0.0000   0.0000   0.0000   0.0000
     0.0000   0.0000   0.0000   0.0000   0.0000   0.0000   0.0000   0.0000
     0.0000   0.0000   0.0000   0.0000   0.0000   0.0000   0.0000

     the Fermi energy is     3.6946 ev

!    total energy              =   -4482.97136935 Ry
     estimated scf accuracy    <          9.4E-09 Ry
     smearing contrib. (-TS)   =      -1.17260315 Ry
     internal energy E=F+TS    =   -4481.79876619 Ry

     The total energy is F=E-TS. E is the sum of the following terms:
     one-electron contribution =  -20252.83351017 Ry
     hartree contribution      =   10266.17459377 Ry
     xc contribution           =    -701.58111253 Ry
     ewald contribution        =    6492.09782328 Ry
     one-center paw contrib.   =    -285.65656055 Ry
      -> PAW hartree energy AE =      25.18497030 Ry
      -> PAW hartree energy PS =     -25.06866773 Ry
      -> PAW xc energy AE      =     -16.52055527 Ry
      -> PAW xc energy PS      =       6.88019309 Ry
      -> total E_H with PAW    =   10266.29089634 Ry
      -> total E_XC with PAW   =    -711.22147470 Ry

     convergence has been achieved in  51 iterations

     Writing all to output data dir /bsuhome/zayahcortright/scratch/pwscf.save/
 
     init_run     :      8.72s CPU      9.54s WALL (       1 calls)
     electrons    :    788.26s CPU    801.21s WALL (       1 calls)

     Called by init_run:
     wfcinit      :      6.53s CPU      6.73s WALL (       1 calls)
     wfcinit:atom :      0.05s CPU      0.06s WALL (       5 calls)
     wfcinit:wfcr :      6.19s CPU      6.35s WALL (       5 calls)
     potinit      :      0.16s CPU      0.18s WALL (       1 calls)
     hinit0       :      0.77s CPU      1.26s WALL (       1 calls)

     Called by electrons:
     c_bands      :    626.40s CPU    631.68s WALL (      51 calls)
     sum_band     :    119.43s CPU    123.79s WALL (      51 calls)
     v_of_rho     :      5.63s CPU      5.93s WALL (      52 calls)
     v_h          :      0.50s CPU      0.51s WALL (      52 calls)
     v_xc         :      5.13s CPU      5.43s WALL (      52 calls)
     newd         :     22.06s CPU     24.69s WALL (      52 calls)
     PAW_pot      :      1.69s CPU      1.71s WALL (      52 calls)
     mix_rho      :     12.73s CPU     12.99s WALL (      51 calls)

     Called by c_bands:
     init_us_2    :      7.56s CPU      7.62s WALL (     515 calls)
     init_us_2:cp :      7.55s CPU      7.62s WALL (     515 calls)
     cegterg      :    590.36s CPU    595.34s WALL (     255 calls)

     Called by sum_band:
     sum_band:wei :      0.35s CPU      0.36s WALL (      51 calls)
     sum_band:loo :     96.22s CPU     96.97s WALL (      51 calls)
     sum_band:buf :      1.74s CPU      1.77s WALL (     255 calls)
     sum_band:ini :      3.61s CPU      3.62s WALL (     255 calls)
     sum_band:cal :     21.39s CPU     21.45s WALL (     255 calls)
     sum_band:bec :      0.62s CPU      0.63s WALL (     255 calls)
     addusdens    :     18.71s CPU     22.28s WALL (      51 calls)
                                        0.00s GPU  (      51 calls)
     addusd:skk   :      0.37s CPU      0.74s WALL (     204 calls)
                                        0.00s GPU  (     204 calls)

     Called by *egterg:
     cdiaghg      :     66.43s CPU     66.69s WALL (    1508 calls)
     cegterg:over :     44.41s CPU     44.56s WALL (    1253 calls)
     cegterg:upda :     32.54s CPU     32.91s WALL (    1253 calls)
     cegterg:last :     67.52s CPU     67.72s WALL (     474 calls)
     cdiaghg:chol :      3.78s CPU      3.81s WALL (    1508 calls)
     cdiaghg:inve :      3.98s CPU      3.99s WALL (    1508 calls)
     cdiaghg:para :      8.40s CPU      8.44s WALL (    3016 calls)
     h_psi        :    316.25s CPU    319.20s WALL (    1513 calls)
     s_psi        :     45.52s CPU     45.65s WALL (    1513 calls)
     g_psi        :      1.22s CPU      1.23s WALL (    1253 calls)

     Called by h_psi:
     h_psi:calbec :     49.62s CPU     49.81s WALL (    1513 calls)
     vloc_psi     :    218.27s CPU    220.46s WALL (    1513 calls)
     add_vuspsi   :     44.85s CPU     45.00s WALL (    1513 calls)

     General routines
     calbec       :     71.00s CPU     71.26s WALL (    1768 calls)
     fft          :      6.75s CPU      6.80s WALL (     674 calls)
     ffts         :      4.81s CPU      4.85s WALL (    5393 calls)
     fftw         :    187.39s CPU    189.01s WALL (  351845 calls)
     interpolate  :      0.41s CPU      0.42s WALL (      52 calls)
 
     Parallel routines

     PAW routines
     PAW_pot      :      1.69s CPU      1.71s WALL (      52 calls)
 
     PWSCF        :  13m18.72s CPU  13m35.41s WALL

 
   This run was terminated on:  15:43:43  20Jun2024            

=------------------------------------------------------------------------------=
   JOB DONE.
=------------------------------------------------------------------------------=
