
     Program PWSCF v.7.2 starts on 21Jun2024 at 22: 4:51 

     This program is part of the open-source Quantum ESPRESSO suite
     for quantum simulation of materials; please cite
         "P. Giannozzi et al., J. Phys.:Condens. Matter 21 395502 (2009);
         "P. Giannozzi et al., J. Phys.:Condens. Matter 29 465901 (2017);
         "P. Giannozzi et al., J. Chem. Phys. 152 154105 (2020);
          URL http://www.quantum-espresso.org", 
     in publications or presentations arising from this work. More details at
     http://www.quantum-espresso.org/quote

     Parallel version (MPI & OpenMP), running on      48 processor cores
     Number of MPI processes:                48
     Threads/MPI process:                     1

     MPI processes distributed on     1 nodes
     60566 MiB available memory on the printing compute node when the environment starts
 
     Reading input from espresso.pwi
Warning: card &CELL ignored
Warning: card / ignored
Warning: card &FCP ignored
Warning: card / ignored
Warning: card &RISM ignored
Warning: card / ignored

     Current dimensions of program PWSCF are:
     Max number of different atomic species (ntypx) = 10
     Max number of k-points (npk) =  40000
     Max angular momentum in pseudopotentials (lmaxx) =  4
     file O.pbe-n-kjpaw_psl.0.1.UPF: wavefunction(s)  2P renormalized
     signal trapping enabled: kill the code with -SIGUSR1 to stop cleanly the simulation 
 
     K-points division:     npool     =       2
     R & G space division:  proc/nbgrp/npool/nimage =      24
     Subspace diagonalization in iterative solution of the eigenvalue problem:
     one sub-group per band group will be used
     scalapack distributed-memory algorithm (size of sub-group:  3*  3 procs)

 
     Parallelization info
     --------------------
     sticks:   dense  smooth     PW     G-vecs:    dense   smooth      PW
     Min         350     175     47                61430    21716    3036
     Max         351     177     48                61449    21727    3041
     Sum        8421    4205   1137              1474595   521381   72913
 
     Using Slab Decomposition
 


     bravais-lattice index     =            0
     lattice parameter (alat)  =      14.8599  a.u.
     unit-cell volume          =    8305.1283 (a.u.)^3
     number of atoms/cell      =           49
     number of atomic types    =            3
     number of electrons       =       430.00
     number of Kohn-Sham states=          258
     kinetic-energy cutoff     =      60.0000  Ry
     charge density cutoff     =     480.0000  Ry
     scf convergence threshold =      1.0E-08
     mixing beta               =       0.1500
     number of iterations used =            8  local-TF  mixing
     Exchange-correlation= SLA  PW   PBE  PBE
                           (   1   4   3   4   0   0   0)

     celldm(1)=  14.859904  celldm(2)=   0.000000  celldm(3)=   0.000000
     celldm(4)=   0.000000  celldm(5)=   0.000000  celldm(6)=   0.000000

     crystal axes: (cart. coord. in units of alat)
               a(1) = (   1.000000   0.000000   0.000000 )  
               a(2) = (   0.000000   1.000000   0.000000 )  
               a(3) = (   0.000000   0.000000   2.531036 )  

     reciprocal axes: (cart. coord. in units 2 pi/alat)
               b(1) = (  1.000000  0.000000  0.000000 )  
               b(2) = (  0.000000  1.000000  0.000000 )  
               b(3) = (  0.000000  0.000000  0.395095 )  


     PseudoPot. # 1 for Sr read from file:
     /bsuhome/zayahcortright/q-e/pseudo/Sr_pbe_v1.uspp.F.UPF
     MD5 check sum: 6b418c05fbe9db5448babca5e47b7a5b
     Pseudo is Ultrasoft + core correction, Zval = 10.0
     Generated by new atomic code, or converted to UPF format
     Using radial grid of  883 points,  6 beta functions with: 
                l(1) =   0
                l(2) =   0
                l(3) =   1
                l(4) =   1
                l(5) =   2
                l(6) =   2
     Q(r) pseudized with  6 coefficients,  rinner =    1.400   1.400   1.400
                                                       1.400   1.400

     PseudoPot. # 2 for O  read from file:
     /bsuhome/zayahcortright/q-e/pseudo/O.pbe-n-kjpaw_psl.0.1.UPF
     MD5 check sum: 0234752ac141de4415c5fc33072bef88
     Pseudo is Projector augmented-wave + core cor, Zval =  6.0
     Generated using "atomic" code by A. Dal Corso  v.5.0.99 svn rev. 10869
     Shape of augmentation charge: BESSEL
     Using radial grid of 1095 points,  4 beta functions with: 
                l(1) =   0
                l(2) =   0
                l(3) =   1
                l(4) =   1
     Q(r) pseudized with 0 coefficients 


     PseudoPot. # 3 for Co read from file:
     /bsuhome/zayahcortright/q-e/pseudo/Co_pbe_v1.2.uspp.F.UPF
     MD5 check sum: 5f91765df6ddd3222702df6e7b74a16d
     Pseudo is Ultrasoft + core correction, Zval = 17.0
     Generated by new atomic code, or converted to UPF format
     Using radial grid of  863 points,  6 beta functions with: 
                l(1) =   0
                l(2) =   0
                l(3) =   1
                l(4) =   1
                l(5) =   2
                l(6) =   2
     Q(r) pseudized with  8 coefficients,  rinner =    1.200   1.200   1.200
                                                       1.200   1.200

     atomic species   valence    mass     pseudopotential
        Sr            10.00    87.62000     Sr( 1.00)
        O              6.00    15.99900     O ( 1.00)
        Co            17.00    58.93319     Co( 1.00)

     No symmetry found


                                    s                        frac. trans.

      isym =  1     identity                                     

 cryst.   s( 1) = (     1          0          0      )
                  (     0          1          0      )
                  (     0          0          1      )

 cart.    s( 1) = (  1.0000000  0.0000000  0.0000000 )
                  (  0.0000000  1.0000000  0.0000000 )
                  (  0.0000000  0.0000000  1.0000000 )


   Cartesian axes

     site n.     atom                  positions (alat units)
         1           Sr  tau(   1) = (   0.2508693   0.7491307   1.7574407  )
         2           O   tau(   2) = (   0.4985141   0.5014859   1.7715967  )
         3           Sr  tau(   3) = (   0.7482398   0.7454518   1.7648669  )
         4           Sr  tau(   4) = (   0.7441748   0.2558252   1.7667843  )
         5           Sr  tau(   5) = (   0.2508693   0.7491307   1.2696799  )
         6           Sr  tau(   6) = (   0.2508693   0.7491307   0.7632319  )
         7           Co  tau(   7) = (   0.4998914   0.5001086   1.0164559  )
         8           Co  tau(   8) = (   0.4936915   0.5063085   1.5135603  )
         9           O   tau(   9) = (   0.4988895   0.7610401   1.0164559  )
        10           O   tau(  10) = (   0.2389599   0.5011105   1.0164559  )
        11           O   tau(  11) = (   0.0070918   0.7374880   1.0164559  )
        12           O   tau(  12) = (   0.0088340   0.7405089   1.5135603  )
        13           O   tau(  13) = (   0.5066944   0.7415376   1.5135603  )
        14           O   tau(  14) = (   0.2584624   0.4933056   1.5135603  )
        15           O   tau(  15) = (   0.4985141   0.5014859   0.7773880  )
        16           O   tau(  16) = (   0.4985141   0.5014859   1.2555238  )
        17           Sr  tau(  17) = (   0.7482398   0.7454518   0.7706582  )
        18           Sr  tau(  18) = (   0.7482398   0.7454518   1.2622536  )
        19           Sr  tau(  19) = (   0.7441748   0.2558252   0.7725755  )
        20           Sr  tau(  20) = (   0.7441748   0.2558252   1.2603363  )
        21           O   tau(  21) = (   0.7322655   0.0078049   1.5135603  )
        22           O   tau(  22) = (   0.7558175   0.4996027   1.5135603  )
        23           O   tau(  23) = (   0.5003973   0.2441825   1.5135603  )
        24           O   tau(  24) = (   0.7527966   0.4978604   1.0164559  )
        25           O   tau(  25) = (   0.5021396   0.2472034   1.0164559  )
        26           O   tau(  26) = (   0.7517679   0.0000000   1.0164559  )
        27           O   tau(  27) = (   0.0114961   0.4948124   1.7455321  )
        28           O   tau(  28) = (   0.0048226   0.0077944   1.7715967  )
        29           Sr  tau(  29) = (   0.2545482   0.2517602   1.7648669  )
        30           O   tau(  30) = (   0.5048017   0.0015068   1.7786929  )
        31           Co  tau(  31) = (   0.0056869   0.5006215   1.0164559  )
        32           Co  tau(  32) = (   0.0065315   0.4997770   1.5135603  )
        33           Co  tau(  33) = (   0.0061999   0.0064171   1.0164559  )
        34           Co  tau(  34) = (   0.0000000   0.0126169   1.5135603  )
        35           O   tau(  35) = (   0.0114961   0.4948124   1.2815885  )
        36           O   tau(  36) = (   0.0114961   0.4948124   0.7513233  )
        37           O   tau(  37) = (   0.0051979   0.2673486   1.0164559  )
        38           O   tau(  38) = (   0.0130029   0.2478461   1.5135603  )
        39           O   tau(  39) = (   0.0048226   0.0077944   0.7773880  )
        40           O   tau(  40) = (   0.0048226   0.0077944   1.2555238  )
        41           Sr  tau(  41) = (   0.2545482   0.2517602   0.7706582  )
        42           Sr  tau(  42) = (   0.2545482   0.2517602   1.2622536  )
        43           Co  tau(  43) = (   0.4989925   0.0073160   1.5135603  )
        44           Co  tau(  44) = (   0.4998370   0.0064714   1.0164559  )
        45           O   tau(  45) = (   0.5048017   0.0015068   0.7844841  )
        46           O   tau(  46) = (   0.5048017   0.0015068   1.2484277  )
        47           O   tau(  47) = (   0.2621260   0.0059111   1.5135603  )
        48           O   tau(  48) = (   0.2591051   0.0041689   1.0164559  )
        49           O   tau(  49) = (   0.5686583   0.7108228   2.1602013  )

   Crystallographic axes

     site n.     atom                  positions (cryst. coord.)
         1           Sr  tau(   1) = (  0.2508693  0.7491307  0.6943562  )
         2           O   tau(   2) = (  0.4985141  0.5014859  0.6999492  )
         3           Sr  tau(   3) = (  0.7482398  0.7454518  0.6972903  )
         4           Sr  tau(   4) = (  0.7441748  0.2558252  0.6980478  )
         5           Sr  tau(   5) = (  0.2508693  0.7491307  0.5016443  )
         6           Sr  tau(   6) = (  0.2508693  0.7491307  0.3015492  )
         7           Co  tau(   7) = (  0.4998914  0.5001086  0.4015968  )
         8           Co  tau(   8) = (  0.4936915  0.5063085  0.5980003  )
         9           O   tau(   9) = (  0.4988895  0.7610401  0.4015968  )
        10           O   tau(  10) = (  0.2389599  0.5011105  0.4015968  )
        11           O   tau(  11) = (  0.0070918  0.7374880  0.4015968  )
        12           O   tau(  12) = (  0.0088340  0.7405089  0.5980003  )
        13           O   tau(  13) = (  0.5066944  0.7415376  0.5980003  )
        14           O   tau(  14) = (  0.2584624  0.4933056  0.5980003  )
        15           O   tau(  15) = (  0.4985141  0.5014859  0.3071422  )
        16           O   tau(  16) = (  0.4985141  0.5014859  0.4960513  )
        17           Sr  tau(  17) = (  0.7482398  0.7454518  0.3044833  )
        18           Sr  tau(  18) = (  0.7482398  0.7454518  0.4987103  )
        19           Sr  tau(  19) = (  0.7441748  0.2558252  0.3052408  )
        20           Sr  tau(  20) = (  0.7441748  0.2558252  0.4979527  )
        21           O   tau(  21) = (  0.7322655  0.0078049  0.5980003  )
        22           O   tau(  22) = (  0.7558175  0.4996027  0.5980003  )
        23           O   tau(  23) = (  0.5003973  0.2441825  0.5980003  )
        24           O   tau(  24) = (  0.7527966  0.4978604  0.4015968  )
        25           O   tau(  25) = (  0.5021396  0.2472034  0.4015968  )
        26           O   tau(  26) = (  0.7517679  0.0000000  0.4015968  )
        27           O   tau(  27) = (  0.0114961  0.4948124  0.6896512  )
        28           O   tau(  28) = (  0.0048226  0.0077944  0.6999492  )
        29           Sr  tau(  29) = (  0.2545482  0.2517602  0.6972903  )
        30           O   tau(  30) = (  0.5048017  0.0015068  0.7027529  )
        31           Co  tau(  31) = (  0.0056869  0.5006215  0.4015968  )
        32           Co  tau(  32) = (  0.0065315  0.4997770  0.5980003  )
        33           Co  tau(  33) = (  0.0061999  0.0064171  0.4015968  )
        34           Co  tau(  34) = (  0.0000000  0.0126169  0.5980003  )
        35           O   tau(  35) = (  0.0114961  0.4948124  0.5063494  )
        36           O   tau(  36) = (  0.0114961  0.4948124  0.2968442  )
        37           O   tau(  37) = (  0.0051979  0.2673486  0.4015968  )
        38           O   tau(  38) = (  0.0130029  0.2478461  0.5980003  )
        39           O   tau(  39) = (  0.0048226  0.0077944  0.3071422  )
        40           O   tau(  40) = (  0.0048226  0.0077944  0.4960513  )
        41           Sr  tau(  41) = (  0.2545482  0.2517602  0.3044833  )
        42           Sr  tau(  42) = (  0.2545482  0.2517602  0.4987103  )
        43           Co  tau(  43) = (  0.4989925  0.0073160  0.5980003  )
        44           Co  tau(  44) = (  0.4998370  0.0064714  0.4015968  )
        45           O   tau(  45) = (  0.5048017  0.0015068  0.3099459  )
        46           O   tau(  46) = (  0.5048017  0.0015068  0.4932477  )
        47           O   tau(  47) = (  0.2621260  0.0059111  0.5980003  )
        48           O   tau(  48) = (  0.2591051  0.0041689  0.4015968  )
        49           O   tau(  49) = (  0.5686583  0.7108228  0.8534850  )

     number of k points=    10  Gaussian smearing, width (Ry)=  0.0700
                       cart. coord. in units 2pi/alat
        k(    1) = (   0.0000000   0.0000000   0.0000000), wk =   0.1250000
        k(    2) = (   0.0000000   0.2500000   0.0000000), wk =   0.2500000
        k(    3) = (   0.0000000  -0.5000000   0.0000000), wk =   0.1250000
        k(    4) = (   0.2500000   0.2500000   0.0000000), wk =   0.2500000
        k(    5) = (   0.2500000  -0.5000000   0.0000000), wk =   0.2500000
        k(    6) = (  -0.5000000  -0.5000000   0.0000000), wk =   0.1250000
        k(    7) = (   0.2500000   0.0000000   0.0000000), wk =   0.2500000
        k(    8) = (  -0.5000000   0.0000000   0.0000000), wk =   0.1250000
        k(    9) = (  -0.2500000   0.2500000   0.0000000), wk =   0.2500000
        k(   10) = (  -0.5000000   0.2500000   0.0000000), wk =   0.2500000

                       cryst. coord.
        k(    1) = (   0.0000000   0.0000000   0.0000000), wk =   0.1250000
        k(    2) = (   0.0000000   0.2500000   0.0000000), wk =   0.2500000
        k(    3) = (   0.0000000  -0.5000000   0.0000000), wk =   0.1250000
        k(    4) = (   0.2500000   0.2500000   0.0000000), wk =   0.2500000
        k(    5) = (   0.2500000  -0.5000000   0.0000000), wk =   0.2500000
        k(    6) = (  -0.5000000  -0.5000000   0.0000000), wk =   0.1250000
        k(    7) = (   0.2500000   0.0000000   0.0000000), wk =   0.2500000
        k(    8) = (  -0.5000000   0.0000000   0.0000000), wk =   0.1250000
        k(    9) = (  -0.2500000   0.2500000   0.0000000), wk =   0.2500000
        k(   10) = (  -0.5000000   0.2500000   0.0000000), wk =   0.2500000

     Dense  grid:  1474595 G-vectors     FFT dimensions: ( 108, 108, 270)

     Smooth grid:   521381 G-vectors     FFT dimensions: (  75,  75, 192)

     Dynamical RAM for                 wfc:      10.69 MB

     Dynamical RAM for     wfc (w. buffer):      64.13 MB

     Dynamical RAM for           str. fact:       2.81 MB

     Dynamical RAM for           local pot:       0.00 MB

     Dynamical RAM for          nlocal pot:      24.53 MB

     Dynamical RAM for                qrad:       5.27 MB

     Dynamical RAM for          rho,v,vnew:       6.02 MB

     Dynamical RAM for               rhoin:       2.01 MB

     Dynamical RAM for            rho*nmix:      15.00 MB

     Dynamical RAM for           G-vectors:       3.68 MB

     Dynamical RAM for          h,s,v(r/c):       1.35 MB

     Dynamical RAM for          <psi|beta>:       2.33 MB

     Dynamical RAM for                 psi:      21.38 MB

     Dynamical RAM for                hpsi:      21.38 MB

     Dynamical RAM for                spsi:      21.38 MB

     Dynamical RAM for      wfcinit/wfcrot:      34.39 MB

     Dynamical RAM for           addusdens:     101.26 MB

     Estimated static dynamical RAM per process >     117.53 MB

     Estimated max dynamical RAM per process >     233.79 MB

     Estimated total dynamical RAM >      10.61 GB

     Check: negative core charge=   -0.000004

     Initial potential from superposition of free atoms

     starting charge     421.5961, renormalised to     430.0000

     negative rho (up, down):  7.826E-01 0.000E+00
     Starting wfcs are  376 randomized atomic wfcs
     Checking if some PAW data can be deallocated... 
       PAW data deallocated on   19 nodes for type:  2

     total cpu time spent up to now is        9.1 secs

     Self-consistent Calculation

     iteration #  1     ecut=    60.00 Ry     beta= 0.15
     Davidson diagonalization with overlap

---- Real-time Memory Report at c_bands before calling an iterative solver
             0 MiB given to the printing process from OS
             0 MiB allocation reported by mallinfo(arena+hblkhd)
         51478 MiB available memory on the node where the printing process lives
------------------
     ethr =  1.00E-02,  avg # of iterations =  2.0

     negative rho (up, down):  7.718E-01 0.000E+00

     total cpu time spent up to now is       24.2 secs

     total energy              =   -4445.25686642 Ry
     estimated scf accuracy    <      53.93556760 Ry

     iteration #  2     ecut=    60.00 Ry     beta= 0.15
     Davidson diagonalization with overlap

---- Real-time Memory Report at c_bands before calling an iterative solver
             0 MiB given to the printing process from OS
             0 MiB allocation reported by mallinfo(arena+hblkhd)
         51861 MiB available memory on the node where the printing process lives
------------------
     ethr =  1.00E-02,  avg # of iterations =  1.0

     negative rho (up, down):  7.590E-01 0.000E+00

     total cpu time spent up to now is       36.9 secs

     total energy              =   -4441.88862530 Ry
     estimated scf accuracy    <      28.54466397 Ry

     iteration #  3     ecut=    60.00 Ry     beta= 0.15
     Davidson diagonalization with overlap

---- Real-time Memory Report at c_bands before calling an iterative solver
             0 MiB given to the printing process from OS
             0 MiB allocation reported by mallinfo(arena+hblkhd)
         51068 MiB available memory on the node where the printing process lives
------------------
     ethr =  6.64E-03,  avg # of iterations =  1.0

     negative rho (up, down):  7.532E-01 0.000E+00

     total cpu time spent up to now is       49.8 secs

     total energy              =   -4442.62441254 Ry
     estimated scf accuracy    <      29.47052442 Ry

     iteration #  4     ecut=    60.00 Ry     beta= 0.15
     Davidson diagonalization with overlap

---- Real-time Memory Report at c_bands before calling an iterative solver
             0 MiB given to the printing process from OS
             0 MiB allocation reported by mallinfo(arena+hblkhd)
         51048 MiB available memory on the node where the printing process lives
------------------
     ethr =  6.64E-03,  avg # of iterations =  1.0

     negative rho (up, down):  7.540E-01 0.000E+00

     total cpu time spent up to now is       62.3 secs

     total energy              =   -4442.54164318 Ry
     estimated scf accuracy    <      27.37277165 Ry

     iteration #  5     ecut=    60.00 Ry     beta= 0.15
     Davidson diagonalization with overlap

---- Real-time Memory Report at c_bands before calling an iterative solver
             0 MiB given to the printing process from OS
             0 MiB allocation reported by mallinfo(arena+hblkhd)
         51022 MiB available memory on the node where the printing process lives
------------------
     ethr =  6.37E-03,  avg # of iterations =  1.0

     negative rho (up, down):  7.377E-01 0.000E+00

     total cpu time spent up to now is       75.1 secs

     total energy              =   -4441.53429462 Ry
     estimated scf accuracy    <      20.05882448 Ry

     iteration #  6     ecut=    60.00 Ry     beta= 0.15
     Davidson diagonalization with overlap

---- Real-time Memory Report at c_bands before calling an iterative solver
             0 MiB given to the printing process from OS
             0 MiB allocation reported by mallinfo(arena+hblkhd)
         51005 MiB available memory on the node where the printing process lives
------------------
     ethr =  4.66E-03,  avg # of iterations =  1.0

     negative rho (up, down):  7.404E-01 0.000E+00

     total cpu time spent up to now is       87.6 secs

     total energy              =   -4443.84469403 Ry
     estimated scf accuracy    <      63.97348693 Ry

     iteration #  7     ecut=    60.00 Ry     beta= 0.15
     Davidson diagonalization with overlap

---- Real-time Memory Report at c_bands before calling an iterative solver
             0 MiB given to the printing process from OS
             0 MiB allocation reported by mallinfo(arena+hblkhd)
         50986 MiB available memory on the node where the printing process lives
------------------
     ethr =  4.66E-03,  avg # of iterations =  1.0

     negative rho (up, down):  7.469E-01 0.000E+00

     total cpu time spent up to now is      100.2 secs

     total energy              =   -4440.07934730 Ry
     estimated scf accuracy    <      59.58608351 Ry

     iteration #  8     ecut=    60.00 Ry     beta= 0.15
     Davidson diagonalization with overlap

---- Real-time Memory Report at c_bands before calling an iterative solver
             0 MiB given to the printing process from OS
             0 MiB allocation reported by mallinfo(arena+hblkhd)
         50974 MiB available memory on the node where the printing process lives
------------------
     ethr =  4.66E-03,  avg # of iterations =  1.0

     negative rho (up, down):  7.479E-01 0.000E+00

     total cpu time spent up to now is      112.7 secs

     total energy              =   -4441.58437713 Ry
     estimated scf accuracy    <       6.82351839 Ry

     iteration #  9     ecut=    60.00 Ry     beta= 0.15
     Davidson diagonalization with overlap

---- Real-time Memory Report at c_bands before calling an iterative solver
             0 MiB given to the printing process from OS
             0 MiB allocation reported by mallinfo(arena+hblkhd)
         50959 MiB available memory on the node where the printing process lives
------------------
     ethr =  1.59E-03,  avg # of iterations =  1.5

     negative rho (up, down):  7.608E-01 0.000E+00

     total cpu time spent up to now is      125.8 secs

     total energy              =   -4440.50537535 Ry
     estimated scf accuracy    <       6.09529692 Ry

     iteration # 10     ecut=    60.00 Ry     beta= 0.15
     Davidson diagonalization with overlap

---- Real-time Memory Report at c_bands before calling an iterative solver
             0 MiB given to the printing process from OS
             0 MiB allocation reported by mallinfo(arena+hblkhd)
         50928 MiB available memory on the node where the printing process lives
------------------
     ethr =  1.42E-03,  avg # of iterations =  2.7

     negative rho (up, down):  7.698E-01 0.000E+00

     total cpu time spent up to now is      139.9 secs

     total energy              =   -4440.62683403 Ry
     estimated scf accuracy    <      10.09876228 Ry

     iteration # 11     ecut=    60.00 Ry     beta= 0.15
     Davidson diagonalization with overlap

---- Real-time Memory Report at c_bands before calling an iterative solver
             0 MiB given to the printing process from OS
             0 MiB allocation reported by mallinfo(arena+hblkhd)
         50909 MiB available memory on the node where the printing process lives
------------------
     ethr =  1.42E-03,  avg # of iterations =  6.7

     negative rho (up, down):  7.795E-01 0.000E+00

     total cpu time spent up to now is      155.9 secs

     total energy              =   -4440.00792172 Ry
     estimated scf accuracy    <      16.72247482 Ry

     iteration # 12     ecut=    60.00 Ry     beta= 0.15
     Davidson diagonalization with overlap

---- Real-time Memory Report at c_bands before calling an iterative solver
             0 MiB given to the printing process from OS
             0 MiB allocation reported by mallinfo(arena+hblkhd)
         50729 MiB available memory on the node where the printing process lives
------------------
     ethr =  1.42E-03,  avg # of iterations =  1.5

     negative rho (up, down):  7.811E-01 0.000E+00

     total cpu time spent up to now is      169.1 secs

     total energy              =   -4440.55022733 Ry
     estimated scf accuracy    <       2.49844252 Ry

     iteration # 13     ecut=    60.00 Ry     beta= 0.15
     Davidson diagonalization with overlap

---- Real-time Memory Report at c_bands before calling an iterative solver
             0 MiB given to the printing process from OS
             0 MiB allocation reported by mallinfo(arena+hblkhd)
         50731 MiB available memory on the node where the printing process lives
------------------
     ethr =  5.81E-04,  avg # of iterations =  8.5

     negative rho (up, down):  7.878E-01 0.000E+00

     total cpu time spent up to now is      186.3 secs

     total energy              =   -4440.48991537 Ry
     estimated scf accuracy    <       2.08001603 Ry

     iteration # 14     ecut=    60.00 Ry     beta= 0.15
     Davidson diagonalization with overlap

---- Real-time Memory Report at c_bands before calling an iterative solver
             0 MiB given to the printing process from OS
             0 MiB allocation reported by mallinfo(arena+hblkhd)
         50604 MiB available memory on the node where the printing process lives
------------------
     ethr =  4.84E-04,  avg # of iterations =  3.3

     negative rho (up, down):  8.039E-01 0.000E+00

     total cpu time spent up to now is      201.5 secs

     total energy              =   -4440.42243554 Ry
     estimated scf accuracy    <       0.93695182 Ry

     iteration # 15     ecut=    60.00 Ry     beta= 0.15
     Davidson diagonalization with overlap

---- Real-time Memory Report at c_bands before calling an iterative solver
             0 MiB given to the printing process from OS
             0 MiB allocation reported by mallinfo(arena+hblkhd)
         50527 MiB available memory on the node where the printing process lives
------------------
     ethr =  2.18E-04,  avg # of iterations =  8.7

     negative rho (up, down):  8.146E-01 0.000E+00

     total cpu time spent up to now is      218.7 secs

     total energy              =   -4440.40080411 Ry
     estimated scf accuracy    <       0.70855108 Ry

     iteration # 16     ecut=    60.00 Ry     beta= 0.15
     Davidson diagonalization with overlap

---- Real-time Memory Report at c_bands before calling an iterative solver
             0 MiB given to the printing process from OS
             0 MiB allocation reported by mallinfo(arena+hblkhd)
         50446 MiB available memory on the node where the printing process lives
------------------
     ethr =  1.65E-04,  avg # of iterations =  3.4

     negative rho (up, down):  8.227E-01 0.000E+00

     total cpu time spent up to now is      232.9 secs

     total energy              =   -4440.37968027 Ry
     estimated scf accuracy    <       0.25290055 Ry

     iteration # 17     ecut=    60.00 Ry     beta= 0.15
     Davidson diagonalization with overlap

---- Real-time Memory Report at c_bands before calling an iterative solver
             0 MiB given to the printing process from OS
             0 MiB allocation reported by mallinfo(arena+hblkhd)
         50457 MiB available memory on the node where the printing process lives
------------------
     ethr =  5.88E-05,  avg # of iterations = 15.1

     negative rho (up, down):  8.255E-01 0.000E+00

     total cpu time spent up to now is      252.8 secs

     total energy              =   -4440.35054479 Ry
     estimated scf accuracy    <       0.19544398 Ry

     iteration # 18     ecut=    60.00 Ry     beta= 0.15
     Davidson diagonalization with overlap

---- Real-time Memory Report at c_bands before calling an iterative solver
             0 MiB given to the printing process from OS
             0 MiB allocation reported by mallinfo(arena+hblkhd)
         50401 MiB available memory on the node where the printing process lives
------------------
     ethr =  4.55E-05,  avg # of iterations =  4.7

     negative rho (up, down):  8.188E-01 0.000E+00

     total cpu time spent up to now is      268.3 secs

     total energy              =   -4440.33628734 Ry
     estimated scf accuracy    <       1.33103946 Ry

     iteration # 19     ecut=    60.00 Ry     beta= 0.15
     Davidson diagonalization with overlap

---- Real-time Memory Report at c_bands before calling an iterative solver
             0 MiB given to the printing process from OS
             0 MiB allocation reported by mallinfo(arena+hblkhd)
         50404 MiB available memory on the node where the printing process lives
------------------
     ethr =  4.55E-05,  avg # of iterations =  1.8

     negative rho (up, down):  8.227E-01 0.000E+00

     total cpu time spent up to now is      282.2 secs

     total energy              =   -4440.34001431 Ry
     estimated scf accuracy    <       0.13263946 Ry

     iteration # 20     ecut=    60.00 Ry     beta= 0.15
     Davidson diagonalization with overlap

---- Real-time Memory Report at c_bands before calling an iterative solver
             0 MiB given to the printing process from OS
             0 MiB allocation reported by mallinfo(arena+hblkhd)
         50401 MiB available memory on the node where the printing process lives
------------------
     ethr =  3.08E-05,  avg # of iterations =  5.6

     negative rho (up, down):  8.143E-01 0.000E+00

     total cpu time spent up to now is      298.3 secs

     total energy              =   -4440.32293831 Ry
     estimated scf accuracy    <       1.03184169 Ry

     iteration # 21     ecut=    60.00 Ry     beta= 0.15
     Davidson diagonalization with overlap

---- Real-time Memory Report at c_bands before calling an iterative solver
             0 MiB given to the printing process from OS
             0 MiB allocation reported by mallinfo(arena+hblkhd)
         50400 MiB available memory on the node where the printing process lives
------------------
     c_bands:  1 eigenvalues not converged
     ethr =  3.08E-05,  avg # of iterations = 10.4

     negative rho (up, down):  8.147E-01 0.000E+00

     total cpu time spent up to now is      316.9 secs

     total energy              =   -4440.30748117 Ry
     estimated scf accuracy    <       0.34087078 Ry

     iteration # 22     ecut=    60.00 Ry     beta= 0.15
     Davidson diagonalization with overlap

---- Real-time Memory Report at c_bands before calling an iterative solver
             0 MiB given to the printing process from OS
             0 MiB allocation reported by mallinfo(arena+hblkhd)
         50319 MiB available memory on the node where the printing process lives
------------------
     ethr =  3.08E-05,  avg # of iterations =  5.3

     negative rho (up, down):  8.256E-01 0.000E+00

     total cpu time spent up to now is      332.7 secs

     total energy              =   -4440.31325946 Ry
     estimated scf accuracy    <       0.08316038 Ry

     iteration # 23     ecut=    60.00 Ry     beta= 0.15
     Davidson diagonalization with overlap

---- Real-time Memory Report at c_bands before calling an iterative solver
             0 MiB given to the printing process from OS
             0 MiB allocation reported by mallinfo(arena+hblkhd)
         50345 MiB available memory on the node where the printing process lives
------------------
     ethr =  1.93E-05,  avg # of iterations =  7.6

     negative rho (up, down):  8.088E-01 0.000E+00

     total cpu time spent up to now is      349.5 secs

     total energy              =   -4440.30561528 Ry
     estimated scf accuracy    <       0.04279658 Ry

     iteration # 24     ecut=    60.00 Ry     beta= 0.15
     Davidson diagonalization with overlap

---- Real-time Memory Report at c_bands before calling an iterative solver
             0 MiB given to the printing process from OS
             0 MiB allocation reported by mallinfo(arena+hblkhd)
         50441 MiB available memory on the node where the printing process lives
------------------
     ethr =  9.95E-06,  avg # of iterations =  6.7

     negative rho (up, down):  8.124E-01 0.000E+00

     total cpu time spent up to now is      366.5 secs

     total energy              =   -4440.30737547 Ry
     estimated scf accuracy    <       0.02030197 Ry

     iteration # 25     ecut=    60.00 Ry     beta= 0.15
     Davidson diagonalization with overlap

---- Real-time Memory Report at c_bands before calling an iterative solver
             0 MiB given to the printing process from OS
             0 MiB allocation reported by mallinfo(arena+hblkhd)
         50375 MiB available memory on the node where the printing process lives
------------------
     ethr =  4.72E-06,  avg # of iterations =  7.7

     negative rho (up, down):  8.065E-01 0.000E+00

     total cpu time spent up to now is      383.6 secs

     total energy              =   -4440.30657437 Ry
     estimated scf accuracy    <       0.01425536 Ry

     iteration # 26     ecut=    60.00 Ry     beta= 0.15
     Davidson diagonalization with overlap

---- Real-time Memory Report at c_bands before calling an iterative solver
             0 MiB given to the printing process from OS
             0 MiB allocation reported by mallinfo(arena+hblkhd)
         50390 MiB available memory on the node where the printing process lives
------------------
     c_bands:  1 eigenvalues not converged
     ethr =  3.32E-06,  avg # of iterations =  4.2

     negative rho (up, down):  7.932E-01 0.000E+00

     total cpu time spent up to now is      398.8 secs

     total energy              =   -4440.30339913 Ry
     estimated scf accuracy    <       0.01093467 Ry

     iteration # 27     ecut=    60.00 Ry     beta= 0.15
     Davidson diagonalization with overlap

---- Real-time Memory Report at c_bands before calling an iterative solver
             0 MiB given to the printing process from OS
             0 MiB allocation reported by mallinfo(arena+hblkhd)
         50399 MiB available memory on the node where the printing process lives
------------------
     c_bands:  1 eigenvalues not converged
     ethr =  2.54E-06,  avg # of iterations = 12.9

     negative rho (up, down):  7.972E-01 0.000E+00

     total cpu time spent up to now is      419.0 secs

     total energy              =   -4440.30373111 Ry
     estimated scf accuracy    <       0.00278009 Ry

     iteration # 28     ecut=    60.00 Ry     beta= 0.15
     Davidson diagonalization with overlap

---- Real-time Memory Report at c_bands before calling an iterative solver
             0 MiB given to the printing process from OS
             0 MiB allocation reported by mallinfo(arena+hblkhd)
         50303 MiB available memory on the node where the printing process lives
------------------
     ethr =  6.47E-07,  avg # of iterations =  6.4

     negative rho (up, down):  8.017E-01 0.000E+00

     total cpu time spent up to now is      435.7 secs

     total energy              =   -4440.30389875 Ry
     estimated scf accuracy    <       0.00162734 Ry

     iteration # 29     ecut=    60.00 Ry     beta= 0.15
     Davidson diagonalization with overlap

---- Real-time Memory Report at c_bands before calling an iterative solver
             0 MiB given to the printing process from OS
             0 MiB allocation reported by mallinfo(arena+hblkhd)
         50229 MiB available memory on the node where the printing process lives
------------------
     c_bands:  1 eigenvalues not converged
     ethr =  3.78E-07,  avg # of iterations = 11.6

     negative rho (up, down):  8.004E-01 0.000E+00

     total cpu time spent up to now is      454.1 secs

     total energy              =   -4440.30382263 Ry
     estimated scf accuracy    <       0.00096551 Ry

     iteration # 30     ecut=    60.00 Ry     beta= 0.15
     Davidson diagonalization with overlap

---- Real-time Memory Report at c_bands before calling an iterative solver
             0 MiB given to the printing process from OS
             0 MiB allocation reported by mallinfo(arena+hblkhd)
         50236 MiB available memory on the node where the printing process lives
------------------
     ethr =  2.25E-07,  avg # of iterations =  2.0

     negative rho (up, down):  8.018E-01 0.000E+00

     total cpu time spent up to now is      468.3 secs

     total energy              =   -4440.30387546 Ry
     estimated scf accuracy    <       0.00035556 Ry

     iteration # 31     ecut=    60.00 Ry     beta= 0.15
     Davidson diagonalization with overlap

---- Real-time Memory Report at c_bands before calling an iterative solver
             0 MiB given to the printing process from OS
             0 MiB allocation reported by mallinfo(arena+hblkhd)
         50229 MiB available memory on the node where the printing process lives
------------------
     ethr =  8.27E-08,  avg # of iterations =  2.2

     negative rho (up, down):  7.960E-01 0.000E+00

     total cpu time spent up to now is      482.4 secs

     total energy              =   -4440.30371560 Ry
     estimated scf accuracy    <       0.00025915 Ry

     iteration # 32     ecut=    60.00 Ry     beta= 0.15
     Davidson diagonalization with overlap

---- Real-time Memory Report at c_bands before calling an iterative solver
             0 MiB given to the printing process from OS
             0 MiB allocation reported by mallinfo(arena+hblkhd)
         50245 MiB available memory on the node where the printing process lives
------------------
     c_bands:  1 eigenvalues not converged
     c_bands:  1 eigenvalues not converged
     ethr =  6.03E-08,  avg # of iterations = 10.5

     negative rho (up, down):  7.938E-01 0.000E+00

     total cpu time spent up to now is      500.4 secs

     total energy              =   -4440.30369835 Ry
     estimated scf accuracy    <       0.00012122 Ry

     iteration # 33     ecut=    60.00 Ry     beta= 0.15
     Davidson diagonalization with overlap

---- Real-time Memory Report at c_bands before calling an iterative solver
             0 MiB given to the printing process from OS
             0 MiB allocation reported by mallinfo(arena+hblkhd)
         50284 MiB available memory on the node where the printing process lives
------------------
     ethr =  2.82E-08,  avg # of iterations =  4.3

     negative rho (up, down):  7.929E-01 0.000E+00

     total cpu time spent up to now is      517.4 secs

     total energy              =   -4440.30370924 Ry
     estimated scf accuracy    <       0.00003488 Ry

     iteration # 34     ecut=    60.00 Ry     beta= 0.15
     Davidson diagonalization with overlap

---- Real-time Memory Report at c_bands before calling an iterative solver
             0 MiB given to the printing process from OS
             0 MiB allocation reported by mallinfo(arena+hblkhd)
         50257 MiB available memory on the node where the printing process lives
------------------
     ethr =  8.11E-09,  avg # of iterations =  2.4

     negative rho (up, down):  7.924E-01 0.000E+00

     total cpu time spent up to now is      531.7 secs

     total energy              =   -4440.30371125 Ry
     estimated scf accuracy    <       0.00001877 Ry

     iteration # 35     ecut=    60.00 Ry     beta= 0.15
     Davidson diagonalization with overlap

---- Real-time Memory Report at c_bands before calling an iterative solver
             0 MiB given to the printing process from OS
             0 MiB allocation reported by mallinfo(arena+hblkhd)
         50316 MiB available memory on the node where the printing process lives
------------------
     ethr =  4.36E-09,  avg # of iterations =  2.3

     negative rho (up, down):  7.924E-01 0.000E+00

     total cpu time spent up to now is      546.2 secs

     total energy              =   -4440.30371639 Ry
     estimated scf accuracy    <       0.00001274 Ry

     iteration # 36     ecut=    60.00 Ry     beta= 0.15
     Davidson diagonalization with overlap

---- Real-time Memory Report at c_bands before calling an iterative solver
             0 MiB given to the printing process from OS
             0 MiB allocation reported by mallinfo(arena+hblkhd)
         50310 MiB available memory on the node where the printing process lives
------------------
     ethr =  2.96E-09,  avg # of iterations =  2.0

     negative rho (up, down):  7.924E-01 0.000E+00

     total cpu time spent up to now is      560.5 secs

     total energy              =   -4440.30372212 Ry
     estimated scf accuracy    <       0.00000917 Ry

     iteration # 37     ecut=    60.00 Ry     beta= 0.15
     Davidson diagonalization with overlap

---- Real-time Memory Report at c_bands before calling an iterative solver
             0 MiB given to the printing process from OS
             0 MiB allocation reported by mallinfo(arena+hblkhd)
         50308 MiB available memory on the node where the printing process lives
------------------
     ethr =  2.13E-09,  avg # of iterations =  2.8

     negative rho (up, down):  7.924E-01 0.000E+00

     total cpu time spent up to now is      574.9 secs

     total energy              =   -4440.30372481 Ry
     estimated scf accuracy    <       0.00000617 Ry

     iteration # 38     ecut=    60.00 Ry     beta= 0.15
     Davidson diagonalization with overlap

---- Real-time Memory Report at c_bands before calling an iterative solver
             0 MiB given to the printing process from OS
             0 MiB allocation reported by mallinfo(arena+hblkhd)
         50320 MiB available memory on the node where the printing process lives
------------------
     ethr =  1.44E-09,  avg # of iterations =  2.7

     negative rho (up, down):  7.924E-01 0.000E+00

     total cpu time spent up to now is      589.1 secs

     total energy              =   -4440.30372529 Ry
     estimated scf accuracy    <       0.00000360 Ry

     iteration # 39     ecut=    60.00 Ry     beta= 0.15
     Davidson diagonalization with overlap

---- Real-time Memory Report at c_bands before calling an iterative solver
             0 MiB given to the printing process from OS
             0 MiB allocation reported by mallinfo(arena+hblkhd)
         50317 MiB available memory on the node where the printing process lives
------------------
     ethr =  8.36E-10,  avg # of iterations =  2.0

     negative rho (up, down):  7.924E-01 0.000E+00

     total cpu time spent up to now is      603.2 secs

     total energy              =   -4440.30372560 Ry
     estimated scf accuracy    <       0.00000242 Ry

     iteration # 40     ecut=    60.00 Ry     beta= 0.15
     Davidson diagonalization with overlap

---- Real-time Memory Report at c_bands before calling an iterative solver
             0 MiB given to the printing process from OS
             0 MiB allocation reported by mallinfo(arena+hblkhd)
         50318 MiB available memory on the node where the printing process lives
------------------
     ethr =  5.63E-10,  avg # of iterations =  2.1

     negative rho (up, down):  7.925E-01 0.000E+00

     total cpu time spent up to now is      617.4 secs

     total energy              =   -4440.30372588 Ry
     estimated scf accuracy    <       0.00000176 Ry

     iteration # 41     ecut=    60.00 Ry     beta= 0.15
     Davidson diagonalization with overlap

---- Real-time Memory Report at c_bands before calling an iterative solver
             0 MiB given to the printing process from OS
             0 MiB allocation reported by mallinfo(arena+hblkhd)
         50323 MiB available memory on the node where the printing process lives
------------------
     ethr =  4.10E-10,  avg # of iterations =  2.0

     negative rho (up, down):  7.925E-01 0.000E+00

     total cpu time spent up to now is      631.5 secs

     total energy              =   -4440.30372600 Ry
     estimated scf accuracy    <       0.00000122 Ry

     iteration # 42     ecut=    60.00 Ry     beta= 0.15
     Davidson diagonalization with overlap

---- Real-time Memory Report at c_bands before calling an iterative solver
             0 MiB given to the printing process from OS
             0 MiB allocation reported by mallinfo(arena+hblkhd)
         50328 MiB available memory on the node where the printing process lives
------------------
     ethr =  2.83E-10,  avg # of iterations =  1.0

     negative rho (up, down):  7.925E-01 0.000E+00

     total cpu time spent up to now is      644.2 secs

     total energy              =   -4440.30372597 Ry
     estimated scf accuracy    <       0.00000076 Ry

     iteration # 43     ecut=    60.00 Ry     beta= 0.15
     Davidson diagonalization with overlap

---- Real-time Memory Report at c_bands before calling an iterative solver
             0 MiB given to the printing process from OS
             0 MiB allocation reported by mallinfo(arena+hblkhd)
         50329 MiB available memory on the node where the printing process lives
------------------
     ethr =  1.76E-10,  avg # of iterations =  2.0

     negative rho (up, down):  7.926E-01 0.000E+00

     total cpu time spent up to now is      658.4 secs

     total energy              =   -4440.30372592 Ry
     estimated scf accuracy    <       0.00000059 Ry

     iteration # 44     ecut=    60.00 Ry     beta= 0.15
     Davidson diagonalization with overlap

---- Real-time Memory Report at c_bands before calling an iterative solver
             0 MiB given to the printing process from OS
             0 MiB allocation reported by mallinfo(arena+hblkhd)
         50341 MiB available memory on the node where the printing process lives
------------------
     ethr =  1.37E-10,  avg # of iterations =  2.0

     negative rho (up, down):  7.926E-01 0.000E+00

     total cpu time spent up to now is      672.5 secs

     total energy              =   -4440.30372583 Ry
     estimated scf accuracy    <       0.00000048 Ry

     iteration # 45     ecut=    60.00 Ry     beta= 0.15
     Davidson diagonalization with overlap

---- Real-time Memory Report at c_bands before calling an iterative solver
             0 MiB given to the printing process from OS
             0 MiB allocation reported by mallinfo(arena+hblkhd)
         50324 MiB available memory on the node where the printing process lives
------------------
     ethr =  1.13E-10,  avg # of iterations =  2.0

     negative rho (up, down):  7.926E-01 0.000E+00

     total cpu time spent up to now is      686.6 secs

     total energy              =   -4440.30372578 Ry
     estimated scf accuracy    <       0.00000038 Ry

     iteration # 46     ecut=    60.00 Ry     beta= 0.15
     Davidson diagonalization with overlap

---- Real-time Memory Report at c_bands before calling an iterative solver
             0 MiB given to the printing process from OS
             0 MiB allocation reported by mallinfo(arena+hblkhd)
         50330 MiB available memory on the node where the printing process lives
------------------
     ethr =  8.84E-11,  avg # of iterations =  1.6

     negative rho (up, down):  7.926E-01 0.000E+00

     total cpu time spent up to now is      700.2 secs

     total energy              =   -4440.30372572 Ry
     estimated scf accuracy    <       0.00000029 Ry

     iteration # 47     ecut=    60.00 Ry     beta= 0.15
     Davidson diagonalization with overlap

---- Real-time Memory Report at c_bands before calling an iterative solver
             0 MiB given to the printing process from OS
             0 MiB allocation reported by mallinfo(arena+hblkhd)
         50341 MiB available memory on the node where the printing process lives
------------------
     ethr =  6.86E-11,  avg # of iterations =  2.0

     negative rho (up, down):  7.926E-01 0.000E+00

     total cpu time spent up to now is      714.4 secs

     total energy              =   -4440.30372573 Ry
     estimated scf accuracy    <       0.00000013 Ry

     iteration # 48     ecut=    60.00 Ry     beta= 0.15
     Davidson diagonalization with overlap

---- Real-time Memory Report at c_bands before calling an iterative solver
             0 MiB given to the printing process from OS
             0 MiB allocation reported by mallinfo(arena+hblkhd)
         50342 MiB available memory on the node where the printing process lives
------------------
     ethr =  3.00E-11,  avg # of iterations =  3.0

     negative rho (up, down):  7.926E-01 0.000E+00

     total cpu time spent up to now is      729.3 secs

     total energy              =   -4440.30372576 Ry
     estimated scf accuracy    <       0.00000005 Ry

     iteration # 49     ecut=    60.00 Ry     beta= 0.15
     Davidson diagonalization with overlap

---- Real-time Memory Report at c_bands before calling an iterative solver
             0 MiB given to the printing process from OS
             0 MiB allocation reported by mallinfo(arena+hblkhd)
         50344 MiB available memory on the node where the printing process lives
------------------
     ethr =  1.20E-11,  avg # of iterations =  1.9

     negative rho (up, down):  7.926E-01 0.000E+00

     total cpu time spent up to now is      743.4 secs

     total energy              =   -4440.30372578 Ry
     estimated scf accuracy    <       0.00000004 Ry

     iteration # 50     ecut=    60.00 Ry     beta= 0.15
     Davidson diagonalization with overlap

---- Real-time Memory Report at c_bands before calling an iterative solver
             0 MiB given to the printing process from OS
             0 MiB allocation reported by mallinfo(arena+hblkhd)
         50346 MiB available memory on the node where the printing process lives
------------------
     ethr =  9.60E-12,  avg # of iterations =  2.0

     negative rho (up, down):  7.926E-01 0.000E+00

     total cpu time spent up to now is      757.5 secs

     total energy              =   -4440.30372581 Ry
     estimated scf accuracy    <       0.00000003 Ry

     iteration # 51     ecut=    60.00 Ry     beta= 0.15
     Davidson diagonalization with overlap

---- Real-time Memory Report at c_bands before calling an iterative solver
             0 MiB given to the printing process from OS
             0 MiB allocation reported by mallinfo(arena+hblkhd)
         50344 MiB available memory on the node where the printing process lives
------------------
     ethr =  7.16E-12,  avg # of iterations =  2.0

     negative rho (up, down):  7.926E-01 0.000E+00

     total cpu time spent up to now is      771.8 secs

     total energy              =   -4440.30372584 Ry
     estimated scf accuracy    <       0.00000002 Ry

     iteration # 52     ecut=    60.00 Ry     beta= 0.15
     Davidson diagonalization with overlap

---- Real-time Memory Report at c_bands before calling an iterative solver
             0 MiB given to the printing process from OS
             0 MiB allocation reported by mallinfo(arena+hblkhd)
         50346 MiB available memory on the node where the printing process lives
------------------
     ethr =  4.83E-12,  avg # of iterations =  2.9

     negative rho (up, down):  7.926E-01 0.000E+00

     total cpu time spent up to now is      786.2 secs

     total energy              =   -4440.30372586 Ry
     estimated scf accuracy    <       0.00000001 Ry

     iteration # 53     ecut=    60.00 Ry     beta= 0.15
     Davidson diagonalization with overlap

---- Real-time Memory Report at c_bands before calling an iterative solver
             0 MiB given to the printing process from OS
             0 MiB allocation reported by mallinfo(arena+hblkhd)
         50342 MiB available memory on the node where the printing process lives
------------------
     ethr =  2.58E-12,  avg # of iterations =  3.4

     negative rho (up, down):  7.926E-01 0.000E+00

     total cpu time spent up to now is      800.8 secs

     End of self-consistent calculation

          k = 0.0000 0.0000 0.0000 ( 65197 PWs)   bands (ev):

   -92.8763 -92.8248 -92.7299 -92.6834 -92.6264 -92.5831 -92.5650 -92.4428
   -56.2300 -56.2115 -56.0869 -56.0766 -56.0692 -56.0635 -56.0281 -55.9989
   -55.9838 -55.9831 -55.9756 -55.9336 -55.9148 -55.8771 -55.8566 -55.8252
   -55.8186 -55.7703 -55.7686 -55.7678 -55.7594 -55.7179 -55.6951 -55.6091
   -31.4391 -31.4195 -31.2788 -31.1923 -31.1672 -30.9794 -30.9642 -30.9483
   -30.0201 -29.9766 -29.9519 -29.8446 -15.2525 -15.2072 -15.1269 -14.9970
   -14.7999 -14.6760 -14.3887 -14.3626 -14.3378 -14.2912 -14.2456 -14.2372
   -14.2234 -14.2038 -14.1739 -14.1362 -14.0994 -13.9472 -13.7682 -13.7339
   -13.7065 -13.6729 -13.6575 -13.5951 -13.5624 -13.4820 -13.4148 -13.2749
   -13.2662 -13.2594 -13.2370 -13.2196 -13.1792 -13.1635 -13.1487 -13.1259
   -13.1079 -13.0855 -13.0629 -12.9837 -12.9727 -12.9479 -12.8924 -12.8748
   -12.8469 -12.8212 -12.7991 -12.7894 -12.5061 -12.3604 -12.1702 -12.0974
   -12.0335 -11.9788 -11.9594 -11.9486 -11.9255 -11.9079 -11.8447 -11.8278
   -11.7920 -11.7627 -11.6527 -11.5727 -11.5691  -3.1136  -2.8820  -2.6521
    -2.5052  -2.4425  -2.3009  -1.9932  -1.9790  -1.9602  -1.8753  -1.8543
    -1.7861  -1.7693  -1.7284  -1.6867  -1.5032  -1.2790  -1.2478  -1.1032
    -1.0886  -1.0407  -1.0225  -0.9756  -0.9583  -0.9061  -0.8792  -0.8010
    -0.7922  -0.7191  -0.5838  -0.5697  -0.5432  -0.4631  -0.4361  -0.4312
    -0.3683  -0.2987  -0.2327  -0.1988  -0.1674  -0.0934  -0.0373   0.0096
     0.0307   0.0485   0.3069   0.3192   0.4948   0.5562   0.6274   0.6746
     0.7583   0.7707   0.7850   0.8542   0.8804   0.9136   0.9722   1.1012
     1.1656   1.1836   1.2040   1.2220   1.2837   1.3478   1.4648   1.4739
     1.5440   1.5514   1.5975   1.6076   1.6198   1.6783   1.7366   1.7564
     1.7915   1.8258   1.8578   1.9904   2.0853   2.1187   2.1327   2.2897
     2.3042   2.3384   2.3419   2.4517   2.4852   2.5098   2.5309   2.5451
     2.5721   2.6242   2.6397   2.6668   2.7385   2.7670   2.7790   2.7856
     2.8525   2.8585   2.8807   2.8874   2.8972   2.9130   2.9170   2.9315
     2.9379   2.9489   2.9564   2.9671   2.9840   3.0052   3.0098   3.0222
     3.0594   3.1640   3.2554   3.9461   4.2691   4.6171   4.8330   4.8817
     5.7543   5.8189   5.8360   5.8687   6.1418   6.1878   6.4380   6.4479
     6.9444   6.9855   7.0888   7.1676   7.4247   7.5215   7.5524   7.5711
     7.6167   7.8669   7.9002   8.0061   8.0360   8.1509   8.2493   8.6545
     8.7594   8.9369

     occupation numbers 
     1.0000   1.0000   1.0000   1.0000   1.0000   1.0000   1.0000   1.0000
     1.0000   1.0000   1.0000   1.0000   1.0000   1.0000   1.0000   1.0000
     1.0000   1.0000   1.0000   1.0000   1.0000   1.0000   1.0000   1.0000
     1.0000   1.0000   1.0000   1.0000   1.0000   1.0000   1.0000   1.0000
     1.0000   1.0000   1.0000   1.0000   1.0000   1.0000   1.0000   1.0000
     1.0000   1.0000   1.0000   1.0000   1.0000   1.0000   1.0000   1.0000
     1.0000   1.0000   1.0000   1.0000   1.0000   1.0000   1.0000   1.0000
     1.0000   1.0000   1.0000   1.0000   1.0000   1.0000   1.0000   1.0000
     1.0000   1.0000   1.0000   1.0000   1.0000   1.0000   1.0000   1.0000
     1.0000   1.0000   1.0000   1.0000   1.0000   1.0000   1.0000   1.0000
     1.0000   1.0000   1.0000   1.0000   1.0000   1.0000   1.0000   1.0000
     1.0000   1.0000   1.0000   1.0000   1.0000   1.0000   1.0000   1.0000
     1.0000   1.0000   1.0000   1.0000   1.0000   1.0000   1.0000   1.0000
     1.0000   1.0000   1.0000   1.0000   1.0000   1.0000   1.0000   1.0000
     1.0000   1.0000   1.0000   1.0000   1.0000   1.0000   1.0000   1.0000
     1.0000   1.0000   1.0000   1.0000   1.0000   1.0000   1.0000   1.0000
     1.0000   1.0000   1.0000   1.0000   1.0000   1.0000   1.0000   1.0000
     1.0000   1.0000   1.0000   1.0000   1.0000   1.0000   1.0000   1.0000
     1.0000   1.0000   1.0000   1.0000   1.0000   1.0000   1.0000   1.0000
     1.0000   1.0000   1.0000   1.0000   1.0000   0.9999   0.9999   0.9999
     0.9998   0.9998   0.9998   0.9997   0.9996   0.9996   0.9994   0.9988
     0.9984   0.9983   0.9981   0.9979   0.9972   0.9963   0.9939   0.9937
     0.9915   0.9913   0.9895   0.9891   0.9886   0.9857   0.9823   0.9809
     0.9784   0.9756   0.9727   0.9578   0.9435   0.9376   0.9351   0.9000
     0.8961   0.8867   0.8857   0.8510   0.8392   0.8301   0.8220   0.8165
     0.8057   0.7837   0.7769   0.7647   0.7307   0.7166   0.7105   0.7071
     0.6721   0.6689   0.6568   0.6532   0.6477   0.6390   0.6368   0.6287
     0.6251   0.6189   0.6146   0.6086   0.5989   0.5867   0.5840   0.5768
     0.5551   0.4932   0.4393   0.1193   0.0487   0.0148   0.0063   0.0051
     0.0001   0.0000   0.0000   0.0000   0.0000   0.0000   0.0000   0.0000
     0.0000   0.0000   0.0000   0.0000   0.0000   0.0000   0.0000   0.0000
     0.0000   0.0000   0.0000   0.0000   0.0000   0.0000   0.0000   0.0000
     0.0000   0.0000

          k = 0.0000 0.2500 0.0000 ( 65257 PWs)   bands (ev):

   -92.8763 -92.8248 -92.7299 -92.6834 -92.6264 -92.5831 -92.5650 -92.4428
   -56.2300 -56.2115 -56.0869 -56.0766 -56.0692 -56.0635 -56.0281 -55.9989
   -55.9838 -55.9831 -55.9756 -55.9335 -55.9148 -55.8771 -55.8566 -55.8252
   -55.8186 -55.7703 -55.7686 -55.7678 -55.7594 -55.7179 -55.6951 -55.6091
   -31.4389 -31.4194 -31.2791 -31.1924 -31.1671 -30.9772 -30.9662 -30.9486
   -30.0195 -29.9763 -29.9525 -29.8450 -15.2160 -15.1815 -15.1018 -14.9674
   -14.8419 -14.6662 -14.5346 -14.3544 -14.3141 -14.2931 -14.2675 -14.2075
   -14.2031 -14.1895 -14.1609 -14.1052 -14.0189 -13.9764 -13.8151 -13.7908
   -13.7453 -13.7114 -13.6646 -13.6185 -13.5619 -13.5076 -13.4678 -13.3725
   -13.3143 -13.3077 -13.2701 -13.2497 -13.1589 -13.1460 -13.1170 -13.0966
   -13.0644 -13.0301 -13.0058 -12.9623 -12.9394 -12.9346 -12.8929 -12.8404
   -12.8114 -12.7976 -12.7171 -12.6383 -12.5675 -12.4116 -12.2269 -12.1660
   -11.9991 -11.9788 -11.9561 -11.9282 -11.9004 -11.8839 -11.8363 -11.8251
   -11.8023 -11.7669 -11.6674 -11.6144 -11.6039  -2.9782  -2.7577  -2.6195
    -2.4378  -2.3942  -2.2311  -2.0105  -1.9277  -1.9146  -1.8565  -1.7522
    -1.7364  -1.7047  -1.6756  -1.6319  -1.4345  -1.3048  -1.2939  -1.2178
    -1.2074  -1.1029  -1.0738  -1.0147  -0.9885  -0.9504  -0.8855  -0.8568
    -0.8263  -0.7902  -0.7756  -0.7425  -0.6677  -0.6198  -0.5527  -0.4339
    -0.4176  -0.3738  -0.2561  -0.2065  -0.1566  -0.1085  -0.0522  -0.0366
    -0.0076   0.0575   0.3532   0.4399   0.4773   0.5637   0.6078   0.6312
     0.7393   0.7570   0.8591   0.8838   0.9058   1.0186   1.1173   1.1401
     1.1638   1.1803   1.2043   1.2641   1.2923   1.3212   1.3669   1.4066
     1.4379   1.5291   1.5575   1.5973   1.6431   1.7065   1.7614   1.7738
     1.7936   1.8112   1.9094   2.0313   2.1031   2.1177   2.1888   2.2389
     2.2821   2.2912   2.3457   2.3821   2.4674   2.5062   2.5223   2.5690
     2.6309   2.6563   2.6955   2.7191   2.7516   2.7726   2.7863   2.7944
     2.8029   2.8113   2.8404   2.8427   2.8615   2.8667   2.8748   2.8957
     2.9084   2.9149   2.9345   2.9468   2.9510   2.9859   3.0028   3.0637
     3.4466   3.4807   3.7069   4.1370   4.2683   4.5556   4.8966   4.9952
     5.5222   5.6349   5.8110   5.9189   5.9592   6.0221   6.0724   6.5525
     7.0274   7.0669   7.2150   7.2483   7.3528   7.4102   7.5486   7.6098
     7.7212   7.9020   8.0742   8.1849   8.2446   8.2992   8.3447   8.4060
     8.7170   8.8236

     occupation numbers 
     1.0000   1.0000   1.0000   1.0000   1.0000   1.0000   1.0000   1.0000
     1.0000   1.0000   1.0000   1.0000   1.0000   1.0000   1.0000   1.0000
     1.0000   1.0000   1.0000   1.0000   1.0000   1.0000   1.0000   1.0000
     1.0000   1.0000   1.0000   1.0000   1.0000   1.0000   1.0000   1.0000
     1.0000   1.0000   1.0000   1.0000   1.0000   1.0000   1.0000   1.0000
     1.0000   1.0000   1.0000   1.0000   1.0000   1.0000   1.0000   1.0000
     1.0000   1.0000   1.0000   1.0000   1.0000   1.0000   1.0000   1.0000
     1.0000   1.0000   1.0000   1.0000   1.0000   1.0000   1.0000   1.0000
     1.0000   1.0000   1.0000   1.0000   1.0000   1.0000   1.0000   1.0000
     1.0000   1.0000   1.0000   1.0000   1.0000   1.0000   1.0000   1.0000
     1.0000   1.0000   1.0000   1.0000   1.0000   1.0000   1.0000   1.0000
     1.0000   1.0000   1.0000   1.0000   1.0000   1.0000   1.0000   1.0000
     1.0000   1.0000   1.0000   1.0000   1.0000   1.0000   1.0000   1.0000
     1.0000   1.0000   1.0000   1.0000   1.0000   1.0000   1.0000   1.0000
     1.0000   1.0000   1.0000   1.0000   1.0000   1.0000   1.0000   1.0000
     1.0000   1.0000   1.0000   1.0000   1.0000   1.0000   1.0000   1.0000
     1.0000   1.0000   1.0000   1.0000   1.0000   1.0000   1.0000   1.0000
     1.0000   1.0000   1.0000   1.0000   1.0000   1.0000   1.0000   1.0000
     1.0000   1.0000   1.0000   1.0000   1.0000   1.0000   1.0000   1.0000
     1.0000   1.0000   1.0000   1.0000   1.0000   0.9999   0.9999   0.9999
     0.9998   0.9998   0.9997   0.9996   0.9996   0.9992   0.9987   0.9986
     0.9984   0.9983   0.9981   0.9975   0.9971   0.9967   0.9960   0.9952
     0.9946   0.9920   0.9911   0.9895   0.9875   0.9841   0.9806   0.9797
     0.9782   0.9768   0.9676   0.9520   0.9404   0.9378   0.9238   0.9126
     0.9019   0.8996   0.8846   0.8737   0.8455   0.8314   0.8254   0.8069
     0.7807   0.7694   0.7514   0.7401   0.7243   0.7137   0.7068   0.7026
     0.6982   0.6939   0.6785   0.6773   0.6672   0.6645   0.6601   0.6486
     0.6416   0.6379   0.6270   0.6201   0.6177   0.5978   0.5881   0.5525
     0.3312   0.3131   0.2053   0.0719   0.0488   0.0186   0.0048   0.0031
     0.0002   0.0001   0.0000   0.0000   0.0000   0.0000   0.0000   0.0000
     0.0000   0.0000   0.0000   0.0000   0.0000   0.0000   0.0000   0.0000
     0.0000   0.0000   0.0000   0.0000   0.0000   0.0000   0.0000   0.0000
     0.0000   0.0000

          k = 0.0000-0.5000 0.0000 ( 65180 PWs)   bands (ev):

   -92.8763 -92.8248 -92.7299 -92.6834 -92.6264 -92.5831 -92.5650 -92.4428
   -56.2300 -56.2115 -56.0869 -56.0766 -56.0692 -56.0635 -56.0281 -55.9989
   -55.9838 -55.9831 -55.9756 -55.9335 -55.9148 -55.8771 -55.8566 -55.8252
   -55.8186 -55.7703 -55.7686 -55.7678 -55.7594 -55.7179 -55.6951 -55.6091
   -31.4387 -31.4193 -31.2793 -31.1926 -31.1669 -30.9731 -30.9701 -30.9489
   -30.0188 -29.9760 -29.9532 -29.8453 -15.1807 -15.1315 -15.0797 -14.9438
   -14.8674 -14.7255 -14.5765 -14.4394 -14.3275 -14.2482 -14.2107 -14.2007
   -14.1515 -14.1381 -14.0933 -14.0680 -14.0434 -14.0046 -13.9468 -13.9262
   -13.7531 -13.6946 -13.6699 -13.6260 -13.5424 -13.5265 -13.4605 -13.4437
   -13.3975 -13.3789 -13.2708 -13.2495 -13.1538 -13.1315 -13.1112 -13.0916
   -13.0500 -13.0358 -12.9448 -12.9274 -12.8748 -12.8696 -12.8418 -12.8156
   -12.8081 -12.7983 -12.6784 -12.5650 -12.4868 -12.4108 -12.3315 -12.3076
   -11.9789 -11.9530 -11.9505 -11.9231 -11.8871 -11.8520 -11.8404 -11.7973
   -11.7933 -11.7481 -11.6897 -11.6756 -11.6615  -2.7636  -2.7044  -2.5547
    -2.4827  -2.1999  -2.1161  -1.9905  -1.8529  -1.8160  -1.7955  -1.7185
    -1.6831  -1.6053  -1.5679  -1.4898  -1.4509  -1.4127  -1.3849  -1.3275
    -1.2896  -1.2408  -1.2044  -1.1748  -1.1380  -1.0306  -0.9859  -0.9495
    -0.9474  -0.8607  -0.8298  -0.8051  -0.7578  -0.6736  -0.5939  -0.5087
    -0.4825  -0.3611  -0.3329  -0.2014  -0.1591  -0.1274  -0.0799   0.0551
     0.1172   0.2200   0.2920   0.2994   0.4267   0.4927   0.5813   0.7096
     0.8120   0.8450   0.8852   0.8950   0.9284   0.9441   0.9814   1.0003
     1.0147   1.1230   1.1810   1.2065   1.2320   1.5037   1.5327   1.5652
     1.6532   1.6722   1.7094   1.7284   1.7436   1.7782   1.7839   1.8031
     1.8343   1.8626   1.8949   1.8975   1.9299   1.9849   2.0726   2.1166
     2.2800   2.4306   2.4347   2.4589   2.4944   2.5018   2.5086   2.5581
     2.5660   2.5780   2.6219   2.6295   2.6456   2.6658   2.7375   2.7432
     2.8114   2.8150   2.8372   2.8429   2.8573   2.8626   2.8654   2.8717
     2.8761   2.8927   2.9052   2.9076   2.9708   2.9760   2.9926   3.0497
     3.9569   3.9948   4.0450   4.0978   4.5650   4.7485   4.9140   5.0059
     5.2930   5.3699   5.4962   5.5834   5.8606   5.8827   6.2941   6.6561
     6.7979   6.8957   7.1502   7.3060   7.5869   7.6511   7.6824   7.7189
     7.7806   7.9173   8.0800   8.1609   8.1918   8.3590   8.5251   8.6931
     8.7370   8.7450

     occupation numbers 
     1.0000   1.0000   1.0000   1.0000   1.0000   1.0000   1.0000   1.0000
     1.0000   1.0000   1.0000   1.0000   1.0000   1.0000   1.0000   1.0000
     1.0000   1.0000   1.0000   1.0000   1.0000   1.0000   1.0000   1.0000
     1.0000   1.0000   1.0000   1.0000   1.0000   1.0000   1.0000   1.0000
     1.0000   1.0000   1.0000   1.0000   1.0000   1.0000   1.0000   1.0000
     1.0000   1.0000   1.0000   1.0000   1.0000   1.0000   1.0000   1.0000
     1.0000   1.0000   1.0000   1.0000   1.0000   1.0000   1.0000   1.0000
     1.0000   1.0000   1.0000   1.0000   1.0000   1.0000   1.0000   1.0000
     1.0000   1.0000   1.0000   1.0000   1.0000   1.0000   1.0000   1.0000
     1.0000   1.0000   1.0000   1.0000   1.0000   1.0000   1.0000   1.0000
     1.0000   1.0000   1.0000   1.0000   1.0000   1.0000   1.0000   1.0000
     1.0000   1.0000   1.0000   1.0000   1.0000   1.0000   1.0000   1.0000
     1.0000   1.0000   1.0000   1.0000   1.0000   1.0000   1.0000   1.0000
     1.0000   1.0000   1.0000   1.0000   1.0000   1.0000   1.0000   1.0000
     1.0000   1.0000   1.0000   1.0000   1.0000   1.0000   1.0000   1.0000
     1.0000   1.0000   1.0000   1.0000   1.0000   1.0000   1.0000   1.0000
     1.0000   1.0000   1.0000   1.0000   1.0000   1.0000   1.0000   1.0000
     1.0000   1.0000   1.0000   1.0000   1.0000   1.0000   1.0000   1.0000
     1.0000   1.0000   1.0000   1.0000   1.0000   1.0000   1.0000   1.0000
     1.0000   1.0000   1.0000   1.0000   1.0000   1.0000   0.9999   0.9999
     0.9997   0.9997   0.9996   0.9996   0.9995   0.9995   0.9994   0.9993
     0.9992   0.9987   0.9983   0.9981   0.9978   0.9928   0.9919   0.9908
     0.9870   0.9860   0.9839   0.9828   0.9818   0.9794   0.9789   0.9775
     0.9749   0.9723   0.9691   0.9688   0.9653   0.9585   0.9456   0.9380
     0.9025   0.8582   0.8568   0.8485   0.8358   0.8331   0.8305   0.8113
     0.8081   0.8032   0.7847   0.7814   0.7742   0.7651   0.7312   0.7284
     0.6938   0.6919   0.6802   0.6772   0.6695   0.6667   0.6651   0.6617
     0.6593   0.6502   0.6434   0.6420   0.6064   0.6034   0.5939   0.5608
     0.1162   0.1056   0.0926   0.0802   0.0180   0.0089   0.0045   0.0030
     0.0007   0.0005   0.0003   0.0002   0.0000   0.0000   0.0000   0.0000
     0.0000   0.0000   0.0000   0.0000   0.0000   0.0000   0.0000   0.0000
     0.0000   0.0000   0.0000   0.0000   0.0000   0.0000   0.0000   0.0000
     0.0000   0.0000

          k = 0.2500 0.2500 0.0000 ( 65198 PWs)   bands (ev):

   -92.8763 -92.8248 -92.7299 -92.6834 -92.6264 -92.5831 -92.5650 -92.4428
   -56.2300 -56.2115 -56.0869 -56.0766 -56.0692 -56.0635 -56.0281 -55.9989
   -55.9838 -55.9831 -55.9756 -55.9335 -55.9148 -55.8771 -55.8566 -55.8252
   -55.8186 -55.7703 -55.7686 -55.7678 -55.7594 -55.7179 -55.6951 -55.6091
   -31.4372 -31.4211 -31.2787 -31.1928 -31.1669 -30.9766 -30.9656 -30.9500
   -30.0185 -29.9773 -29.9522 -29.8454 -15.1871 -15.1471 -15.0740 -14.9565
   -14.8348 -14.7078 -14.6399 -14.4271 -14.2771 -14.2607 -14.2260 -14.1945
   -14.1760 -14.1501 -14.1061 -14.0680 -14.0092 -13.9901 -13.8302 -13.8159
   -13.7884 -13.7668 -13.7098 -13.6784 -13.5923 -13.5817 -13.4311 -13.4012
   -13.3859 -13.3032 -13.2632 -13.2113 -13.1808 -13.1447 -13.1171 -13.1073
   -13.0766 -12.9888 -12.9582 -12.9281 -12.9079 -12.8902 -12.8774 -12.8554
   -12.8315 -12.7822 -12.6562 -12.6158 -12.5211 -12.4407 -12.2534 -12.2208
   -11.9793 -11.9709 -11.9397 -11.9288 -11.9216 -11.8589 -11.8245 -11.8179
   -11.7824 -11.7739 -11.6841 -11.6426 -11.6255  -2.8398  -2.6318  -2.5132
    -2.4193  -2.2989  -2.2344  -2.0352  -1.8922  -1.8734  -1.8433  -1.7471
    -1.7151  -1.6189  -1.5917  -1.5412  -1.4099  -1.3622  -1.2895  -1.2441
    -1.1996  -1.1762  -1.1526  -1.1091  -1.0946  -1.0036  -0.9525  -0.8863
    -0.8364  -0.8043  -0.7599  -0.7426  -0.6791  -0.6312  -0.5727  -0.5395
    -0.4513  -0.3969  -0.3698  -0.3331  -0.2770  -0.1796  -0.1624  -0.1397
    -0.0523  -0.0268   0.2406   0.3913   0.4236   0.4890   0.5348   0.5854
     0.6400   0.7048   0.7378   1.0077   1.0713   1.1441   1.1694   1.2211
     1.2494   1.2854   1.3232   1.3396   1.3670   1.4160   1.4214   1.4366
     1.4805   1.5198   1.5591   1.6371   1.6676   1.6742   1.7176   1.7446
     1.7994   1.8279   1.9479   2.0119   2.0478   2.0626   2.1324   2.2023
     2.2263   2.2602   2.2890   2.3033   2.4095   2.4472   2.5355   2.5678
     2.6314   2.6623   2.7059   2.7214   2.7290   2.7439   2.7616   2.7714
     2.7861   2.7909   2.8019   2.8147   2.8272   2.8447   2.8510   2.8633
     2.8870   2.8968   2.9067   2.9380   3.2374   3.3319   3.3776   3.4538
     3.4919   3.6875   3.7818   4.1472   4.3561   4.5593   4.8207   5.1352
     5.5098   5.5660   5.5995   5.6660   5.7288   6.0963   6.1348   6.1752
     6.8386   7.0725   7.2247   7.3676   7.4597   7.4889   7.5994   7.7628
     7.8421   8.0662   8.2103   8.2355   8.3229   8.3321   8.4329   8.4718
     8.5587   8.7985

     occupation numbers 
     1.0000   1.0000   1.0000   1.0000   1.0000   1.0000   1.0000   1.0000
     1.0000   1.0000   1.0000   1.0000   1.0000   1.0000   1.0000   1.0000
     1.0000   1.0000   1.0000   1.0000   1.0000   1.0000   1.0000   1.0000
     1.0000   1.0000   1.0000   1.0000   1.0000   1.0000   1.0000   1.0000
     1.0000   1.0000   1.0000   1.0000   1.0000   1.0000   1.0000   1.0000
     1.0000   1.0000   1.0000   1.0000   1.0000   1.0000   1.0000   1.0000
     1.0000   1.0000   1.0000   1.0000   1.0000   1.0000   1.0000   1.0000
     1.0000   1.0000   1.0000   1.0000   1.0000   1.0000   1.0000   1.0000
     1.0000   1.0000   1.0000   1.0000   1.0000   1.0000   1.0000   1.0000
     1.0000   1.0000   1.0000   1.0000   1.0000   1.0000   1.0000   1.0000
     1.0000   1.0000   1.0000   1.0000   1.0000   1.0000   1.0000   1.0000
     1.0000   1.0000   1.0000   1.0000   1.0000   1.0000   1.0000   1.0000
     1.0000   1.0000   1.0000   1.0000   1.0000   1.0000   1.0000   1.0000
     1.0000   1.0000   1.0000   1.0000   1.0000   1.0000   1.0000   1.0000
     1.0000   1.0000   1.0000   1.0000   1.0000   1.0000   1.0000   1.0000
     1.0000   1.0000   1.0000   1.0000   1.0000   1.0000   1.0000   1.0000
     1.0000   1.0000   1.0000   1.0000   1.0000   1.0000   1.0000   1.0000
     1.0000   1.0000   1.0000   1.0000   1.0000   1.0000   1.0000   1.0000
     1.0000   1.0000   1.0000   1.0000   1.0000   1.0000   1.0000   1.0000
     1.0000   1.0000   1.0000   1.0000   1.0000   1.0000   0.9999   0.9999
     0.9999   0.9999   0.9998   0.9993   0.9990   0.9986   0.9984   0.9979
     0.9976   0.9972   0.9967   0.9965   0.9960   0.9950   0.9949   0.9946
     0.9935   0.9923   0.9910   0.9878   0.9863   0.9859   0.9835   0.9817
     0.9778   0.9754   0.9632   0.9549   0.9496   0.9472   0.9351   0.9209
     0.9155   0.9074   0.9002   0.8964   0.8651   0.8526   0.8203   0.8074
     0.7805   0.7667   0.7465   0.7390   0.7354   0.7281   0.7193   0.7144
     0.7069   0.7044   0.6988   0.6921   0.6855   0.6762   0.6729   0.6663
     0.6534   0.6480   0.6425   0.6250   0.4499   0.3950   0.3692   0.3274
     0.3072   0.2135   0.1751   0.0699   0.0370   0.0184   0.0066   0.0016
     0.0002   0.0002   0.0001   0.0001   0.0001   0.0000   0.0000   0.0000
     0.0000   0.0000   0.0000   0.0000   0.0000   0.0000   0.0000   0.0000
     0.0000   0.0000   0.0000   0.0000   0.0000   0.0000   0.0000   0.0000
     0.0000   0.0000

          k = 0.2500-0.5000 0.0000 ( 65138 PWs)   bands (ev):

   -92.8763 -92.8248 -92.7299 -92.6834 -92.6264 -92.5831 -92.5650 -92.4428
   -56.2300 -56.2115 -56.0869 -56.0766 -56.0692 -56.0635 -56.0281 -55.9989
   -55.9838 -55.9831 -55.9756 -55.9335 -55.9148 -55.8771 -55.8566 -55.8252
   -55.8186 -55.7703 -55.7686 -55.7678 -55.7594 -55.7179 -55.6951 -55.6091
   -31.4370 -31.4209 -31.2789 -31.1930 -31.1668 -30.9719 -30.9702 -30.9503
   -30.0179 -29.9770 -29.9528 -29.8457 -15.1504 -15.1047 -15.0368 -14.9145
   -14.8886 -14.7676 -14.6771 -14.5397 -14.2421 -14.1852 -14.1607 -14.1378
   -14.1186 -14.1122 -14.0777 -14.0571 -14.0185 -13.9857 -13.9511 -13.9072
   -13.8345 -13.7846 -13.7267 -13.7068 -13.6335 -13.5811 -13.4923 -13.4547
   -13.3691 -13.3044 -13.2795 -13.1955 -13.1563 -13.1422 -13.1167 -13.1045
   -13.0751 -12.9849 -12.9467 -12.9366 -12.8923 -12.8620 -12.8240 -12.8188
   -12.7948 -12.7860 -12.6847 -12.5480 -12.4841 -12.3980 -12.3176 -12.3003
   -11.9790 -11.9468 -11.9347 -11.9241 -11.8970 -11.8647 -11.8373 -11.7942
   -11.7687 -11.7452 -11.7027 -11.6768 -11.6655  -2.6214  -2.5561  -2.4284
    -2.3513  -2.2201  -2.1363  -2.0148  -1.8642  -1.8109  -1.7877  -1.7246
    -1.7119  -1.6161  -1.5464  -1.4627  -1.4120  -1.4019  -1.3409  -1.2978
    -1.2630  -1.2151  -1.1773  -1.1425  -1.1037  -1.0924  -1.0460  -1.0161
    -0.9733  -0.9428  -0.8762  -0.7746  -0.7341  -0.6552  -0.5875  -0.5376
    -0.4980  -0.4770  -0.4142  -0.2559  -0.2445  -0.1474  -0.1124  -0.1049
    -0.0638  -0.0204   0.0157   0.0444   0.1056   0.3945   0.4997   0.5470
     0.6083   0.8752   0.8955   0.9830   1.0051   1.1678   1.2039   1.2440
     1.2686   1.2800   1.3017   1.3645   1.4134   1.4485   1.5248   1.6385
     1.6680   1.6834   1.6910   1.7332   1.7409   1.7621   1.7989   1.8044
     1.8342   1.8534   1.8746   1.8897   1.9266   1.9847   2.0270   2.1109
     2.2427   2.3822   2.4001   2.4182   2.4469   2.4660   2.4960   2.5165
     2.5304   2.5540   2.5714   2.6265   2.6524   2.6685   2.7151   2.7231
     2.7305   2.7415   2.7613   2.7742   2.7939   2.8036   2.8373   2.8453
     2.8599   2.8693   2.8766   2.8883   3.4120   3.4341   3.5699   3.6282
     3.9710   4.0278   4.0420   4.1541   4.5846   4.7681   4.9328   4.9721
     5.1422   5.3087   5.5151   5.5247   5.6385   5.6729   6.3505   6.3907
     6.4490   6.7634   7.2391   7.5936   7.6662   7.7169   7.7497   7.8080
     7.9136   7.9322   8.2274   8.3391   8.3520   8.4159   8.5550   8.5937
     8.6415   8.7892

     occupation numbers 
     1.0000   1.0000   1.0000   1.0000   1.0000   1.0000   1.0000   1.0000
     1.0000   1.0000   1.0000   1.0000   1.0000   1.0000   1.0000   1.0000
     1.0000   1.0000   1.0000   1.0000   1.0000   1.0000   1.0000   1.0000
     1.0000   1.0000   1.0000   1.0000   1.0000   1.0000   1.0000   1.0000
     1.0000   1.0000   1.0000   1.0000   1.0000   1.0000   1.0000   1.0000
     1.0000   1.0000   1.0000   1.0000   1.0000   1.0000   1.0000   1.0000
     1.0000   1.0000   1.0000   1.0000   1.0000   1.0000   1.0000   1.0000
     1.0000   1.0000   1.0000   1.0000   1.0000   1.0000   1.0000   1.0000
     1.0000   1.0000   1.0000   1.0000   1.0000   1.0000   1.0000   1.0000
     1.0000   1.0000   1.0000   1.0000   1.0000   1.0000   1.0000   1.0000
     1.0000   1.0000   1.0000   1.0000   1.0000   1.0000   1.0000   1.0000
     1.0000   1.0000   1.0000   1.0000   1.0000   1.0000   1.0000   1.0000
     1.0000   1.0000   1.0000   1.0000   1.0000   1.0000   1.0000   1.0000
     1.0000   1.0000   1.0000   1.0000   1.0000   1.0000   1.0000   1.0000
     1.0000   1.0000   1.0000   1.0000   1.0000   1.0000   1.0000   1.0000
     1.0000   1.0000   1.0000   1.0000   1.0000   1.0000   1.0000   1.0000
     1.0000   1.0000   1.0000   1.0000   1.0000   1.0000   1.0000   1.0000
     1.0000   1.0000   1.0000   1.0000   1.0000   1.0000   1.0000   1.0000
     1.0000   1.0000   1.0000   1.0000   1.0000   1.0000   1.0000   1.0000
     1.0000   1.0000   1.0000   1.0000   1.0000   1.0000   1.0000   0.9999
     0.9999   0.9996   0.9996   0.9994   0.9993   0.9984   0.9981   0.9977
     0.9974   0.9973   0.9970   0.9960   0.9951   0.9943   0.9922   0.9877
     0.9863   0.9854   0.9850   0.9825   0.9820   0.9805   0.9778   0.9774
     0.9749   0.9732   0.9711   0.9696   0.9657   0.9586   0.9527   0.9391
     0.9117   0.8737   0.8681   0.8623   0.8527   0.8460   0.8352   0.8276
     0.8223   0.8130   0.8059   0.7827   0.7712   0.7639   0.7420   0.7382
     0.7346   0.7292   0.7194   0.7129   0.7029   0.6979   0.6802   0.6760
     0.6681   0.6630   0.6591   0.6526   0.3501   0.3380   0.2678   0.2400
     0.1121   0.0969   0.0933   0.0685   0.0167   0.0082   0.0041   0.0034
     0.0016   0.0007   0.0002   0.0002   0.0001   0.0001   0.0000   0.0000
     0.0000   0.0000   0.0000   0.0000   0.0000   0.0000   0.0000   0.0000
     0.0000   0.0000   0.0000   0.0000   0.0000   0.0000   0.0000   0.0000
     0.0000   0.0000

          k =-0.5000-0.5000 0.0000 ( 65132 PWs)   bands (ev):

   -92.8763 -92.8248 -92.7299 -92.6834 -92.6264 -92.5831 -92.5650 -92.4428
   -56.2300 -56.2115 -56.0869 -56.0766 -56.0692 -56.0635 -56.0281 -55.9989
   -55.9838 -55.9831 -55.9756 -55.9335 -55.9148 -55.8771 -55.8566 -55.8252
   -55.8186 -55.7703 -55.7686 -55.7678 -55.7594 -55.7179 -55.6951 -55.6091
   -31.4349 -31.4231 -31.2785 -31.1933 -31.1666 -30.9711 -30.9696 -30.9518
   -30.0169 -29.9780 -29.9524 -29.8461 -15.1046 -15.0780 -14.9592 -14.9478
   -14.8502 -14.8172 -14.7742 -14.6412 -14.1540 -14.1365 -14.1053 -14.0863
   -14.0719 -14.0564 -14.0294 -14.0193 -14.0047 -13.9872 -13.9685 -13.9009
   -13.8922 -13.8538 -13.8261 -13.8154 -13.7213 -13.6252 -13.5265 -13.5038
   -13.3194 -13.2767 -13.2133 -13.1887 -13.1560 -13.1473 -13.1380 -13.1205
   -13.0941 -12.9561 -12.9434 -12.9280 -12.8965 -12.8816 -12.8339 -12.8134
   -12.7685 -12.7604 -12.7008 -12.5322 -12.4803 -12.3847 -12.3031 -12.2935
   -11.9790 -11.9439 -11.9311 -11.9128 -11.8965 -11.8608 -11.8427 -11.8092
   -11.7495 -11.7281 -11.7246 -11.6744 -11.6713  -2.3966  -2.3209  -2.3106
    -2.2413  -2.2022  -2.1235  -2.0557  -1.9299  -1.8151  -1.7841  -1.7453
    -1.6882  -1.6153  -1.6016  -1.5298  -1.4879  -1.3692  -1.3395  -1.2917
    -1.2654  -1.2009  -1.1532  -1.1340  -1.1206  -1.0689  -1.0255  -1.0061
    -0.8952  -0.8382  -0.7932  -0.7401  -0.7136  -0.7020  -0.6664  -0.6211
    -0.5859  -0.5762  -0.4930  -0.4192  -0.3824  -0.3493  -0.2802  -0.2134
    -0.1987  -0.1429  -0.1214  -0.1137  -0.1041   0.3621   0.4356   0.4933
     0.5297   0.9082   0.9173   0.9472   0.9840   1.2536   1.2743   1.2803
     1.3182   1.4460   1.5417   1.5696   1.6064   1.6409   1.6527   1.6632
     1.6946   1.7129   1.7326   1.7430   1.7764   1.7826   1.8093   1.8432
     1.8569   1.8651   1.9067   1.9253   1.9408   1.9704   2.0011   2.0629
     2.1303   2.3923   2.4260   2.4472   2.4636   2.4735   2.5030   2.5078
     2.5238   2.5384   2.5554   2.5632   2.5842   2.5903   2.6267   2.6562
     2.6576   2.6668   2.6792   2.6974   2.7170   2.7264   2.7321   2.7464
     2.8421   2.8509   2.8752   2.8844   3.8302   3.8727   3.9203   3.9544
     4.1450   4.2199   4.2445   4.4860   4.6080   4.6901   4.8237   4.9264
     4.9469   5.0345   5.1779   5.2481   5.8248   5.8489   5.8988   6.0028
     6.6098   6.8571   6.9267   7.5430   7.8451   7.8587   7.9370   8.0677
     8.1659   8.1857   8.2280   8.2442   8.4069   8.4731   8.5016   8.5332
     8.5452   8.5721

     occupation numbers 
     1.0000   1.0000   1.0000   1.0000   1.0000   1.0000   1.0000   1.0000
     1.0000   1.0000   1.0000   1.0000   1.0000   1.0000   1.0000   1.0000
[...]
     0.6330   0.6211   0.6185   0.6142   0.6104   0.6046   0.5986   0.5208
     0.3502   0.3191   0.2024   0.0751   0.0435   0.0207   0.0048   0.0030
     0.0002   0.0001   0.0000   0.0000   0.0000   0.0000   0.0000   0.0000
     0.0000   0.0000   0.0000   0.0000   0.0000   0.0000   0.0000   0.0000
     0.0000   0.0000   0.0000   0.0000   0.0000   0.0000   0.0000   0.0000
     0.0000   0.0000

          k =-0.5000 0.0000 0.0000 ( 65180 PWs)   bands (ev):

   -92.8763 -92.8248 -92.7299 -92.6834 -92.6264 -92.5831 -92.5650 -92.4428
   -56.2300 -56.2115 -56.0869 -56.0766 -56.0692 -56.0635 -56.0281 -55.9989
   -55.9838 -55.9831 -55.9756 -55.9336 -55.9148 -55.8771 -55.8566 -55.8252
   -55.8186 -55.7703 -55.7686 -55.7678 -55.7594 -55.7179 -55.6951 -55.6091
   -31.4352 -31.4234 -31.2781 -31.1931 -31.1669 -30.9784 -30.9623 -30.9515
   -30.0181 -29.9787 -29.9511 -29.8455 -15.1856 -15.1343 -15.0715 -14.9577
   -14.8588 -14.7150 -14.5674 -14.4162 -14.3020 -14.2824 -14.2781 -14.2059
   -14.1573 -14.1280 -14.0766 -14.0641 -14.0535 -14.0048 -13.9720 -13.8724
   -13.7246 -13.6948 -13.6637 -13.6567 -13.5460 -13.5315 -13.4673 -13.4286
   -13.4051 -13.3808 -13.2166 -13.2045 -13.1831 -13.1720 -13.1265 -13.1094
   -13.0879 -13.0512 -12.9101 -12.9032 -12.8945 -12.8618 -12.8270 -12.8043
   -12.7947 -12.7755 -12.7044 -12.5757 -12.4906 -12.4302 -12.3313 -12.2917
   -11.9791 -11.9504 -11.9289 -11.9219 -11.9078 -11.8892 -11.8471 -11.7860
   -11.7678 -11.7339 -11.6917 -11.6824 -11.6667  -2.7535  -2.7151  -2.5525
    -2.5127  -2.1984  -2.1240  -1.9765  -1.8585  -1.8193  -1.7746  -1.7262
    -1.7016  -1.5772  -1.5332  -1.5172  -1.4358  -1.3993  -1.3840  -1.3533
    -1.2922  -1.2259  -1.1979  -1.1662  -1.0677  -1.0255  -0.9763  -0.9430
    -0.9222  -0.8916  -0.8433  -0.8179  -0.7752  -0.6807  -0.6083  -0.5397
    -0.4796  -0.2969  -0.2785  -0.2260  -0.1877  -0.1182  -0.1018   0.0353
     0.0623   0.0967   0.2697   0.3694   0.4199   0.5008   0.5960   0.6878
     0.7110   0.8443   0.8636   0.9150   0.9423   0.9828   0.9970   1.0417
     1.0627   1.1357   1.1803   1.2258   1.2349   1.5434   1.5534   1.5666
     1.6028   1.6977   1.7054   1.7249   1.7352   1.7564   1.7712   1.8124
     1.8263   1.8606   1.9059   1.9281   1.9732   2.0011   2.0517   2.1573
     2.2766   2.3266   2.3478   2.4265   2.4529   2.4831   2.5488   2.5578
     2.5656   2.5720   2.5963   2.6364   2.6655   2.6690   2.7145   2.7577
     2.7895   2.8280   2.8319   2.8337   2.8458   2.8588   2.8712   2.8857
     2.8901   2.9128   2.9131   2.9400   2.9558   2.9616   3.0916   3.1030
     3.8911   3.9673   4.0422   4.1788   4.6256   4.7136   4.8863   4.9357
     5.3758   5.4154   5.4918   5.5209   5.8665   5.8742   6.3163   6.6159
     6.7430   6.9457   7.2090   7.2584   7.6206   7.6428   7.6810   7.7066
     7.7756   7.9745   8.0287   8.1940   8.2773   8.3792   8.4900   8.5826
     8.6427   8.7956

     occupation numbers 
     1.0000   1.0000   1.0000   1.0000   1.0000   1.0000   1.0000   1.0000
     1.0000   1.0000   1.0000   1.0000   1.0000   1.0000   1.0000   1.0000
     1.0000   1.0000   1.0000   1.0000   1.0000   1.0000   1.0000   1.0000
     1.0000   1.0000   1.0000   1.0000   1.0000   1.0000   1.0000   1.0000
     1.0000   1.0000   1.0000   1.0000   1.0000   1.0000   1.0000   1.0000
     1.0000   1.0000   1.0000   1.0000   1.0000   1.0000   1.0000   1.0000
     1.0000   1.0000   1.0000   1.0000   1.0000   1.0000   1.0000   1.0000
     1.0000   1.0000   1.0000   1.0000   1.0000   1.0000   1.0000   1.0000
     1.0000   1.0000   1.0000   1.0000   1.0000   1.0000   1.0000   1.0000
     1.0000   1.0000   1.0000   1.0000   1.0000   1.0000   1.0000   1.0000
     1.0000   1.0000   1.0000   1.0000   1.0000   1.0000   1.0000   1.0000
     1.0000   1.0000   1.0000   1.0000   1.0000   1.0000   1.0000   1.0000
     1.0000   1.0000   1.0000   1.0000   1.0000   1.0000   1.0000   1.0000
     1.0000   1.0000   1.0000   1.0000   1.0000   1.0000   1.0000   1.0000
     1.0000   1.0000   1.0000   1.0000   1.0000   1.0000   1.0000   1.0000
     1.0000   1.0000   1.0000   1.0000   1.0000   1.0000   1.0000   1.0000
     1.0000   1.0000   1.0000   1.0000   1.0000   1.0000   1.0000   1.0000
     1.0000   1.0000   1.0000   1.0000   1.0000   1.0000   1.0000   1.0000
     1.0000   1.0000   1.0000   1.0000   1.0000   1.0000   1.0000   1.0000
     1.0000   1.0000   1.0000   1.0000   1.0000   1.0000   0.9999   0.9999
     0.9999   0.9997   0.9997   0.9996   0.9995   0.9994   0.9993   0.9991
     0.9990   0.9986   0.9983   0.9979   0.9978   0.9916   0.9912   0.9907
     0.9893   0.9846   0.9842   0.9830   0.9823   0.9809   0.9799   0.9767
     0.9755   0.9725   0.9679   0.9655   0.9601   0.9564   0.9489   0.9303
     0.9033   0.8900   0.8840   0.8595   0.8506   0.8399   0.8150   0.8114
     0.8083   0.8057   0.7956   0.7783   0.7653   0.7637   0.7424   0.7212
     0.7051   0.6851   0.6831   0.6821   0.6757   0.6687   0.6620   0.6541
     0.6517   0.6391   0.6390   0.6239   0.6150   0.6117   0.5361   0.5294
     0.1364   0.1132   0.0933   0.0638   0.0144   0.0102   0.0050   0.0041
     0.0005   0.0004   0.0003   0.0002   0.0000   0.0000   0.0000   0.0000
     0.0000   0.0000   0.0000   0.0000   0.0000   0.0000   0.0000   0.0000
     0.0000   0.0000   0.0000   0.0000   0.0000   0.0000   0.0000   0.0000
     0.0000   0.0000

          k =-0.2500 0.2500 0.0000 ( 65198 PWs)   bands (ev):

   -92.8763 -92.8248 -92.7299 -92.6834 -92.6264 -92.5831 -92.5650 -92.4428
   -56.2300 -56.2115 -56.0869 -56.0766 -56.0692 -56.0635 -56.0281 -55.9989
   -55.9838 -55.9831 -55.9756 -55.9335 -55.9148 -55.8771 -55.8566 -55.8252
   -55.8186 -55.7703 -55.7686 -55.7678 -55.7594 -55.7179 -55.6951 -55.6091
   -31.4372 -31.4211 -31.2787 -31.1928 -31.1669 -30.9766 -30.9656 -30.9500
   -30.0185 -29.9773 -29.9522 -29.8454 -15.1885 -15.1461 -15.0721 -14.9556
   -14.8401 -14.7132 -14.6319 -14.4175 -14.2832 -14.2538 -14.2364 -14.1928
   -14.1661 -14.1501 -14.1247 -14.0695 -14.0049 -13.9900 -13.8381 -13.8134
   -13.7839 -13.7638 -13.7165 -13.6653 -13.5999 -13.5663 -13.4370 -13.4099
   -13.3840 -13.3074 -13.2640 -13.2021 -13.1711 -13.1516 -13.1257 -13.1010
   -13.0902 -12.9804 -12.9667 -12.9360 -12.9249 -12.8754 -12.8563 -12.8512
   -12.8292 -12.7921 -12.6242 -12.6057 -12.5593 -12.4464 -12.2655 -12.2044
   -11.9792 -11.9701 -11.9490 -11.9221 -11.9098 -11.8683 -11.8342 -11.8106
   -11.7895 -11.7667 -11.6838 -11.6381 -11.6287  -2.8382  -2.6308  -2.5091
    -2.4207  -2.3031  -2.2371  -2.0329  -1.8891  -1.8711  -1.8413  -1.7476
    -1.7140  -1.6188  -1.5849  -1.5584  -1.4166  -1.3595  -1.2920  -1.2640
    -1.2032  -1.1817  -1.1424  -1.1135  -1.0735  -1.0091  -0.9612  -0.8969
    -0.8288  -0.8002  -0.7524  -0.7228  -0.6772  -0.6213  -0.5748  -0.5348
    -0.4319  -0.4021  -0.3859  -0.3461  -0.2789  -0.1874  -0.1571  -0.1293
    -0.0489  -0.0297   0.2215   0.3935   0.4327   0.4776   0.5401   0.5874
     0.6429   0.7128   0.7347   1.0155   1.1223   1.1620   1.1952   1.1997
     1.2422   1.2591   1.3046   1.3365   1.3484   1.3745   1.4241   1.4401
     1.4784   1.4966   1.5424   1.6499   1.6587   1.6750   1.7198   1.7437
     1.7798   1.8363   1.9383   2.0436   2.0646   2.1106   2.1306   2.2007
     2.2384   2.2638   2.2928   2.3084   2.4101   2.4462   2.5352   2.5669
     2.6313   2.6623   2.7113   2.7221   2.7335   2.7440   2.7540   2.7683
     2.7783   2.7943   2.8010   2.8152   2.8254   2.8371   2.8460   2.8527
     2.8873   2.8976   2.9052   2.9397   3.2307   3.3127   3.3815   3.4591
     3.4984   3.6725   3.7907   4.1464   4.3546   4.5608   4.8292   5.1352
     5.5112   5.5623   5.6030   5.6631   5.7299   6.1102   6.1295   6.1670
     6.8398   7.1001   7.1854   7.3630   7.4702   7.4940   7.5751   7.7735
     7.8769   8.0172   8.2111   8.2849   8.3122   8.3341   8.4428   8.4578
     8.5664   8.7819

     occupation numbers 
     1.0000   1.0000   1.0000   1.0000   1.0000   1.0000   1.0000   1.0000
     1.0000   1.0000   1.0000   1.0000   1.0000   1.0000   1.0000   1.0000
     1.0000   1.0000   1.0000   1.0000   1.0000   1.0000   1.0000   1.0000
     1.0000   1.0000   1.0000   1.0000   1.0000   1.0000   1.0000   1.0000
     1.0000   1.0000   1.0000   1.0000   1.0000   1.0000   1.0000   1.0000
     1.0000   1.0000   1.0000   1.0000   1.0000   1.0000   1.0000   1.0000
     1.0000   1.0000   1.0000   1.0000   1.0000   1.0000   1.0000   1.0000
     1.0000   1.0000   1.0000   1.0000   1.0000   1.0000   1.0000   1.0000
     1.0000   1.0000   1.0000   1.0000   1.0000   1.0000   1.0000   1.0000
     1.0000   1.0000   1.0000   1.0000   1.0000   1.0000   1.0000   1.0000
     1.0000   1.0000   1.0000   1.0000   1.0000   1.0000   1.0000   1.0000
     1.0000   1.0000   1.0000   1.0000   1.0000   1.0000   1.0000   1.0000
     1.0000   1.0000   1.0000   1.0000   1.0000   1.0000   1.0000   1.0000
     1.0000   1.0000   1.0000   1.0000   1.0000   1.0000   1.0000   1.0000
     1.0000   1.0000   1.0000   1.0000   1.0000   1.0000   1.0000   1.0000
     1.0000   1.0000   1.0000   1.0000   1.0000   1.0000   1.0000   1.0000
     1.0000   1.0000   1.0000   1.0000   1.0000   1.0000   1.0000   1.0000
     1.0000   1.0000   1.0000   1.0000   1.0000   1.0000   1.0000   1.0000
     1.0000   1.0000   1.0000   1.0000   1.0000   1.0000   1.0000   1.0000
     1.0000   1.0000   1.0000   1.0000   1.0000   1.0000   0.9999   0.9999
     0.9999   0.9999   0.9998   0.9992   0.9987   0.9984   0.9982   0.9981
     0.9977   0.9975   0.9970   0.9965   0.9963   0.9959   0.9949   0.9945
     0.9935   0.9930   0.9916   0.9872   0.9867   0.9859   0.9833   0.9818
     0.9793   0.9747   0.9643   0.9502   0.9469   0.9391   0.9355   0.9213
     0.9127   0.9065   0.8992   0.8950   0.8649   0.8529   0.8204   0.8078
     0.7806   0.7667   0.7439   0.7387   0.7332   0.7280   0.7231   0.7159
     0.7109   0.7027   0.6992   0.6918   0.6865   0.6803   0.6756   0.6720
     0.6532   0.6475   0.6433   0.6240   0.4539   0.4061   0.3670   0.3245
     0.3038   0.2201   0.1717   0.0700   0.0371   0.0183   0.0064   0.0016
     0.0002   0.0002   0.0001   0.0001   0.0001   0.0000   0.0000   0.0000
     0.0000   0.0000   0.0000   0.0000   0.0000   0.0000   0.0000   0.0000
     0.0000   0.0000   0.0000   0.0000   0.0000   0.0000   0.0000   0.0000
     0.0000   0.0000

          k =-0.5000 0.2500 0.0000 ( 65138 PWs)   bands (ev):

   -92.8763 -92.8248 -92.7299 -92.6834 -92.6264 -92.5831 -92.5650 -92.4428
   -56.2300 -56.2115 -56.0869 -56.0766 -56.0692 -56.0635 -56.0281 -55.9989
   -55.9838 -55.9831 -55.9756 -55.9335 -55.9148 -55.8771 -55.8566 -55.8252
   -55.8186 -55.7703 -55.7686 -55.7678 -55.7594 -55.7179 -55.6951 -55.6091
   -31.4350 -31.4232 -31.2783 -31.1932 -31.1668 -30.9761 -30.9646 -30.9517
   -30.0175 -29.9783 -29.9517 -29.8458 -15.1530 -15.1081 -15.0288 -14.9248
   -14.8865 -14.7619 -14.6699 -14.5350 -14.2346 -14.2019 -14.1894 -14.1456
   -14.1201 -14.1010 -14.0636 -14.0474 -14.0339 -13.9917 -13.9718 -13.8674
   -13.8053 -13.7572 -13.7523 -13.7358 -13.6343 -13.5860 -13.4962 -13.4430
   -13.3620 -13.3263 -13.2290 -13.1892 -13.1787 -13.1513 -13.1223 -13.1044
   -13.0974 -13.0107 -12.9309 -12.9125 -12.8988 -12.8633 -12.8315 -12.7950
   -12.7843 -12.7766 -12.7023 -12.5527 -12.4858 -12.4076 -12.3183 -12.2915
   -11.9791 -11.9433 -11.9307 -11.9162 -11.9041 -11.8827 -11.8521 -11.7721
   -11.7645 -11.7399 -11.7062 -11.6780 -11.6693  -2.6107  -2.5692  -2.4221
    -2.3792  -2.2175  -2.1425  -2.0007  -1.8645  -1.8084  -1.7815  -1.7424
    -1.7040  -1.6230  -1.5070  -1.4499  -1.4266  -1.4006  -1.3236  -1.2956
    -1.2554  -1.2396  -1.1793  -1.1485  -1.1108  -1.0754  -1.0464  -0.9881
    -0.9600  -0.9176  -0.8835  -0.7798  -0.7492  -0.6626  -0.6008  -0.5708
    -0.5137  -0.4291  -0.3902  -0.2954  -0.2395  -0.1954  -0.1356  -0.1145
    -0.0439  -0.0222   0.0095   0.0600   0.1029   0.4183   0.5069   0.5425
     0.5733   0.8585   0.9069   0.9840   1.0064   1.1810   1.2182   1.2554
     1.2654   1.2841   1.3020   1.3719   1.4167   1.4631   1.4866   1.6306
     1.6612   1.6782   1.6899   1.7389   1.7584   1.7714   1.7862   1.8035
     1.8299   1.8742   1.8831   1.9195   1.9414   1.9788   2.0280   2.1506
     2.2552   2.2766   2.3476   2.3799   2.4435   2.4796   2.4851   2.5248
     2.5537   2.5633   2.5849   2.6332   2.6646   2.6660   2.7110   2.7215
     2.7278   2.7470   2.7685   2.7812   2.7980   2.8129   2.8320   2.8425
     2.8539   2.8609   2.8720   2.8825   3.4117   3.4769   3.6010   3.6262
     3.8992   3.9927   4.0432   4.2521   4.6181   4.7259   4.8803   4.9497
     5.2404   5.2739   5.5027   5.5694   5.6236   5.6447   6.3428   6.4092
     6.4604   6.7139   7.2833   7.6090   7.6771   7.7200   7.7457   7.7917
     7.8960   7.9193   8.2498   8.3534   8.3811   8.4297   8.5087   8.5680
     8.7012   8.7289

     occupation numbers 
     1.0000   1.0000   1.0000   1.0000   1.0000   1.0000   1.0000   1.0000
     1.0000   1.0000   1.0000   1.0000   1.0000   1.0000   1.0000   1.0000
     1.0000   1.0000   1.0000   1.0000   1.0000   1.0000   1.0000   1.0000
     1.0000   1.0000   1.0000   1.0000   1.0000   1.0000   1.0000   1.0000
     1.0000   1.0000   1.0000   1.0000   1.0000   1.0000   1.0000   1.0000
     1.0000   1.0000   1.0000   1.0000   1.0000   1.0000   1.0000   1.0000
     1.0000   1.0000   1.0000   1.0000   1.0000   1.0000   1.0000   1.0000
     1.0000   1.0000   1.0000   1.0000   1.0000   1.0000   1.0000   1.0000
     1.0000   1.0000   1.0000   1.0000   1.0000   1.0000   1.0000   1.0000
     1.0000   1.0000   1.0000   1.0000   1.0000   1.0000   1.0000   1.0000
     1.0000   1.0000   1.0000   1.0000   1.0000   1.0000   1.0000   1.0000
     1.0000   1.0000   1.0000   1.0000   1.0000   1.0000   1.0000   1.0000
     1.0000   1.0000   1.0000   1.0000   1.0000   1.0000   1.0000   1.0000
     1.0000   1.0000   1.0000   1.0000   1.0000   1.0000   1.0000   1.0000
     1.0000   1.0000   1.0000   1.0000   1.0000   1.0000   1.0000   1.0000
     1.0000   1.0000   1.0000   1.0000   1.0000   1.0000   1.0000   1.0000
     1.0000   1.0000   1.0000   1.0000   1.0000   1.0000   1.0000   1.0000
     1.0000   1.0000   1.0000   1.0000   1.0000   1.0000   1.0000   1.0000
     1.0000   1.0000   1.0000   1.0000   1.0000   1.0000   1.0000   1.0000
     1.0000   1.0000   1.0000   1.0000   1.0000   1.0000   1.0000   0.9999
     0.9999   0.9997   0.9996   0.9994   0.9993   0.9983   0.9980   0.9976
     0.9975   0.9972   0.9970   0.9959   0.9950   0.9939   0.9933   0.9881
     0.9866   0.9857   0.9851   0.9821   0.9808   0.9799   0.9788   0.9774
     0.9752   0.9712   0.9703   0.9665   0.9640   0.9593   0.9525   0.9316
     0.9087   0.9033   0.8840   0.8744   0.8538   0.8412   0.8392   0.8244
     0.8131   0.8092   0.8004   0.7797   0.7657   0.7650   0.7440   0.7390
     0.7359   0.7265   0.7158   0.7094   0.7008   0.6931   0.6830   0.6774
     0.6713   0.6676   0.6616   0.6558   0.3502   0.3151   0.2528   0.2410
     0.1338   0.1061   0.0930   0.0513   0.0148   0.0097   0.0052   0.0038
     0.0010   0.0008   0.0002   0.0002   0.0001   0.0001   0.0000   0.0000
     0.0000   0.0000   0.0000   0.0000   0.0000   0.0000   0.0000   0.0000
     0.0000   0.0000   0.0000   0.0000   0.0000   0.0000   0.0000   0.0000
     0.0000   0.0000

     the Fermi energy is     3.1526 ev

!    total energy              =   -4440.30372588 Ry
     estimated scf accuracy    <          5.4E-09 Ry
     smearing contrib. (-TS)   =      -1.20758913 Ry
     internal energy E=F+TS    =   -4439.09613675 Ry

     The total energy is F=E-TS. E is the sum of the following terms:
     one-electron contribution =  -20890.16948715 Ry
     hartree contribution      =   10574.19881716 Ry
     xc contribution           =    -693.24866895 Ry
     ewald contribution        =    6846.31443222 Ry
     one-center paw contrib.   =    -276.19123004 Ry
      -> PAW hartree energy AE =      25.07906797 Ry
      -> PAW hartree energy PS =     -24.96390525 Ry
      -> PAW xc energy AE      =     -16.50544577 Ry
      -> PAW xc energy PS      =       6.86437348 Ry
      -> total E_H with PAW    =   10574.31397989 Ry
      -> total E_XC with PAW   =    -702.88974123 Ry

     convergence has been achieved in  53 iterations

     Writing all to output data dir /bsuhome/zayahcortright/scratch/pwscf.save/
 
     init_run     :      7.46s CPU      8.33s WALL (       1 calls)
     electrons    :    755.83s CPU    791.89s WALL (       1 calls)

     Called by init_run:
     wfcinit      :      6.07s CPU      6.32s WALL (       1 calls)
     wfcinit:atom :      0.04s CPU      0.06s WALL (       5 calls)
     wfcinit:wfcr :      5.75s CPU      5.90s WALL (       5 calls)
     potinit      :      0.15s CPU      0.18s WALL (       1 calls)
     hinit0       :      0.38s CPU      0.70s WALL (       1 calls)

     Called by electrons:
     c_bands      :    600.54s CPU    607.84s WALL (      53 calls)
     sum_band     :    116.09s CPU    131.77s WALL (      53 calls)
     v_of_rho     :      5.69s CPU      6.12s WALL (      54 calls)
     v_h          :      0.50s CPU      0.51s WALL (      54 calls)
     v_xc         :      5.18s CPU      5.61s WALL (      54 calls)
     newd         :     17.62s CPU     29.89s WALL (      54 calls)
     PAW_pot      :      1.73s CPU      1.76s WALL (      54 calls)
     mix_rho      :     13.69s CPU     14.10s WALL (      53 calls)

     Called by c_bands:
     init_us_2    :      7.60s CPU      7.70s WALL (     535 calls)
     init_us_2:cp :      7.59s CPU      7.70s WALL (     535 calls)
     cegterg      :    568.68s CPU    575.70s WALL (     265 calls)

     Called by sum_band:
     sum_band:wei :      0.38s CPU      0.41s WALL (      53 calls)
     sum_band:loo :     96.87s CPU     97.67s WALL (      53 calls)
     sum_band:buf :      1.53s CPU      1.61s WALL (     265 calls)
     sum_band:ini :      3.59s CPU      3.62s WALL (     265 calls)
     sum_band:cal :     20.92s CPU     21.01s WALL (     265 calls)
     sum_band:bec :      0.56s CPU      0.57s WALL (     265 calls)
     addusdens    :     17.43s CPU     32.19s WALL (      53 calls)
                                        0.00s GPU  (      53 calls)
     addusd:skk   :      0.31s CPU      1.02s WALL (     159 calls)
                                        0.00s GPU  (     159 calls)

     Called by *egterg:
     cdiaghg      :     60.71s CPU     60.97s WALL (    1366 calls)
     cegterg:over :     40.64s CPU     40.82s WALL (    1101 calls)
     cegterg:upda :     30.12s CPU     30.70s WALL (    1101 calls)
     cegterg:last :     62.95s CPU     63.19s WALL (     478 calls)
     cdiaghg:chol :      3.35s CPU      3.38s WALL (    1366 calls)
     cdiaghg:inve :      3.00s CPU      3.01s WALL (    1366 calls)
     cdiaghg:para :      7.65s CPU      7.71s WALL (    2732 calls)
     h_psi        :    314.44s CPU    317.83s WALL (    1371 calls)
     s_psi        :     42.77s CPU     42.92s WALL (    1371 calls)
     g_psi        :      1.17s CPU      1.17s WALL (    1101 calls)

     Called by h_psi:
     h_psi:calbec :     47.93s CPU     48.18s WALL (    1371 calls)
     vloc_psi     :    220.59s CPU    222.78s WALL (    1371 calls)
     add_vuspsi   :     42.74s CPU     42.98s WALL (    1371 calls)

     General routines
     calbec       :     68.84s CPU     69.18s WALL (    1636 calls)
     fft          :      3.81s CPU      3.86s WALL (     700 calls)
     ffts         :      5.03s CPU      5.07s WALL (    5761 calls)
     fftw         :    184.30s CPU    185.89s WALL (  356102 calls)
     interpolate  :      0.44s CPU      0.45s WALL (      54 calls)
 
     Parallel routines

     PAW routines
     PAW_pot      :      1.73s CPU      1.76s WALL (      54 calls)
 
     PWSCF        :  12m45.04s CPU  13m25.32s WALL

 
   This run was terminated on:  22:18:16  21Jun2024            

=------------------------------------------------------------------------------=
   JOB DONE.
=------------------------------------------------------------------------------=
