
     Program PWSCF v.7.2 starts on 21Jun2024 at 16:37:41 

     This program is part of the open-source Quantum ESPRESSO suite
     for quantum simulation of materials; please cite
         "P. Giannozzi et al., J. Phys.:Condens. Matter 21 395502 (2009);
         "P. Giannozzi et al., J. Phys.:Condens. Matter 29 465901 (2017);
         "P. Giannozzi et al., J. Chem. Phys. 152 154105 (2020);
          URL http://www.quantum-espresso.org", 
     in publications or presentations arising from this work. More details at
     http://www.quantum-espresso.org/quote

     Parallel version (MPI & OpenMP), running on      48 processor cores
     Number of MPI processes:                48
     Threads/MPI process:                     1

     MPI processes distributed on     1 nodes
     180149 MiB available memory on the printing compute node when the environment starts
 
     Reading input from espresso.pwi
Warning: card &CELL ignored
Warning: card / ignored
Warning: card &FCP ignored
Warning: card / ignored
Warning: card &RISM ignored
Warning: card / ignored

     Current dimensions of program PWSCF are:
     Max number of different atomic species (ntypx) = 10
     Max number of k-points (npk) =  40000
     Max angular momentum in pseudopotentials (lmaxx) =  4
     file O.pbe-n-kjpaw_psl.0.1.UPF: wavefunction(s)  2P renormalized
     signal trapping enabled: kill the code with -SIGUSR1 to stop cleanly the simulation 
 
     K-points division:     npool     =       2
     R & G space division:  proc/nbgrp/npool/nimage =      24
     Subspace diagonalization in iterative solution of the eigenvalue problem:
     one sub-group per band group will be used
     scalapack distributed-memory algorithm (size of sub-group:  3*  3 procs)

 
     Parallelization info
     --------------------
     sticks:   dense  smooth     PW     G-vecs:    dense   smooth      PW
     Min         350     175     47                61430    21716    3036
     Max         351     177     48                61449    21727    3041
     Sum        8421    4205   1137              1474595   521381   72913
 
     Using Slab Decomposition
 


     bravais-lattice index     =            0
     lattice parameter (alat)  =      14.8599  a.u.
     unit-cell volume          =    8305.1283 (a.u.)^3
     number of atoms/cell      =           49
     number of atomic types    =            4
     number of electrons       =       425.00
     number of Kohn-Sham states=          256
     kinetic-energy cutoff     =      60.0000  Ry
     charge density cutoff     =     480.0000  Ry
     scf convergence threshold =      1.0E-08
     mixing beta               =       0.1500
     number of iterations used =            8  local-TF  mixing
     Exchange-correlation= PBE
                           (   1   4   3   4   0   0   0)

     celldm(1)=  14.859904  celldm(2)=   0.000000  celldm(3)=   0.000000
     celldm(4)=   0.000000  celldm(5)=   0.000000  celldm(6)=   0.000000

     crystal axes: (cart. coord. in units of alat)
               a(1) = (   1.000000   0.000000   0.000000 )  
               a(2) = (   0.000000   1.000000   0.000000 )  
               a(3) = (   0.000000   0.000000   2.531036 )  

     reciprocal axes: (cart. coord. in units 2 pi/alat)
               b(1) = (  1.000000  0.000000  0.000000 )  
               b(2) = (  0.000000  1.000000  0.000000 )  
               b(3) = (  0.000000  0.000000  0.395095 )  


     PseudoPot. # 1 for Sr read from file:
     /bsuhome/zayahcortright/q-e/pseudo/Sr_pbe_v1.uspp.F.UPF
     MD5 check sum: 6b418c05fbe9db5448babca5e47b7a5b
     Pseudo is Ultrasoft + core correction, Zval = 10.0
     Generated by new atomic code, or converted to UPF format
     Using radial grid of  883 points,  6 beta functions with: 
                l(1) =   0
                l(2) =   0
                l(3) =   1
                l(4) =   1
                l(5) =   2
                l(6) =   2
     Q(r) pseudized with  6 coefficients,  rinner =    1.400   1.400   1.400
                                                       1.400   1.400

     PseudoPot. # 2 for O  read from file:
     /bsuhome/zayahcortright/q-e/pseudo/O.pbe-n-kjpaw_psl.0.1.UPF
     MD5 check sum: 0234752ac141de4415c5fc33072bef88
     Pseudo is Projector augmented-wave + core cor, Zval =  6.0
     Generated using "atomic" code by A. Dal Corso  v.5.0.99 svn rev. 10869
     Shape of augmentation charge: BESSEL
     Using radial grid of 1095 points,  4 beta functions with: 
                l(1) =   0
                l(2) =   0
                l(3) =   1
                l(4) =   1
     Q(r) pseudized with 0 coefficients 


     PseudoPot. # 3 for Co read from file:
     /bsuhome/zayahcortright/q-e/pseudo/Co_pbe_v1.2.uspp.F.UPF
     MD5 check sum: 5f91765df6ddd3222702df6e7b74a16d
     Pseudo is Ultrasoft + core correction, Zval = 17.0
     Generated by new atomic code, or converted to UPF format
     Using radial grid of  863 points,  6 beta functions with: 
                l(1) =   0
                l(2) =   0
                l(3) =   1
                l(4) =   1
                l(5) =   2
                l(6) =   2
     Q(r) pseudized with  8 coefficients,  rinner =    1.200   1.200   1.200
                                                       1.200   1.200

     PseudoPot. # 4 for H  read from file:
     /bsuhome/zayahcortright/q-e/pseudo/H.pbe-rrkjus_psl.1.0.0.UPF
     MD5 check sum: f52b6d4d1c606e5624b1dc7b2218f220
     Pseudo is Ultrasoft, Zval =  1.0
     Generated using "atomic" code by A. Dal Corso  v.5.1
     Using radial grid of  929 points,  2 beta functions with: 
                l(1) =   0
                l(2) =   0
     Q(r) pseudized with 0 coefficients 


     atomic species   valence    mass     pseudopotential
        Sr            10.00    87.62000     Sr( 1.00)
        O              6.00    15.99900     O ( 1.00)
        Co            17.00    58.93319     Co( 1.00)
        H              1.00     1.00800     H ( 1.00)

     No symmetry found


                                    s                        frac. trans.

      isym =  1     identity                                     

 cryst.   s( 1) = (     1          0          0      )
                  (     0          1          0      )
                  (     0          0          1      )

 cart.    s( 1) = (  1.0000000  0.0000000  0.0000000 )
                  (  0.0000000  1.0000000  0.0000000 )
                  (  0.0000000  0.0000000  1.0000000 )


   Cartesian axes

     site n.     atom                  positions (alat units)
         1           Sr  tau(   1) = (   0.2508693   0.7491307   1.7574407  )
         2           O   tau(   2) = (   0.4985141   0.5014859   1.7715967  )
         3           Sr  tau(   3) = (   0.7482398   0.7454518   1.7648669  )
         4           Sr  tau(   4) = (   0.7441748   0.2558252   1.7667843  )
         5           Sr  tau(   5) = (   0.2508693   0.7491307   1.2696799  )
         6           Sr  tau(   6) = (   0.2508693   0.7491307   0.7632319  )
         7           Co  tau(   7) = (   0.4998914   0.5001086   1.0164559  )
         8           Co  tau(   8) = (   0.4936915   0.5063085   1.5135603  )
         9           O   tau(   9) = (   0.4988895   0.7610401   1.0164559  )
        10           O   tau(  10) = (   0.2389599   0.5011105   1.0164559  )
        11           O   tau(  11) = (   0.0070918   0.7374880   1.0164559  )
        12           O   tau(  12) = (   0.0088340   0.7405089   1.5135603  )
        13           O   tau(  13) = (   0.5066944   0.7415376   1.5135603  )
        14           O   tau(  14) = (   0.2584624   0.4933056   1.5135603  )
        15           O   tau(  15) = (   0.4985141   0.5014859   0.7773880  )
        16           O   tau(  16) = (   0.4985141   0.5014859   1.2555238  )
        17           Sr  tau(  17) = (   0.7482398   0.7454518   0.7706582  )
        18           Sr  tau(  18) = (   0.7482398   0.7454518   1.2622536  )
        19           Sr  tau(  19) = (   0.7441748   0.2558252   0.7725755  )
        20           Sr  tau(  20) = (   0.7441748   0.2558252   1.2603363  )
        21           O   tau(  21) = (   0.7322655   0.0078049   1.5135603  )
        22           O   tau(  22) = (   0.7558175   0.4996027   1.5135603  )
        23           O   tau(  23) = (   0.5003973   0.2441825   1.5135603  )
        24           O   tau(  24) = (   0.7527966   0.4978604   1.0164559  )
        25           O   tau(  25) = (   0.5021396   0.2472034   1.0164559  )
        26           O   tau(  26) = (   0.7517679   0.0000000   1.0164559  )
        27           O   tau(  27) = (   0.0114961   0.4948124   1.7455321  )
        28           O   tau(  28) = (   0.0048226   0.0077944   1.7715967  )
        29           Sr  tau(  29) = (   0.2545482   0.2517602   1.7648669  )
        30           O   tau(  30) = (   0.5048017   0.0015068   1.7786929  )
        31           Co  tau(  31) = (   0.0056869   0.5006215   1.0164559  )
        32           Co  tau(  32) = (   0.0065315   0.4997770   1.5135603  )
        33           Co  tau(  33) = (   0.0061999   0.0064171   1.0164559  )
        34           Co  tau(  34) = (   0.0000000   0.0126169   1.5135603  )
        35           O   tau(  35) = (   0.0114961   0.4948124   1.2815885  )
        36           O   tau(  36) = (   0.0114961   0.4948124   0.7513233  )
        37           O   tau(  37) = (   0.0051979   0.2673486   1.0164559  )
        38           O   tau(  38) = (   0.0130029   0.2478461   1.5135603  )
        39           O   tau(  39) = (   0.0048226   0.0077944   0.7773880  )
        40           O   tau(  40) = (   0.0048226   0.0077944   1.2555238  )
        41           Sr  tau(  41) = (   0.2545482   0.2517602   0.7706582  )
        42           Sr  tau(  42) = (   0.2545482   0.2517602   1.2622536  )
        43           Co  tau(  43) = (   0.4989925   0.0073160   1.5135603  )
        44           Co  tau(  44) = (   0.4998370   0.0064714   1.0164559  )
        45           O   tau(  45) = (   0.5048017   0.0015068   0.7844841  )
        46           O   tau(  46) = (   0.5048017   0.0015068   1.2484277  )
        47           O   tau(  47) = (   0.2621260   0.0059111   1.5135603  )
        48           O   tau(  48) = (   0.2591051   0.0041689   1.0164559  )
        49           H   tau(  49) = (   0.2843291   0.9951520   2.1602013  )

   Crystallographic axes

     site n.     atom                  positions (cryst. coord.)
         1           Sr  tau(   1) = (  0.2508693  0.7491307  0.6943562  )
         2           O   tau(   2) = (  0.4985141  0.5014859  0.6999492  )
         3           Sr  tau(   3) = (  0.7482398  0.7454518  0.6972903  )
         4           Sr  tau(   4) = (  0.7441748  0.2558252  0.6980478  )
         5           Sr  tau(   5) = (  0.2508693  0.7491307  0.5016443  )
         6           Sr  tau(   6) = (  0.2508693  0.7491307  0.3015492  )
         7           Co  tau(   7) = (  0.4998914  0.5001086  0.4015968  )
         8           Co  tau(   8) = (  0.4936915  0.5063085  0.5980003  )
         9           O   tau(   9) = (  0.4988895  0.7610401  0.4015968  )
        10           O   tau(  10) = (  0.2389599  0.5011105  0.4015968  )
        11           O   tau(  11) = (  0.0070918  0.7374880  0.4015968  )
        12           O   tau(  12) = (  0.0088340  0.7405089  0.5980003  )
        13           O   tau(  13) = (  0.5066944  0.7415376  0.5980003  )
        14           O   tau(  14) = (  0.2584624  0.4933056  0.5980003  )
        15           O   tau(  15) = (  0.4985141  0.5014859  0.3071422  )
        16           O   tau(  16) = (  0.4985141  0.5014859  0.4960513  )
        17           Sr  tau(  17) = (  0.7482398  0.7454518  0.3044833  )
        18           Sr  tau(  18) = (  0.7482398  0.7454518  0.4987103  )
        19           Sr  tau(  19) = (  0.7441748  0.2558252  0.3052408  )
        20           Sr  tau(  20) = (  0.7441748  0.2558252  0.4979527  )
        21           O   tau(  21) = (  0.7322655  0.0078049  0.5980003  )
        22           O   tau(  22) = (  0.7558175  0.4996027  0.5980003  )
        23           O   tau(  23) = (  0.5003973  0.2441825  0.5980003  )
        24           O   tau(  24) = (  0.7527966  0.4978604  0.4015968  )
        25           O   tau(  25) = (  0.5021396  0.2472034  0.4015968  )
        26           O   tau(  26) = (  0.7517679  0.0000000  0.4015968  )
        27           O   tau(  27) = (  0.0114961  0.4948124  0.6896512  )
        28           O   tau(  28) = (  0.0048226  0.0077944  0.6999492  )
        29           Sr  tau(  29) = (  0.2545482  0.2517602  0.6972903  )
        30           O   tau(  30) = (  0.5048017  0.0015068  0.7027529  )
        31           Co  tau(  31) = (  0.0056869  0.5006215  0.4015968  )
        32           Co  tau(  32) = (  0.0065315  0.4997770  0.5980003  )
        33           Co  tau(  33) = (  0.0061999  0.0064171  0.4015968  )
        34           Co  tau(  34) = (  0.0000000  0.0126169  0.5980003  )
        35           O   tau(  35) = (  0.0114961  0.4948124  0.5063494  )
        36           O   tau(  36) = (  0.0114961  0.4948124  0.2968442  )
        37           O   tau(  37) = (  0.0051979  0.2673486  0.4015968  )
        38           O   tau(  38) = (  0.0130029  0.2478461  0.5980003  )
        39           O   tau(  39) = (  0.0048226  0.0077944  0.3071422  )
        40           O   tau(  40) = (  0.0048226  0.0077944  0.4960513  )
        41           Sr  tau(  41) = (  0.2545482  0.2517602  0.3044833  )
        42           Sr  tau(  42) = (  0.2545482  0.2517602  0.4987103  )
        43           Co  tau(  43) = (  0.4989925  0.0073160  0.5980003  )
        44           Co  tau(  44) = (  0.4998370  0.0064714  0.4015968  )
        45           O   tau(  45) = (  0.5048017  0.0015068  0.3099459  )
        46           O   tau(  46) = (  0.5048017  0.0015068  0.4932477  )
        47           O   tau(  47) = (  0.2621260  0.0059111  0.5980003  )
        48           O   tau(  48) = (  0.2591051  0.0041689  0.4015968  )
        49           H   tau(  49) = (  0.2843291  0.9951520  0.8534850  )

     number of k points=    10  Gaussian smearing, width (Ry)=  0.0700
                       cart. coord. in units 2pi/alat
        k(    1) = (   0.0000000   0.0000000   0.0000000), wk =   0.1250000
        k(    2) = (   0.0000000   0.2500000   0.0000000), wk =   0.2500000
        k(    3) = (   0.0000000  -0.5000000   0.0000000), wk =   0.1250000
        k(    4) = (   0.2500000   0.2500000   0.0000000), wk =   0.2500000
        k(    5) = (   0.2500000  -0.5000000   0.0000000), wk =   0.2500000
        k(    6) = (  -0.5000000  -0.5000000   0.0000000), wk =   0.1250000
        k(    7) = (   0.2500000   0.0000000   0.0000000), wk =   0.2500000
        k(    8) = (  -0.5000000   0.0000000   0.0000000), wk =   0.1250000
        k(    9) = (  -0.2500000   0.2500000   0.0000000), wk =   0.2500000
        k(   10) = (  -0.5000000   0.2500000   0.0000000), wk =   0.2500000

                       cryst. coord.
        k(    1) = (   0.0000000   0.0000000   0.0000000), wk =   0.1250000
        k(    2) = (   0.0000000   0.2500000   0.0000000), wk =   0.2500000
        k(    3) = (   0.0000000  -0.5000000   0.0000000), wk =   0.1250000
        k(    4) = (   0.2500000   0.2500000   0.0000000), wk =   0.2500000
        k(    5) = (   0.2500000  -0.5000000   0.0000000), wk =   0.2500000
        k(    6) = (  -0.5000000  -0.5000000   0.0000000), wk =   0.1250000
        k(    7) = (   0.2500000   0.0000000   0.0000000), wk =   0.2500000
        k(    8) = (  -0.5000000   0.0000000   0.0000000), wk =   0.1250000
        k(    9) = (  -0.2500000   0.2500000   0.0000000), wk =   0.2500000
        k(   10) = (  -0.5000000   0.2500000   0.0000000), wk =   0.2500000

     Dense  grid:  1474595 G-vectors     FFT dimensions: ( 108, 108, 270)

     Smooth grid:   521381 G-vectors     FFT dimensions: (  75,  75, 192)

     Dynamical RAM for                 wfc:      10.61 MB

     Dynamical RAM for     wfc (w. buffer):      63.63 MB

     Dynamical RAM for           str. fact:       3.75 MB

     Dynamical RAM for           local pot:       0.00 MB

     Dynamical RAM for          nlocal pot:      24.28 MB

     Dynamical RAM for                qrad:       7.03 MB

     Dynamical RAM for          rho,v,vnew:       6.02 MB

     Dynamical RAM for               rhoin:       2.01 MB

     Dynamical RAM for            rho*nmix:      15.00 MB

     Dynamical RAM for           G-vectors:       3.68 MB

     Dynamical RAM for          h,s,v(r/c):       1.32 MB

     Dynamical RAM for          <psi|beta>:       2.29 MB

     Dynamical RAM for                 psi:      21.21 MB

     Dynamical RAM for                hpsi:      21.21 MB

     Dynamical RAM for                spsi:      21.21 MB

     Dynamical RAM for      wfcinit/wfcrot:      34.09 MB

     Dynamical RAM for           addusdens:     100.79 MB

     Estimated static dynamical RAM per process >     120.42 MB

     Estimated max dynamical RAM per process >     236.21 MB

     Estimated total dynamical RAM >      10.72 GB

     Check: negative core charge=   -0.000004

     Initial potential from superposition of free atoms

     starting charge     416.5961, renormalised to     425.0000

     negative rho (up, down):  7.826E-01 0.000E+00
     Starting wfcs are  373 randomized atomic wfcs
     Checking if some PAW data can be deallocated... 
       PAW data deallocated on   20 nodes for type:  2

     total cpu time spent up to now is        8.3 secs

     Self-consistent Calculation

     iteration #  1     ecut=    60.00 Ry     beta= 0.15
     Davidson diagonalization with overlap

---- Real-time Memory Report at c_bands before calling an iterative solver
             0 MiB given to the printing process from OS
             0 MiB allocation reported by mallinfo(arena+hblkhd)
        170489 MiB available memory on the node where the printing process lives
------------------
     ethr =  1.00E-02,  avg # of iterations =  2.0

     negative rho (up, down):  7.716E-01 0.000E+00

     total cpu time spent up to now is       23.1 secs

     total energy              =   -4404.72968799 Ry
     estimated scf accuracy    <      42.17535441 Ry

     iteration #  2     ecut=    60.00 Ry     beta= 0.15
     Davidson diagonalization with overlap

---- Real-time Memory Report at c_bands before calling an iterative solver
             0 MiB given to the printing process from OS
             0 MiB allocation reported by mallinfo(arena+hblkhd)
        170715 MiB available memory on the node where the printing process lives
------------------
     ethr =  9.92E-03,  avg # of iterations =  1.0

     negative rho (up, down):  7.531E-01 0.000E+00

     total cpu time spent up to now is       35.3 secs

     total energy              =   -4400.03362904 Ry
     estimated scf accuracy    <      26.53171351 Ry

     iteration #  3     ecut=    60.00 Ry     beta= 0.15
     Davidson diagonalization with overlap

---- Real-time Memory Report at c_bands before calling an iterative solver
             0 MiB given to the printing process from OS
             0 MiB allocation reported by mallinfo(arena+hblkhd)
        169964 MiB available memory on the node where the printing process lives
------------------
     ethr =  6.24E-03,  avg # of iterations =  2.0

     negative rho (up, down):  7.544E-01 0.000E+00

     total cpu time spent up to now is       48.7 secs

     total energy              =   -4402.39134573 Ry
     estimated scf accuracy    <      49.29442463 Ry

     iteration #  4     ecut=    60.00 Ry     beta= 0.15
     Davidson diagonalization with overlap

---- Real-time Memory Report at c_bands before calling an iterative solver
             0 MiB given to the printing process from OS
             0 MiB allocation reported by mallinfo(arena+hblkhd)
        169833 MiB available memory on the node where the printing process lives
------------------
     ethr =  6.24E-03,  avg # of iterations =  1.0

     negative rho (up, down):  7.410E-01 0.000E+00

     total cpu time spent up to now is       60.7 secs

     total energy              =   -4401.65655034 Ry
     estimated scf accuracy    <      29.58711256 Ry

     iteration #  5     ecut=    60.00 Ry     beta= 0.15
     Davidson diagonalization with overlap

---- Real-time Memory Report at c_bands before calling an iterative solver
             0 MiB given to the printing process from OS
             0 MiB allocation reported by mallinfo(arena+hblkhd)
        169815 MiB available memory on the node where the printing process lives
------------------
     ethr =  6.24E-03,  avg # of iterations =  1.0

     negative rho (up, down):  7.470E-01 0.000E+00

     total cpu time spent up to now is       72.8 secs

     total energy              =   -4399.89435837 Ry
     estimated scf accuracy    <      44.31877839 Ry

     iteration #  6     ecut=    60.00 Ry     beta= 0.15
     Davidson diagonalization with overlap

---- Real-time Memory Report at c_bands before calling an iterative solver
             0 MiB given to the printing process from OS
             0 MiB allocation reported by mallinfo(arena+hblkhd)
        169796 MiB available memory on the node where the printing process lives
------------------
     ethr =  6.24E-03,  avg # of iterations =  1.0

     negative rho (up, down):  7.423E-01 0.000E+00

     total cpu time spent up to now is       84.8 secs

     total energy              =   -4400.66181759 Ry
     estimated scf accuracy    <      11.68234403 Ry

     iteration #  7     ecut=    60.00 Ry     beta= 0.15
     Davidson diagonalization with overlap

---- Real-time Memory Report at c_bands before calling an iterative solver
             0 MiB given to the printing process from OS
             0 MiB allocation reported by mallinfo(arena+hblkhd)
        169776 MiB available memory on the node where the printing process lives
------------------
     ethr =  2.75E-03,  avg # of iterations =  1.1

     negative rho (up, down):  7.445E-01 0.000E+00

     total cpu time spent up to now is       97.0 secs

     total energy              =   -4400.80390797 Ry
     estimated scf accuracy    <       4.14106830 Ry

     iteration #  8     ecut=    60.00 Ry     beta= 0.15
     Davidson diagonalization with overlap

---- Real-time Memory Report at c_bands before calling an iterative solver
             0 MiB given to the printing process from OS
             0 MiB allocation reported by mallinfo(arena+hblkhd)
        169758 MiB available memory on the node where the printing process lives
------------------
     ethr =  9.74E-04,  avg # of iterations =  1.6

     negative rho (up, down):  7.536E-01 0.000E+00

     total cpu time spent up to now is      109.5 secs

     total energy              =   -4400.33539342 Ry
     estimated scf accuracy    <       3.60933041 Ry

     iteration #  9     ecut=    60.00 Ry     beta= 0.15
     Davidson diagonalization with overlap

---- Real-time Memory Report at c_bands before calling an iterative solver
             0 MiB given to the printing process from OS
             0 MiB allocation reported by mallinfo(arena+hblkhd)
        169738 MiB available memory on the node where the printing process lives
------------------
     ethr =  8.49E-04,  avg # of iterations =  3.4

     negative rho (up, down):  7.762E-01 0.000E+00

     total cpu time spent up to now is      124.1 secs

     total energy              =   -4399.82802800 Ry
     estimated scf accuracy    <      42.43402537 Ry

     iteration # 10     ecut=    60.00 Ry     beta= 0.15
     Davidson diagonalization with overlap

---- Real-time Memory Report at c_bands before calling an iterative solver
             0 MiB given to the printing process from OS
             0 MiB allocation reported by mallinfo(arena+hblkhd)
        169637 MiB available memory on the node where the printing process lives
------------------
     ethr =  8.49E-04,  avg # of iterations =  9.4

     negative rho (up, down):  7.784E-01 0.000E+00

     total cpu time spent up to now is      142.3 secs

     total energy              =   -4399.81661382 Ry
     estimated scf accuracy    <      11.75696107 Ry

     iteration # 11     ecut=    60.00 Ry     beta= 0.15
     Davidson diagonalization with overlap

---- Real-time Memory Report at c_bands before calling an iterative solver
             0 MiB given to the printing process from OS
             0 MiB allocation reported by mallinfo(arena+hblkhd)
        169310 MiB available memory on the node where the printing process lives
------------------
     ethr =  8.49E-04,  avg # of iterations =  1.0

     negative rho (up, down):  7.812E-01 0.000E+00

     total cpu time spent up to now is      154.2 secs

     total energy              =   -4400.11967506 Ry
     estimated scf accuracy    <       1.25251843 Ry

     iteration # 12     ecut=    60.00 Ry     beta= 0.15
     Davidson diagonalization with overlap

---- Real-time Memory Report at c_bands before calling an iterative solver
             0 MiB given to the printing process from OS
             0 MiB allocation reported by mallinfo(arena+hblkhd)
        169313 MiB available memory on the node where the printing process lives
------------------
     ethr =  2.95E-04,  avg # of iterations =  1.4

     negative rho (up, down):  7.889E-01 0.000E+00

     total cpu time spent up to now is      167.0 secs

     total energy              =   -4400.09280571 Ry
     estimated scf accuracy    <       0.76924885 Ry

     iteration # 13     ecut=    60.00 Ry     beta= 0.15
     Davidson diagonalization with overlap

---- Real-time Memory Report at c_bands before calling an iterative solver
             0 MiB given to the printing process from OS
             0 MiB allocation reported by mallinfo(arena+hblkhd)
        169316 MiB available memory on the node where the printing process lives
------------------
     ethr =  1.81E-04,  avg # of iterations =  4.7

     negative rho (up, down):  8.007E-01 0.000E+00

     total cpu time spent up to now is      181.8 secs

     total energy              =   -4400.09099008 Ry
     estimated scf accuracy    <       1.33452055 Ry

     iteration # 14     ecut=    60.00 Ry     beta= 0.15
     Davidson diagonalization with overlap

---- Real-time Memory Report at c_bands before calling an iterative solver
             0 MiB given to the printing process from OS
             0 MiB allocation reported by mallinfo(arena+hblkhd)
        169274 MiB available memory on the node where the printing process lives
------------------
     ethr =  1.81E-04,  avg # of iterations =  6.4

     negative rho (up, down):  8.029E-01 0.000E+00

     total cpu time spent up to now is      197.3 secs

     total energy              =   -4400.01861315 Ry
     estimated scf accuracy    <       1.77514381 Ry

     iteration # 15     ecut=    60.00 Ry     beta= 0.15
     Davidson diagonalization with overlap

---- Real-time Memory Report at c_bands before calling an iterative solver
             0 MiB given to the printing process from OS
             0 MiB allocation reported by mallinfo(arena+hblkhd)
        169282 MiB available memory on the node where the printing process lives
------------------
     ethr =  1.81E-04,  avg # of iterations =  5.0

     negative rho (up, down):  8.064E-01 0.000E+00

     total cpu time spent up to now is      211.8 secs

     total energy              =   -4400.04896033 Ry
     estimated scf accuracy    <       0.38032528 Ry

     iteration # 16     ecut=    60.00 Ry     beta= 0.15
     Davidson diagonalization with overlap

---- Real-time Memory Report at c_bands before calling an iterative solver
             0 MiB given to the printing process from OS
             0 MiB allocation reported by mallinfo(arena+hblkhd)
        169271 MiB available memory on the node where the printing process lives
------------------
     c_bands:  1 eigenvalues not converged
     ethr =  8.95E-05,  avg # of iterations =  7.3

     negative rho (up, down):  8.105E-01 0.000E+00

     total cpu time spent up to now is      227.9 secs

     total energy              =   -4400.02063900 Ry
     estimated scf accuracy    <       0.31811574 Ry

     iteration # 17     ecut=    60.00 Ry     beta= 0.15
     Davidson diagonalization with overlap

---- Real-time Memory Report at c_bands before calling an iterative solver
             0 MiB given to the printing process from OS
             0 MiB allocation reported by mallinfo(arena+hblkhd)
        169245 MiB available memory on the node where the printing process lives
------------------
     ethr =  7.49E-05,  avg # of iterations =  8.0

     negative rho (up, down):  8.192E-01 0.000E+00

     total cpu time spent up to now is      244.9 secs

     total energy              =   -4399.94447147 Ry
     estimated scf accuracy    <       0.27397180 Ry

     iteration # 18     ecut=    60.00 Ry     beta= 0.15
     Davidson diagonalization with overlap

---- Real-time Memory Report at c_bands before calling an iterative solver
             0 MiB given to the printing process from OS
             0 MiB allocation reported by mallinfo(arena+hblkhd)
        169337 MiB available memory on the node where the printing process lives
------------------
     ethr =  6.45E-05,  avg # of iterations = 12.1

     negative rho (up, down):  8.244E-01 0.000E+00

     total cpu time spent up to now is      263.5 secs

     total energy              =   -4399.94417867 Ry
     estimated scf accuracy    <       0.11762668 Ry

     iteration # 19     ecut=    60.00 Ry     beta= 0.15
     Davidson diagonalization with overlap

---- Real-time Memory Report at c_bands before calling an iterative solver
             0 MiB given to the printing process from OS
             0 MiB allocation reported by mallinfo(arena+hblkhd)
        169168 MiB available memory on the node where the printing process lives
------------------
     ethr =  2.77E-05,  avg # of iterations =  5.4

     negative rho (up, down):  8.235E-01 0.000E+00

     total cpu time spent up to now is      278.2 secs

     total energy              =   -4399.93652340 Ry
     estimated scf accuracy    <       0.10297186 Ry

     iteration # 20     ecut=    60.00 Ry     beta= 0.15
     Davidson diagonalization with overlap

---- Real-time Memory Report at c_bands before calling an iterative solver
             0 MiB given to the printing process from OS
             0 MiB allocation reported by mallinfo(arena+hblkhd)
        169178 MiB available memory on the node where the printing process lives
------------------
     ethr =  2.42E-05,  avg # of iterations =  5.8

     negative rho (up, down):  8.134E-01 0.000E+00

     total cpu time spent up to now is      293.0 secs

     total energy              =   -4399.92699004 Ry
     estimated scf accuracy    <       0.09880077 Ry

     iteration # 21     ecut=    60.00 Ry     beta= 0.15
     Davidson diagonalization with overlap

---- Real-time Memory Report at c_bands before calling an iterative solver
             0 MiB given to the printing process from OS
             0 MiB allocation reported by mallinfo(arena+hblkhd)
        169169 MiB available memory on the node where the printing process lives
------------------
     ethr =  2.32E-05,  avg # of iterations =  5.2

     negative rho (up, down):  8.120E-01 0.000E+00

     total cpu time spent up to now is      308.1 secs

     total energy              =   -4399.91746693 Ry
     estimated scf accuracy    <       0.05811496 Ry

     iteration # 22     ecut=    60.00 Ry     beta= 0.15
     Davidson diagonalization with overlap

---- Real-time Memory Report at c_bands before calling an iterative solver
             0 MiB given to the printing process from OS
             0 MiB allocation reported by mallinfo(arena+hblkhd)
        169173 MiB available memory on the node where the printing process lives
------------------
     ethr =  1.37E-05,  avg # of iterations = 10.7

     negative rho (up, down):  8.028E-01 0.000E+00

     total cpu time spent up to now is      326.6 secs

     total energy              =   -4399.91625007 Ry
     estimated scf accuracy    <       0.02750421 Ry

     iteration # 23     ecut=    60.00 Ry     beta= 0.15
     Davidson diagonalization with overlap

---- Real-time Memory Report at c_bands before calling an iterative solver
             0 MiB given to the printing process from OS
             0 MiB allocation reported by mallinfo(arena+hblkhd)
        169122 MiB available memory on the node where the printing process lives
------------------
     ethr =  6.47E-06,  avg # of iterations =  6.9

     negative rho (up, down):  7.973E-01 0.000E+00

     total cpu time spent up to now is      342.5 secs

     total energy              =   -4399.91492439 Ry
     estimated scf accuracy    <       0.01877176 Ry

     iteration # 24     ecut=    60.00 Ry     beta= 0.15
     Davidson diagonalization with overlap

---- Real-time Memory Report at c_bands before calling an iterative solver
             0 MiB given to the printing process from OS
             0 MiB allocation reported by mallinfo(arena+hblkhd)
        169130 MiB available memory on the node where the printing process lives
------------------
     ethr =  4.42E-06,  avg # of iterations = 12.1

     negative rho (up, down):  7.967E-01 0.000E+00

     total cpu time spent up to now is      360.6 secs

     total energy              =   -4399.91458064 Ry
     estimated scf accuracy    <       0.01145505 Ry

     iteration # 25     ecut=    60.00 Ry     beta= 0.15
     Davidson diagonalization with overlap

---- Real-time Memory Report at c_bands before calling an iterative solver
             0 MiB given to the printing process from OS
             0 MiB allocation reported by mallinfo(arena+hblkhd)
        169170 MiB available memory on the node where the printing process lives
------------------
     ethr =  2.70E-06,  avg # of iterations =  9.4

     negative rho (up, down):  7.912E-01 0.000E+00

     total cpu time spent up to now is      378.4 secs

     total energy              =   -4399.91409178 Ry
     estimated scf accuracy    <       0.00751939 Ry

     iteration # 26     ecut=    60.00 Ry     beta= 0.15
     Davidson diagonalization with overlap

---- Real-time Memory Report at c_bands before calling an iterative solver
             0 MiB given to the printing process from OS
             0 MiB allocation reported by mallinfo(arena+hblkhd)
        169116 MiB available memory on the node where the printing process lives
------------------
     c_bands:  1 eigenvalues not converged
     ethr =  1.77E-06,  avg # of iterations =  7.7

     negative rho (up, down):  7.906E-01 0.000E+00

     total cpu time spent up to now is      395.2 secs

     total energy              =   -4399.91362854 Ry
     estimated scf accuracy    <       0.00513502 Ry

     iteration # 27     ecut=    60.00 Ry     beta= 0.15
     Davidson diagonalization with overlap

---- Real-time Memory Report at c_bands before calling an iterative solver
             0 MiB given to the printing process from OS
             0 MiB allocation reported by mallinfo(arena+hblkhd)
        169132 MiB available memory on the node where the printing process lives
------------------
     c_bands:  1 eigenvalues not converged
     ethr =  1.21E-06,  avg # of iterations = 11.2

     negative rho (up, down):  7.908E-01 0.000E+00

     total cpu time spent up to now is      413.7 secs

     total energy              =   -4399.91362642 Ry
     estimated scf accuracy    <       0.00278629 Ry

     iteration # 28     ecut=    60.00 Ry     beta= 0.15
     Davidson diagonalization with overlap

---- Real-time Memory Report at c_bands before calling an iterative solver
             0 MiB given to the printing process from OS
             0 MiB allocation reported by mallinfo(arena+hblkhd)
        169092 MiB available memory on the node where the printing process lives
------------------
     ethr =  6.56E-07,  avg # of iterations =  5.6

     negative rho (up, down):  7.917E-01 0.000E+00

     total cpu time spent up to now is      428.8 secs

     total energy              =   -4399.91361777 Ry
     estimated scf accuracy    <       0.00185733 Ry

     iteration # 29     ecut=    60.00 Ry     beta= 0.15
     Davidson diagonalization with overlap

---- Real-time Memory Report at c_bands before calling an iterative solver
             0 MiB given to the printing process from OS
             0 MiB allocation reported by mallinfo(arena+hblkhd)
        169131 MiB available memory on the node where the printing process lives
------------------
     ethr =  4.37E-07,  avg # of iterations =  9.2

     negative rho (up, down):  7.921E-01 0.000E+00

     total cpu time spent up to now is      445.2 secs

     total energy              =   -4399.91346561 Ry
     estimated scf accuracy    <       0.00114982 Ry

     iteration # 30     ecut=    60.00 Ry     beta= 0.15
     Davidson diagonalization with overlap

---- Real-time Memory Report at c_bands before calling an iterative solver
             0 MiB given to the printing process from OS
             0 MiB allocation reported by mallinfo(arena+hblkhd)
        169147 MiB available memory on the node where the printing process lives
------------------
     ethr =  2.71E-07,  avg # of iterations =  9.0

     negative rho (up, down):  7.922E-01 0.000E+00

     total cpu time spent up to now is      462.9 secs

     total energy              =   -4399.91361354 Ry
     estimated scf accuracy    <       0.00022610 Ry

     iteration # 31     ecut=    60.00 Ry     beta= 0.15
     Davidson diagonalization with overlap

---- Real-time Memory Report at c_bands before calling an iterative solver
             0 MiB given to the printing process from OS
             0 MiB allocation reported by mallinfo(arena+hblkhd)
        169096 MiB available memory on the node where the printing process lives
------------------
     ethr =  5.32E-08,  avg # of iterations =  2.2

     negative rho (up, down):  7.922E-01 0.000E+00

     total cpu time spent up to now is      476.4 secs

     total energy              =   -4399.91361982 Ry
     estimated scf accuracy    <       0.00016018 Ry

     iteration # 32     ecut=    60.00 Ry     beta= 0.15
     Davidson diagonalization with overlap

---- Real-time Memory Report at c_bands before calling an iterative solver
             0 MiB given to the printing process from OS
             0 MiB allocation reported by mallinfo(arena+hblkhd)
        169086 MiB available memory on the node where the printing process lives
------------------
     ethr =  3.77E-08,  avg # of iterations =  1.1

     negative rho (up, down):  7.923E-01 0.000E+00

     total cpu time spent up to now is      488.5 secs

     total energy              =   -4399.91362193 Ry
     estimated scf accuracy    <       0.00009812 Ry

     iteration # 33     ecut=    60.00 Ry     beta= 0.15
     Davidson diagonalization with overlap

---- Real-time Memory Report at c_bands before calling an iterative solver
             0 MiB given to the printing process from OS
             0 MiB allocation reported by mallinfo(arena+hblkhd)
        169078 MiB available memory on the node where the printing process lives
------------------
     ethr =  2.31E-08,  avg # of iterations =  2.1

     negative rho (up, down):  7.925E-01 0.000E+00

     total cpu time spent up to now is      502.3 secs

     total energy              =   -4399.91362662 Ry
     estimated scf accuracy    <       0.00003132 Ry

     iteration # 34     ecut=    60.00 Ry     beta= 0.15
     Davidson diagonalization with overlap

---- Real-time Memory Report at c_bands before calling an iterative solver
             0 MiB given to the printing process from OS
             0 MiB allocation reported by mallinfo(arena+hblkhd)
        169096 MiB available memory on the node where the printing process lives
------------------
     ethr =  7.37E-09,  avg # of iterations =  2.2

     negative rho (up, down):  7.925E-01 0.000E+00

     total cpu time spent up to now is      515.8 secs

     total energy              =   -4399.91362602 Ry
     estimated scf accuracy    <       0.00001652 Ry

     iteration # 35     ecut=    60.00 Ry     beta= 0.15
     Davidson diagonalization with overlap

---- Real-time Memory Report at c_bands before calling an iterative solver
             0 MiB given to the printing process from OS
             0 MiB allocation reported by mallinfo(arena+hblkhd)
        169118 MiB available memory on the node where the printing process lives
------------------
     ethr =  3.89E-09,  avg # of iterations =  2.6

     negative rho (up, down):  7.924E-01 0.000E+00

     total cpu time spent up to now is      529.4 secs

     total energy              =   -4399.91362528 Ry
     estimated scf accuracy    <       0.00000919 Ry

     iteration # 36     ecut=    60.00 Ry     beta= 0.15
     Davidson diagonalization with overlap

---- Real-time Memory Report at c_bands before calling an iterative solver
             0 MiB given to the printing process from OS
             0 MiB allocation reported by mallinfo(arena+hblkhd)
        169124 MiB available memory on the node where the printing process lives
------------------
     ethr =  2.16E-09,  avg # of iterations =  3.0

     negative rho (up, down):  7.924E-01 0.000E+00

     total cpu time spent up to now is      543.4 secs

     total energy              =   -4399.91362599 Ry
     estimated scf accuracy    <       0.00000636 Ry

     iteration # 37     ecut=    60.00 Ry     beta= 0.15
     Davidson diagonalization with overlap

---- Real-time Memory Report at c_bands before calling an iterative solver
             0 MiB given to the printing process from OS
             0 MiB allocation reported by mallinfo(arena+hblkhd)
        169113 MiB available memory on the node where the printing process lives
------------------
     ethr =  1.50E-09,  avg # of iterations =  1.1

     negative rho (up, down):  7.924E-01 0.000E+00

     total cpu time spent up to now is      555.7 secs

     total energy              =   -4399.91362723 Ry
     estimated scf accuracy    <       0.00000529 Ry

     iteration # 38     ecut=    60.00 Ry     beta= 0.15
     Davidson diagonalization with overlap

---- Real-time Memory Report at c_bands before calling an iterative solver
             0 MiB given to the printing process from OS
             0 MiB allocation reported by mallinfo(arena+hblkhd)
        169108 MiB available memory on the node where the printing process lives
------------------
     ethr =  1.24E-09,  avg # of iterations =  2.2

     negative rho (up, down):  7.924E-01 0.000E+00

     total cpu time spent up to now is      569.1 secs

     total energy              =   -4399.91362913 Ry
     estimated scf accuracy    <       0.00000393 Ry

     iteration # 39     ecut=    60.00 Ry     beta= 0.15
     Davidson diagonalization with overlap

---- Real-time Memory Report at c_bands before calling an iterative solver
             0 MiB given to the printing process from OS
             0 MiB allocation reported by mallinfo(arena+hblkhd)
        169111 MiB available memory on the node where the printing process lives
------------------
     ethr =  9.24E-10,  avg # of iterations =  2.8

     negative rho (up, down):  7.923E-01 0.000E+00

     total cpu time spent up to now is      582.9 secs

     total energy              =   -4399.91362922 Ry
     estimated scf accuracy    <       0.00000211 Ry

     iteration # 40     ecut=    60.00 Ry     beta= 0.15
     Davidson diagonalization with overlap

---- Real-time Memory Report at c_bands before calling an iterative solver
             0 MiB given to the printing process from OS
             0 MiB allocation reported by mallinfo(arena+hblkhd)
        169099 MiB available memory on the node where the printing process lives
------------------
     ethr =  4.96E-10,  avg # of iterations =  2.2

     negative rho (up, down):  7.923E-01 0.000E+00

     total cpu time spent up to now is      597.0 secs

     total energy              =   -4399.91362962 Ry
     estimated scf accuracy    <       0.00000114 Ry

     iteration # 41     ecut=    60.00 Ry     beta= 0.15
     Davidson diagonalization with overlap

---- Real-time Memory Report at c_bands before calling an iterative solver
             0 MiB given to the printing process from OS
             0 MiB allocation reported by mallinfo(arena+hblkhd)
        169102 MiB available memory on the node where the printing process lives
------------------
     ethr =  2.67E-10,  avg # of iterations =  2.0

     negative rho (up, down):  7.924E-01 0.000E+00

     total cpu time spent up to now is      611.1 secs

     total energy              =   -4399.91363016 Ry
     estimated scf accuracy    <       0.00000082 Ry

     iteration # 42     ecut=    60.00 Ry     beta= 0.15
     Davidson diagonalization with overlap

---- Real-time Memory Report at c_bands before calling an iterative solver
             0 MiB given to the printing process from OS
             0 MiB allocation reported by mallinfo(arena+hblkhd)
        169113 MiB available memory on the node where the printing process lives
------------------
     ethr =  1.92E-10,  avg # of iterations =  3.2

     negative rho (up, down):  7.924E-01 0.000E+00

     total cpu time spent up to now is      625.4 secs

     total energy              =   -4399.91363030 Ry
     estimated scf accuracy    <       0.00000039 Ry

     iteration # 43     ecut=    60.00 Ry     beta= 0.15
     Davidson diagonalization with overlap

---- Real-time Memory Report at c_bands before calling an iterative solver
             0 MiB given to the printing process from OS
             0 MiB allocation reported by mallinfo(arena+hblkhd)
        169105 MiB available memory on the node where the printing process lives
------------------
     ethr =  9.24E-11,  avg # of iterations =  2.2

     negative rho (up, down):  7.924E-01 0.000E+00

     total cpu time spent up to now is      638.8 secs

     total energy              =   -4399.91363036 Ry
     estimated scf accuracy    <       0.00000024 Ry

     iteration # 44     ecut=    60.00 Ry     beta= 0.15
     Davidson diagonalization with overlap

---- Real-time Memory Report at c_bands before calling an iterative solver
             0 MiB given to the printing process from OS
             0 MiB allocation reported by mallinfo(arena+hblkhd)
        169112 MiB available memory on the node where the printing process lives
------------------
     ethr =  5.57E-11,  avg # of iterations =  3.0

     negative rho (up, down):  7.924E-01 0.000E+00

     total cpu time spent up to now is      652.7 secs

     total energy              =   -4399.91363037 Ry
     estimated scf accuracy    <       0.00000012 Ry

     iteration # 45     ecut=    60.00 Ry     beta= 0.15
     Davidson diagonalization with overlap

---- Real-time Memory Report at c_bands before calling an iterative solver
             0 MiB given to the printing process from OS
             0 MiB allocation reported by mallinfo(arena+hblkhd)
        169122 MiB available memory on the node where the printing process lives
------------------
     ethr =  2.80E-11,  avg # of iterations =  2.2

     negative rho (up, down):  7.924E-01 0.000E+00

     total cpu time spent up to now is      666.1 secs

     total energy              =   -4399.91363037 Ry
     estimated scf accuracy    <       0.00000009 Ry

     iteration # 46     ecut=    60.00 Ry     beta= 0.15
     Davidson diagonalization with overlap

---- Real-time Memory Report at c_bands before calling an iterative solver
             0 MiB given to the printing process from OS
             0 MiB allocation reported by mallinfo(arena+hblkhd)
        169125 MiB available memory on the node where the printing process lives
------------------
     ethr =  2.02E-11,  avg # of iterations =  2.2

     negative rho (up, down):  7.924E-01 0.000E+00

     total cpu time spent up to now is      679.6 secs

     total energy              =   -4399.91363039 Ry
     estimated scf accuracy    <       0.00000006 Ry

     iteration # 47     ecut=    60.00 Ry     beta= 0.15
     Davidson diagonalization with overlap

---- Real-time Memory Report at c_bands before calling an iterative solver
             0 MiB given to the printing process from OS
             0 MiB allocation reported by mallinfo(arena+hblkhd)
        169125 MiB available memory on the node where the printing process lives
------------------
     ethr =  1.40E-11,  avg # of iterations =  2.3

     negative rho (up, down):  7.924E-01 0.000E+00

     total cpu time spent up to now is      693.1 secs

     total energy              =   -4399.91363039 Ry
     estimated scf accuracy    <       0.00000004 Ry

     iteration # 48     ecut=    60.00 Ry     beta= 0.15
     Davidson diagonalization with overlap

---- Real-time Memory Report at c_bands before calling an iterative solver
             0 MiB given to the printing process from OS
             0 MiB allocation reported by mallinfo(arena+hblkhd)
        169125 MiB available memory on the node where the printing process lives
------------------
     ethr =  9.89E-12,  avg # of iterations =  2.2

     negative rho (up, down):  7.924E-01 0.000E+00

     total cpu time spent up to now is      706.7 secs

     total energy              =   -4399.91363040 Ry
     estimated scf accuracy    <       0.00000003 Ry

     iteration # 49     ecut=    60.00 Ry     beta= 0.15
     Davidson diagonalization with overlap

---- Real-time Memory Report at c_bands before calling an iterative solver
             0 MiB given to the printing process from OS
             0 MiB allocation reported by mallinfo(arena+hblkhd)
        169126 MiB available memory on the node where the printing process lives
------------------
     ethr =  7.39E-12,  avg # of iterations =  3.9

     negative rho (up, down):  7.924E-01 0.000E+00

     total cpu time spent up to now is      720.6 secs

     End of self-consistent calculation

          k = 0.0000 0.0000 0.0000 ( 65197 PWs)   bands (ev):

   -92.7096 -92.6546 -92.5632 -92.5138 -92.4568 -92.4158 -92.3986 -92.2760
   -56.0631 -56.0411 -55.9206 -55.9102 -55.9017 -55.8971 -55.8596 -55.8325
   -55.8172 -55.8152 -55.8053 -55.7647 -55.7454 -55.7082 -55.6895 -55.6567
   -55.6484 -55.6043 -55.6016 -55.6011 -55.5926 -55.5505 -55.5289 -55.4433
   -31.2863 -31.2664 -31.1609 -31.1254 -31.0747 -31.0378 -30.8189 -30.7064
   -29.8583 -29.8142 -29.7894 -29.6799 -15.0901 -15.0486 -14.9675 -14.8365
   -14.6485 -14.5233 -14.2294 -14.2121 -14.1797 -14.1373 -14.0923 -14.0828
   -14.0706 -14.0544 -14.0302 -14.0032 -13.9403 -13.7906 -13.6174 -13.5793
   -13.5470 -13.5217 -13.5005 -13.4498 -13.4138 -13.3305 -13.2594 -13.1674
   -13.1538 -13.1187 -13.1048 -13.0835 -13.0669 -13.0410 -13.0175 -12.9991
   -12.9778 -12.9605 -12.9516 -12.9314 -12.9178 -12.9055 -12.8191 -12.7880
   -12.7563 -12.6515 -12.6259 -12.6101 -12.3508 -12.2051 -12.0431 -11.9743
   -11.8715 -11.7973 -11.7864 -11.7633 -11.7458 -11.6820 -11.6648 -11.6300
   -11.6016 -11.4892 -11.4094 -11.4058  -2.9515  -2.7186  -2.4891  -2.3428
    -2.2791  -2.1365  -1.8300  -1.8160  -1.7955  -1.7127  -1.6930  -1.6249
    -1.6086  -1.5673  -1.5225  -1.3414  -1.1186  -1.0889  -0.9398  -0.9259
    -0.8807  -0.8635  -0.8177  -0.8016  -0.7432  -0.7169  -0.6464  -0.6327
    -0.5563  -0.4251  -0.4116  -0.3843  -0.3032  -0.2978  -0.2810  -0.2107
    -0.1385  -0.0982  -0.0435  -0.0173   0.0417   0.1228   0.1705   0.1927
     0.2016   0.4582   0.4732   0.6452   0.7134   0.7784   0.8229   0.9111
     0.9262   0.9432   1.0109   1.0382   1.0730   1.1313   1.2639   1.3210
     1.3416   1.3602   1.3705   1.4380   1.5127   1.6128   1.6246   1.6894
     1.7052   1.7449   1.7650   1.7704   1.8282   1.8804   1.8926   1.9275
     1.9576   2.0150   2.1460   2.2280   2.2734   2.2920   2.4429   2.4570
     2.4993   2.5040   2.6089   2.6470   2.6737   2.6918   2.7056   2.7691
     2.8152   2.9020   2.9293   2.9428   2.9489   3.0168   3.0203   3.0441
     3.0525   3.0605   3.0772   3.0799   3.0927   3.0978   3.1128   3.1208
     3.1275   3.1479   3.1688   3.1741   3.1858   3.2276   3.3272   3.4268
     4.1005   4.4203   4.7621   4.8629   5.0261   5.7664   5.9253   5.9849
     6.0054   6.3051   6.3526   6.4799   6.4900   6.7285   7.0037   7.0920
     7.1249   7.3013   7.3886   7.5667   7.6482   7.6596   7.6800   7.8320
     7.9409   8.0881   8.1108   8.1800   8.5774   8.6248   8.7533   8.8343

     occupation numbers 
     1.0000   1.0000   1.0000   1.0000   1.0000   1.0000   1.0000   1.0000
     1.0000   1.0000   1.0000   1.0000   1.0000   1.0000   1.0000   1.0000
     1.0000   1.0000   1.0000   1.0000   1.0000   1.0000   1.0000   1.0000
     1.0000   1.0000   1.0000   1.0000   1.0000   1.0000   1.0000   1.0000
     1.0000   1.0000   1.0000   1.0000   1.0000   1.0000   1.0000   1.0000
     1.0000   1.0000   1.0000   1.0000   1.0000   1.0000   1.0000   1.0000
     1.0000   1.0000   1.0000   1.0000   1.0000   1.0000   1.0000   1.0000
     1.0000   1.0000   1.0000   1.0000   1.0000   1.0000   1.0000   1.0000
     1.0000   1.0000   1.0000   1.0000   1.0000   1.0000   1.0000   1.0000
     1.0000   1.0000   1.0000   1.0000   1.0000   1.0000   1.0000   1.0000
     1.0000   1.0000   1.0000   1.0000   1.0000   1.0000   1.0000   1.0000
     1.0000   1.0000   1.0000   1.0000   1.0000   1.0000   1.0000   1.0000
     1.0000   1.0000   1.0000   1.0000   1.0000   1.0000   1.0000   1.0000
     1.0000   1.0000   1.0000   1.0000   1.0000   1.0000   1.0000   1.0000
     1.0000   1.0000   1.0000   1.0000   1.0000   1.0000   1.0000   1.0000
     1.0000   1.0000   1.0000   1.0000   1.0000   1.0000   1.0000   1.0000
     1.0000   1.0000   1.0000   1.0000   1.0000   1.0000   1.0000   1.0000
     1.0000   1.0000   1.0000   1.0000   1.0000   1.0000   1.0000   1.0000
     1.0000   1.0000   1.0000   1.0000   1.0000   1.0000   1.0000   1.0000
     1.0000   1.0000   1.0000   1.0000   0.9999   0.9999   0.9999   0.9998
     0.9998   0.9998   0.9997   0.9996   0.9996   0.9994   0.9989   0.9985
     0.9983   0.9982   0.9981   0.9974   0.9963   0.9943   0.9940   0.9922
     0.9917   0.9903   0.9895   0.9892   0.9865   0.9836   0.9829   0.9805
     0.9783   0.9735   0.9591   0.9473   0.9396   0.9362   0.9031   0.8995
     0.8880   0.8866   0.8539   0.8405   0.8307   0.8238   0.8185   0.7926
     0.7724   0.7317   0.7182   0.7114   0.7083   0.6727   0.6709   0.6580
     0.6534   0.6490   0.6398   0.6382   0.6311   0.6283   0.6198   0.6153
     0.6115   0.5998   0.5878   0.5847   0.5779   0.5535   0.4947   0.4359
     0.1227   0.0509   0.0160   0.0109   0.0056   0.0001   0.0001   0.0000
     0.0000   0.0000   0.0000   0.0000   0.0000   0.0000   0.0000   0.0000
     0.0000   0.0000   0.0000   0.0000   0.0000   0.0000   0.0000   0.0000
     0.0000   0.0000   0.0000   0.0000   0.0000   0.0000   0.0000   0.0000

          k = 0.0000 0.2500 0.0000 ( 65257 PWs)   bands (ev):

   -92.7096 -92.6546 -92.5632 -92.5138 -92.4568 -92.4158 -92.3986 -92.2760
   -56.0631 -56.0411 -55.9206 -55.9102 -55.9017 -55.8971 -55.8596 -55.8325
   -55.8172 -55.8152 -55.8053 -55.7647 -55.7454 -55.7082 -55.6895 -55.6567
   -55.6484 -55.6043 -55.6016 -55.6011 -55.5926 -55.5505 -55.5289 -55.4433
   -31.2861 -31.2662 -31.1605 -31.1256 -31.0751 -31.0379 -30.8186 -30.7067
   -29.8577 -29.8139 -29.7900 -29.6803 -15.0534 -15.0222 -14.9423 -14.8075
   -14.6879 -14.5151 -14.3748 -14.1952 -14.1629 -14.1411 -14.1134 -14.0552
   -14.0495 -14.0331 -14.0166 -13.9790 -13.8595 -13.8210 -13.6573 -13.6425
   -13.5888 -13.5539 -13.5131 -13.4667 -13.4301 -13.3523 -13.3169 -13.2749
   -13.2134 -13.1569 -13.1394 -13.1160 -13.0940 -13.0231 -12.9889 -12.9593
   -12.9415 -12.9125 -12.8868 -12.8763 -12.8632 -12.8092 -12.7996 -12.7749
   -12.7362 -12.6528 -12.5436 -12.4864 -12.4121 -12.2563 -12.0991 -12.0397
   -11.8369 -11.7941 -11.7664 -11.7381 -11.7213 -11.6739 -11.6626 -11.6403
   -11.6060 -11.5035 -11.4510 -11.4404  -2.8163  -2.5942  -2.4569  -2.2748
    -2.2314  -2.0672  -1.8490  -1.7631  -1.7502  -1.6940  -1.5906  -1.5748
    -1.5406  -1.5144  -1.4707  -1.2726  -1.1446  -1.1326  -1.0567  -1.0457
    -0.9414  -0.9109  -0.8550  -0.8300  -0.7876  -0.7244  -0.6984  -0.6658
    -0.6343  -0.6172  -0.5846  -0.5103  -0.4592  -0.3988  -0.2844  -0.2671
    -0.2221  -0.1032  -0.0703  -0.0048   0.0421   0.1056   0.1218   0.1492
     0.2075   0.5054   0.5936   0.6235   0.7139   0.7595   0.7789   0.9004
     0.9188   1.0108   1.0378   1.0655   1.1807   1.2708   1.2955   1.3188
     1.3361   1.3645   1.4243   1.4509   1.4778   1.5268   1.5606   1.5891
     1.6688   1.7020   1.7436   1.7931   1.8487   1.8892   1.9168   1.9413
     1.9644   2.0476   2.1808   2.2539   2.2738   2.3495   2.3974   2.4339
     2.4440   2.5055   2.5453   2.6272   2.6646   2.6815   2.7933   2.8574
     2.8894   2.9108   2.9319   2.9509   2.9580   2.9652   2.9826   3.0049
     3.0061   3.0264   3.0309   3.0405   3.0594   3.0727   3.0772   3.0990
     3.1099   3.1142   3.1494   3.1663   3.2289   3.5992   3.6421   3.8702
     4.2865   4.4223   4.6960   5.0158   5.0548   5.6251   5.7560   5.8922
     5.9740   6.0820   6.1057   6.1781   6.5967   6.8231   6.8946   7.1068
     7.3263   7.4376   7.4804   7.4967   7.6389   7.6992   7.7903   7.9879
     8.0414   8.0932   8.1602   8.3046   8.4035   8.6481   8.7864   8.8890

     occupation numbers 
     1.0000   1.0000   1.0000   1.0000   1.0000   1.0000   1.0000   1.0000
     1.0000   1.0000   1.0000   1.0000   1.0000   1.0000   1.0000   1.0000
     1.0000   1.0000   1.0000   1.0000   1.0000   1.0000   1.0000   1.0000
     1.0000   1.0000   1.0000   1.0000   1.0000   1.0000   1.0000   1.0000
     1.0000   1.0000   1.0000   1.0000   1.0000   1.0000   1.0000   1.0000
     1.0000   1.0000   1.0000   1.0000   1.0000   1.0000   1.0000   1.0000
     1.0000   1.0000   1.0000   1.0000   1.0000   1.0000   1.0000   1.0000
     1.0000   1.0000   1.0000   1.0000   1.0000   1.0000   1.0000   1.0000
     1.0000   1.0000   1.0000   1.0000   1.0000   1.0000   1.0000   1.0000
     1.0000   1.0000   1.0000   1.0000   1.0000   1.0000   1.0000   1.0000
     1.0000   1.0000   1.0000   1.0000   1.0000   1.0000   1.0000   1.0000
     1.0000   1.0000   1.0000   1.0000   1.0000   1.0000   1.0000   1.0000
     1.0000   1.0000   1.0000   1.0000   1.0000   1.0000   1.0000   1.0000
     1.0000   1.0000   1.0000   1.0000   1.0000   1.0000   1.0000   1.0000
     1.0000   1.0000   1.0000   1.0000   1.0000   1.0000   1.0000   1.0000
     1.0000   1.0000   1.0000   1.0000   1.0000   1.0000   1.0000   1.0000
     1.0000   1.0000   1.0000   1.0000   1.0000   1.0000   1.0000   1.0000
     1.0000   1.0000   1.0000   1.0000   1.0000   1.0000   1.0000   1.0000
     1.0000   1.0000   1.0000   1.0000   1.0000   1.0000   1.0000   1.0000
     1.0000   1.0000   1.0000   1.0000   0.9999   0.9999   0.9999   0.9998
     0.9998   0.9997   0.9996   0.9996   0.9992   0.9988   0.9987   0.9985
     0.9984   0.9981   0.9975   0.9972   0.9969   0.9961   0.9955   0.9949
     0.9928   0.9918   0.9903   0.9882   0.9854   0.9831   0.9813   0.9795
     0.9778   0.9704   0.9544   0.9430   0.9395   0.9248   0.9142   0.9054
     0.9029   0.8862   0.8744   0.8476   0.8341   0.8278   0.7821   0.7531
     0.7378   0.7274   0.7169   0.7073   0.7036   0.6999   0.6909   0.6791
     0.6785   0.6676   0.6652   0.6600   0.6496   0.6423   0.6397   0.6276
     0.6214   0.6190   0.5989   0.5892   0.5527   0.3382   0.3152   0.2062
     0.0752   0.0506   0.0204   0.0059   0.0050   0.0003   0.0001   0.0001
     0.0000   0.0000   0.0000   0.0000   0.0000   0.0000   0.0000   0.0000
     0.0000   0.0000   0.0000   0.0000   0.0000   0.0000   0.0000   0.0000
     0.0000   0.0000   0.0000   0.0000   0.0000   0.0000   0.0000   0.0000

          k = 0.0000-0.5000 0.0000 ( 65180 PWs)   bands (ev):

   -92.7096 -92.6546 -92.5632 -92.5138 -92.4568 -92.4158 -92.3986 -92.2760
   -56.0631 -56.0411 -55.9206 -55.9102 -55.9017 -55.8971 -55.8596 -55.8325
   -55.8172 -55.8152 -55.8053 -55.7647 -55.7454 -55.7082 -55.6895 -55.6567
   -55.6484 -55.6043 -55.6016 -55.6011 -55.5926 -55.5505 -55.5289 -55.4433
   -31.2859 -31.2661 -31.1602 -31.1258 -31.0755 -31.0381 -30.8184 -30.7069
   -29.8571 -29.8136 -29.7907 -29.6806 -15.0191 -14.9705 -14.9177 -14.7922
   -14.7062 -14.5688 -14.4188 -14.2947 -14.1661 -14.1031 -14.0573 -14.0473
   -13.9987 -13.9803 -13.9334 -13.9151 -13.8885 -13.8529 -13.8256 -13.7822
   -13.5923 -13.5357 -13.5219 -13.4652 -13.4378 -13.3674 -13.3430 -13.2923
   -13.2913 -13.2262 -13.1348 -13.1157 -13.0795 -13.0582 -12.9756 -12.9612
   -12.9371 -12.8906 -12.8716 -12.8573 -12.8023 -12.7643 -12.7166 -12.7116
   -12.6618 -12.6555 -12.5230 -12.4156 -12.3315 -12.2930 -12.2060 -12.1618
   -11.7910 -11.7886 -11.7613 -11.7240 -11.6897 -11.6787 -11.6358 -11.6319
   -11.5873 -11.5254 -11.5116 -11.4973  -2.6018  -2.5420  -2.3909  -2.3189
    -2.0387  -1.9538  -1.8270  -1.6891  -1.6538  -1.6326  -1.5537  -1.5231
    -1.4409  -1.4057  -1.3291  -1.2881  -1.2493  -1.2224  -1.1649  -1.1284
    -1.0813  -1.0463  -1.0121  -0.9779  -0.8682  -0.8230  -0.7896  -0.7882
    -0.7020  -0.6690  -0.6470  -0.5972  -0.5137  -0.4414  -0.3614  -0.3352
    -0.2252  -0.1798  -0.0385  -0.0077   0.0228   0.0817   0.2009   0.2498
     0.3829   0.4495   0.4569   0.5854   0.6286   0.7401   0.8644   0.9727
     1.0027   1.0400   1.0441   1.0862   1.1015   1.1380   1.1542   1.1644
     1.2754   1.3367   1.3627   1.3880   1.6471   1.6830   1.7019   1.7997
     1.8222   1.8544   1.8716   1.9009   1.9119   1.9250   1.9568   1.9912
     2.0202   2.0479   2.0577   2.0866   2.1417   2.2219   2.2512   2.4368
     2.5932   2.6040   2.6184   2.6532   2.6588   2.6715   2.7203   2.7356
     2.7870   2.8007   2.8204   2.8968   2.9003   2.9679   2.9894   3.0000
     3.0022   3.0221   3.0288   3.0333   3.0359   3.0427   3.0601   3.0689
     3.0787   3.1346   3.1409   3.1560   3.2098   4.1199   4.1543   4.1738
     4.2440   4.7335   4.8881   5.0227   5.1389   5.4085   5.4568   5.5863
     5.6874   5.9779   6.0328   6.0416   6.6380   6.8535   6.9493   7.2175
     7.2934   7.3166   7.3969   7.4984   7.7466   7.8462   7.8884   7.9094
     8.1090   8.1833   8.4526   8.5502   8.6620   8.7138   8.8089   8.8301

     occupation numbers 
     1.0000   1.0000   1.0000   1.0000   1.0000   1.0000   1.0000   1.0000
     1.0000   1.0000   1.0000   1.0000   1.0000   1.0000   1.0000   1.0000
     1.0000   1.0000   1.0000   1.0000   1.0000   1.0000   1.0000   1.0000
     1.0000   1.0000   1.0000   1.0000   1.0000   1.0000   1.0000   1.0000
     1.0000   1.0000   1.0000   1.0000   1.0000   1.0000   1.0000   1.0000
     1.0000   1.0000   1.0000   1.0000   1.0000   1.0000   1.0000   1.0000
     1.0000   1.0000   1.0000   1.0000   1.0000   1.0000   1.0000   1.0000
     1.0000   1.0000   1.0000   1.0000   1.0000   1.0000   1.0000   1.0000
     1.0000   1.0000   1.0000   1.0000   1.0000   1.0000   1.0000   1.0000
     1.0000   1.0000   1.0000   1.0000   1.0000   1.0000   1.0000   1.0000
     1.0000   1.0000   1.0000   1.0000   1.0000   1.0000   1.0000   1.0000
     1.0000   1.0000   1.0000   1.0000   1.0000   1.0000   1.0000   1.0000
     1.0000   1.0000   1.0000   1.0000   1.0000   1.0000   1.0000   1.0000
     1.0000   1.0000   1.0000   1.0000   1.0000   1.0000   1.0000   1.0000
     1.0000   1.0000   1.0000   1.0000   1.0000   1.0000   1.0000   1.0000
     1.0000   1.0000   1.0000   1.0000   1.0000   1.0000   1.0000   1.0000
     1.0000   1.0000   1.0000   1.0000   1.0000   1.0000   1.0000   1.0000
     1.0000   1.0000   1.0000   1.0000   1.0000   1.0000   1.0000   1.0000
     1.0000   1.0000   1.0000   1.0000   1.0000   1.0000   1.0000   1.0000
     1.0000   1.0000   1.0000   1.0000   1.0000   0.9999   0.9999   0.9998
     0.9997   0.9996   0.9996   0.9995   0.9995   0.9994   0.9993   0.9993
     0.9988   0.9984   0.9982   0.9979   0.9935   0.9924   0.9918   0.9879
     0.9868   0.9851   0.9841   0.9823   0.9816   0.9807   0.9784   0.9756
     0.9730   0.9704   0.9694   0.9663   0.9597   0.9482   0.9434   0.9047
     0.8592   0.8555   0.8506   0.8383   0.8362   0.8315   0.8127   0.8065
     0.7849   0.7789   0.7701   0.7342   0.7325   0.6985   0.6873   0.6817
     0.6805   0.6699   0.6663   0.6639   0.6624   0.6588   0.6492   0.6444
     0.6389   0.6074   0.6038   0.5951   0.5639   0.1169   0.1072   0.1019
     0.0846   0.0178   0.0099   0.0057   0.0034   0.0010   0.0007   0.0004
     0.0002   0.0000   0.0000   0.0000   0.0000   0.0000   0.0000   0.0000
     0.0000   0.0000   0.0000   0.0000   0.0000   0.0000   0.0000   0.0000
     0.0000   0.0000   0.0000   0.0000   0.0000   0.0000   0.0000   0.0000

          k = 0.2500 0.2500 0.0000 ( 65198 PWs)   bands (ev):

   -92.7096 -92.6546 -92.5632 -92.5138 -92.4568 -92.4158 -92.3986 -92.2760
   -56.0631 -56.0411 -55.9206 -55.9102 -55.9017 -55.8971 -55.8596 -55.8325
   -55.8172 -55.8152 -55.8053 -55.7647 -55.7454 -55.7082 -55.6895 -55.6567
   -55.6484 -55.6043 -55.6016 -55.6011 -55.5926 -55.5505 -55.5289 -55.4433
   -31.2845 -31.2679 -31.1604 -31.1252 -31.0750 -31.0383 -30.8187 -30.7067
   -29.8568 -29.8148 -29.7897 -29.6807 -15.0249 -14.9866 -14.9145 -14.7971
   -14.6805 -14.5547 -14.4807 -14.2776 -14.1187 -14.1061 -14.0714 -14.0414
   -14.0190 -13.9920 -13.9617 -13.9439 -13.8514 -13.8354 -13.6738 -13.6602
   -13.6310 -13.6097 -13.5699 -13.5208 -13.4715 -13.4353 -13.3258 -13.2946
   -13.2385 -13.1526 -13.1164 -13.1005 -13.0590 -13.0290 -13.0176 -12.9710
   -12.9550 -12.9358 -12.9033 -12.8719 -12.7784 -12.7560 -12.7503 -12.7222
   -12.7024 -12.6532 -12.5062 -12.4606 -12.4030 -12.2855 -12.1269 -12.0860
   -11.8093 -11.7774 -11.7667 -11.7599 -11.6969 -11.6623 -11.6555 -11.6200
   -11.6128 -11.5201 -11.4793 -11.4617  -2.6781  -2.4685  -2.3509  -2.2572
    -2.1356  -2.0703  -1.8740  -1.7282  -1.7085  -1.6805  -1.5855  -1.5508
    -1.4575  -1.4297  -1.3799  -1.2483  -1.2001  -1.1284  -1.0829  -1.0390
    -1.0152  -0.9902  -0.9484  -0.9324  -0.8421  -0.7923  -0.7285  -0.6788
    -0.6485  -0.5975  -0.5844  -0.5215  -0.4724  -0.4187  -0.3807  -0.2977
    -0.2431  -0.2149  -0.1751  -0.1202  -0.0493  -0.0090   0.0156   0.0912
     0.1284   0.3974   0.5433   0.5811   0.6359   0.6789   0.7390   0.7935
     0.8509   0.8875   1.1602   1.2291   1.3026   1.3287   1.3747   1.4086
     1.4433   1.4803   1.4979   1.5256   1.5678   1.5768   1.5927   1.6355
     1.6783   1.7156   1.7695   1.8121   1.8180   1.8524   1.8888   1.9430
     1.9713   2.0916   2.1624   2.1987   2.2257   2.2887   2.3575   2.3854
     2.4210   2.4443   2.4594   2.5695   2.6052   2.6934   2.8244   2.8677
     2.8861   2.8903   2.9073   2.9213   2.9336   2.9476   2.9555   2.9668
     2.9787   2.9898   3.0101   3.0147   3.0267   3.0476   3.0611   3.0699
     3.1010   3.4026   3.4987   3.5356   3.6022   3.6576   3.8469   3.9454
     4.2909   4.5121   4.7050   4.9654   5.1663   5.6333   5.6781   5.7356
     5.8262   5.8849   5.9735   6.1682   6.2099   6.7827   6.8949   7.0354
     7.1247   7.5482   7.5971   7.7046   7.7406   7.8641   7.9272   8.0889
     8.1846   8.1966   8.2473   8.3084   8.4349   8.4658   8.7648   8.8639

     occupation numbers 
     1.0000   1.0000   1.0000   1.0000   1.0000   1.0000   1.0000   1.0000
     1.0000   1.0000   1.0000   1.0000   1.0000   1.0000   1.0000   1.0000
     1.0000   1.0000   1.0000   1.0000   1.0000   1.0000   1.0000   1.0000
     1.0000   1.0000   1.0000   1.0000   1.0000   1.0000   1.0000   1.0000
     1.0000   1.0000   1.0000   1.0000   1.0000   1.0000   1.0000   1.0000
     1.0000   1.0000   1.0000   1.0000   1.0000   1.0000   1.0000   1.0000
     1.0000   1.0000   1.0000   1.0000   1.0000   1.0000   1.0000   1.0000
     1.0000   1.0000   1.0000   1.0000   1.0000   1.0000   1.0000   1.0000
     1.0000   1.0000   1.0000   1.0000   1.0000   1.0000   1.0000   1.0000
     1.0000   1.0000   1.0000   1.0000   1.0000   1.0000   1.0000   1.0000
     1.0000   1.0000   1.0000   1.0000   1.0000   1.0000   1.0000   1.0000
     1.0000   1.0000   1.0000   1.0000   1.0000   1.0000   1.0000   1.0000
     1.0000   1.0000   1.0000   1.0000   1.0000   1.0000   1.0000   1.0000
     1.0000   1.0000   1.0000   1.0000   1.0000   1.0000   1.0000   1.0000
     1.0000   1.0000   1.0000   1.0000   1.0000   1.0000   1.0000   1.0000
     1.0000   1.0000   1.0000   1.0000   1.0000   1.0000   1.0000   1.0000
     1.0000   1.0000   1.0000   1.0000   1.0000   1.0000   1.0000   1.0000
     1.0000   1.0000   1.0000   1.0000   1.0000   1.0000   1.0000   1.0000
     1.0000   1.0000   1.0000   1.0000   1.0000   1.0000   1.0000   1.0000
     1.0000   1.0000   1.0000   1.0000   1.0000   1.0000   0.9999   0.9999
     0.9999   0.9998   0.9993   0.9990   0.9986   0.9984   0.9980   0.9977
     0.9973   0.9968   0.9966   0.9961   0.9953   0.9951   0.9948   0.9938
     0.9926   0.9913   0.9893   0.9873   0.9870   0.9852   0.9831   0.9794
     0.9772   0.9657   0.9569   0.9518   0.9476   0.9368   0.9231   0.9170
     0.9086   0.9028   0.8989   0.8669   0.8551   0.8232   0.7683   0.7482
     0.7394   0.7374   0.7291   0.7222   0.7160   0.7089   0.7049   0.6991
     0.6929   0.6871   0.6763   0.6739   0.6674   0.6561   0.6487   0.6438
     0.6265   0.4501   0.3943   0.3734   0.3366   0.3071   0.2162   0.1758
     0.0743   0.0381   0.0197   0.0072   0.0030   0.0003   0.0002   0.0002
     0.0001   0.0001   0.0000   0.0000   0.0000   0.0000   0.0000   0.0000
     0.0000   0.0000   0.0000   0.0000   0.0000   0.0000   0.0000   0.0000
     0.0000   0.0000   0.0000   0.0000   0.0000   0.0000   0.0000   0.0000

          k = 0.2500-0.5000 0.0000 ( 65138 PWs)   bands (ev):

   -92.7096 -92.6546 -92.5632 -92.5138 -92.4568 -92.4158 -92.3986 -92.2760
   -56.0631 -56.0411 -55.9206 -55.9102 -55.9017 -55.8971 -55.8596 -55.8325
   -55.8172 -55.8152 -55.8053 -55.7647 -55.7454 -55.7082 -55.6895 -55.6567
   -55.6484 -55.6043 -55.6016 -55.6011 -55.5926 -55.5505 -55.5289 -55.4433
   -31.2843 -31.2678 -31.1601 -31.1254 -31.0754 -31.0384 -30.8185 -30.7070
   -29.8562 -29.8145 -29.7903 -29.6810 -14.9884 -14.9436 -14.8744 -14.7616
   -14.7300 -14.6092 -14.5221 -14.3920 -14.0831 -14.0339 -14.0048 -13.9836
   -13.9680 -13.9521 -13.9184 -13.9036 -13.8698 -13.8286 -13.8105 -13.7751
   -13.6751 -13.6262 -13.5874 -13.5469 -13.4931 -13.4744 -13.3840 -13.3481
   -13.2149 -13.1507 -13.1358 -13.0776 -13.0372 -13.0365 -12.9955 -12.9763
   -12.9512 -12.9203 -12.8705 -12.8531 -12.8012 -12.7777 -12.7244 -12.6689
   -12.6591 -12.6312 -12.5297 -12.3959 -12.3290 -12.2685 -12.1962 -12.1655
   -11.7848 -11.7729 -11.7619 -11.7349 -11.7033 -11.6751 -11.6337 -11.6059
   -11.5838 -11.5383 -11.5128 -11.5014  -2.4602  -2.3938  -2.2648  -2.1877
    -2.0592  -1.9740  -1.8514  -1.7007  -1.6480  -1.6251  -1.5618  -1.5489
    -1.4518  -1.3849  -1.2996  -1.2508  -1.2412  -1.1776  -1.1354  -1.1006
    -1.0539  -1.0167  -0.9817  -0.9413  -0.9306  -0.8849  -0.8558  -0.8150
    -0.7838  -0.7162  -0.6161  -0.5741  -0.4976  -0.4332  -0.3861  -0.3413
    -0.3193  -0.2703  -0.1064  -0.0953   0.0045   0.0473   0.0532   0.0987
     0.1273   0.1692   0.1945   0.2655   0.5314   0.6262   0.7050   0.7598
     1.0186   1.0459   1.1332   1.1594   1.3261   1.3584   1.4023   1.4240
     1.4413   1.4611   1.5219   1.5671   1.6041   1.6851   1.7708   1.8141
     1.8339   1.8419   1.8816   1.8955   1.8981   1.9436   1.9575   1.9764
     2.0082   2.0272   2.0489   2.0812   2.1408   2.1771   2.2558   2.3952
     2.5455   2.5606   2.5804   2.6075   2.6332   2.6582   2.6825   2.6903
     2.7153   2.8100   2.8407   2.8713   2.8861   2.8968   2.9070   2.9246
     2.9380   2.9571   2.9643   2.9948   3.0075   3.0225   3.0325   3.0404
     3.0521   3.5797   3.5933   3.7341   3.7833   4.1293   4.1711   4.1966
     4.3037   4.7520   4.9112   5.0577   5.1153   5.2968   5.4249   5.5946
     5.6136   5.7584   5.7809   6.0944   6.3933   6.4840   6.5859   6.9590
     7.4480   7.5246   7.6983   7.8062   7.8393   7.8732   8.0346   8.1254
     8.3049   8.3888   8.4378   8.5261   8.5335   8.6715   8.7030   8.7719

     occupation numbers 
     1.0000   1.0000   1.0000   1.0000   1.0000   1.0000   1.0000   1.0000
     1.0000   1.0000   1.0000   1.0000   1.0000   1.0000   1.0000   1.0000
     1.0000   1.0000   1.0000   1.0000   1.0000   1.0000   1.0000   1.0000
     1.0000   1.0000   1.0000   1.0000   1.0000   1.0000   1.0000   1.0000
     1.0000   1.0000   1.0000   1.0000   1.0000   1.0000   1.0000   1.0000
     1.0000   1.0000   1.0000   1.0000   1.0000   1.0000   1.0000   1.0000
     1.0000   1.0000   1.0000   1.0000   1.0000   1.0000   1.0000   1.0000
     1.0000   1.0000   1.0000   1.0000   1.0000   1.0000   1.0000   1.0000
     1.0000   1.0000   1.0000   1.0000   1.0000   1.0000   1.0000   1.0000
     1.0000   1.0000   1.0000   1.0000   1.0000   1.0000   1.0000   1.0000
     1.0000   1.0000   1.0000   1.0000   1.0000   1.0000   1.0000   1.0000
     1.0000   1.0000   1.0000   1.0000   1.0000   1.0000   1.0000   1.0000
     1.0000   1.0000   1.0000   1.0000   1.0000   1.0000   1.0000   1.0000
     1.0000   1.0000   1.0000   1.0000   1.0000   1.0000   1.0000   1.0000
     1.0000   1.0000   1.0000   1.0000   1.0000   1.0000   1.0000   1.0000
     1.0000   1.0000   1.0000   1.0000   1.0000   1.0000   1.0000   1.0000
     1.0000   1.0000   1.0000   1.0000   1.0000   1.0000   1.0000   1.0000
     1.0000   1.0000   1.0000   1.0000   1.0000   1.0000   1.0000   1.0000
     1.0000   1.0000   1.0000   1.0000   1.0000   1.0000   1.0000   1.0000
     1.0000   1.0000   1.0000   1.0000   1.0000   1.0000   0.9999   0.9999
     0.9997   0.9996   0.9994   0.9993   0.9985   0.9982   0.9978   0.9975
     0.9973   0.9971   0.9962   0.9953   0.9945   0.9923   0.9892   0.9872
     0.9862   0.9858   0.9835   0.9827   0.9825   0.9794   0.9783   0.9768
     0.9741   0.9724   0.9703   0.9669   0.9598   0.9549   0.9427   0.9147
     0.8744   0.8697   0.8633   0.8544   0.8455   0.8364   0.8274   0.8244
     0.8147   0.7748   0.7608   0.7465   0.7394   0.7342   0.7293   0.7205
     0.7138   0.7041   0.7004   0.6844   0.6777   0.6697   0.6643   0.6600
     0.6536   0.3489   0.3414   0.2684   0.2449   0.1142   0.1027   0.0960
     0.0717   0.0166   0.0090   0.0049   0.0038   0.0017   0.0009   0.0004
     0.0003   0.0001   0.0001   0.0000   0.0000   0.0000   0.0000   0.0000
     0.0000   0.0000   0.0000   0.0000   0.0000   0.0000   0.0000   0.0000
     0.0000   0.0000   0.0000   0.0000   0.0000   0.0000   0.0000   0.0000

          k =-0.5000-0.5000 0.0000 ( 65132 PWs)   bands (ev):

   -92.7096 -92.6546 -92.5632 -92.5138 -92.4568 -92.4158 -92.3986 -92.2760
   -56.0631 -56.0411 -55.9206 -55.9102 -55.9017 -55.8971 -55.8596 -55.8325
   -55.8172 -55.8152 -55.8053 -55.7647 -55.7454 -55.7082 -55.6895 -55.6567
   -55.6484 -55.6043 -55.6016 -55.6011 -55.5926 -55.5505 -55.5289 -55.4433
   -31.2822 -31.2698 -31.1600 -31.1250 -31.0753 -31.0388 -30.8186 -30.7071
   -29.8552 -29.8155 -29.7899 -29.6814 -14.9413 -14.9164 -14.7990 -14.7866
   -14.6955 -14.6555 -14.6271 -14.4919 -13.9949 -13.9831 -13.9478 -13.9312
   -13.9115 -13.9009 -13.8689 -13.8589 -13.8475 -13.8384 -13.8238 -13.7443
   -13.7348 -13.7141 -13.6775 -13.6720 -13.5679 -13.5593 -13.4256 -13.3939
   -13.1652 -13.1332 -13.0612 -13.0534 -13.0344 -13.0163 -12.9928 -12.9855
   -12.9806 -12.9629 -12.8715 -12.8405 -12.8027 -12.7856 -12.7389 -12.6722
   -12.6129 -12.6051 -12.5460 -12.3775 -12.3254 -12.2417 -12.1863 -12.1717
   -11.7811 -11.7693 -11.7514 -11.7345 -11.6998 -11.6813 -11.6478 -11.5860
   -11.5665 -11.5604 -11.5105 -11.5071  -2.2366  -2.1605  -2.1495  -2.0772
    -2.0389  -1.9608  -1.8929  -1.7677  -1.6510  -1.6206  -1.5823  -1.5240
    -1.4527  -1.4383  -1.3672  -1.3247  -1.2085  -1.1795  -1.1317  -1.1011
    -1.0371  -0.9916  -0.9729  -0.9606  -0.9084  -0.8618  -0.8488  -0.7345
    -0.6762  -0.6296  -0.5808  -0.5552  -0.5445  -0.5078  -0.4649  -0.4322
    -0.4199  -0.3325  -0.2673  -0.2194  -0.1959  -0.1209  -0.0687  -0.0482
     0.0042   0.0246   0.0417   0.0573   0.5011   0.5442   0.6529   0.6723
     1.0524   1.0650   1.0970   1.1359   1.4102   1.4298   1.4365   1.4743
     1.6064   1.7028   1.7288   1.7649   1.7809   1.8091   1.8159   1.8476
     1.8569   1.8725   1.8835   1.9364   1.9393   1.9676   1.9908   2.0008
     2.0156   2.0526   2.0812   2.0923   2.1261   2.1516   2.2213   2.2873
     2.5517   2.5884   2.6078   2.6289   2.6330   2.6682   2.6716   2.6919
     2.7015   2.7169   2.7379   2.7530   2.8042   2.8205   2.8341   2.8425
     2.8666   2.8825   2.8880   2.9010   2.9106   3.0029   3.0079   3.0378
     3.0470   3.9997   4.0199   4.0551   4.0910   4.3106   4.3841   4.4099
     4.6504   4.7724   4.8557   4.9846   5.0692   5.0830   5.1957   5.2987
     5.3684   5.8480   5.8894   5.9570   6.0248   6.3272   6.5178   6.5550
     7.7752   7.8366   7.8713   7.9003   7.9211   7.9709   8.0104   8.0802
     8.2584   8.2859   8.5171   8.5764   8.6025   8.6203   8.6510   8.7370

     occupation numbers 
     1.0000   1.0000   1.0000   1.0000   1.0000   1.0000   1.0000   1.0000
     1.0000   1.0000   1.0000   1.0000   1.0000   1.0000   1.0000   1.0000
     1.0000   1.0000   1.0000   1.0000   1.0000   1.0000   1.0000   1.0000
     1.0000   1.0000   1.0000   1.0000   1.0000   1.0000   1.0000   1.0000
     1.0000   1.0000   1.0000   1.0000   1.0000   1.0000   1.0000   1.0000
     1.0000   1.0000   1.0000   1.0000   1.0000   1.0000   1.0000   1.0000
     1.0000   1.0000   1.0000   1.0000   1.0000   1.0000   1.0000   1.0000
     1.0000   1.0000   1.0000   1.0000   1.0000   1.0000   1.0000   1.0000
     1.0000   1.0000   1.0000   1.0000   1.0000   1.0000   1.0000   1.0000
     1.0000   1.0000   1.0000   1.0000   1.0000   1.0000   1.0000   1.0000
     1.0000   1.0000   1.0000   1.0000   1.0000   1.0000   1.0000   1.0000
     1.0000   1.0000   1.0000   1.0000   1.0000   1.0000   1.0000   1.0000
     1.0000   1.0000   1.0000   1.0000   1.0000   1.0000   1.0000   1.0000
     1.0000   1.0000   1.0000   1.0000   1.0000   1.0000   1.0000   1.0000
     1.0000   1.0000   1.0000   1.0000   1.0000   1.0000   1.0000   1.0000
     1.0000   1.0000   1.0000   1.0000   1.0000   1.0000   1.0000   1.0000
     1.0000   1.0000   1.0000   1.0000   1.0000   1.0000   1.0000   1.0000
     1.0000   1.0000   1.0000   1.0000   1.0000   1.0000   1.0000   1.0000
     1.0000   1.0000   1.0000   1.0000   1.0000   1.0000   1.0000   1.0000
     1.0000   1.0000   1.0000   1.0000   1.0000   1.0000   1.0000   1.0000
     0.9996   0.9996   0.9995   0.9994   0.9977   0.9975   0.9974   0.9969
     0.9945   0.9918   0.9909   0.9895   0.9888   0.9875   0.9872   0.9855
     0.9850   0.9841   0.9834   0.9799   0.9797   0.9775   0.9756   0.9748
     0.9735   0.9699   0.9669   0.9656   0.9616   0.9584   0.9483   0.9371
     0.8725   0.8608   0.8542   0.8470   0.8455   0.8328   0.8315   0.8238
     0.8201   0.8140   0.8055   0.7993   0.7773   0.7700   0.7639   0.7600
     0.7487   0.7412   0.7385   0.7322   0.7275   0.6802   0.6775   0.6614
     0.6564   0.1558   0.1487   0.1369   0.1256   0.0703   0.0567   0.0525
     0.0240   0.0154   0.0112   0.0067   0.0047   0.0044   0.0027   0.0016
     0.0012   0.0001   0.0001   0.0000   0.0000   0.0000   0.0000   0.0000
     0.0000   0.0000   0.0000   0.0000   0.0000   0.0000   0.0000   0.0000
     0.0000   0.0000   0.0000   0.0000   0.0000   0.0000   0.0000   0.0000

          k = 0.2500 0.0000 0.0000 ( 65257 PWs)   bands (ev):

   -92.7096 -92.6546 -92.5632 -92.5138 -92.4568 -92.4158 -92.3986 -92.2760
   -56.0631 -56.0411 -55.9206 -55.9102 -55.9017 -55.8971 -55.8596 -55.8325
   -55.8172 -55.8152 -55.8053 -55.7647 -55.7454 -55.7082 -55.6895 -55.6567
   -55.6484 -55.6043 -55.6016 -55.6011 -55.5926 -55.5505 -55.5289 -55.4433
[...]
     0.7435   0.7289   0.7187   0.7150   0.7045   0.6990   0.6917   0.6797
     0.6769   0.6639   0.6571   0.6544   0.6470   0.6361   0.6217   0.6195
     0.6150   0.6108   0.6053   0.5997   0.5243   0.3508   0.3204   0.2052
     0.0799   0.0452   0.0221   0.0058   0.0050   0.0003   0.0001   0.0001
     0.0000   0.0000   0.0000   0.0000   0.0000   0.0000   0.0000   0.0000
     0.0000   0.0000   0.0000   0.0000   0.0000   0.0000   0.0000   0.0000
     0.0000   0.0000   0.0000   0.0000   0.0000   0.0000   0.0000   0.0000

          k =-0.5000 0.0000 0.0000 ( 65180 PWs)   bands (ev):

   -92.7096 -92.6546 -92.5632 -92.5138 -92.4568 -92.4158 -92.3986 -92.2760
   -56.0631 -56.0411 -55.9206 -55.9102 -55.9017 -55.8971 -55.8596 -55.8325
   -55.8172 -55.8152 -55.8053 -55.7647 -55.7454 -55.7082 -55.6895 -55.6567
   -55.6484 -55.6043 -55.6016 -55.6011 -55.5926 -55.5505 -55.5289 -55.4433
   -31.2826 -31.2701 -31.1607 -31.1246 -31.0746 -31.0385 -30.8191 -30.7065
   -29.8564 -29.8162 -29.7886 -29.6807 -15.0239 -14.9723 -14.9107 -14.8074
   -14.6976 -14.5553 -14.4073 -14.2770 -14.1422 -14.1365 -14.1169 -14.0579
   -14.0010 -13.9680 -13.9220 -13.9192 -13.9029 -13.8480 -13.8428 -13.7325
   -13.5633 -13.5449 -13.5038 -13.4966 -13.4518 -13.3732 -13.3232 -13.2764
   -13.2526 -13.2495 -13.1445 -13.0630 -13.0540 -13.0348 -13.0207 -13.0187
   -12.9599 -12.9554 -12.9430 -12.9236 -12.7598 -12.6590 -12.6486 -12.6388
   -12.6367 -12.6227 -12.5491 -12.4985 -12.3776 -12.3353 -12.1766 -12.1377
   -11.7886 -11.7670 -11.7603 -11.7448 -11.7270 -11.6856 -11.6233 -11.6062
   -11.5739 -11.5272 -11.5180 -11.5026  -2.5914  -2.5530  -2.3885  -2.3498
    -2.0367  -1.9624  -1.8120  -1.6957  -1.6567  -1.6112  -1.5624  -1.5374
    -1.4148  -1.3701  -1.3552  -1.2723  -1.2375  -1.2223  -1.1901  -1.1334
    -1.0644  -1.0344  -1.0077  -0.9129  -0.8639  -0.8148  -0.7824  -0.7609
    -0.7324  -0.6835  -0.6590  -0.6200  -0.5253  -0.4490  -0.3885  -0.3249
    -0.1598  -0.1227  -0.0654  -0.0394   0.0269   0.0440   0.1802   0.2129
     0.2579   0.4312   0.5299   0.5759   0.6558   0.7268   0.8496   0.8601
     0.9953   1.0200   1.0739   1.0987   1.1397   1.1521   1.1949   1.2218
     1.2874   1.3353   1.3824   1.3905   1.6876   1.6940   1.7164   1.7292
     1.8445   1.8578   1.8659   1.8824   1.9101   1.9216   1.9619   1.9878
     2.0094   2.0685   2.0788   2.1315   2.1520   2.2108   2.3194   2.4206
     2.4915   2.5061   2.5783   2.6179   2.6403   2.7118   2.7196   2.7294
     2.7581   2.7970   2.8565   2.8756   2.9201   2.9536   2.9927   2.9951
     2.9957   3.0086   3.0241   3.0342   3.0494   3.0572   3.0761   3.0797
     3.1004   3.1206   3.1253   3.2548   3.2659   4.0672   4.1120   4.1732
     4.3320   4.7823   4.8543   5.0252   5.0449   5.4840   5.5061   5.5844
     5.6400   5.9429   6.0240   6.0505   6.7871   6.7972   7.0020   7.2774
     7.3046   7.3352   7.3857   7.4783   7.5741   7.7138   7.7712   7.8821
     8.1080   8.2528   8.4981   8.5925   8.6677   8.7229   8.7564   8.8423

     occupation numbers 
     1.0000   1.0000   1.0000   1.0000   1.0000   1.0000   1.0000   1.0000
     1.0000   1.0000   1.0000   1.0000   1.0000   1.0000   1.0000   1.0000
     1.0000   1.0000   1.0000   1.0000   1.0000   1.0000   1.0000   1.0000
     1.0000   1.0000   1.0000   1.0000   1.0000   1.0000   1.0000   1.0000
     1.0000   1.0000   1.0000   1.0000   1.0000   1.0000   1.0000   1.0000
     1.0000   1.0000   1.0000   1.0000   1.0000   1.0000   1.0000   1.0000
     1.0000   1.0000   1.0000   1.0000   1.0000   1.0000   1.0000   1.0000
     1.0000   1.0000   1.0000   1.0000   1.0000   1.0000   1.0000   1.0000
     1.0000   1.0000   1.0000   1.0000   1.0000   1.0000   1.0000   1.0000
     1.0000   1.0000   1.0000   1.0000   1.0000   1.0000   1.0000   1.0000
     1.0000   1.0000   1.0000   1.0000   1.0000   1.0000   1.0000   1.0000
     1.0000   1.0000   1.0000   1.0000   1.0000   1.0000   1.0000   1.0000
     1.0000   1.0000   1.0000   1.0000   1.0000   1.0000   1.0000   1.0000
     1.0000   1.0000   1.0000   1.0000   1.0000   1.0000   1.0000   1.0000
     1.0000   1.0000   1.0000   1.0000   1.0000   1.0000   1.0000   1.0000
     1.0000   1.0000   1.0000   1.0000   1.0000   1.0000   1.0000   1.0000
     1.0000   1.0000   1.0000   1.0000   1.0000   1.0000   1.0000   1.0000
     1.0000   1.0000   1.0000   1.0000   1.0000   1.0000   1.0000   1.0000
     1.0000   1.0000   1.0000   1.0000   1.0000   1.0000   1.0000   1.0000
     1.0000   1.0000   1.0000   1.0000   1.0000   0.9999   0.9999   0.9999
     0.9997   0.9997   0.9996   0.9995   0.9994   0.9994   0.9992   0.9991
     0.9987   0.9984   0.9980   0.9979   0.9923   0.9921   0.9913   0.9909
     0.9857   0.9849   0.9845   0.9835   0.9817   0.9809   0.9780   0.9759
     0.9740   0.9682   0.9671   0.9610   0.9583   0.9499   0.9310   0.9087
     0.8902   0.8861   0.8640   0.8508   0.8429   0.8160   0.8129   0.8090
     0.7972   0.7805   0.7535   0.7445   0.7228   0.7059   0.6855   0.6843
     0.6840   0.6772   0.6688   0.6634   0.6551   0.6508   0.6404   0.6384
     0.6268   0.6154   0.6127   0.5375   0.5309   0.1330   0.1193   0.1021
     0.0661   0.0148   0.0113   0.0056   0.0052   0.0006   0.0006   0.0004
     0.0003   0.0000   0.0000   0.0000   0.0000   0.0000   0.0000   0.0000
     0.0000   0.0000   0.0000   0.0000   0.0000   0.0000   0.0000   0.0000
     0.0000   0.0000   0.0000   0.0000   0.0000   0.0000   0.0000   0.0000

          k =-0.2500 0.2500 0.0000 ( 65198 PWs)   bands (ev):

   -92.7096 -92.6546 -92.5632 -92.5138 -92.4568 -92.4158 -92.3986 -92.2760
   -56.0631 -56.0411 -55.9206 -55.9102 -55.9017 -55.8971 -55.8596 -55.8325
   -55.8172 -55.8152 -55.8053 -55.7647 -55.7454 -55.7082 -55.6895 -55.6567
   -55.6484 -55.6043 -55.6016 -55.6011 -55.5926 -55.5505 -55.5289 -55.4433
   -31.2845 -31.2679 -31.1604 -31.1252 -31.0750 -31.0383 -30.8187 -30.7067
   -29.8568 -29.8148 -29.7897 -29.6807 -15.0263 -14.9855 -14.9131 -14.7952
   -14.6871 -14.5590 -14.4727 -14.2689 -14.1261 -14.0953 -14.0851 -14.0360
   -14.0131 -13.9946 -13.9790 -13.9424 -13.8477 -13.8363 -13.6815 -13.6570
   -13.6287 -13.6069 -13.5716 -13.5070 -13.4644 -13.4442 -13.3347 -13.2949
   -13.2322 -13.1557 -13.1180 -13.0924 -13.0497 -13.0275 -13.0054 -12.9807
   -12.9484 -12.9376 -12.9260 -12.8842 -12.7942 -12.7785 -12.7386 -12.7016
   -12.6879 -12.6526 -12.4868 -12.4503 -12.4260 -12.2912 -12.1307 -12.0808
   -11.8085 -11.7870 -11.7596 -11.7477 -11.7065 -11.6721 -11.6486 -11.6277
   -11.6048 -11.5198 -11.4746 -11.4651  -2.6764  -2.4674  -2.3467  -2.2589
    -2.1398  -2.0730  -1.8716  -1.7249  -1.7063  -1.6785  -1.5861  -1.5496
    -1.4570  -1.4235  -1.3972  -1.2539  -1.1987  -1.1312  -1.1021  -1.0425
    -1.0206  -0.9804  -0.9513  -0.9113  -0.8486  -0.8013  -0.7401  -0.6701
    -0.6444  -0.5922  -0.5639  -0.5188  -0.4628  -0.4216  -0.3753  -0.2790
    -0.2432  -0.2339  -0.1886  -0.1217  -0.0513  -0.0060   0.0226   0.0927
     0.1272   0.3790   0.5451   0.5893   0.6262   0.6850   0.7409   0.7943
     0.8575   0.8858   1.1678   1.2797   1.3189   1.3513   1.3580   1.4018
     1.4185   1.4624   1.4929   1.5086   1.5344   1.5768   1.5909   1.6365
     1.6521   1.6976   1.7829   1.8028   1.8175   1.8581   1.8852   1.9236
     1.9783   2.0824   2.1907   2.2226   2.2689   2.2890   2.3551   2.3969
     2.4234   2.4468   2.4693   2.5683   2.6045   2.6953   2.8244   2.8739
     2.8834   2.8965   2.9064   2.9175   2.9305   2.9367   2.9545   2.9679
     2.9785   2.9891   3.0010   3.0106   3.0167   3.0494   3.0600   3.0688
     3.1033   3.3958   3.4790   3.5388   3.6216   3.6520   3.8315   3.9538
     4.2903   4.5104   4.7057   4.9763   5.1665   5.6355   5.6744   5.7377
     5.8248   5.8862   5.9788   6.1704   6.2030   6.7486   6.8930   7.0422
     7.1623   7.5616   7.6055   7.6648   7.7632   7.8699   7.8974   8.1086
     8.1607   8.2033   8.2504   8.3076   8.4408   8.4733   8.7510   8.8609

     occupation numbers 
     1.0000   1.0000   1.0000   1.0000   1.0000   1.0000   1.0000   1.0000
     1.0000   1.0000   1.0000   1.0000   1.0000   1.0000   1.0000   1.0000
     1.0000   1.0000   1.0000   1.0000   1.0000   1.0000   1.0000   1.0000
     1.0000   1.0000   1.0000   1.0000   1.0000   1.0000   1.0000   1.0000
     1.0000   1.0000   1.0000   1.0000   1.0000   1.0000   1.0000   1.0000
     1.0000   1.0000   1.0000   1.0000   1.0000   1.0000   1.0000   1.0000
     1.0000   1.0000   1.0000   1.0000   1.0000   1.0000   1.0000   1.0000
     1.0000   1.0000   1.0000   1.0000   1.0000   1.0000   1.0000   1.0000
     1.0000   1.0000   1.0000   1.0000   1.0000   1.0000   1.0000   1.0000
     1.0000   1.0000   1.0000   1.0000   1.0000   1.0000   1.0000   1.0000
     1.0000   1.0000   1.0000   1.0000   1.0000   1.0000   1.0000   1.0000
     1.0000   1.0000   1.0000   1.0000   1.0000   1.0000   1.0000   1.0000
     1.0000   1.0000   1.0000   1.0000   1.0000   1.0000   1.0000   1.0000
     1.0000   1.0000   1.0000   1.0000   1.0000   1.0000   1.0000   1.0000
     1.0000   1.0000   1.0000   1.0000   1.0000   1.0000   1.0000   1.0000
     1.0000   1.0000   1.0000   1.0000   1.0000   1.0000   1.0000   1.0000
     1.0000   1.0000   1.0000   1.0000   1.0000   1.0000   1.0000   1.0000
     1.0000   1.0000   1.0000   1.0000   1.0000   1.0000   1.0000   1.0000
     1.0000   1.0000   1.0000   1.0000   1.0000   1.0000   1.0000   1.0000
     1.0000   1.0000   1.0000   1.0000   1.0000   1.0000   0.9999   0.9999
     0.9999   0.9998   0.9993   0.9988   0.9985   0.9983   0.9982   0.9978
     0.9976   0.9971   0.9966   0.9964   0.9960   0.9951   0.9948   0.9937
     0.9933   0.9919   0.9887   0.9878   0.9871   0.9849   0.9833   0.9808
     0.9767   0.9668   0.9530   0.9481   0.9404   0.9368   0.9237   0.9143
     0.9080   0.9022   0.8963   0.8673   0.8554   0.8225   0.7683   0.7453
     0.7407   0.7344   0.7296   0.7241   0.7176   0.7145   0.7054   0.6985
     0.6930   0.6874   0.6812   0.6761   0.6728   0.6551   0.6493   0.6444
     0.6251   0.4541   0.4056   0.3716   0.3261   0.3101   0.2230   0.1726
     0.0744   0.0383   0.0197   0.0069   0.0030   0.0003   0.0002   0.0002
     0.0001   0.0001   0.0000   0.0000   0.0000   0.0000   0.0000   0.0000
     0.0000   0.0000   0.0000   0.0000   0.0000   0.0000   0.0000   0.0000
     0.0000   0.0000   0.0000   0.0000   0.0000   0.0000   0.0000   0.0000

          k =-0.5000 0.2500 0.0000 ( 65138 PWs)   bands (ev):

   -92.7096 -92.6546 -92.5632 -92.5138 -92.4568 -92.4158 -92.3986 -92.2760
   -56.0631 -56.0411 -55.9206 -55.9102 -55.9017 -55.8971 -55.8596 -55.8325
   -55.8172 -55.8152 -55.8053 -55.7647 -55.7454 -55.7082 -55.6895 -55.6567
   -55.6484 -55.6043 -55.6016 -55.6011 -55.5926 -55.5505 -55.5289 -55.4433
   -31.2824 -31.2700 -31.1604 -31.1248 -31.0749 -31.0387 -30.8188 -30.7068
   -29.8558 -29.8159 -29.7893 -29.6811 -14.9910 -14.9460 -14.8675 -14.7725
   -14.7284 -14.6016 -14.5131 -14.3899 -14.0767 -14.0462 -14.0338 -13.9870
   -13.9699 -13.9414 -13.9091 -13.9047 -13.8791 -13.8444 -13.8286 -13.7237
   -13.6464 -13.6032 -13.5967 -13.5847 -13.5070 -13.4773 -13.3695 -13.3335
   -13.2080 -13.1741 -13.0995 -13.0754 -13.0362 -13.0249 -13.0142 -12.9817
   -12.9591 -12.9470 -12.9376 -12.8904 -12.7695 -12.7131 -12.6990 -12.6560
   -12.6302 -12.6216 -12.5473 -12.4275 -12.3308 -12.3099 -12.1762 -12.1522
   -11.7813 -11.7683 -11.7542 -11.7426 -11.7207 -11.6905 -11.6108 -11.6016
   -11.5790 -11.5417 -11.5138 -11.5051  -2.4493  -2.4073  -2.2582  -2.2164
    -2.0559  -1.9810  -1.8364  -1.7020  -1.6454  -1.6182  -1.5786  -1.5398
    -1.4594  -1.3446  -1.2873  -1.2644  -1.2393  -1.1621  -1.1340  -1.0955
    -1.0777  -1.0167  -0.9892  -0.9488  -0.9136  -0.8848  -0.8274  -0.8008
    -0.7594  -0.7249  -0.6210  -0.5932  -0.5085  -0.4437  -0.4116  -0.3583
    -0.2699  -0.2373  -0.1368  -0.0997  -0.0413   0.0090   0.0286   0.1080
     0.1372   0.1696   0.2225   0.2600   0.5671   0.6251   0.7008   0.7171
     1.0038   1.0589   1.1335   1.1595   1.3383   1.3758   1.4125   1.4261
     1.4436   1.4617   1.5318   1.5723   1.6143   1.6398   1.7632   1.7959
     1.8317   1.8430   1.8823   1.9055   1.9188   1.9345   1.9559   1.9775
     2.0246   2.0421   2.0750   2.0975   2.1280   2.1891   2.3091   2.4113
     2.4362   2.5058   2.5445   2.5941   2.6419   2.6477   2.6845   2.7196
     2.7427   2.7988   2.8584   2.8694   2.8868   2.8970   2.9106   2.9329
     2.9464   2.9603   2.9717   2.9924   3.0053   3.0161   3.0240   3.0360
     3.0462   3.5737   3.6277   3.7663   3.7885   4.0734   4.1307   4.1878
     4.4080   4.7769   4.8708   5.0297   5.0680   5.3928   5.4237   5.5854
     5.6137   5.7412   5.7674   6.0811   6.3895   6.4885   6.6586   6.9620
     7.4622   7.5058   7.7104   7.7182   7.7914   7.8836   8.0180   8.0859
     8.2944   8.3961   8.4593   8.5214   8.5564   8.6338   8.7202   8.7897

     occupation numbers 
     1.0000   1.0000   1.0000   1.0000   1.0000   1.0000   1.0000   1.0000
     1.0000   1.0000   1.0000   1.0000   1.0000   1.0000   1.0000   1.0000
     1.0000   1.0000   1.0000   1.0000   1.0000   1.0000   1.0000   1.0000
     1.0000   1.0000   1.0000   1.0000   1.0000   1.0000   1.0000   1.0000
     1.0000   1.0000   1.0000   1.0000   1.0000   1.0000   1.0000   1.0000
     1.0000   1.0000   1.0000   1.0000   1.0000   1.0000   1.0000   1.0000
     1.0000   1.0000   1.0000   1.0000   1.0000   1.0000   1.0000   1.0000
     1.0000   1.0000   1.0000   1.0000   1.0000   1.0000   1.0000   1.0000
     1.0000   1.0000   1.0000   1.0000   1.0000   1.0000   1.0000   1.0000
     1.0000   1.0000   1.0000   1.0000   1.0000   1.0000   1.0000   1.0000
     1.0000   1.0000   1.0000   1.0000   1.0000   1.0000   1.0000   1.0000
     1.0000   1.0000   1.0000   1.0000   1.0000   1.0000   1.0000   1.0000
     1.0000   1.0000   1.0000   1.0000   1.0000   1.0000   1.0000   1.0000
     1.0000   1.0000   1.0000   1.0000   1.0000   1.0000   1.0000   1.0000
     1.0000   1.0000   1.0000   1.0000   1.0000   1.0000   1.0000   1.0000
     1.0000   1.0000   1.0000   1.0000   1.0000   1.0000   1.0000   1.0000
     1.0000   1.0000   1.0000   1.0000   1.0000   1.0000   1.0000   1.0000
     1.0000   1.0000   1.0000   1.0000   1.0000   1.0000   1.0000   1.0000
     1.0000   1.0000   1.0000   1.0000   1.0000   1.0000   1.0000   1.0000
     1.0000   1.0000   1.0000   1.0000   1.0000   1.0000   0.9999   0.9999
     0.9997   0.9996   0.9994   0.9993   0.9984   0.9980   0.9977   0.9975
     0.9973   0.9971   0.9960   0.9952   0.9943   0.9937   0.9895   0.9881
     0.9864   0.9858   0.9835   0.9820   0.9811   0.9800   0.9785   0.9767
     0.9726   0.9709   0.9676   0.9650   0.9614   0.9532   0.9330   0.9109
     0.9048   0.8861   0.8747   0.8588   0.8424   0.8403   0.8266   0.8130
     0.8036   0.7797   0.7526   0.7474   0.7391   0.7342   0.7275   0.7164
     0.7096   0.7024   0.6965   0.6857   0.6789   0.6731   0.6689   0.6624
     0.6568   0.3522   0.3229   0.2529   0.2425   0.1311   0.1138   0.0983
     0.0528   0.0152   0.0106   0.0055   0.0047   0.0010   0.0009   0.0004
     0.0003   0.0002   0.0001   0.0000   0.0000   0.0000   0.0000   0.0000
     0.0000   0.0000   0.0000   0.0000   0.0000   0.0000   0.0000   0.0000
     0.0000   0.0000   0.0000   0.0000   0.0000   0.0000   0.0000   0.0000

     the Fermi energy is     3.3182 ev

!    total energy              =   -4399.91363038 Ry
     estimated scf accuracy    <          8.9E-09 Ry
     smearing contrib. (-TS)   =      -1.14611734 Ry
     internal energy E=F+TS    =   -4398.76751304 Ry

     The total energy is F=E-TS. E is the sum of the following terms:
     one-electron contribution =  -21253.09964335 Ry
     hartree contribution      =   10754.52854994 Ry
     xc contribution           =    -686.72832609 Ry
     ewald contribution        =    7053.17708040 Ry
     one-center paw contrib.   =    -266.64517395 Ry
      -> PAW hartree energy AE =      25.17557518 Ry
      -> PAW hartree energy PS =     -25.05935134 Ry
      -> PAW xc energy AE      =     -16.51926428 Ry
      -> PAW xc energy PS      =       6.87882435 Ry
      -> total E_H with PAW    =   10754.64477377 Ry
      -> total E_XC with PAW   =    -696.36876602 Ry

     convergence has been achieved in  49 iterations

     Writing all to output data dir /bsuhome/zayahcortright/scratch/pwscf.save/
 
     init_run     :      7.39s CPU      7.97s WALL (       1 calls)
     electrons    :    700.23s CPU    712.49s WALL (       1 calls)

     Called by init_run:
     wfcinit      :      5.96s CPU      6.08s WALL (       1 calls)
     wfcinit:atom :      0.06s CPU      0.07s WALL (       5 calls)
     wfcinit:wfcr :      5.61s CPU      5.69s WALL (       5 calls)
     potinit      :      0.16s CPU      0.18s WALL (       1 calls)
     hinit0       :      0.35s CPU      0.72s WALL (       1 calls)

     Called by electrons:
     c_bands      :    552.91s CPU    557.57s WALL (      49 calls)
     sum_band     :    110.60s CPU    114.96s WALL (      49 calls)
     v_of_rho     :      5.38s CPU      5.66s WALL (      50 calls)
     v_h          :      0.48s CPU      0.48s WALL (      50 calls)
     v_xc         :      4.90s CPU      5.18s WALL (      50 calls)
     newd         :     16.66s CPU     19.21s WALL (      50 calls)
     PAW_pot      :      1.59s CPU      1.61s WALL (      50 calls)
     mix_rho      :     12.77s CPU     13.04s WALL (      49 calls)

     Called by c_bands:
     init_us_2    :      6.94s CPU      6.99s WALL (     495 calls)
     init_us_2:cp :      6.93s CPU      6.99s WALL (     495 calls)
     cegterg      :    517.67s CPU    522.14s WALL (     245 calls)

     Called by sum_band:
     sum_band:wei :      0.34s CPU      0.34s WALL (      49 calls)
     sum_band:loo :     90.74s CPU     91.40s WALL (      49 calls)
     sum_band:buf :      1.49s CPU      1.51s WALL (     245 calls)
     sum_band:ini :      3.24s CPU      3.25s WALL (     245 calls)
     sum_band:cal :     18.32s CPU     18.36s WALL (     245 calls)
     sum_band:bec :      0.56s CPU      0.56s WALL (     245 calls)
     addusdens    :     18.31s CPU     21.96s WALL (      49 calls)
                                        0.00s GPU  (      49 calls)
     addusd:skk   :      0.33s CPU      0.67s WALL (     196 calls)
                                        0.00s GPU  (     196 calls)

     Called by *egterg:
     cdiaghg      :     53.22s CPU     53.41s WALL (    1321 calls)
     cegterg:over :     37.57s CPU     37.70s WALL (    1076 calls)
     cegterg:upda :     27.53s CPU     27.87s WALL (    1076 calls)
     cegterg:last :     56.57s CPU     56.72s WALL (     444 calls)
     cdiaghg:chol :      3.11s CPU      3.13s WALL (    1321 calls)
     cdiaghg:inve :      3.48s CPU      3.49s WALL (    1321 calls)
     cdiaghg:para :      6.62s CPU      6.65s WALL (    2642 calls)
     h_psi        :    289.17s CPU    291.77s WALL (    1326 calls)
     s_psi        :     38.73s CPU     38.83s WALL (    1326 calls)
     g_psi        :      1.06s CPU      1.06s WALL (    1076 calls)

     Called by h_psi:
     h_psi:calbec :     42.32s CPU     42.45s WALL (    1326 calls)
     vloc_psi     :    205.15s CPU    207.09s WALL (    1326 calls)
     add_vuspsi   :     38.48s CPU     38.61s WALL (    1326 calls)

     General routines
     calbec       :     60.63s CPU     60.80s WALL (    1571 calls)
     fft          :      3.56s CPU      3.61s WALL (     648 calls)
     ffts         :      4.62s CPU      4.66s WALL (    5241 calls)
     fftw         :    174.35s CPU    175.73s WALL (  327526 calls)
     interpolate  :      0.41s CPU      0.41s WALL (      50 calls)
 
     Parallel routines

     PAW routines
     PAW_pot      :      1.59s CPU      1.61s WALL (      50 calls)
 
     PWSCF        :  11m49.07s CPU  12m 4.88s WALL

 
   This run was terminated on:  16:49:46  21Jun2024            

=------------------------------------------------------------------------------=
   JOB DONE.
=------------------------------------------------------------------------------=
