
     Program PWSCF v.7.2 starts on 20Jun2024 at 14:48: 5 

     This program is part of the open-source Quantum ESPRESSO suite
     for quantum simulation of materials; please cite
         "P. Giannozzi et al., J. Phys.:Condens. Matter 21 395502 (2009);
         "P. Giannozzi et al., J. Phys.:Condens. Matter 29 465901 (2017);
         "P. Giannozzi et al., J. Chem. Phys. 152 154105 (2020);
          URL http://www.quantum-espresso.org", 
     in publications or presentations arising from this work. More details at
     http://www.quantum-espresso.org/quote

     Parallel version (MPI & OpenMP), running on      48 processor cores
     Number of MPI processes:                48
     Threads/MPI process:                     1

     MPI processes distributed on     1 nodes
     41849 MiB available memory on the printing compute node when the environment starts
 
     Reading input from espresso.pwi
Warning: card &CELL ignored
Warning: card / ignored
Warning: card &FCP ignored
Warning: card / ignored
Warning: card &RISM ignored
Warning: card / ignored

     Current dimensions of program PWSCF are:
     Max number of different atomic species (ntypx) = 10
     Max number of k-points (npk) =  40000
     Max angular momentum in pseudopotentials (lmaxx) =  4
     file O.pbe-n-kjpaw_psl.0.1.UPF: wavefunction(s)  2P renormalized
     signal trapping enabled: kill the code with -SIGUSR1 to stop cleanly the simulation 
 
     K-points division:     npool     =       2
     R & G space division:  proc/nbgrp/npool/nimage =      24
     Subspace diagonalization in iterative solution of the eigenvalue problem:
     one sub-group per band group will be used
     scalapack distributed-memory algorithm (size of sub-group:  3*  3 procs)

 
     Parallelization info
     --------------------
     sticks:   dense  smooth     PW     G-vecs:    dense   smooth      PW
     Min         350     175     47                61430    21716    3036
     Max         351     177     48                61449    21727    3041
     Sum        8421    4205   1137              1474595   521381   72913
 
     Using Slab Decomposition
 


     bravais-lattice index     =            0
     lattice parameter (alat)  =      14.8599  a.u.
     unit-cell volume          =    8305.1283 (a.u.)^3
     number of atoms/cell      =           51
     number of atomic types    =            4
     number of electrons       =       437.00
     number of Kohn-Sham states=          263
     kinetic-energy cutoff     =      60.0000  Ry
     charge density cutoff     =     480.0000  Ry
     scf convergence threshold =      1.0E-08
     mixing beta               =       0.1500
     number of iterations used =            8  local-TF  mixing
     Exchange-correlation= PBE
                           (   1   4   3   4   0   0   0)

     celldm(1)=  14.859904  celldm(2)=   0.000000  celldm(3)=   0.000000
     celldm(4)=   0.000000  celldm(5)=   0.000000  celldm(6)=   0.000000

     crystal axes: (cart. coord. in units of alat)
               a(1) = (   1.000000   0.000000   0.000000 )  
               a(2) = (   0.000000   1.000000   0.000000 )  
               a(3) = (   0.000000   0.000000   2.531036 )  

     reciprocal axes: (cart. coord. in units 2 pi/alat)
               b(1) = (  1.000000  0.000000  0.000000 )  
               b(2) = (  0.000000  1.000000  0.000000 )  
               b(3) = (  0.000000  0.000000  0.395095 )  


     PseudoPot. # 1 for Sr read from file:
     /bsuhome/zayahcortright/q-e/pseudo/Sr_pbe_v1.uspp.F.UPF
     MD5 check sum: 6b418c05fbe9db5448babca5e47b7a5b
     Pseudo is Ultrasoft + core correction, Zval = 10.0
     Generated by new atomic code, or converted to UPF format
     Using radial grid of  883 points,  6 beta functions with: 
                l(1) =   0
                l(2) =   0
                l(3) =   1
                l(4) =   1
                l(5) =   2
                l(6) =   2
     Q(r) pseudized with  6 coefficients,  rinner =    1.400   1.400   1.400
                                                       1.400   1.400

     PseudoPot. # 2 for O  read from file:
     /bsuhome/zayahcortright/q-e/pseudo/O.pbe-n-kjpaw_psl.0.1.UPF
     MD5 check sum: 0234752ac141de4415c5fc33072bef88
     Pseudo is Projector augmented-wave + core cor, Zval =  6.0
     Generated using "atomic" code by A. Dal Corso  v.5.0.99 svn rev. 10869
     Shape of augmentation charge: BESSEL
     Using radial grid of 1095 points,  4 beta functions with: 
                l(1) =   0
                l(2) =   0
                l(3) =   1
                l(4) =   1
     Q(r) pseudized with 0 coefficients 


     PseudoPot. # 3 for Co read from file:
     /bsuhome/zayahcortright/q-e/pseudo/Co_pbe_v1.2.uspp.F.UPF
     MD5 check sum: 5f91765df6ddd3222702df6e7b74a16d
     Pseudo is Ultrasoft + core correction, Zval = 17.0
     Generated by new atomic code, or converted to UPF format
     Using radial grid of  863 points,  6 beta functions with: 
                l(1) =   0
                l(2) =   0
                l(3) =   1
                l(4) =   1
                l(5) =   2
                l(6) =   2
     Q(r) pseudized with  8 coefficients,  rinner =    1.200   1.200   1.200
                                                       1.200   1.200

     PseudoPot. # 4 for H  read from file:
     /bsuhome/zayahcortright/q-e/pseudo/H.pbe-rrkjus_psl.1.0.0.UPF
     MD5 check sum: f52b6d4d1c606e5624b1dc7b2218f220
     Pseudo is Ultrasoft, Zval =  1.0
     Generated using "atomic" code by A. Dal Corso  v.5.1
     Using radial grid of  929 points,  2 beta functions with: 
                l(1) =   0
                l(2) =   0
     Q(r) pseudized with 0 coefficients 


     atomic species   valence    mass     pseudopotential
        Sr            10.00    87.62000     Sr( 1.00)
        O              6.00    15.99900     O ( 1.00)
        Co            17.00    58.93319     Co( 1.00)
        H              1.00     1.00800     H ( 1.00)

     No symmetry found


                                    s                        frac. trans.

      isym =  1     identity                                     

 cryst.   s( 1) = (     1          0          0      )
                  (     0          1          0      )
                  (     0          0          1      )

 cart.    s( 1) = (  1.0000000  0.0000000  0.0000000 )
                  (  0.0000000  1.0000000  0.0000000 )
                  (  0.0000000  0.0000000  1.0000000 )


   Cartesian axes

     site n.     atom                  positions (alat units)
         1           Sr  tau(   1) = (   0.2508693   0.7491307   1.7574407  )
         2           O   tau(   2) = (   0.4985141   0.5014859   1.7715967  )
         3           Sr  tau(   3) = (   0.7482398   0.7454518   1.7648669  )
         4           Sr  tau(   4) = (   0.7441748   0.2558252   1.7667843  )
         5           Sr  tau(   5) = (   0.2508693   0.7491307   1.2696799  )
         6           Sr  tau(   6) = (   0.2508693   0.7491307   0.7632319  )
         7           Co  tau(   7) = (   0.4998914   0.5001086   1.0164559  )
         8           Co  tau(   8) = (   0.4936915   0.5063085   1.5135603  )
         9           O   tau(   9) = (   0.4988895   0.7610401   1.0164559  )
        10           O   tau(  10) = (   0.2389599   0.5011105   1.0164559  )
        11           O   tau(  11) = (   0.0070918   0.7374880   1.0164559  )
        12           O   tau(  12) = (   0.0088340   0.7405089   1.5135603  )
        13           O   tau(  13) = (   0.5066944   0.7415376   1.5135603  )
        14           O   tau(  14) = (   0.2584624   0.4933056   1.5135603  )
        15           O   tau(  15) = (   0.4985141   0.5014859   0.7773880  )
        16           O   tau(  16) = (   0.4985141   0.5014859   1.2555238  )
        17           Sr  tau(  17) = (   0.7482398   0.7454518   0.7706582  )
        18           Sr  tau(  18) = (   0.7482398   0.7454518   1.2622536  )
        19           Sr  tau(  19) = (   0.7441748   0.2558252   0.7725755  )
        20           Sr  tau(  20) = (   0.7441748   0.2558252   1.2603363  )
        21           O   tau(  21) = (   0.7322655   0.0078049   1.5135603  )
        22           O   tau(  22) = (   0.7558175   0.4996027   1.5135603  )
        23           O   tau(  23) = (   0.5003973   0.2441825   1.5135603  )
        24           O   tau(  24) = (   0.7527966   0.4978604   1.0164559  )
        25           O   tau(  25) = (   0.5021396   0.2472034   1.0164559  )
        26           O   tau(  26) = (   0.7517679   0.0000000   1.0164559  )
        27           O   tau(  27) = (   0.0114961   0.4948124   1.7455321  )
        28           O   tau(  28) = (   0.0048226   0.0077944   1.7715967  )
        29           Sr  tau(  29) = (   0.2545482   0.2517602   1.7648669  )
        30           O   tau(  30) = (   0.5048017   0.0015068   1.7786929  )
        31           Co  tau(  31) = (   0.0056869   0.5006215   1.0164559  )
        32           Co  tau(  32) = (   0.0065315   0.4997770   1.5135603  )
        33           Co  tau(  33) = (   0.0061999   0.0064171   1.0164559  )
        34           Co  tau(  34) = (   0.0000000   0.0126169   1.5135603  )
        35           O   tau(  35) = (   0.0114961   0.4948124   1.2815885  )
        36           O   tau(  36) = (   0.0114961   0.4948124   0.7513233  )
        37           O   tau(  37) = (   0.0051979   0.2673486   1.0164559  )
        38           O   tau(  38) = (   0.0130029   0.2478461   1.5135603  )
        39           O   tau(  39) = (   0.0048226   0.0077944   0.7773880  )
        40           O   tau(  40) = (   0.0048226   0.0077944   1.2555238  )
        41           Sr  tau(  41) = (   0.2545482   0.2517602   0.7706582  )
        42           Sr  tau(  42) = (   0.2545482   0.2517602   1.2622536  )
        43           Co  tau(  43) = (   0.4989925   0.0073160   1.5135603  )
        44           Co  tau(  44) = (   0.4998370   0.0064714   1.0164559  )
        45           O   tau(  45) = (   0.5048017   0.0015068   0.7844841  )
        46           O   tau(  46) = (   0.5048017   0.0015068   1.2484277  )
        47           O   tau(  47) = (   0.2621260   0.0059111   1.5135603  )
        48           O   tau(  48) = (   0.2591051   0.0041689   1.0164559  )
        49           O   tau(  49) = (   0.5686583   0.7108228   2.1602013  )
        50           O   tau(  50) = (   0.5686583   0.7108228   2.3186489  )
        51           H   tau(  51) = (   0.5686583   0.7108228   2.4431567  )

   Crystallographic axes

     site n.     atom                  positions (cryst. coord.)
         1           Sr  tau(   1) = (  0.2508693  0.7491307  0.6943562  )
         2           O   tau(   2) = (  0.4985141  0.5014859  0.6999492  )
         3           Sr  tau(   3) = (  0.7482398  0.7454518  0.6972903  )
         4           Sr  tau(   4) = (  0.7441748  0.2558252  0.6980478  )
         5           Sr  tau(   5) = (  0.2508693  0.7491307  0.5016443  )
         6           Sr  tau(   6) = (  0.2508693  0.7491307  0.3015492  )
         7           Co  tau(   7) = (  0.4998914  0.5001086  0.4015968  )
         8           Co  tau(   8) = (  0.4936915  0.5063085  0.5980003  )
         9           O   tau(   9) = (  0.4988895  0.7610401  0.4015968  )
        10           O   tau(  10) = (  0.2389599  0.5011105  0.4015968  )
        11           O   tau(  11) = (  0.0070918  0.7374880  0.4015968  )
        12           O   tau(  12) = (  0.0088340  0.7405089  0.5980003  )
        13           O   tau(  13) = (  0.5066944  0.7415376  0.5980003  )
        14           O   tau(  14) = (  0.2584624  0.4933056  0.5980003  )
        15           O   tau(  15) = (  0.4985141  0.5014859  0.3071422  )
        16           O   tau(  16) = (  0.4985141  0.5014859  0.4960513  )
        17           Sr  tau(  17) = (  0.7482398  0.7454518  0.3044833  )
        18           Sr  tau(  18) = (  0.7482398  0.7454518  0.4987103  )
        19           Sr  tau(  19) = (  0.7441748  0.2558252  0.3052408  )
        20           Sr  tau(  20) = (  0.7441748  0.2558252  0.4979527  )
        21           O   tau(  21) = (  0.7322655  0.0078049  0.5980003  )
        22           O   tau(  22) = (  0.7558175  0.4996027  0.5980003  )
        23           O   tau(  23) = (  0.5003973  0.2441825  0.5980003  )
        24           O   tau(  24) = (  0.7527966  0.4978604  0.4015968  )
        25           O   tau(  25) = (  0.5021396  0.2472034  0.4015968  )
        26           O   tau(  26) = (  0.7517679  0.0000000  0.4015968  )
        27           O   tau(  27) = (  0.0114961  0.4948124  0.6896512  )
        28           O   tau(  28) = (  0.0048226  0.0077944  0.6999492  )
        29           Sr  tau(  29) = (  0.2545482  0.2517602  0.6972903  )
        30           O   tau(  30) = (  0.5048017  0.0015068  0.7027529  )
        31           Co  tau(  31) = (  0.0056869  0.5006215  0.4015968  )
        32           Co  tau(  32) = (  0.0065315  0.4997770  0.5980003  )
        33           Co  tau(  33) = (  0.0061999  0.0064171  0.4015968  )
        34           Co  tau(  34) = (  0.0000000  0.0126169  0.5980003  )
        35           O   tau(  35) = (  0.0114961  0.4948124  0.5063494  )
        36           O   tau(  36) = (  0.0114961  0.4948124  0.2968442  )
        37           O   tau(  37) = (  0.0051979  0.2673486  0.4015968  )
        38           O   tau(  38) = (  0.0130029  0.2478461  0.5980003  )
        39           O   tau(  39) = (  0.0048226  0.0077944  0.3071422  )
        40           O   tau(  40) = (  0.0048226  0.0077944  0.4960513  )
        41           Sr  tau(  41) = (  0.2545482  0.2517602  0.3044833  )
        42           Sr  tau(  42) = (  0.2545482  0.2517602  0.4987103  )
        43           Co  tau(  43) = (  0.4989925  0.0073160  0.5980003  )
        44           Co  tau(  44) = (  0.4998370  0.0064714  0.4015968  )
        45           O   tau(  45) = (  0.5048017  0.0015068  0.3099459  )
        46           O   tau(  46) = (  0.5048017  0.0015068  0.4932477  )
        47           O   tau(  47) = (  0.2621260  0.0059111  0.5980003  )
        48           O   tau(  48) = (  0.2591051  0.0041689  0.4015968  )
        49           O   tau(  49) = (  0.5686583  0.7108228  0.8534850  )
        50           O   tau(  50) = (  0.5686583  0.7108228  0.9160869  )
        51           H   tau(  51) = (  0.5686583  0.7108228  0.9652793  )

     number of k points=    10  Gaussian smearing, width (Ry)=  0.0700
                       cart. coord. in units 2pi/alat
        k(    1) = (   0.0000000   0.0000000   0.0000000), wk =   0.1250000
        k(    2) = (   0.0000000   0.2500000   0.0000000), wk =   0.2500000
        k(    3) = (   0.0000000  -0.5000000   0.0000000), wk =   0.1250000
        k(    4) = (   0.2500000   0.2500000   0.0000000), wk =   0.2500000
        k(    5) = (   0.2500000  -0.5000000   0.0000000), wk =   0.2500000
        k(    6) = (  -0.5000000  -0.5000000   0.0000000), wk =   0.1250000
        k(    7) = (   0.2500000   0.0000000   0.0000000), wk =   0.2500000
        k(    8) = (  -0.5000000   0.0000000   0.0000000), wk =   0.1250000
        k(    9) = (  -0.2500000   0.2500000   0.0000000), wk =   0.2500000
        k(   10) = (  -0.5000000   0.2500000   0.0000000), wk =   0.2500000

                       cryst. coord.
        k(    1) = (   0.0000000   0.0000000   0.0000000), wk =   0.1250000
        k(    2) = (   0.0000000   0.2500000   0.0000000), wk =   0.2500000
        k(    3) = (   0.0000000  -0.5000000   0.0000000), wk =   0.1250000
        k(    4) = (   0.2500000   0.2500000   0.0000000), wk =   0.2500000
        k(    5) = (   0.2500000  -0.5000000   0.0000000), wk =   0.2500000
        k(    6) = (  -0.5000000  -0.5000000   0.0000000), wk =   0.1250000
        k(    7) = (   0.2500000   0.0000000   0.0000000), wk =   0.2500000
        k(    8) = (  -0.5000000   0.0000000   0.0000000), wk =   0.1250000
        k(    9) = (  -0.2500000   0.2500000   0.0000000), wk =   0.2500000
        k(   10) = (  -0.5000000   0.2500000   0.0000000), wk =   0.2500000

     Dense  grid:  1474595 G-vectors     FFT dimensions: ( 108, 108, 270)

     Smooth grid:   521381 G-vectors     FFT dimensions: (  75,  75, 192)

     Dynamical RAM for                 wfc:      10.90 MB

     Dynamical RAM for     wfc (w. buffer):      65.37 MB

     Dynamical RAM for           str. fact:       3.75 MB

     Dynamical RAM for           local pot:       0.00 MB

     Dynamical RAM for          nlocal pot:      24.94 MB

     Dynamical RAM for                qrad:       7.03 MB

     Dynamical RAM for          rho,v,vnew:       6.02 MB

     Dynamical RAM for               rhoin:       2.01 MB

     Dynamical RAM for            rho*nmix:      15.00 MB

     Dynamical RAM for           G-vectors:       3.68 MB

     Dynamical RAM for          h,s,v(r/c):       1.40 MB

     Dynamical RAM for          <psi|beta>:       2.42 MB

     Dynamical RAM for                 psi:      21.79 MB

     Dynamical RAM for                hpsi:      21.79 MB

     Dynamical RAM for                spsi:      21.79 MB

     Dynamical RAM for      wfcinit/wfcrot:      34.89 MB

     Dynamical RAM for           addusdens:     101.73 MB

     Estimated static dynamical RAM per process >     122.82 MB

     Estimated max dynamical RAM per process >     239.55 MB

     Estimated total dynamical RAM >      10.88 GB

     Check: negative core charge=   -0.000004

     Initial potential from superposition of free atoms

     starting charge     428.5961, renormalised to     437.0000

     negative rho (up, down):  7.813E-01 0.000E+00
     Starting wfcs are  381 randomized atomic wfcs
     Checking if some PAW data can be deallocated... 
       PAW data deallocated on   18 nodes for type:  2

     total cpu time spent up to now is       10.1 secs

     Self-consistent Calculation

     iteration #  1     ecut=    60.00 Ry     beta= 0.15
     Davidson diagonalization with overlap

---- Real-time Memory Report at c_bands before calling an iterative solver
             0 MiB given to the printing process from OS
             0 MiB allocation reported by mallinfo(arena+hblkhd)
         32101 MiB available memory on the node where the printing process lives
------------------
     ethr =  1.00E-02,  avg # of iterations =  2.0

     negative rho (up, down):  7.717E-01 0.000E+00

     total cpu time spent up to now is       26.1 secs

     total energy              =   -4489.34091492 Ry
     estimated scf accuracy    <      49.75351697 Ry

     iteration #  2     ecut=    60.00 Ry     beta= 0.15
     Davidson diagonalization with overlap

---- Real-time Memory Report at c_bands before calling an iterative solver
             0 MiB given to the printing process from OS
             0 MiB allocation reported by mallinfo(arena+hblkhd)
         32489 MiB available memory on the node where the printing process lives
------------------
     ethr =  1.00E-02,  avg # of iterations =  1.0

     negative rho (up, down):  7.615E-01 0.000E+00

     total cpu time spent up to now is       39.2 secs

     total energy              =   -4486.81831210 Ry
     estimated scf accuracy    <      35.46855107 Ry

     iteration #  3     ecut=    60.00 Ry     beta= 0.15
     Davidson diagonalization with overlap

---- Real-time Memory Report at c_bands before calling an iterative solver
             0 MiB given to the printing process from OS
             0 MiB allocation reported by mallinfo(arena+hblkhd)
         31697 MiB available memory on the node where the printing process lives
------------------
     ethr =  8.12E-03,  avg # of iterations =  1.0

     negative rho (up, down):  7.564E-01 0.000E+00

     total cpu time spent up to now is       52.3 secs

     total energy              =   -4486.76972451 Ry
     estimated scf accuracy    <      35.28739078 Ry

     iteration #  4     ecut=    60.00 Ry     beta= 0.15
     Davidson diagonalization with overlap

---- Real-time Memory Report at c_bands before calling an iterative solver
             0 MiB given to the printing process from OS
             0 MiB allocation reported by mallinfo(arena+hblkhd)
         31672 MiB available memory on the node where the printing process lives
------------------
     ethr =  8.07E-03,  avg # of iterations =  1.0

     negative rho (up, down):  7.576E-01 0.000E+00

     total cpu time spent up to now is       65.1 secs

     total energy              =   -4486.61195004 Ry
     estimated scf accuracy    <      34.34422851 Ry

     iteration #  5     ecut=    60.00 Ry     beta= 0.15
     Davidson diagonalization with overlap

---- Real-time Memory Report at c_bands before calling an iterative solver
             0 MiB given to the printing process from OS
             0 MiB allocation reported by mallinfo(arena+hblkhd)
         31654 MiB available memory on the node where the printing process lives
------------------
     ethr =  7.86E-03,  avg # of iterations =  1.0

     negative rho (up, down):  7.334E-01 0.000E+00

     total cpu time spent up to now is       78.0 secs

     total energy              =   -4482.56156843 Ry
     estimated scf accuracy    <      22.82519151 Ry

     iteration #  6     ecut=    60.00 Ry     beta= 0.15
     Davidson diagonalization with overlap

---- Real-time Memory Report at c_bands before calling an iterative solver
             0 MiB given to the printing process from OS
             0 MiB allocation reported by mallinfo(arena+hblkhd)
         31638 MiB available memory on the node where the printing process lives
------------------
     ethr =  5.22E-03,  avg # of iterations =  2.0

     negative rho (up, down):  7.485E-01 0.000E+00

     total cpu time spent up to now is       92.3 secs

     total energy              =   -4483.71458262 Ry
     estimated scf accuracy    <      38.82571590 Ry

     iteration #  7     ecut=    60.00 Ry     beta= 0.15
     Davidson diagonalization with overlap

---- Real-time Memory Report at c_bands before calling an iterative solver
             0 MiB given to the printing process from OS
             0 MiB allocation reported by mallinfo(arena+hblkhd)
         31614 MiB available memory on the node where the printing process lives
------------------
     ethr =  5.22E-03,  avg # of iterations =  1.0

     negative rho (up, down):  7.538E-01 0.000E+00

     total cpu time spent up to now is      105.0 secs

     total energy              =   -4483.49426841 Ry
     estimated scf accuracy    <      39.08145745 Ry

     iteration #  8     ecut=    60.00 Ry     beta= 0.15
     Davidson diagonalization with overlap

---- Real-time Memory Report at c_bands before calling an iterative solver
             0 MiB given to the printing process from OS
             0 MiB allocation reported by mallinfo(arena+hblkhd)
         31597 MiB available memory on the node where the printing process lives
------------------
     ethr =  5.22E-03,  avg # of iterations =  1.0

     negative rho (up, down):  7.509E-01 0.000E+00

     total cpu time spent up to now is      118.1 secs

     total energy              =   -4483.84836189 Ry
     estimated scf accuracy    <       6.40311088 Ry

     iteration #  9     ecut=    60.00 Ry     beta= 0.15
     Davidson diagonalization with overlap

---- Real-time Memory Report at c_bands before calling an iterative solver
             0 MiB given to the printing process from OS
             0 MiB allocation reported by mallinfo(arena+hblkhd)
         31560 MiB available memory on the node where the printing process lives
------------------
     ethr =  1.47E-03,  avg # of iterations =  2.4

     negative rho (up, down):  7.647E-01 0.000E+00

     total cpu time spent up to now is      132.5 secs

     total energy              =   -4483.78297359 Ry
     estimated scf accuracy    <       3.67883352 Ry

     iteration # 10     ecut=    60.00 Ry     beta= 0.15
     Davidson diagonalization with overlap

---- Real-time Memory Report at c_bands before calling an iterative solver
             0 MiB given to the printing process from OS
             0 MiB allocation reported by mallinfo(arena+hblkhd)
         31534 MiB available memory on the node where the printing process lives
------------------
     ethr =  8.42E-04,  avg # of iterations = 12.6

     negative rho (up, down):  7.874E-01 0.000E+00

     total cpu time spent up to now is      152.0 secs

     total energy              =   -4483.53077878 Ry
     estimated scf accuracy    <       4.81857561 Ry

     iteration # 11     ecut=    60.00 Ry     beta= 0.15
     Davidson diagonalization with overlap

---- Real-time Memory Report at c_bands before calling an iterative solver
             0 MiB given to the printing process from OS
             0 MiB allocation reported by mallinfo(arena+hblkhd)
         31284 MiB available memory on the node where the printing process lives
------------------
     ethr =  8.42E-04,  avg # of iterations =  8.4

     negative rho (up, down):  7.907E-01 0.000E+00

     total cpu time spent up to now is      169.6 secs

     total energy              =   -4483.19961167 Ry
     estimated scf accuracy    <       4.32567496 Ry

     iteration # 12     ecut=    60.00 Ry     beta= 0.15
     Davidson diagonalization with overlap

---- Real-time Memory Report at c_bands before calling an iterative solver
             0 MiB given to the printing process from OS
             0 MiB allocation reported by mallinfo(arena+hblkhd)
         31135 MiB available memory on the node where the printing process lives
------------------
     ethr =  8.42E-04,  avg # of iterations =  5.0

     negative rho (up, down):  8.011E-01 0.000E+00

     total cpu time spent up to now is      185.6 secs

     total energy              =   -4483.20069432 Ry
     estimated scf accuracy    <       2.21105602 Ry

     iteration # 13     ecut=    60.00 Ry     beta= 0.15
     Davidson diagonalization with overlap

---- Real-time Memory Report at c_bands before calling an iterative solver
             0 MiB given to the printing process from OS
             0 MiB allocation reported by mallinfo(arena+hblkhd)
         31124 MiB available memory on the node where the printing process lives
------------------
     ethr =  5.06E-04,  avg # of iterations =  2.0

     negative rho (up, down):  8.006E-01 0.000E+00

     total cpu time spent up to now is      200.1 secs

     total energy              =   -4483.27428315 Ry
     estimated scf accuracy    <       1.30475028 Ry

     iteration # 14     ecut=    60.00 Ry     beta= 0.15
     Davidson diagonalization with overlap

---- Real-time Memory Report at c_bands before calling an iterative solver
             0 MiB given to the printing process from OS
             0 MiB allocation reported by mallinfo(arena+hblkhd)
         31135 MiB available memory on the node where the printing process lives
------------------
     ethr =  2.99E-04,  avg # of iterations =  7.8

     negative rho (up, down):  8.112E-01 0.000E+00

     total cpu time spent up to now is      216.8 secs

     total energy              =   -4483.14546596 Ry
     estimated scf accuracy    <       0.85569074 Ry

     iteration # 15     ecut=    60.00 Ry     beta= 0.15
     Davidson diagonalization with overlap

---- Real-time Memory Report at c_bands before calling an iterative solver
             0 MiB given to the printing process from OS
             0 MiB allocation reported by mallinfo(arena+hblkhd)
         31118 MiB available memory on the node where the printing process lives
------------------
     ethr =  1.96E-04,  avg # of iterations =  5.4

     negative rho (up, down):  8.146E-01 0.000E+00

     total cpu time spent up to now is      233.1 secs

     total energy              =   -4483.15060671 Ry
     estimated scf accuracy    <       1.89722829 Ry

     iteration # 16     ecut=    60.00 Ry     beta= 0.15
     Davidson diagonalization with overlap

---- Real-time Memory Report at c_bands before calling an iterative solver
             0 MiB given to the printing process from OS
             0 MiB allocation reported by mallinfo(arena+hblkhd)
         31114 MiB available memory on the node where the printing process lives
------------------
     ethr =  1.96E-04,  avg # of iterations =  3.2

     negative rho (up, down):  8.136E-01 0.000E+00

     total cpu time spent up to now is      248.7 secs

     total energy              =   -4483.13529000 Ry
     estimated scf accuracy    <       0.87683025 Ry

     iteration # 17     ecut=    60.00 Ry     beta= 0.15
     Davidson diagonalization with overlap

---- Real-time Memory Report at c_bands before calling an iterative solver
             0 MiB given to the printing process from OS
             0 MiB allocation reported by mallinfo(arena+hblkhd)
         31112 MiB available memory on the node where the printing process lives
------------------
     ethr =  1.96E-04,  avg # of iterations =  3.5

     negative rho (up, down):  8.178E-01 0.000E+00

     total cpu time spent up to now is      263.7 secs

     total energy              =   -4483.06678129 Ry
     estimated scf accuracy    <       0.43252899 Ry

     iteration # 18     ecut=    60.00 Ry     beta= 0.15
     Davidson diagonalization with overlap

---- Real-time Memory Report at c_bands before calling an iterative solver
             0 MiB given to the printing process from OS
             0 MiB allocation reported by mallinfo(arena+hblkhd)
         31124 MiB available memory on the node where the printing process lives
------------------
     ethr =  9.90E-05,  avg # of iterations =  9.8

     negative rho (up, down):  8.188E-01 0.000E+00

     total cpu time spent up to now is      281.5 secs

     total energy              =   -4483.04089381 Ry
     estimated scf accuracy    <       0.70046355 Ry

     iteration # 19     ecut=    60.00 Ry     beta= 0.15
     Davidson diagonalization with overlap

---- Real-time Memory Report at c_bands before calling an iterative solver
             0 MiB given to the printing process from OS
             0 MiB allocation reported by mallinfo(arena+hblkhd)
         31111 MiB available memory on the node where the printing process lives
------------------
     ethr =  9.90E-05,  avg # of iterations =  9.2

     negative rho (up, down):  8.247E-01 0.000E+00

     total cpu time spent up to now is      299.3 secs

     total energy              =   -4483.03297376 Ry
     estimated scf accuracy    <       0.37287985 Ry

     iteration # 20     ecut=    60.00 Ry     beta= 0.15
     Davidson diagonalization with overlap

---- Real-time Memory Report at c_bands before calling an iterative solver
             0 MiB given to the printing process from OS
             0 MiB allocation reported by mallinfo(arena+hblkhd)
         31102 MiB available memory on the node where the printing process lives
------------------
     ethr =  8.53E-05,  avg # of iterations =  3.5

     negative rho (up, down):  8.221E-01 0.000E+00

     total cpu time spent up to now is      314.9 secs

     total energy              =   -4482.99958084 Ry
     estimated scf accuracy    <       0.48598965 Ry

     iteration # 21     ecut=    60.00 Ry     beta= 0.15
     Davidson diagonalization with overlap

---- Real-time Memory Report at c_bands before calling an iterative solver
             0 MiB given to the printing process from OS
             0 MiB allocation reported by mallinfo(arena+hblkhd)
         31103 MiB available memory on the node where the printing process lives
------------------
     ethr =  8.53E-05,  avg # of iterations =  8.8

     negative rho (up, down):  8.380E-01 0.000E+00

     total cpu time spent up to now is      332.4 secs

     total energy              =   -4482.98244447 Ry
     estimated scf accuracy    <       0.20589487 Ry

     iteration # 22     ecut=    60.00 Ry     beta= 0.15
     Davidson diagonalization with overlap

---- Real-time Memory Report at c_bands before calling an iterative solver
             0 MiB given to the printing process from OS
             0 MiB allocation reported by mallinfo(arena+hblkhd)
         31073 MiB available memory on the node where the printing process lives
------------------
     ethr =  4.71E-05,  avg # of iterations = 11.6

     negative rho (up, down):  8.434E-01 0.000E+00

     total cpu time spent up to now is      351.6 secs

     total energy              =   -4482.98055690 Ry
     estimated scf accuracy    <       0.05730172 Ry

     iteration # 23     ecut=    60.00 Ry     beta= 0.15
     Davidson diagonalization with overlap

---- Real-time Memory Report at c_bands before calling an iterative solver
             0 MiB given to the printing process from OS
             0 MiB allocation reported by mallinfo(arena+hblkhd)
         31029 MiB available memory on the node where the printing process lives
------------------
     ethr =  1.31E-05,  avg # of iterations = 11.3

     negative rho (up, down):  8.370E-01 0.000E+00

     total cpu time spent up to now is      371.4 secs

     total energy              =   -4482.97652661 Ry
     estimated scf accuracy    <       0.03208122 Ry

     iteration # 24     ecut=    60.00 Ry     beta= 0.15
     Davidson diagonalization with overlap

---- Real-time Memory Report at c_bands before calling an iterative solver
             0 MiB given to the printing process from OS
             0 MiB allocation reported by mallinfo(arena+hblkhd)
         30922 MiB available memory on the node where the printing process lives
------------------
     ethr =  7.34E-06,  avg # of iterations = 13.7

     negative rho (up, down):  8.235E-01 0.000E+00

     total cpu time spent up to now is      391.8 secs

     total energy              =   -4482.97640485 Ry
     estimated scf accuracy    <       0.01670352 Ry

     iteration # 25     ecut=    60.00 Ry     beta= 0.15
     Davidson diagonalization with overlap

---- Real-time Memory Report at c_bands before calling an iterative solver
             0 MiB given to the printing process from OS
             0 MiB allocation reported by mallinfo(arena+hblkhd)
         30813 MiB available memory on the node where the printing process lives
------------------
     ethr =  3.82E-06,  avg # of iterations =  2.2

     negative rho (up, down):  8.137E-01 0.000E+00

     total cpu time spent up to now is      406.6 secs

     total energy              =   -4482.97407534 Ry
     estimated scf accuracy    <       0.01112901 Ry

     iteration # 26     ecut=    60.00 Ry     beta= 0.15
     Davidson diagonalization with overlap

---- Real-time Memory Report at c_bands before calling an iterative solver
             0 MiB given to the printing process from OS
             0 MiB allocation reported by mallinfo(arena+hblkhd)
         30856 MiB available memory on the node where the printing process lives
------------------
     c_bands:  2 eigenvalues not converged
     ethr =  2.55E-06,  avg # of iterations =  9.2

     negative rho (up, down):  8.031E-01 0.000E+00

     total cpu time spent up to now is      426.0 secs

     total energy              =   -4482.97416822 Ry
     estimated scf accuracy    <       0.00507405 Ry

     iteration # 27     ecut=    60.00 Ry     beta= 0.15
     Davidson diagonalization with overlap

---- Real-time Memory Report at c_bands before calling an iterative solver
             0 MiB given to the printing process from OS
             0 MiB allocation reported by mallinfo(arena+hblkhd)
         30850 MiB available memory on the node where the printing process lives
------------------
     ethr =  1.16E-06,  avg # of iterations =  6.9

     negative rho (up, down):  8.011E-01 0.000E+00

     total cpu time spent up to now is      442.8 secs

     total energy              =   -4482.97405266 Ry
     estimated scf accuracy    <       0.00342792 Ry

     iteration # 28     ecut=    60.00 Ry     beta= 0.15
     Davidson diagonalization with overlap

---- Real-time Memory Report at c_bands before calling an iterative solver
             0 MiB given to the printing process from OS
             0 MiB allocation reported by mallinfo(arena+hblkhd)
         30817 MiB available memory on the node where the printing process lives
------------------
     ethr =  7.84E-07,  avg # of iterations =  4.7

     negative rho (up, down):  7.930E-01 0.000E+00

     total cpu time spent up to now is      458.6 secs

     total energy              =   -4482.97352498 Ry
     estimated scf accuracy    <       0.00236875 Ry

     iteration # 29     ecut=    60.00 Ry     beta= 0.15
     Davidson diagonalization with overlap

---- Real-time Memory Report at c_bands before calling an iterative solver
             0 MiB given to the printing process from OS
             0 MiB allocation reported by mallinfo(arena+hblkhd)
         30816 MiB available memory on the node where the printing process lives
------------------
     ethr =  5.42E-07,  avg # of iterations = 12.6

     negative rho (up, down):  7.931E-01 0.000E+00

     total cpu time spent up to now is      479.8 secs

     total energy              =   -4482.97369119 Ry
     estimated scf accuracy    <       0.00067347 Ry

     iteration # 30     ecut=    60.00 Ry     beta= 0.15
     Davidson diagonalization with overlap

---- Real-time Memory Report at c_bands before calling an iterative solver
             0 MiB given to the printing process from OS
             0 MiB allocation reported by mallinfo(arena+hblkhd)
         30745 MiB available memory on the node where the printing process lives
------------------
     ethr =  1.54E-07,  avg # of iterations =  3.2

     negative rho (up, down):  7.928E-01 0.000E+00

     total cpu time spent up to now is      495.1 secs

     total energy              =   -4482.97368970 Ry
     estimated scf accuracy    <       0.00042559 Ry

     iteration # 31     ecut=    60.00 Ry     beta= 0.15
     Davidson diagonalization with overlap

---- Real-time Memory Report at c_bands before calling an iterative solver
             0 MiB given to the printing process from OS
             0 MiB allocation reported by mallinfo(arena+hblkhd)
         30748 MiB available memory on the node where the printing process lives
------------------
     ethr =  9.74E-08,  avg # of iterations =  2.0

     negative rho (up, down):  7.922E-01 0.000E+00

     total cpu time spent up to now is      509.7 secs

     total energy              =   -4482.97366849 Ry
     estimated scf accuracy    <       0.00029830 Ry

     iteration # 32     ecut=    60.00 Ry     beta= 0.15
     Davidson diagonalization with overlap

---- Real-time Memory Report at c_bands before calling an iterative solver
             0 MiB given to the printing process from OS
             0 MiB allocation reported by mallinfo(arena+hblkhd)
         30736 MiB available memory on the node where the printing process lives
------------------
     ethr =  6.83E-08,  avg # of iterations =  3.0

     negative rho (up, down):  7.919E-01 0.000E+00

     total cpu time spent up to now is      524.4 secs

     total energy              =   -4482.97368734 Ry
     estimated scf accuracy    <       0.00013308 Ry

     iteration # 33     ecut=    60.00 Ry     beta= 0.15
     Davidson diagonalization with overlap

---- Real-time Memory Report at c_bands before calling an iterative solver
             0 MiB given to the printing process from OS
             0 MiB allocation reported by mallinfo(arena+hblkhd)
         30730 MiB available memory on the node where the printing process lives
------------------
     c_bands:  1 eigenvalues not converged
     ethr =  3.05E-08,  avg # of iterations =  6.2

     negative rho (up, down):  7.921E-01 0.000E+00

     total cpu time spent up to now is      541.0 secs

     total energy              =   -4482.97368587 Ry
     estimated scf accuracy    <       0.00005698 Ry

     iteration # 34     ecut=    60.00 Ry     beta= 0.15
     Davidson diagonalization with overlap

---- Real-time Memory Report at c_bands before calling an iterative solver
             0 MiB given to the printing process from OS
             0 MiB allocation reported by mallinfo(arena+hblkhd)
         30761 MiB available memory on the node where the printing process lives
------------------
     ethr =  1.30E-08,  avg # of iterations =  2.2

     negative rho (up, down):  7.922E-01 0.000E+00

     total cpu time spent up to now is      555.8 secs

     total energy              =   -4482.97368859 Ry
     estimated scf accuracy    <       0.00003517 Ry

     iteration # 35     ecut=    60.00 Ry     beta= 0.15
     Davidson diagonalization with overlap

---- Real-time Memory Report at c_bands before calling an iterative solver
             0 MiB given to the printing process from OS
             0 MiB allocation reported by mallinfo(arena+hblkhd)
         30781 MiB available memory on the node where the printing process lives
------------------
     ethr =  8.05E-09,  avg # of iterations =  2.1

     negative rho (up, down):  7.922E-01 0.000E+00

     total cpu time spent up to now is      570.3 secs

     total energy              =   -4482.97369250 Ry
     estimated scf accuracy    <       0.00002937 Ry

     iteration # 36     ecut=    60.00 Ry     beta= 0.15
     Davidson diagonalization with overlap

---- Real-time Memory Report at c_bands before calling an iterative solver
             0 MiB given to the printing process from OS
             0 MiB allocation reported by mallinfo(arena+hblkhd)
         30793 MiB available memory on the node where the printing process lives
------------------
     ethr =  6.72E-09,  avg # of iterations =  2.0

     negative rho (up, down):  7.924E-01 0.000E+00

     total cpu time spent up to now is      584.8 secs

     total energy              =   -4482.97369657 Ry
     estimated scf accuracy    <       0.00002659 Ry

     iteration # 37     ecut=    60.00 Ry     beta= 0.15
     Davidson diagonalization with overlap

---- Real-time Memory Report at c_bands before calling an iterative solver
             0 MiB given to the printing process from OS
             0 MiB allocation reported by mallinfo(arena+hblkhd)
         30794 MiB available memory on the node where the printing process lives
------------------
     ethr =  6.08E-09,  avg # of iterations =  4.7

     negative rho (up, down):  7.924E-01 0.000E+00

     total cpu time spent up to now is      600.6 secs

     total energy              =   -4482.97369845 Ry
     estimated scf accuracy    <       0.00002326 Ry

     iteration # 38     ecut=    60.00 Ry     beta= 0.15
     Davidson diagonalization with overlap

---- Real-time Memory Report at c_bands before calling an iterative solver
             0 MiB given to the printing process from OS
             0 MiB allocation reported by mallinfo(arena+hblkhd)
         30803 MiB available memory on the node where the printing process lives
------------------
     ethr =  5.32E-09,  avg # of iterations =  4.0

     negative rho (up, down):  7.923E-01 0.000E+00

     total cpu time spent up to now is      616.0 secs

     total energy              =   -4482.97369879 Ry
     estimated scf accuracy    <       0.00001636 Ry

     iteration # 39     ecut=    60.00 Ry     beta= 0.15
     Davidson diagonalization with overlap

---- Real-time Memory Report at c_bands before calling an iterative solver
             0 MiB given to the printing process from OS
             0 MiB allocation reported by mallinfo(arena+hblkhd)
         30799 MiB available memory on the node where the printing process lives
------------------
     ethr =  3.74E-09,  avg # of iterations =  2.9

     negative rho (up, down):  7.923E-01 0.000E+00

     total cpu time spent up to now is      630.8 secs

     total energy              =   -4482.97369848 Ry
     estimated scf accuracy    <       0.00001677 Ry

     iteration # 40     ecut=    60.00 Ry     beta= 0.15
     Davidson diagonalization with overlap

---- Real-time Memory Report at c_bands before calling an iterative solver
             0 MiB given to the printing process from OS
             0 MiB allocation reported by mallinfo(arena+hblkhd)
         30800 MiB available memory on the node where the printing process lives
------------------
     ethr =  3.74E-09,  avg # of iterations =  3.6

     negative rho (up, down):  7.922E-01 0.000E+00

     total cpu time spent up to now is      645.8 secs

     total energy              =   -4482.97369943 Ry
     estimated scf accuracy    <       0.00001273 Ry

     iteration # 41     ecut=    60.00 Ry     beta= 0.15
     Davidson diagonalization with overlap

---- Real-time Memory Report at c_bands before calling an iterative solver
             0 MiB given to the printing process from OS
             0 MiB allocation reported by mallinfo(arena+hblkhd)
         30803 MiB available memory on the node where the printing process lives
------------------
     ethr =  2.91E-09,  avg # of iterations =  2.3

     negative rho (up, down):  7.922E-01 0.000E+00

     total cpu time spent up to now is      660.4 secs

     total energy              =   -4482.97370037 Ry
     estimated scf accuracy    <       0.00001243 Ry

     iteration # 42     ecut=    60.00 Ry     beta= 0.15
     Davidson diagonalization with overlap

---- Real-time Memory Report at c_bands before calling an iterative solver
             0 MiB given to the printing process from OS
             0 MiB allocation reported by mallinfo(arena+hblkhd)
         30817 MiB available memory on the node where the printing process lives
------------------
     ethr =  2.85E-09,  avg # of iterations =  3.1

     negative rho (up, down):  7.922E-01 0.000E+00

     total cpu time spent up to now is      675.2 secs

     total energy              =   -4482.97370093 Ry
     estimated scf accuracy    <       0.00001117 Ry

     iteration # 43     ecut=    60.00 Ry     beta= 0.15
     Davidson diagonalization with overlap

---- Real-time Memory Report at c_bands before calling an iterative solver
             0 MiB given to the printing process from OS
             0 MiB allocation reported by mallinfo(arena+hblkhd)
         30821 MiB available memory on the node where the printing process lives
------------------
     ethr =  2.56E-09,  avg # of iterations =  3.7

     negative rho (up, down):  7.922E-01 0.000E+00

     total cpu time spent up to now is      690.5 secs

     total energy              =   -4482.97370036 Ry
     estimated scf accuracy    <       0.00000864 Ry

     iteration # 44     ecut=    60.00 Ry     beta= 0.15
     Davidson diagonalization with overlap

---- Real-time Memory Report at c_bands before calling an iterative solver
             0 MiB given to the printing process from OS
             0 MiB allocation reported by mallinfo(arena+hblkhd)
         30826 MiB available memory on the node where the printing process lives
------------------
     ethr =  1.98E-09,  avg # of iterations =  3.8

     negative rho (up, down):  7.923E-01 0.000E+00

     total cpu time spent up to now is      705.7 secs

     total energy              =   -4482.97369931 Ry
     estimated scf accuracy    <       0.00000584 Ry

     iteration # 45     ecut=    60.00 Ry     beta= 0.15
     Davidson diagonalization with overlap

---- Real-time Memory Report at c_bands before calling an iterative solver
             0 MiB given to the printing process from OS
             0 MiB allocation reported by mallinfo(arena+hblkhd)
         30828 MiB available memory on the node where the printing process lives
------------------
     ethr =  1.34E-09,  avg # of iterations =  2.8

     negative rho (up, down):  7.923E-01 0.000E+00

     total cpu time spent up to now is      721.0 secs

     total energy              =   -4482.97369803 Ry
     estimated scf accuracy    <       0.00000360 Ry

     iteration # 46     ecut=    60.00 Ry     beta= 0.15
     Davidson diagonalization with overlap

---- Real-time Memory Report at c_bands before calling an iterative solver
             0 MiB given to the printing process from OS
             0 MiB allocation reported by mallinfo(arena+hblkhd)
         30821 MiB available memory on the node where the printing process lives
------------------
     ethr =  8.24E-10,  avg # of iterations =  4.0

     negative rho (up, down):  7.923E-01 0.000E+00

     total cpu time spent up to now is      736.7 secs

     total energy              =   -4482.97369920 Ry
     estimated scf accuracy    <       0.00000086 Ry

     iteration # 47     ecut=    60.00 Ry     beta= 0.15
     Davidson diagonalization with overlap

---- Real-time Memory Report at c_bands before calling an iterative solver
             0 MiB given to the printing process from OS
             0 MiB allocation reported by mallinfo(arena+hblkhd)
         30829 MiB available memory on the node where the printing process lives
------------------
     ethr =  1.97E-10,  avg # of iterations =  4.4

     negative rho (up, down):  7.923E-01 0.000E+00

     total cpu time spent up to now is      752.9 secs

     total energy              =   -4482.97369959 Ry
     estimated scf accuracy    <       0.00000042 Ry

     iteration # 48     ecut=    60.00 Ry     beta= 0.15
     Davidson diagonalization with overlap

---- Real-time Memory Report at c_bands before calling an iterative solver
             0 MiB given to the printing process from OS
             0 MiB allocation reported by mallinfo(arena+hblkhd)
         30836 MiB available memory on the node where the printing process lives
------------------
     ethr =  9.69E-11,  avg # of iterations =  3.5

     negative rho (up, down):  7.923E-01 0.000E+00

     total cpu time spent up to now is      768.5 secs

     total energy              =   -4482.97369996 Ry
     estimated scf accuracy    <       0.00000026 Ry

     iteration # 49     ecut=    60.00 Ry     beta= 0.15
     Davidson diagonalization with overlap

---- Real-time Memory Report at c_bands before calling an iterative solver
             0 MiB given to the printing process from OS
             0 MiB allocation reported by mallinfo(arena+hblkhd)
         30849 MiB available memory on the node where the printing process lives
------------------
     ethr =  6.05E-11,  avg # of iterations =  4.4

     negative rho (up, down):  7.923E-01 0.000E+00

     total cpu time spent up to now is      784.4 secs

     total energy              =   -4482.97370019 Ry
     estimated scf accuracy    <       0.00000016 Ry

     iteration # 50     ecut=    60.00 Ry     beta= 0.15
     Davidson diagonalization with overlap

---- Real-time Memory Report at c_bands before calling an iterative solver
             0 MiB given to the printing process from OS
             0 MiB allocation reported by mallinfo(arena+hblkhd)
         30834 MiB available memory on the node where the printing process lives
------------------
     ethr =  3.75E-11,  avg # of iterations =  5.2

     negative rho (up, down):  7.923E-01 0.000E+00

     total cpu time spent up to now is      800.8 secs

     total energy              =   -4482.97370024 Ry
     estimated scf accuracy    <       0.00000009 Ry

     iteration # 51     ecut=    60.00 Ry     beta= 0.15
     Davidson diagonalization with overlap

---- Real-time Memory Report at c_bands before calling an iterative solver
             0 MiB given to the printing process from OS
             0 MiB allocation reported by mallinfo(arena+hblkhd)
         30823 MiB available memory on the node where the printing process lives
------------------
     ethr =  2.05E-11,  avg # of iterations =  3.0

     negative rho (up, down):  7.923E-01 0.000E+00

     total cpu time spent up to now is      815.9 secs

     total energy              =   -4482.97370027 Ry
     estimated scf accuracy    <       0.00000007 Ry

     iteration # 52     ecut=    60.00 Ry     beta= 0.15
     Davidson diagonalization with overlap

---- Real-time Memory Report at c_bands before calling an iterative solver
             0 MiB given to the printing process from OS
             0 MiB allocation reported by mallinfo(arena+hblkhd)
         30817 MiB available memory on the node where the printing process lives
------------------
     ethr =  1.49E-11,  avg # of iterations =  4.1

     negative rho (up, down):  7.923E-01 0.000E+00

     total cpu time spent up to now is      831.6 secs

     total energy              =   -4482.97370029 Ry
     estimated scf accuracy    <       0.00000004 Ry

     iteration # 53     ecut=    60.00 Ry     beta= 0.15
     Davidson diagonalization with overlap

---- Real-time Memory Report at c_bands before calling an iterative solver
             0 MiB given to the printing process from OS
             0 MiB allocation reported by mallinfo(arena+hblkhd)
         30875 MiB available memory on the node where the printing process lives
------------------
     ethr =  9.88E-12,  avg # of iterations =  4.4

     negative rho (up, down):  7.923E-01 0.000E+00

     total cpu time spent up to now is      847.4 secs

     total energy              =   -4482.97370031 Ry
     estimated scf accuracy    <       0.00000002 Ry

     iteration # 54     ecut=    60.00 Ry     beta= 0.15
     Davidson diagonalization with overlap

---- Real-time Memory Report at c_bands before calling an iterative solver
             0 MiB given to the printing process from OS
             0 MiB allocation reported by mallinfo(arena+hblkhd)
         30862 MiB available memory on the node where the printing process lives
------------------
     ethr =  5.12E-12,  avg # of iterations =  5.8

     negative rho (up, down):  7.923E-01 0.000E+00

     total cpu time spent up to now is      863.6 secs

     End of self-consistent calculation

          k = 0.0000 0.0000 0.0000 ( 65197 PWs)   bands (ev):

   -92.3394 -92.2838 -92.1930 -92.1444 -92.0873 -92.0458 -92.0282 -91.9032
   -55.6925 -55.6700 -55.5510 -55.5405 -55.5321 -55.5272 -55.4887 -55.4627
   -55.4462 -55.4449 -55.4355 -55.3952 -55.3758 -55.3387 -55.3189 -55.2870
   -55.2799 -55.2344 -55.2315 -55.2310 -55.2230 -55.1773 -55.1590 -55.0705
   -30.9256 -30.9066 -30.7658 -30.7301 -30.6793 -30.6625 -30.5683 -30.5176
   -29.4904 -29.4469 -29.4215 -29.3135 -22.2540 -14.7244 -14.6887 -14.6024
   -14.4720 -14.2892 -14.1652 -13.8647 -13.8456 -13.8145 -13.7792 -13.7705
   -13.7321 -13.7264 -13.7085 -13.6901 -13.6661 -13.6326 -13.5730 -13.4256
   -13.2570 -13.2136 -13.1829 -13.1569 -13.1367 -13.0898 -13.0508 -12.9726
   -12.8999 -12.7996 -12.7600 -12.7559 -12.7474 -12.7227 -12.7055 -12.6743
   -12.6529 -12.6426 -12.6100 -12.5742 -12.5620 -12.5539 -12.5457 -12.5363
   -12.4957 -12.4748 -12.4479 -12.4342 -12.3915 -12.3712 -11.9910 -11.8462
   -11.7261 -11.6543 -11.5045 -11.4297 -11.4186 -11.3965 -11.3788 -11.3149
   -11.2978 -11.2627 -11.2338 -11.1234 -11.0424 -11.0388  -5.8965  -3.1613
    -3.1499  -2.5849  -2.3513  -2.1216  -1.9763  -1.9116  -1.7687  -1.4629
    -1.4487  -1.4272  -1.3463  -1.3267  -1.2586  -1.2428  -1.2002  -1.1567
    -0.9754  -0.7540  -0.7232  -0.5724  -0.5589  -0.5152  -0.4973  -0.4528
    -0.4371  -0.3760  -0.3498  -0.2801  -0.2703  -0.1886  -0.0622  -0.0480
    -0.0187   0.0580   0.0638   0.0814   0.1470   0.2277   0.2678   0.3192
     0.3441   0.4041   0.4755   0.5368   0.5520   0.5667   0.8217   0.8347
     1.0051   1.0769   1.1420   1.1768   1.2748   1.2885   1.3008   1.3752
     1.4030   1.4372   1.4969   1.6315   1.6854   1.7047   1.7195   1.7345
     1.8041   1.8814   1.9770   1.9870   2.0501   2.0702   2.1080   2.1250
     2.1326   2.1911   2.2434   2.2565   2.2800   2.3140   2.3792   2.5089
     2.5935   2.6377   2.6449   2.8022   2.8156   2.8677   2.8731   2.9712
     3.0131   3.0322   3.0368   3.0571   3.0697   3.0801   3.1507   3.2628
     3.2955   3.3104   3.3172   3.3837   3.3879   3.4122   3.4205   3.4280
     3.4388   3.4471   3.4595   3.4653   3.4786   3.4872   3.4961   3.5159
     3.5371   3.5421   3.5541   3.5764   3.6957   3.7415   4.4201   4.7510
     4.7935   5.1382   5.3900   5.4881   5.7096   6.2740   6.3218   6.3473
     6.6199   6.6240   6.6741   6.7211   6.9762   7.1624   7.2692   7.3590
     7.5085   7.6513   7.8581   7.9078   7.9357   7.9633   8.0231   8.0371
     8.3158   8.3616   8.3994   8.4562   8.4698   8.5513   8.6411

     occupation numbers 
     1.0000   1.0000   1.0000   1.0000   1.0000   1.0000   1.0000   1.0000
     1.0000   1.0000   1.0000   1.0000   1.0000   1.0000   1.0000   1.0000
     1.0000   1.0000   1.0000   1.0000   1.0000   1.0000   1.0000   1.0000
     1.0000   1.0000   1.0000   1.0000   1.0000   1.0000   1.0000   1.0000
     1.0000   1.0000   1.0000   1.0000   1.0000   1.0000   1.0000   1.0000
     1.0000   1.0000   1.0000   1.0000   1.0000   1.0000   1.0000   1.0000
     1.0000   1.0000   1.0000   1.0000   1.0000   1.0000   1.0000   1.0000
     1.0000   1.0000   1.0000   1.0000   1.0000   1.0000   1.0000   1.0000
     1.0000   1.0000   1.0000   1.0000   1.0000   1.0000   1.0000   1.0000
     1.0000   1.0000   1.0000   1.0000   1.0000   1.0000   1.0000   1.0000
     1.0000   1.0000   1.0000   1.0000   1.0000   1.0000   1.0000   1.0000
     1.0000   1.0000   1.0000   1.0000   1.0000   1.0000   1.0000   1.0000
     1.0000   1.0000   1.0000   1.0000   1.0000   1.0000   1.0000   1.0000
     1.0000   1.0000   1.0000   1.0000   1.0000   1.0000   1.0000   1.0000
     1.0000   1.0000   1.0000   1.0000   1.0000   1.0000   1.0000   1.0000
     1.0000   1.0000   1.0000   1.0000   1.0000   1.0000   1.0000   1.0000
     1.0000   1.0000   1.0000   1.0000   1.0000   1.0000   1.0000   1.0000
     1.0000   1.0000   1.0000   1.0000   1.0000   1.0000   1.0000   1.0000
     1.0000   1.0000   1.0000   1.0000   1.0000   1.0000   1.0000   1.0000
     1.0000   1.0000   1.0000   1.0000   1.0000   1.0000   1.0000   1.0000
     1.0000   0.9999   0.9999   0.9999   0.9998   0.9998   0.9998   0.9997
     0.9997   0.9996   0.9994   0.9989   0.9985   0.9984   0.9983   0.9981
     0.9974   0.9963   0.9944   0.9942   0.9925   0.9918   0.9905   0.9898
     0.9895   0.9868   0.9840   0.9832   0.9817   0.9793   0.9739   0.9599
     0.9478   0.9404   0.9391   0.9056   0.9022   0.8882   0.8866   0.8561
     0.8415   0.8346   0.8329   0.8252   0.8204   0.8163   0.7871   0.7357
     0.7195   0.7120   0.7086   0.6738   0.6716   0.6585   0.6539   0.6498
     0.6438   0.6392   0.6323   0.6291   0.6216   0.6167   0.6116   0.6003
     0.5881   0.5852   0.5783   0.5653   0.4949   0.4678   0.1382   0.0571
     0.0502   0.0156   0.0057   0.0037   0.0013   0.0001   0.0000   0.0000
     0.0000   0.0000   0.0000   0.0000   0.0000   0.0000   0.0000   0.0000
     0.0000   0.0000   0.0000   0.0000   0.0000   0.0000   0.0000   0.0000
     0.0000   0.0000   0.0000   0.0000   0.0000   0.0000   0.0000

          k = 0.0000 0.2500 0.0000 ( 65257 PWs)   bands (ev):

   -92.3394 -92.2838 -92.1930 -92.1444 -92.0873 -92.0458 -92.0282 -91.9032
   -55.6925 -55.6700 -55.5510 -55.5405 -55.5321 -55.5272 -55.4887 -55.4627
   -55.4462 -55.4449 -55.4355 -55.3952 -55.3758 -55.3387 -55.3189 -55.2870
   -55.2799 -55.2344 -55.2315 -55.2310 -55.2230 -55.1773 -55.1590 -55.0705
   -30.9254 -30.9064 -30.7660 -30.7297 -30.6795 -30.6629 -30.5677 -30.5183
   -29.4898 -29.4466 -29.4221 -29.3139 -22.2540 -14.6872 -14.6630 -14.5774
   -14.4426 -14.3273 -14.1550 -14.0104 -13.8303 -13.8003 -13.7818 -13.7720
   -13.7490 -13.6916 -13.6867 -13.6734 -13.6528 -13.6139 -13.4936 -13.4558
   -13.2949 -13.2798 -13.2237 -13.1912 -13.1496 -13.1035 -13.0668 -12.9908
   -12.9582 -12.9156 -12.8537 -12.7964 -12.7565 -12.7405 -12.7372 -12.6419
   -12.6249 -12.6016 -12.5820 -12.5509 -12.5173 -12.5128 -12.4898 -12.4822
   -12.4614 -12.4530 -12.4436 -12.4158 -12.2808 -12.2003 -12.0524 -11.8974
   -11.7827 -11.7228 -11.4700 -11.4264 -11.3992 -11.3707 -11.3540 -11.3068
   -11.2955 -11.2729 -11.2385 -11.1377 -11.0841 -11.0734  -5.8965  -3.1613
    -3.1501  -2.4497  -2.2270  -2.0898  -1.9079  -1.8641  -1.6996  -1.4829
    -1.3951  -1.3820  -1.3274  -1.2228  -1.2083  -1.1749  -1.1485  -1.1052
    -0.9066  -0.7780  -0.7662  -0.6918  -0.6791  -0.5743  -0.5438  -0.4890
    -0.4643  -0.4204  -0.3591  -0.3330  -0.2997  -0.2689  -0.2530  -0.2184
    -0.1460  -0.0935  -0.0389   0.0779   0.0939   0.1379   0.2649   0.2989
     0.3502   0.4073   0.4512   0.4814   0.5149   0.5730   0.8679   0.9555
     0.9909   1.0733   1.1118   1.1352   1.2615   1.2805   1.3772   1.4017
     1.4320   1.5454   1.6320   1.6617   1.6834   1.6973   1.7293   1.7913
     1.8160   1.8444   1.8930   1.9225   1.9534   2.0355   2.0617   2.1003
     2.1525   2.2095   2.2465   2.2699   2.2975   2.3233   2.4121   2.5502
     2.6150   2.6307   2.7161   2.7604   2.8002   2.8064   2.8687   2.9126
     2.9893   3.0263   3.0340   3.0448   3.0771   3.2237   3.2458   3.2779
     3.2984   3.3163   3.3256   3.3335   3.3411   3.3710   3.3728   3.3893
     3.3944   3.4067   3.4240   3.4339   3.4444   3.4666   3.4776   3.4820
     3.5176   3.5346   3.5950   3.9579   3.9687   4.2326   4.6028   4.7546
     4.9005   5.0850   5.4097   5.5298   5.8325   5.9251   6.1547   6.3011
     6.3340   6.4557   6.5265   6.7379   6.9051   7.0548   7.3010   7.5242
     7.5505   7.6810   7.7976   7.8874   7.9410   8.0111   8.0844   8.1952
     8.2455   8.4057   8.5160   8.5881   8.6644   8.6872   8.9636

     occupation numbers 
     1.0000   1.0000   1.0000   1.0000   1.0000   1.0000   1.0000   1.0000
     1.0000   1.0000   1.0000   1.0000   1.0000   1.0000   1.0000   1.0000
     1.0000   1.0000   1.0000   1.0000   1.0000   1.0000   1.0000   1.0000
     1.0000   1.0000   1.0000   1.0000   1.0000   1.0000   1.0000   1.0000
     1.0000   1.0000   1.0000   1.0000   1.0000   1.0000   1.0000   1.0000
     1.0000   1.0000   1.0000   1.0000   1.0000   1.0000   1.0000   1.0000
     1.0000   1.0000   1.0000   1.0000   1.0000   1.0000   1.0000   1.0000
     1.0000   1.0000   1.0000   1.0000   1.0000   1.0000   1.0000   1.0000
     1.0000   1.0000   1.0000   1.0000   1.0000   1.0000   1.0000   1.0000
     1.0000   1.0000   1.0000   1.0000   1.0000   1.0000   1.0000   1.0000
     1.0000   1.0000   1.0000   1.0000   1.0000   1.0000   1.0000   1.0000
     1.0000   1.0000   1.0000   1.0000   1.0000   1.0000   1.0000   1.0000
     1.0000   1.0000   1.0000   1.0000   1.0000   1.0000   1.0000   1.0000
     1.0000   1.0000   1.0000   1.0000   1.0000   1.0000   1.0000   1.0000
     1.0000   1.0000   1.0000   1.0000   1.0000   1.0000   1.0000   1.0000
     1.0000   1.0000   1.0000   1.0000   1.0000   1.0000   1.0000   1.0000
     1.0000   1.0000   1.0000   1.0000   1.0000   1.0000   1.0000   1.0000
     1.0000   1.0000   1.0000   1.0000   1.0000   1.0000   1.0000   1.0000
     1.0000   1.0000   1.0000   1.0000   1.0000   1.0000   1.0000   1.0000
     1.0000   1.0000   1.0000   1.0000   1.0000   1.0000   1.0000   1.0000
     1.0000   0.9999   0.9999   0.9999   0.9998   0.9998   0.9997   0.9997
     0.9996   0.9993   0.9989   0.9987   0.9985   0.9984   0.9982   0.9976
     0.9973   0.9969   0.9961   0.9956   0.9950   0.9929   0.9921   0.9908
     0.9887   0.9859   0.9838   0.9823   0.9805   0.9786   0.9708   0.9543
     0.9443   0.9416   0.9253   0.9156   0.9061   0.9045   0.8879   0.8749
     0.8499   0.8368   0.8339   0.8299   0.8175   0.7543   0.7438   0.7283
     0.7181   0.7091   0.7043   0.7002   0.6963   0.6806   0.6797   0.6709
     0.6681   0.6615   0.6520   0.6465   0.6407   0.6283   0.6221   0.6196
     0.5993   0.5896   0.5544   0.3438   0.3379   0.2090   0.0870   0.0565
     0.0358   0.0190   0.0053   0.0031   0.0007   0.0004   0.0001   0.0001
     0.0000   0.0000   0.0000   0.0000   0.0000   0.0000   0.0000   0.0000
     0.0000   0.0000   0.0000   0.0000   0.0000   0.0000   0.0000   0.0000
     0.0000   0.0000   0.0000   0.0000   0.0000   0.0000   0.0000

          k = 0.0000-0.5000 0.0000 ( 65180 PWs)   bands (ev):

   -92.3394 -92.2838 -92.1930 -92.1444 -92.0873 -92.0458 -92.0282 -91.9032
   -55.6925 -55.6700 -55.5510 -55.5405 -55.5321 -55.5272 -55.4887 -55.4627
   -55.4462 -55.4449 -55.4355 -55.3952 -55.3758 -55.3387 -55.3189 -55.2870
   -55.2799 -55.2344 -55.2315 -55.2310 -55.2230 -55.1773 -55.1590 -55.0705
   -30.9252 -30.9063 -30.7662 -30.7292 -30.6796 -30.6634 -30.5670 -30.5189
   -29.4892 -29.4462 -29.4227 -29.3142 -22.2540 -14.6559 -14.6066 -14.5563
   -14.4283 -14.3419 -14.2029 -14.0612 -13.9314 -13.8005 -13.7784 -13.7375
   -13.6915 -13.6811 -13.6360 -13.6160 -13.5722 -13.5543 -13.5264 -13.4895
   -13.4556 -13.4287 -13.2274 -13.1723 -13.1584 -13.1011 -13.0683 -13.0050
   -12.9918 -12.9329 -12.9324 -12.8674 -12.7573 -12.7398 -12.7201 -12.6736
   -12.6215 -12.6053 -12.5780 -12.5300 -12.5153 -12.4829 -12.4795 -12.4561
   -12.4317 -12.4223 -12.3533 -12.3000 -12.1636 -12.1325 -11.9730 -11.9710
   -11.8920 -11.8572 -11.4234 -11.4215 -11.3943 -11.3565 -11.3223 -11.3111
   -11.2682 -11.2644 -11.2200 -11.1593 -11.1451 -11.1307  -5.8965  -3.1613
    -3.1503  -2.2349  -2.1757  -2.0238  -1.9512  -1.6717  -1.5883  -1.4599
    -1.3211  -1.2873  -1.2654  -1.1872  -1.1547  -1.0748  -1.0387  -0.9629
    -0.9216  -0.8816  -0.8548  -0.8015  -0.7616  -0.7155  -0.6785  -0.6457
    -0.6112  -0.5012  -0.4558  -0.4244  -0.4227  -0.3363  -0.3039  -0.2800
    -0.2352  -0.1505  -0.0780   0.0009   0.0278   0.1435   0.1769   0.3273
     0.3484   0.3921   0.4269   0.5507   0.6191   0.7497   0.8156   0.8222
     0.9526   0.9958   1.0735   1.2325   1.3339   1.3666   1.4021   1.4092
     1.4406   1.4656   1.5036   1.5222   1.5340   1.6414   1.6969   1.7220
     1.7473   2.0102   2.0439   2.0723   2.1519   2.1751   2.2198   2.2341
     2.2671   2.2747   2.2831   2.3128   2.3565   2.3782   2.4031   2.4214
     2.4515   2.5064   2.5868   2.6198   2.7900   2.9613   2.9710   2.9811
     3.0196   3.0245   3.0345   3.0433   3.0732   3.0914   3.1041   3.1579
     3.1781   3.2548   3.2654   3.3361   3.3423   3.3685   3.3696   3.3887
     3.3919   3.3948   3.4011   3.4044   3.4168   3.4371   3.4382   3.5027
     3.5086   3.5243   3.5799   4.4658   4.4886   4.5432   4.5826   4.9764
     5.0894   5.2420   5.3700   5.5179   5.6878   5.8027   5.8983   6.0217
     6.2297   6.3606   6.3955   6.4526   7.0068   7.1123   7.1278   7.3909
     7.5826   7.6815   7.7240   7.9838   8.0584   8.0749   8.2099   8.3955
     8.4891   8.5966   8.6948   8.7544   8.7716   8.8546   8.9796

     occupation numbers 
     1.0000   1.0000   1.0000   1.0000   1.0000   1.0000   1.0000   1.0000
     1.0000   1.0000   1.0000   1.0000   1.0000   1.0000   1.0000   1.0000
     1.0000   1.0000   1.0000   1.0000   1.0000   1.0000   1.0000   1.0000
     1.0000   1.0000   1.0000   1.0000   1.0000   1.0000   1.0000   1.0000
     1.0000   1.0000   1.0000   1.0000   1.0000   1.0000   1.0000   1.0000
     1.0000   1.0000   1.0000   1.0000   1.0000   1.0000   1.0000   1.0000
     1.0000   1.0000   1.0000   1.0000   1.0000   1.0000   1.0000   1.0000
     1.0000   1.0000   1.0000   1.0000   1.0000   1.0000   1.0000   1.0000
     1.0000   1.0000   1.0000   1.0000   1.0000   1.0000   1.0000   1.0000
     1.0000   1.0000   1.0000   1.0000   1.0000   1.0000   1.0000   1.0000
     1.0000   1.0000   1.0000   1.0000   1.0000   1.0000   1.0000   1.0000
     1.0000   1.0000   1.0000   1.0000   1.0000   1.0000   1.0000   1.0000
     1.0000   1.0000   1.0000   1.0000   1.0000   1.0000   1.0000   1.0000
     1.0000   1.0000   1.0000   1.0000   1.0000   1.0000   1.0000   1.0000
     1.0000   1.0000   1.0000   1.0000   1.0000   1.0000   1.0000   1.0000
     1.0000   1.0000   1.0000   1.0000   1.0000   1.0000   1.0000   1.0000
     1.0000   1.0000   1.0000   1.0000   1.0000   1.0000   1.0000   1.0000
     1.0000   1.0000   1.0000   1.0000   1.0000   1.0000   1.0000   1.0000
     1.0000   1.0000   1.0000   1.0000   1.0000   1.0000   1.0000   1.0000
     1.0000   1.0000   1.0000   1.0000   1.0000   1.0000   1.0000   1.0000
     1.0000   1.0000   0.9999   0.9999   0.9998   0.9997   0.9997   0.9996
     0.9996   0.9995   0.9994   0.9993   0.9993   0.9988   0.9984   0.9982
     0.9980   0.9936   0.9927   0.9918   0.9887   0.9876   0.9853   0.9845
     0.9825   0.9820   0.9815   0.9794   0.9759   0.9740   0.9717   0.9699
     0.9667   0.9602   0.9489   0.9435   0.9086   0.8594   0.8562   0.8527
     0.8392   0.8374   0.8337   0.8305   0.8190   0.8118   0.8067   0.7840
     0.7751   0.7395   0.7344   0.6989   0.6957   0.6819   0.6814   0.6711
     0.6694   0.6678   0.6645   0.6627   0.6559   0.6448   0.6442   0.6079
     0.6045   0.5955   0.5632   0.1238   0.1170   0.1018   0.0918   0.0278
     0.0187   0.0105   0.0062   0.0033   0.0015   0.0008   0.0005   0.0003
     0.0001   0.0000   0.0000   0.0000   0.0000   0.0000   0.0000   0.0000
     0.0000   0.0000   0.0000   0.0000   0.0000   0.0000   0.0000   0.0000
     0.0000   0.0000   0.0000   0.0000   0.0000   0.0000   0.0000

          k = 0.2500 0.2500 0.0000 ( 65198 PWs)   bands (ev):

   -92.3394 -92.2838 -92.1930 -92.1444 -92.0873 -92.0458 -92.0282 -91.9032
   -55.6925 -55.6700 -55.5510 -55.5405 -55.5321 -55.5272 -55.4887 -55.4627
   -55.4462 -55.4449 -55.4355 -55.3952 -55.3758 -55.3387 -55.3189 -55.2870
   -55.2799 -55.2344 -55.2315 -55.2310 -55.2230 -55.1773 -55.1590 -55.0705
   -30.9236 -30.9082 -30.7657 -30.7295 -30.6798 -30.6626 -30.5680 -30.5184
   -29.4888 -29.4475 -29.4217 -29.3143 -22.2540 -14.6594 -14.6275 -14.5496
   -14.4320 -14.3191 -14.1939 -14.1152 -13.9142 -13.7783 -13.7532 -13.7414
   -13.7081 -13.6761 -13.6567 -13.6362 -13.5986 -13.5746 -13.4863 -13.4706
   -13.3102 -13.2970 -13.2668 -13.2467 -13.2088 -13.1572 -13.1053 -13.0737
   -12.9774 -12.9444 -12.8793 -12.7907 -12.7502 -12.7011 -12.6925 -12.6672
   -12.6312 -12.5997 -12.5959 -12.5694 -12.5468 -12.5123 -12.4806 -12.4634
   -12.4192 -12.4004 -12.3909 -12.3622 -12.2209 -12.1009 -12.0941 -11.9266
   -11.8118 -11.7739 -11.4421 -11.4101 -11.3996 -11.3922 -11.3298 -11.2948
   -11.2883 -11.2531 -11.2451 -11.1542 -11.1123 -11.0950  -5.8965  -3.1615
    -3.1501  -2.3116  -2.1013  -1.9839  -1.8910  -1.7683  -1.7029  -1.5080
    -1.3606  -1.3402  -1.3139  -1.2177  -1.1846  -1.0908  -1.0644  -1.0142
    -0.8812  -0.8345  -0.7631  -0.7165  -0.6730  -0.6478  -0.6226  -0.5811
    -0.5651  -0.4757  -0.4254  -0.3637  -0.3135  -0.2833  -0.2315  -0.2210
    -0.1575  -0.1070  -0.0561  -0.0172   0.0645   0.1221   0.1476   0.1904
     0.2437   0.3210   0.3520   0.3745   0.4468   0.4795   0.7614   0.9084
     0.9473   1.0019   1.0442   1.0811   1.1470   1.2112   1.2482   1.5209
     1.5939   1.6677   1.6950   1.7370   1.7737   1.8088   1.8462   1.8634
     1.8924   1.9311   1.9397   1.9588   1.9965   2.0365   2.0801   2.1362
     2.1679   2.1800   2.2084   2.2475   2.2971   2.3222   2.4539   2.5268
     2.5667   2.5926   2.6455   2.7189   2.7509   2.7884   2.8146   2.8229
     2.9325   2.9704   3.0300   3.0586   3.0790   3.2347   3.2520   3.2587
     3.2741   3.2886   3.3009   3.3144   3.3215   3.3311   3.3447   3.3561
     3.3759   3.3818   3.3934   3.4136   3.4279   3.4382   3.4685   3.7705
     3.8617   3.8982   3.9687   3.9815   4.2027   4.3121   4.6445   4.7979
     4.9738   5.1283   5.3331   5.5872   5.9335   5.9592   5.9763   6.1214
     6.2007   6.2465   6.3423   6.4181   6.9213   7.0310   7.1214   7.2056
     7.7150   7.7788   7.8424   7.9070   8.0235   8.1462   8.2204   8.3260
     8.3512   8.4774   8.5235   8.6871   8.7271   8.7864   8.9552

     occupation numbers 
     1.0000   1.0000   1.0000   1.0000   1.0000   1.0000   1.0000   1.0000
     1.0000   1.0000   1.0000   1.0000   1.0000   1.0000   1.0000   1.0000
     1.0000   1.0000   1.0000   1.0000   1.0000   1.0000   1.0000   1.0000
     1.0000   1.0000   1.0000   1.0000   1.0000   1.0000   1.0000   1.0000
     1.0000   1.0000   1.0000   1.0000   1.0000   1.0000   1.0000   1.0000
     1.0000   1.0000   1.0000   1.0000   1.0000   1.0000   1.0000   1.0000
     1.0000   1.0000   1.0000   1.0000   1.0000   1.0000   1.0000   1.0000
     1.0000   1.0000   1.0000   1.0000   1.0000   1.0000   1.0000   1.0000
     1.0000   1.0000   1.0000   1.0000   1.0000   1.0000   1.0000   1.0000
     1.0000   1.0000   1.0000   1.0000   1.0000   1.0000   1.0000   1.0000
     1.0000   1.0000   1.0000   1.0000   1.0000   1.0000   1.0000   1.0000
     1.0000   1.0000   1.0000   1.0000   1.0000   1.0000   1.0000   1.0000
     1.0000   1.0000   1.0000   1.0000   1.0000   1.0000   1.0000   1.0000
     1.0000   1.0000   1.0000   1.0000   1.0000   1.0000   1.0000   1.0000
     1.0000   1.0000   1.0000   1.0000   1.0000   1.0000   1.0000   1.0000
     1.0000   1.0000   1.0000   1.0000   1.0000   1.0000   1.0000   1.0000
     1.0000   1.0000   1.0000   1.0000   1.0000   1.0000   1.0000   1.0000
     1.0000   1.0000   1.0000   1.0000   1.0000   1.0000   1.0000   1.0000
     1.0000   1.0000   1.0000   1.0000   1.0000   1.0000   1.0000   1.0000
     1.0000   1.0000   1.0000   1.0000   1.0000   1.0000   1.0000   1.0000
     1.0000   1.0000   1.0000   0.9999   0.9999   0.9999   0.9999   0.9994
     0.9991   0.9986   0.9985   0.9981   0.9978   0.9974   0.9969   0.9966
     0.9961   0.9954   0.9953   0.9949   0.9940   0.9929   0.9915   0.9894
     0.9880   0.9874   0.9859   0.9837   0.9805   0.9787   0.9665   0.9575
     0.9519   0.9479   0.9390   0.9247   0.9178   0.9090   0.9025   0.9003
     0.8687   0.8564   0.8354   0.8247   0.8167   0.7491   0.7409   0.7376
     0.7301   0.7230   0.7168   0.7100   0.7064   0.7015   0.6944   0.6885
     0.6780   0.6748   0.6686   0.6577   0.6498   0.6442   0.6273   0.4507
     0.3977   0.3770   0.3379   0.3310   0.2220   0.1767   0.0776   0.0495
     0.0280   0.0162   0.0073   0.0024   0.0004   0.0004   0.0003   0.0002
     0.0001   0.0001   0.0000   0.0000   0.0000   0.0000   0.0000   0.0000
     0.0000   0.0000   0.0000   0.0000   0.0000   0.0000   0.0000   0.0000
     0.0000   0.0000   0.0000   0.0000   0.0000   0.0000   0.0000

          k = 0.2500-0.5000 0.0000 ( 65138 PWs)   bands (ev):

   -92.3394 -92.2838 -92.1930 -92.1444 -92.0873 -92.0458 -92.0282 -91.9032
   -55.6925 -55.6700 -55.5510 -55.5405 -55.5321 -55.5272 -55.4887 -55.4627
   -55.4462 -55.4449 -55.4355 -55.3952 -55.3758 -55.3387 -55.3189 -55.2870
   -55.2799 -55.2344 -55.2315 -55.2310 -55.2230 -55.1773 -55.1590 -55.0704
   -30.9234 -30.9081 -30.7659 -30.7291 -30.6800 -30.6631 -30.5674 -30.5191
   -29.4882 -29.4472 -29.4223 -29.3146 -22.2540 -14.6258 -14.5796 -14.5133
   -14.3966 -14.3659 -14.2435 -14.1610 -14.0284 -13.7780 -13.7172 -13.6701
   -13.6388 -13.6210 -13.6019 -13.5883 -13.5574 -13.5421 -13.5058 -13.4654
   -13.4438 -13.4157 -13.3112 -13.2626 -13.2265 -13.1837 -13.1236 -13.1118
   -13.0337 -13.0027 -12.8552 -12.7910 -12.7676 -12.6918 -12.6809 -12.6388
   -12.6212 -12.6169 -12.5921 -12.5607 -12.5273 -12.4992 -12.4919 -12.4556
   -12.4328 -12.4232 -12.3039 -12.2725 -12.1702 -12.1156 -11.9703 -11.9537
   -11.8808 -11.8551 -11.4174 -11.4056 -11.3947 -11.3675 -11.3358 -11.3077
   -11.2660 -11.2388 -11.2163 -11.1724 -11.1461 -11.1348  -5.8965  -3.1614
    -3.1503  -2.0934  -2.0280  -1.8979  -1.8202  -1.6923  -1.6088  -1.4844
    -1.3331  -1.2813  -1.2579  -1.1947  -1.1813  -1.0855  -1.0174  -0.9317
    -0.8849  -0.8749  -0.8104  -0.7709  -0.7338  -0.6867  -0.6497  -0.6147
    -0.5743  -0.5644  -0.5179  -0.4898  -0.4484  -0.4180  -0.3502  -0.2513
    -0.2125  -0.1339  -0.0692  -0.0224   0.0215   0.0443   0.0975   0.2591
     0.2675   0.3614   0.4028   0.4144   0.4581   0.4943   0.5276   0.5609
     0.6327   0.8994   0.9946   1.0385   1.1092   1.3822   1.4051   1.4959
     1.5192   1.6903   1.7211   1.7651   1.7920   1.8070   1.8272   1.8864
     1.9300   1.9690   2.0393   2.1378   2.1730   2.1943   2.2045   2.2432
     2.2563   2.2628   2.3040   2.3189   2.3378   2.3565   2.3853   2.4140
     2.4431   2.5047   2.5424   2.6207   2.7596   2.9141   2.9272   2.9475
     2.9722   2.9990   3.0260   3.0309   3.0496   3.0618   3.0726   3.0927
     3.1840   3.2335   3.2523   3.2540   3.2718   3.2921   3.3058   3.3244
     3.3325   3.3626   3.3732   3.3902   3.3982   3.4058   3.4187   3.9272
     3.9471   4.1021   4.1545   4.4798   4.5318   4.5440   4.6562   5.0354
     5.1131   5.2761   5.4085   5.4933   5.6516   5.7371   5.8448   5.9460
     6.0731   6.1011   6.3179   6.4854   6.6041   6.6385   7.1504   7.2767
     7.5494   7.6398   7.9570   8.0736   8.1803   8.2170   8.3601   8.4276
     8.5170   8.5928   8.6369   8.7979   8.8800   8.9226   9.0227

     occupation numbers 
     1.0000   1.0000   1.0000   1.0000   1.0000   1.0000   1.0000   1.0000
     1.0000   1.0000   1.0000   1.0000   1.0000   1.0000   1.0000   1.0000
     1.0000   1.0000   1.0000   1.0000   1.0000   1.0000   1.0000   1.0000
     1.0000   1.0000   1.0000   1.0000   1.0000   1.0000   1.0000   1.0000
     1.0000   1.0000   1.0000   1.0000   1.0000   1.0000   1.0000   1.0000
     1.0000   1.0000   1.0000   1.0000   1.0000   1.0000   1.0000   1.0000
     1.0000   1.0000   1.0000   1.0000   1.0000   1.0000   1.0000   1.0000
     1.0000   1.0000   1.0000   1.0000   1.0000   1.0000   1.0000   1.0000
     1.0000   1.0000   1.0000   1.0000   1.0000   1.0000   1.0000   1.0000
     1.0000   1.0000   1.0000   1.0000   1.0000   1.0000   1.0000   1.0000
     1.0000   1.0000   1.0000   1.0000   1.0000   1.0000   1.0000   1.0000
     1.0000   1.0000   1.0000   1.0000   1.0000   1.0000   1.0000   1.0000
     1.0000   1.0000   1.0000   1.0000   1.0000   1.0000   1.0000   1.0000
     1.0000   1.0000   1.0000   1.0000   1.0000   1.0000   1.0000   1.0000
     1.0000   1.0000   1.0000   1.0000   1.0000   1.0000   1.0000   1.0000
     1.0000   1.0000   1.0000   1.0000   1.0000   1.0000   1.0000   1.0000
     1.0000   1.0000   1.0000   1.0000   1.0000   1.0000   1.0000   1.0000
     1.0000   1.0000   1.0000   1.0000   1.0000   1.0000   1.0000   1.0000
     1.0000   1.0000   1.0000   1.0000   1.0000   1.0000   1.0000   1.0000
     1.0000   1.0000   1.0000   1.0000   1.0000   1.0000   1.0000   1.0000
     1.0000   1.0000   1.0000   1.0000   0.9999   0.9997   0.9996   0.9994
     0.9994   0.9985   0.9982   0.9978   0.9976   0.9974   0.9971   0.9963
     0.9955   0.9946   0.9928   0.9893   0.9877   0.9867   0.9861   0.9840
     0.9832   0.9828   0.9800   0.9789   0.9774   0.9759   0.9734   0.9706
     0.9676   0.9604   0.9554   0.9433   0.9158   0.8745   0.8704   0.8639
     0.8558   0.8465   0.8369   0.8351   0.8281   0.8234   0.8192   0.8113
     0.7725   0.7497   0.7407   0.7399   0.7313   0.7212   0.7144   0.7049
     0.7008   0.6851   0.6794   0.6703   0.6660   0.6619   0.6549   0.3607
     0.3497   0.2689   0.2438   0.1196   0.1049   0.1016   0.0751   0.0226
     0.0171   0.0092   0.0053   0.0037   0.0018   0.0012   0.0007   0.0004
     0.0002   0.0002   0.0000   0.0000   0.0000   0.0000   0.0000   0.0000
     0.0000   0.0000   0.0000   0.0000   0.0000   0.0000   0.0000   0.0000
     0.0000   0.0000   0.0000   0.0000   0.0000   0.0000   0.0000

          k =-0.5000-0.5000 0.0000 ( 65132 PWs)   bands (ev):

   -92.3394 -92.2838 -92.1930 -92.1444 -92.0873 -92.0458 -92.0282 -91.9032
   -55.6925 -55.6700 -55.5510 -55.5405 -55.5321 -55.5272 -55.4887 -55.4627
   -55.4462 -55.4449 -55.4355 -55.3952 -55.3758 -55.3387 -55.3189 -55.2870
   -55.2799 -55.2344 -55.2315 -55.2310 -55.2230 -55.1773 -55.1590 -55.0704
   -30.9212 -30.9103 -30.7655 -30.7289 -30.6804 -30.6627 -30.5677 -30.5193
   -29.4872 -29.4483 -29.4219 -29.3150 -22.2540 -14.5808 -14.5521 -14.4345
   -14.4245 -14.3320 -14.2918 -14.2609 -14.1281 -13.7778 -13.6298 -13.6183
   -13.5822 -13.5648 -13.5475 -13.5421 -13.5038 -13.4971 -13.4842 -13.4719
   -13.4550 -13.3794 -13.3735 -13.3472 -13.3265 -13.3097 -13.2093 -13.1815
   -13.0756 -13.0638 -12.8066 -12.7639 -12.7017 -12.6747 -12.6647 -12.6338
   -12.6297 -12.6217 -12.6019 -12.5767 -12.5225 -12.5098 -12.4840 -12.4803
   -12.4442 -12.4290 -12.2538 -12.2460 -12.1866 -12.0996 -11.9668 -11.9355
[...]
     0.0000   0.0000   0.0000   0.0000   0.0000   0.0000   0.0000   0.0000
     0.0000   0.0000   0.0000   0.0000   0.0000   0.0000   0.0000

          k =-0.5000 0.0000 0.0000 ( 65180 PWs)   bands (ev):

   -92.3394 -92.2838 -92.1930 -92.1444 -92.0873 -92.0458 -92.0282 -91.9032
   -55.6925 -55.6700 -55.5510 -55.5405 -55.5321 -55.5272 -55.4887 -55.4627
   -55.4462 -55.4449 -55.4355 -55.3952 -55.3758 -55.3387 -55.3189 -55.2870
   -55.2799 -55.2344 -55.2315 -55.2310 -55.2230 -55.1773 -55.1590 -55.0704
   -30.9215 -30.9106 -30.7651 -30.7298 -30.6801 -30.6618 -30.5690 -30.5179
   -29.4884 -29.4489 -29.4207 -29.3144 -22.2540 -14.6590 -14.6118 -14.5482
   -14.4414 -14.3339 -14.1905 -14.0519 -13.9092 -13.7796 -13.7761 -13.7704
   -13.7509 -13.6961 -13.6391 -13.6062 -13.5619 -13.5532 -13.5388 -13.4847
   -13.4718 -13.3807 -13.1990 -13.1841 -13.1398 -13.1309 -13.0747 -13.0103
   -12.9954 -12.9179 -12.8996 -12.8943 -12.7355 -12.7025 -12.6908 -12.6678
   -12.6618 -12.6564 -12.5959 -12.5758 -12.5406 -12.5234 -12.4694 -12.4581
   -12.3970 -12.3649 -12.2884 -12.2794 -12.1896 -12.1582 -12.0054 -11.9766
   -11.8806 -11.8441 -11.4208 -11.3999 -11.3927 -11.3780 -11.3600 -11.3186
   -11.2558 -11.2381 -11.2055 -11.1615 -11.1520 -11.1361  -5.8965  -3.1617
    -3.1499  -2.2248  -2.1858  -2.0214  -1.9821  -1.6708  -1.5963  -1.4463
    -1.3280  -1.2897  -1.2448  -1.1957  -1.1693  -1.0480  -1.0021  -0.9894
    -0.9061  -0.8696  -0.8580  -0.8228  -0.7669  -0.6977  -0.6674  -0.6415
    -0.5450  -0.4969  -0.4493  -0.4164  -0.3947  -0.3668  -0.3172  -0.2921
    -0.2534  -0.1628  -0.0892  -0.0280   0.0358   0.2040   0.2305   0.3004
     0.3217   0.3955   0.4070   0.5429   0.5751   0.6066   0.7985   0.8968
     0.9439   1.0047   1.0842   1.2073   1.2266   1.3572   1.3856   1.4366
     1.4564   1.5012   1.5175   1.5616   1.5864   1.6524   1.6955   1.7426
     1.7516   2.0491   2.0582   2.0741   2.0951   2.2124   2.2162   2.2279
     2.2423   2.2682   2.2826   2.3184   2.3498   2.3687   2.4351   2.4398
     2.4959   2.5101   2.5751   2.6683   2.7828   2.8613   2.8738   2.9564
     2.9862   3.0044   3.0333   3.0709   3.0808   3.0933   3.0977   3.1249
     3.1927   3.2398   3.2810   3.3145   3.3566   3.3625   3.3632   3.3761
     3.3884   3.4020   3.4173   3.4186   3.4404   3.4456   3.4693   3.4888
     3.4936   3.6217   3.6263   4.4023   4.4687   4.5413   4.6532   4.9584
     5.1409   5.2386   5.3525   5.5090   5.6162   5.8825   5.9177   6.0024
     6.2006   6.3833   6.3922   6.4276   6.9694   7.1180   7.1849   7.4394
     7.5460   7.6405   7.7217   8.0470   8.0882   8.1748   8.1881   8.2241
     8.4996   8.6110   8.6697   8.7274   8.7619   8.8603   8.9731

     occupation numbers 
     1.0000   1.0000   1.0000   1.0000   1.0000   1.0000   1.0000   1.0000
     1.0000   1.0000   1.0000   1.0000   1.0000   1.0000   1.0000   1.0000
     1.0000   1.0000   1.0000   1.0000   1.0000   1.0000   1.0000   1.0000
     1.0000   1.0000   1.0000   1.0000   1.0000   1.0000   1.0000   1.0000
     1.0000   1.0000   1.0000   1.0000   1.0000   1.0000   1.0000   1.0000
     1.0000   1.0000   1.0000   1.0000   1.0000   1.0000   1.0000   1.0000
     1.0000   1.0000   1.0000   1.0000   1.0000   1.0000   1.0000   1.0000
     1.0000   1.0000   1.0000   1.0000   1.0000   1.0000   1.0000   1.0000
     1.0000   1.0000   1.0000   1.0000   1.0000   1.0000   1.0000   1.0000
     1.0000   1.0000   1.0000   1.0000   1.0000   1.0000   1.0000   1.0000
     1.0000   1.0000   1.0000   1.0000   1.0000   1.0000   1.0000   1.0000
     1.0000   1.0000   1.0000   1.0000   1.0000   1.0000   1.0000   1.0000
     1.0000   1.0000   1.0000   1.0000   1.0000   1.0000   1.0000   1.0000
     1.0000   1.0000   1.0000   1.0000   1.0000   1.0000   1.0000   1.0000
     1.0000   1.0000   1.0000   1.0000   1.0000   1.0000   1.0000   1.0000
     1.0000   1.0000   1.0000   1.0000   1.0000   1.0000   1.0000   1.0000
     1.0000   1.0000   1.0000   1.0000   1.0000   1.0000   1.0000   1.0000
     1.0000   1.0000   1.0000   1.0000   1.0000   1.0000   1.0000   1.0000
     1.0000   1.0000   1.0000   1.0000   1.0000   1.0000   1.0000   1.0000
     1.0000   1.0000   1.0000   1.0000   1.0000   1.0000   1.0000   1.0000
     1.0000   1.0000   0.9999   0.9999   0.9999   0.9997   0.9997   0.9996
     0.9995   0.9994   0.9994   0.9992   0.9991   0.9987   0.9984   0.9981
     0.9980   0.9925   0.9922   0.9917   0.9910   0.9857   0.9855   0.9849
     0.9840   0.9824   0.9815   0.9789   0.9765   0.9749   0.9685   0.9680
     0.9615   0.9597   0.9507   0.9348   0.9103   0.8899   0.8864   0.8611
     0.8510   0.8447   0.8342   0.8199   0.8160   0.8110   0.8093   0.7981
     0.7686   0.7467   0.7268   0.7100   0.6882   0.6851   0.6847   0.6779
     0.6713   0.6640   0.6557   0.6549   0.6429   0.6401   0.6268   0.6158
     0.6131   0.5387   0.5360   0.1441   0.1229   0.1023   0.0757   0.0295
     0.0154   0.0106   0.0067   0.0034   0.0021   0.0006   0.0005   0.0003
     0.0001   0.0000   0.0000   0.0000   0.0000   0.0000   0.0000   0.0000
     0.0000   0.0000   0.0000   0.0000   0.0000   0.0000   0.0000   0.0000
     0.0000   0.0000   0.0000   0.0000   0.0000   0.0000   0.0000

          k =-0.2500 0.2500 0.0000 ( 65198 PWs)   bands (ev):

   -92.3394 -92.2838 -92.1930 -92.1444 -92.0873 -92.0458 -92.0282 -91.9032
   -55.6925 -55.6700 -55.5510 -55.5405 -55.5321 -55.5272 -55.4887 -55.4627
   -55.4462 -55.4449 -55.4355 -55.3952 -55.3758 -55.3387 -55.3189 -55.2870
   -55.2799 -55.2344 -55.2315 -55.2310 -55.2230 -55.1773 -55.1590 -55.0705
   -30.9236 -30.9082 -30.7657 -30.7295 -30.6798 -30.6626 -30.5680 -30.5184
   -29.4888 -29.4475 -29.4217 -29.3143 -22.2540 -14.6609 -14.6264 -14.5480
   -14.4303 -14.3253 -14.1987 -14.1071 -13.9052 -13.7783 -13.7611 -13.7310
   -13.7198 -13.6733 -13.6470 -13.6345 -13.6229 -13.5722 -13.4829 -13.4705
   -13.3194 -13.2920 -13.2659 -13.2445 -13.2131 -13.1420 -13.0926 -13.0830
   -12.9822 -12.9531 -12.8727 -12.7948 -12.7515 -12.7023 -12.6864 -12.6568
   -12.6344 -12.6045 -12.5843 -12.5751 -12.5617 -12.5116 -12.4834 -12.4545
   -12.4197 -12.4164 -12.4021 -12.3402 -12.2011 -12.1166 -12.0906 -11.9323
   -11.8176 -11.7659 -11.4413 -11.4195 -11.3926 -11.3802 -11.3394 -11.3046
   -11.2815 -11.2601 -11.2376 -11.1540 -11.1077 -11.0982  -5.8965  -3.1615
    -3.1501  -2.3099  -2.1003  -1.9796  -1.8928  -1.7724  -1.7055  -1.5057
    -1.3573  -1.3380  -1.3118  -1.2182  -1.1836  -1.0907  -1.0579  -1.0315
    -0.8873  -0.8321  -0.7658  -0.7366  -0.6770  -0.6529  -0.6130  -0.5838
    -0.5441  -0.4818  -0.4347  -0.3748  -0.3050  -0.2797  -0.2270  -0.1990
    -0.1543  -0.0983  -0.0578  -0.0120   0.0838   0.1201   0.1289   0.1768
     0.2418   0.3205   0.3544   0.3800   0.4498   0.4774   0.7431   0.9092
     0.9570   0.9944   1.0475   1.0814   1.1490   1.2202   1.2450   1.5281
     1.6457   1.6841   1.7147   1.7232   1.7654   1.7840   1.8278   1.8592
     1.8747   1.9014   1.9413   1.9535   1.9977   2.0141   2.0585   2.1477
     2.1589   2.1796   2.2127   2.2452   2.2809   2.3263   2.4439   2.5579
     2.5883   2.6287   2.6519   2.7176   2.7629   2.7911   2.8147   2.8338
     2.9332   2.9696   3.0297   3.0592   3.0782   3.2413   3.2503   3.2637
     3.2744   3.2841   3.2978   3.3043   3.3221   3.3289   3.3462   3.3555
     3.3684   3.3773   3.3825   3.4150   3.4275   3.4371   3.4703   3.7634
     3.8442   3.9020   3.9663   3.9956   4.1870   4.3208   4.6428   4.7994
     4.9689   5.1335   5.3411   5.5851   5.9285   5.9507   5.9926   6.1268
     6.1975   6.2444   6.3566   6.4037   6.9449   7.0209   7.0929   7.2050
     7.7089   7.8278   7.8405   7.9087   7.9811   8.1674   8.2221   8.2843
     8.3902   8.4884   8.5235   8.6812   8.7247   8.7802   8.9512

     occupation numbers 
     1.0000   1.0000   1.0000   1.0000   1.0000   1.0000   1.0000   1.0000
     1.0000   1.0000   1.0000   1.0000   1.0000   1.0000   1.0000   1.0000
     1.0000   1.0000   1.0000   1.0000   1.0000   1.0000   1.0000   1.0000
     1.0000   1.0000   1.0000   1.0000   1.0000   1.0000   1.0000   1.0000
     1.0000   1.0000   1.0000   1.0000   1.0000   1.0000   1.0000   1.0000
     1.0000   1.0000   1.0000   1.0000   1.0000   1.0000   1.0000   1.0000
     1.0000   1.0000   1.0000   1.0000   1.0000   1.0000   1.0000   1.0000
     1.0000   1.0000   1.0000   1.0000   1.0000   1.0000   1.0000   1.0000
     1.0000   1.0000   1.0000   1.0000   1.0000   1.0000   1.0000   1.0000
     1.0000   1.0000   1.0000   1.0000   1.0000   1.0000   1.0000   1.0000
     1.0000   1.0000   1.0000   1.0000   1.0000   1.0000   1.0000   1.0000
     1.0000   1.0000   1.0000   1.0000   1.0000   1.0000   1.0000   1.0000
     1.0000   1.0000   1.0000   1.0000   1.0000   1.0000   1.0000   1.0000
     1.0000   1.0000   1.0000   1.0000   1.0000   1.0000   1.0000   1.0000
     1.0000   1.0000   1.0000   1.0000   1.0000   1.0000   1.0000   1.0000
     1.0000   1.0000   1.0000   1.0000   1.0000   1.0000   1.0000   1.0000
     1.0000   1.0000   1.0000   1.0000   1.0000   1.0000   1.0000   1.0000
     1.0000   1.0000   1.0000   1.0000   1.0000   1.0000   1.0000   1.0000
     1.0000   1.0000   1.0000   1.0000   1.0000   1.0000   1.0000   1.0000
     1.0000   1.0000   1.0000   1.0000   1.0000   1.0000   1.0000   1.0000
     1.0000   1.0000   1.0000   0.9999   0.9999   0.9999   0.9999   0.9993
     0.9988   0.9985   0.9983   0.9982   0.9978   0.9976   0.9971   0.9967
     0.9964   0.9960   0.9952   0.9950   0.9939   0.9935   0.9922   0.9889
     0.9884   0.9874   0.9857   0.9839   0.9816   0.9783   0.9676   0.9532
     0.9486   0.9420   0.9379   0.9250   0.9150   0.9083   0.9024   0.8974
     0.8685   0.8567   0.8355   0.8244   0.8170   0.7460   0.7417   0.7352
     0.7300   0.7252   0.7184   0.7151   0.7061   0.7026   0.6937   0.6888
     0.6820   0.6772   0.6745   0.6569   0.6501   0.6448   0.6262   0.4549
     0.4078   0.3748   0.3392   0.3234   0.2289   0.1734   0.0779   0.0493
     0.0285   0.0159   0.0070   0.0024   0.0004   0.0004   0.0003   0.0001
     0.0001   0.0001   0.0000   0.0000   0.0000   0.0000   0.0000   0.0000
     0.0000   0.0000   0.0000   0.0000   0.0000   0.0000   0.0000   0.0000
     0.0000   0.0000   0.0000   0.0000   0.0000   0.0000   0.0000

          k =-0.5000 0.2500 0.0000 ( 65138 PWs)   bands (ev):

   -92.3394 -92.2838 -92.1930 -92.1444 -92.0873 -92.0458 -92.0282 -91.9032
   -55.6925 -55.6700 -55.5510 -55.5405 -55.5321 -55.5272 -55.4887 -55.4627
   -55.4462 -55.4449 -55.4355 -55.3952 -55.3758 -55.3387 -55.3189 -55.2870
   -55.2799 -55.2344 -55.2315 -55.2310 -55.2230 -55.1773 -55.1590 -55.0704
   -30.9214 -30.9105 -30.7653 -30.7294 -30.6802 -30.6623 -30.5683 -30.5186
   -29.4878 -29.4486 -29.4213 -29.3147 -22.2540 -14.6270 -14.5849 -14.5054
   -14.4068 -14.3636 -14.2368 -14.1541 -14.0239 -13.7779 -13.7114 -13.6810
   -13.6692 -13.6263 -13.6065 -13.5793 -13.5471 -13.5381 -13.5168 -13.4747
   -13.4628 -13.3684 -13.2833 -13.2445 -13.2323 -13.2223 -13.1295 -13.1163
   -13.0368 -12.9823 -12.8492 -12.8120 -12.7177 -12.6905 -12.6743 -12.6635
   -12.6347 -12.6109 -12.5997 -12.5875 -12.5606 -12.4931 -12.4835 -12.4713
   -12.4165 -12.3948 -12.2707 -12.2632 -12.1878 -12.1266 -11.9727 -11.9709
   -11.8734 -11.8485 -11.4137 -11.4012 -11.3869 -11.3751 -11.3538 -11.3233
   -11.2429 -11.2345 -11.2108 -11.1760 -11.1475 -11.1385  -5.8965  -3.1616
    -3.1501  -2.0828  -2.0406  -1.8913  -1.8491  -1.6900  -1.6151  -1.4705
    -1.3344  -1.2788  -1.2512  -1.2118  -1.1718  -1.0922  -0.9773  -0.9208
    -0.8972  -0.8723  -0.7982  -0.7661  -0.7298  -0.7102  -0.6500  -0.6228
    -0.5818  -0.5466  -0.5180  -0.4610  -0.4343  -0.3921  -0.3589  -0.2557
    -0.2274  -0.1460  -0.0815  -0.0507   0.0050   0.0931   0.1265   0.2278
     0.2666   0.3179   0.3702   0.3899   0.4748   0.4945   0.5264   0.5881
     0.6273   0.9260   0.9997   1.0405   1.0634   1.3675   1.4162   1.4970
     1.5193   1.7009   1.7386   1.7758   1.7911   1.8092   1.8270   1.8957
     1.9372   1.9772   2.0018   2.1290   2.1625   2.1889   2.2023   2.2371
     2.2677   2.2813   2.2935   2.3167   2.3400   2.3821   2.4071   2.4364
     2.4586   2.4867   2.5509   2.6655   2.7753   2.8070   2.8734   2.9127
     2.9710   3.0040   3.0161   3.0326   3.0514   3.0725   3.0940   3.1099
     3.1923   3.2362   3.2488   3.2556   3.2766   3.2995   3.3124   3.3271
     3.3403   3.3594   3.3713   3.3838   3.3910   3.4005   3.4121   3.9325
     3.9813   4.1313   4.1548   4.4135   4.4974   4.5465   4.7446   5.0253
     5.1438   5.2568   5.3566   5.5065   5.6887   5.7807   5.7915   5.9197
     6.0749   6.1085   6.3207   6.4800   6.6068   6.6328   7.1608   7.3056
     7.5203   7.6415   7.9663   8.0706   8.1884   8.2276   8.3336   8.4284
     8.5209   8.5790   8.6690   8.8172   8.8725   8.9166   8.9879

     occupation numbers 
     1.0000   1.0000   1.0000   1.0000   1.0000   1.0000   1.0000   1.0000
     1.0000   1.0000   1.0000   1.0000   1.0000   1.0000   1.0000   1.0000
     1.0000   1.0000   1.0000   1.0000   1.0000   1.0000   1.0000   1.0000
     1.0000   1.0000   1.0000   1.0000   1.0000   1.0000   1.0000   1.0000
     1.0000   1.0000   1.0000   1.0000   1.0000   1.0000   1.0000   1.0000
     1.0000   1.0000   1.0000   1.0000   1.0000   1.0000   1.0000   1.0000
     1.0000   1.0000   1.0000   1.0000   1.0000   1.0000   1.0000   1.0000
     1.0000   1.0000   1.0000   1.0000   1.0000   1.0000   1.0000   1.0000
     1.0000   1.0000   1.0000   1.0000   1.0000   1.0000   1.0000   1.0000
     1.0000   1.0000   1.0000   1.0000   1.0000   1.0000   1.0000   1.0000
     1.0000   1.0000   1.0000   1.0000   1.0000   1.0000   1.0000   1.0000
     1.0000   1.0000   1.0000   1.0000   1.0000   1.0000   1.0000   1.0000
     1.0000   1.0000   1.0000   1.0000   1.0000   1.0000   1.0000   1.0000
     1.0000   1.0000   1.0000   1.0000   1.0000   1.0000   1.0000   1.0000
     1.0000   1.0000   1.0000   1.0000   1.0000   1.0000   1.0000   1.0000
     1.0000   1.0000   1.0000   1.0000   1.0000   1.0000   1.0000   1.0000
     1.0000   1.0000   1.0000   1.0000   1.0000   1.0000   1.0000   1.0000
     1.0000   1.0000   1.0000   1.0000   1.0000   1.0000   1.0000   1.0000
     1.0000   1.0000   1.0000   1.0000   1.0000   1.0000   1.0000   1.0000
     1.0000   1.0000   1.0000   1.0000   1.0000   1.0000   1.0000   1.0000
     1.0000   1.0000   1.0000   1.0000   1.0000   0.9997   0.9996   0.9994
     0.9994   0.9984   0.9981   0.9977   0.9976   0.9974   0.9971   0.9961
     0.9953   0.9944   0.9938   0.9897   0.9882   0.9869   0.9863   0.9843
     0.9825   0.9816   0.9807   0.9791   0.9773   0.9737   0.9713   0.9684
     0.9659   0.9627   0.9542   0.9354   0.9121   0.9044   0.8865   0.8749
     0.8562   0.8448   0.8405   0.8344   0.8274   0.8193   0.8108   0.8043
     0.7688   0.7484   0.7424   0.7392   0.7289   0.7176   0.7110   0.7035
     0.6967   0.6867   0.6804   0.6738   0.6699   0.6648   0.6585   0.3578
     0.3311   0.2547   0.2437   0.1404   0.1144   0.1010   0.0582   0.0235
     0.0153   0.0099   0.0066   0.0034   0.0015   0.0009   0.0009   0.0005
     0.0002   0.0002   0.0000   0.0000   0.0000   0.0000   0.0000   0.0000
     0.0000   0.0000   0.0000   0.0000   0.0000   0.0000   0.0000   0.0000
     0.0000   0.0000   0.0000   0.0000   0.0000   0.0000   0.0000

     the Fermi energy is     3.6871 ev

!    total energy              =   -4482.97370031 Ry
     estimated scf accuracy    <          3.5E-09 Ry
     smearing contrib. (-TS)   =      -1.17245922 Ry
     internal energy E=F+TS    =   -4481.80124109 Ry

     The total energy is F=E-TS. E is the sum of the following terms:
     one-electron contribution =  -20252.88160234 Ry
     hartree contribution      =   10266.09699839 Ry
     xc contribution           =    -701.58337170 Ry
     ewald contribution        =    6492.22227724 Ry
     one-center paw contrib.   =    -285.65554268 Ry
      -> PAW hartree energy AE =      25.15040297 Ry
      -> PAW hartree energy PS =     -25.03448452 Ry
      -> PAW xc energy AE      =     -16.51564622 Ry
      -> PAW xc energy PS      =       6.87504271 Ry
      -> total E_H with PAW    =   10266.21291684 Ry
      -> total E_XC with PAW   =    -711.22397521 Ry

     convergence has been achieved in  54 iterations

     Writing all to output data dir /bsuhome/zayahcortright/scratch/pwscf.save/
 
     init_run     :      8.89s CPU      9.30s WALL (       1 calls)
     electrons    :    840.28s CPU    853.67s WALL (       1 calls)

     Called by init_run:
     wfcinit      :      6.93s CPU      7.18s WALL (       1 calls)
     wfcinit:atom :      0.06s CPU      0.07s WALL (       5 calls)
     wfcinit:wfcr :      6.58s CPU      6.78s WALL (       5 calls)
     potinit      :      0.17s CPU      0.19s WALL (       1 calls)
     hinit0       :      0.91s CPU      0.97s WALL (       1 calls)

     Called by electrons:
     c_bands      :    664.89s CPU    670.16s WALL (      54 calls)
     sum_band     :    130.08s CPU    134.66s WALL (      54 calls)
     v_of_rho     :      6.00s CPU      6.29s WALL (      55 calls)
     v_h          :      0.51s CPU      0.51s WALL (      55 calls)
     v_xc         :      5.49s CPU      5.78s WALL (      55 calls)
     newd         :     23.30s CPU     26.14s WALL (      55 calls)
     PAW_pot      :      1.79s CPU      1.82s WALL (      55 calls)
     mix_rho      :     13.84s CPU     14.13s WALL (      54 calls)

     Called by c_bands:
     init_us_2    :      7.95s CPU      8.00s WALL (     545 calls)
     init_us_2:cp :      7.94s CPU      7.99s WALL (     545 calls)
     cegterg      :    629.02s CPU    634.10s WALL (     270 calls)

     Called by sum_band:
     sum_band:wei :      0.40s CPU      0.40s WALL (      54 calls)
     sum_band:loo :    105.55s CPU    106.29s WALL (      54 calls)
     sum_band:buf :      1.80s CPU      1.82s WALL (     270 calls)
     sum_band:ini :      3.69s CPU      3.70s WALL (     270 calls)
     sum_band:cal :     22.36s CPU     22.43s WALL (     270 calls)
     sum_band:bec :      0.66s CPU      0.67s WALL (     270 calls)
     addusdens    :     19.91s CPU     23.70s WALL (      54 calls)
                                        0.00s GPU  (      54 calls)
     addusd:skk   :      0.41s CPU      0.80s WALL (     216 calls)
                                        0.00s GPU  (     216 calls)

     Called by *egterg:
     cdiaghg      :     68.01s CPU     68.28s WALL (    1546 calls)
     cegterg:over :     45.20s CPU     45.36s WALL (    1276 calls)
     cegterg:upda :     34.70s CPU     35.09s WALL (    1276 calls)
     cegterg:last :     71.95s CPU     72.15s WALL (     502 calls)
     cdiaghg:chol :      4.02s CPU      4.05s WALL (    1546 calls)
     cdiaghg:inve :      4.23s CPU      4.25s WALL (    1546 calls)
     cdiaghg:para :      8.62s CPU      8.67s WALL (    3092 calls)
     h_psi        :    342.37s CPU    345.38s WALL (    1551 calls)
     s_psi        :     48.23s CPU     48.36s WALL (    1551 calls)
     g_psi        :      1.33s CPU      1.34s WALL (    1276 calls)

     Called by h_psi:
     h_psi:calbec :     51.68s CPU     51.86s WALL (    1551 calls)
     vloc_psi     :    239.05s CPU    241.22s WALL (    1551 calls)
     add_vuspsi   :     47.93s CPU     48.16s WALL (    1551 calls)

     General routines
     calbec       :     74.03s CPU     74.28s WALL (    1821 calls)
     fft          :      7.03s CPU      7.09s WALL (     713 calls)
     ffts         :      5.02s CPU      5.05s WALL (    5704 calls)
     fftw         :    201.09s CPU    202.59s WALL (  371276 calls)
     interpolate  :      0.45s CPU      0.45s WALL (      55 calls)
 
     Parallel routines

     PAW routines
     PAW_pot      :      1.79s CPU      1.82s WALL (      55 calls)
 
     PWSCF        :  14m11.12s CPU  14m27.67s WALL

 
   This run was terminated on:  15: 2:33  20Jun2024            

=------------------------------------------------------------------------------=
   JOB DONE.
=------------------------------------------------------------------------------=
