
     Program PWSCF v.7.2 starts on 18Jun2024 at 21:55:46 

     This program is part of the open-source Quantum ESPRESSO suite
     for quantum simulation of materials; please cite
         "P. Giannozzi et al., J. Phys.:Condens. Matter 21 395502 (2009);
         "P. Giannozzi et al., J. Phys.:Condens. Matter 29 465901 (2017);
         "P. Giannozzi et al., J. Chem. Phys. 152 154105 (2020);
          URL http://www.quantum-espresso.org", 
     in publications or presentations arising from this work. More details at
     http://www.quantum-espresso.org/quote

     Parallel version (MPI & OpenMP), running on      48 processor cores
     Number of MPI processes:                48
     Threads/MPI process:                     1

     MPI processes distributed on     1 nodes
     16416 MiB available memory on the printing compute node when the environment starts
 
     Reading input from espresso.pwi
Warning: card &CELL ignored
Warning: card / ignored
Warning: card &FCP ignored
Warning: card / ignored
Warning: card &RISM ignored
Warning: card / ignored

     Current dimensions of program PWSCF are:
     Max number of different atomic species (ntypx) = 10
     Max number of k-points (npk) =  40000
     Max angular momentum in pseudopotentials (lmaxx) =  4
     file O.pbe-n-kjpaw_psl.0.1.UPF: wavefunction(s)  2P renormalized
     signal trapping enabled: kill the code with -SIGUSR1 to stop cleanly the simulation 
 
     K-points division:     npool     =       2
     R & G space division:  proc/nbgrp/npool/nimage =      24
     Subspace diagonalization in iterative solution of the eigenvalue problem:
     one sub-group per band group will be used
     scalapack distributed-memory algorithm (size of sub-group:  3*  3 procs)

 
     Parallelization info
     --------------------
     sticks:   dense  smooth     PW     G-vecs:    dense   smooth      PW
     Min         350     175     47                61430    21716    3036
     Max         351     177     48                61449    21727    3041
     Sum        8421    4205   1137              1474595   521381   72913
 
     Using Slab Decomposition
 


     bravais-lattice index     =            0
     lattice parameter (alat)  =      14.8599  a.u.
     unit-cell volume          =    8305.1283 (a.u.)^3
     number of atoms/cell      =           51
     number of atomic types    =            4
     number of electrons       =       437.00
     number of Kohn-Sham states=          263
     kinetic-energy cutoff     =      60.0000  Ry
     charge density cutoff     =     480.0000  Ry
     scf convergence threshold =      1.0E-08
     mixing beta               =       0.1500
     number of iterations used =            8  local-TF  mixing
     Exchange-correlation= PBE
                           (   1   4   3   4   0   0   0)

     celldm(1)=  14.859904  celldm(2)=   0.000000  celldm(3)=   0.000000
     celldm(4)=   0.000000  celldm(5)=   0.000000  celldm(6)=   0.000000

     crystal axes: (cart. coord. in units of alat)
               a(1) = (   1.000000   0.000000   0.000000 )  
               a(2) = (   0.000000   1.000000   0.000000 )  
               a(3) = (   0.000000   0.000000   2.531036 )  

     reciprocal axes: (cart. coord. in units 2 pi/alat)
               b(1) = (  1.000000  0.000000  0.000000 )  
               b(2) = (  0.000000  1.000000  0.000000 )  
               b(3) = (  0.000000  0.000000  0.395095 )  


     PseudoPot. # 1 for Sr read from file:
     /bsuhome/zayahcortright/q-e/pseudo/Sr_pbe_v1.uspp.F.UPF
     MD5 check sum: 6b418c05fbe9db5448babca5e47b7a5b
     Pseudo is Ultrasoft + core correction, Zval = 10.0
     Generated by new atomic code, or converted to UPF format
     Using radial grid of  883 points,  6 beta functions with: 
                l(1) =   0
                l(2) =   0
                l(3) =   1
                l(4) =   1
                l(5) =   2
                l(6) =   2
     Q(r) pseudized with  6 coefficients,  rinner =    1.400   1.400   1.400
                                                       1.400   1.400

     PseudoPot. # 2 for O  read from file:
     /bsuhome/zayahcortright/q-e/pseudo/O.pbe-n-kjpaw_psl.0.1.UPF
     MD5 check sum: 0234752ac141de4415c5fc33072bef88
     Pseudo is Projector augmented-wave + core cor, Zval =  6.0
     Generated using "atomic" code by A. Dal Corso  v.5.0.99 svn rev. 10869
     Shape of augmentation charge: BESSEL
     Using radial grid of 1095 points,  4 beta functions with: 
                l(1) =   0
                l(2) =   0
                l(3) =   1
                l(4) =   1
     Q(r) pseudized with 0 coefficients 


     PseudoPot. # 3 for Co read from file:
     /bsuhome/zayahcortright/q-e/pseudo/Co_pbe_v1.2.uspp.F.UPF
     MD5 check sum: 5f91765df6ddd3222702df6e7b74a16d
     Pseudo is Ultrasoft + core correction, Zval = 17.0
     Generated by new atomic code, or converted to UPF format
     Using radial grid of  863 points,  6 beta functions with: 
                l(1) =   0
                l(2) =   0
                l(3) =   1
                l(4) =   1
                l(5) =   2
                l(6) =   2
     Q(r) pseudized with  8 coefficients,  rinner =    1.200   1.200   1.200
                                                       1.200   1.200

     PseudoPot. # 4 for H  read from file:
     /bsuhome/zayahcortright/q-e/pseudo/H.pbe-rrkjus_psl.1.0.0.UPF
     MD5 check sum: f52b6d4d1c606e5624b1dc7b2218f220
     Pseudo is Ultrasoft, Zval =  1.0
     Generated using "atomic" code by A. Dal Corso  v.5.1
     Using radial grid of  929 points,  2 beta functions with: 
                l(1) =   0
                l(2) =   0
     Q(r) pseudized with 0 coefficients 


     atomic species   valence    mass     pseudopotential
        Sr            10.00    87.62000     Sr( 1.00)
        O              6.00    15.99900     O ( 1.00)
        Co            17.00    58.93319     Co( 1.00)
        H              1.00     1.00800     H ( 1.00)

     No symmetry found


                                    s                        frac. trans.

      isym =  1     identity                                     

 cryst.   s( 1) = (     1          0          0      )
                  (     0          1          0      )
                  (     0          0          1      )

 cart.    s( 1) = (  1.0000000  0.0000000  0.0000000 )
                  (  0.0000000  1.0000000  0.0000000 )
                  (  0.0000000  0.0000000  1.0000000 )


   Cartesian axes

     site n.     atom                  positions (alat units)
         1           Sr  tau(   1) = (   0.2508693   0.7491307   1.7574407  )
         2           O   tau(   2) = (   0.4985141   0.5014859   1.7715967  )
         3           Sr  tau(   3) = (   0.7482398   0.7454518   1.7648669  )
         4           Sr  tau(   4) = (   0.7441748   0.2558252   1.7667843  )
         5           Sr  tau(   5) = (   0.2508693   0.7491307   1.2696799  )
         6           Sr  tau(   6) = (   0.2508693   0.7491307   0.7632319  )
         7           Co  tau(   7) = (   0.4998914   0.5001086   1.0164559  )
         8           Co  tau(   8) = (   0.4936915   0.5063085   1.5135603  )
         9           O   tau(   9) = (   0.4988895   0.7610401   1.0164559  )
        10           O   tau(  10) = (   0.2389599   0.5011105   1.0164559  )
        11           O   tau(  11) = (   0.0070918   0.7374880   1.0164559  )
        12           O   tau(  12) = (   0.0088340   0.7405089   1.5135603  )
        13           O   tau(  13) = (   0.5066944   0.7415376   1.5135603  )
        14           O   tau(  14) = (   0.2584624   0.4933056   1.5135603  )
        15           O   tau(  15) = (   0.4985141   0.5014859   0.7773880  )
        16           O   tau(  16) = (   0.4985141   0.5014859   1.2555238  )
        17           Sr  tau(  17) = (   0.7482398   0.7454518   0.7706582  )
        18           Sr  tau(  18) = (   0.7482398   0.7454518   1.2622536  )
        19           Sr  tau(  19) = (   0.7441748   0.2558252   0.7725755  )
        20           Sr  tau(  20) = (   0.7441748   0.2558252   1.2603363  )
        21           O   tau(  21) = (   0.7322655   0.0078049   1.5135603  )
        22           O   tau(  22) = (   0.7558175   0.4996027   1.5135603  )
        23           O   tau(  23) = (   0.5003973   0.2441825   1.5135603  )
        24           O   tau(  24) = (   0.7527966   0.4978604   1.0164559  )
        25           O   tau(  25) = (   0.5021396   0.2472034   1.0164559  )
        26           O   tau(  26) = (   0.7517679   0.0000000   1.0164559  )
        27           O   tau(  27) = (   0.0114961   0.4948124   1.7455321  )
        28           O   tau(  28) = (   0.0048226   0.0077944   1.7715967  )
        29           Sr  tau(  29) = (   0.2545482   0.2517602   1.7648669  )
        30           O   tau(  30) = (   0.5048017   0.0015068   1.7786929  )
        31           Co  tau(  31) = (   0.0056869   0.5006215   1.0164559  )
        32           Co  tau(  32) = (   0.0065315   0.4997770   1.5135603  )
        33           Co  tau(  33) = (   0.0061999   0.0064171   1.0164559  )
        34           Co  tau(  34) = (   0.0000000   0.0126169   1.5135603  )
        35           O   tau(  35) = (   0.0114961   0.4948124   1.2815885  )
        36           O   tau(  36) = (   0.0114961   0.4948124   0.7513233  )
        37           O   tau(  37) = (   0.0051979   0.2673486   1.0164559  )
        38           O   tau(  38) = (   0.0130029   0.2478461   1.5135603  )
        39           O   tau(  39) = (   0.0048226   0.0077944   0.7773880  )
        40           O   tau(  40) = (   0.0048226   0.0077944   1.2555238  )
        41           Sr  tau(  41) = (   0.2545482   0.2517602   0.7706582  )
        42           Sr  tau(  42) = (   0.2545482   0.2517602   1.2622536  )
        43           Co  tau(  43) = (   0.4989925   0.0073160   1.5135603  )
        44           Co  tau(  44) = (   0.4998370   0.0064714   1.0164559  )
        45           O   tau(  45) = (   0.5048017   0.0015068   0.7844841  )
        46           O   tau(  46) = (   0.5048017   0.0015068   1.2484277  )
        47           O   tau(  47) = (   0.2621260   0.0059111   1.5135603  )
        48           O   tau(  48) = (   0.2591051   0.0041689   1.0164559  )
        49           O   tau(  49) = (   0.2843291   0.4264937   2.1602013  )
        50           O   tau(  50) = (   0.2843291   0.4264937   2.3186489  )
        51           H   tau(  51) = (   0.2843291   0.4264937   2.4431567  )

   Crystallographic axes

     site n.     atom                  positions (cryst. coord.)
         1           Sr  tau(   1) = (  0.2508693  0.7491307  0.6943562  )
         2           O   tau(   2) = (  0.4985141  0.5014859  0.6999492  )
         3           Sr  tau(   3) = (  0.7482398  0.7454518  0.6972903  )
         4           Sr  tau(   4) = (  0.7441748  0.2558252  0.6980478  )
         5           Sr  tau(   5) = (  0.2508693  0.7491307  0.5016443  )
         6           Sr  tau(   6) = (  0.2508693  0.7491307  0.3015492  )
         7           Co  tau(   7) = (  0.4998914  0.5001086  0.4015968  )
         8           Co  tau(   8) = (  0.4936915  0.5063085  0.5980003  )
         9           O   tau(   9) = (  0.4988895  0.7610401  0.4015968  )
        10           O   tau(  10) = (  0.2389599  0.5011105  0.4015968  )
        11           O   tau(  11) = (  0.0070918  0.7374880  0.4015968  )
        12           O   tau(  12) = (  0.0088340  0.7405089  0.5980003  )
        13           O   tau(  13) = (  0.5066944  0.7415376  0.5980003  )
        14           O   tau(  14) = (  0.2584624  0.4933056  0.5980003  )
        15           O   tau(  15) = (  0.4985141  0.5014859  0.3071422  )
        16           O   tau(  16) = (  0.4985141  0.5014859  0.4960513  )
        17           Sr  tau(  17) = (  0.7482398  0.7454518  0.3044833  )
        18           Sr  tau(  18) = (  0.7482398  0.7454518  0.4987103  )
        19           Sr  tau(  19) = (  0.7441748  0.2558252  0.3052408  )
        20           Sr  tau(  20) = (  0.7441748  0.2558252  0.4979527  )
        21           O   tau(  21) = (  0.7322655  0.0078049  0.5980003  )
        22           O   tau(  22) = (  0.7558175  0.4996027  0.5980003  )
        23           O   tau(  23) = (  0.5003973  0.2441825  0.5980003  )
        24           O   tau(  24) = (  0.7527966  0.4978604  0.4015968  )
        25           O   tau(  25) = (  0.5021396  0.2472034  0.4015968  )
        26           O   tau(  26) = (  0.7517679  0.0000000  0.4015968  )
        27           O   tau(  27) = (  0.0114961  0.4948124  0.6896512  )
        28           O   tau(  28) = (  0.0048226  0.0077944  0.6999492  )
        29           Sr  tau(  29) = (  0.2545482  0.2517602  0.6972903  )
        30           O   tau(  30) = (  0.5048017  0.0015068  0.7027529  )
        31           Co  tau(  31) = (  0.0056869  0.5006215  0.4015968  )
        32           Co  tau(  32) = (  0.0065315  0.4997770  0.5980003  )
        33           Co  tau(  33) = (  0.0061999  0.0064171  0.4015968  )
        34           Co  tau(  34) = (  0.0000000  0.0126169  0.5980003  )
        35           O   tau(  35) = (  0.0114961  0.4948124  0.5063494  )
        36           O   tau(  36) = (  0.0114961  0.4948124  0.2968442  )
        37           O   tau(  37) = (  0.0051979  0.2673486  0.4015968  )
        38           O   tau(  38) = (  0.0130029  0.2478461  0.5980003  )
        39           O   tau(  39) = (  0.0048226  0.0077944  0.3071422  )
        40           O   tau(  40) = (  0.0048226  0.0077944  0.4960513  )
        41           Sr  tau(  41) = (  0.2545482  0.2517602  0.3044833  )
        42           Sr  tau(  42) = (  0.2545482  0.2517602  0.4987103  )
        43           Co  tau(  43) = (  0.4989925  0.0073160  0.5980003  )
        44           Co  tau(  44) = (  0.4998370  0.0064714  0.4015968  )
        45           O   tau(  45) = (  0.5048017  0.0015068  0.3099459  )
        46           O   tau(  46) = (  0.5048017  0.0015068  0.4932477  )
        47           O   tau(  47) = (  0.2621260  0.0059111  0.5980003  )
        48           O   tau(  48) = (  0.2591051  0.0041689  0.4015968  )
        49           O   tau(  49) = (  0.2843291  0.4264937  0.8534850  )
        50           O   tau(  50) = (  0.2843291  0.4264937  0.9160869  )
        51           H   tau(  51) = (  0.2843291  0.4264937  0.9652793  )

     number of k points=    10  Gaussian smearing, width (Ry)=  0.0700
                       cart. coord. in units 2pi/alat
        k(    1) = (   0.0000000   0.0000000   0.0000000), wk =   0.1250000
        k(    2) = (   0.0000000   0.2500000   0.0000000), wk =   0.2500000
        k(    3) = (   0.0000000  -0.5000000   0.0000000), wk =   0.1250000
        k(    4) = (   0.2500000   0.2500000   0.0000000), wk =   0.2500000
        k(    5) = (   0.2500000  -0.5000000   0.0000000), wk =   0.2500000
        k(    6) = (  -0.5000000  -0.5000000   0.0000000), wk =   0.1250000
        k(    7) = (   0.2500000   0.0000000   0.0000000), wk =   0.2500000
        k(    8) = (  -0.5000000   0.0000000   0.0000000), wk =   0.1250000
        k(    9) = (  -0.2500000   0.2500000   0.0000000), wk =   0.2500000
        k(   10) = (  -0.5000000   0.2500000   0.0000000), wk =   0.2500000

                       cryst. coord.
        k(    1) = (   0.0000000   0.0000000   0.0000000), wk =   0.1250000
        k(    2) = (   0.0000000   0.2500000   0.0000000), wk =   0.2500000
        k(    3) = (   0.0000000  -0.5000000   0.0000000), wk =   0.1250000
        k(    4) = (   0.2500000   0.2500000   0.0000000), wk =   0.2500000
        k(    5) = (   0.2500000  -0.5000000   0.0000000), wk =   0.2500000
        k(    6) = (  -0.5000000  -0.5000000   0.0000000), wk =   0.1250000
        k(    7) = (   0.2500000   0.0000000   0.0000000), wk =   0.2500000
        k(    8) = (  -0.5000000   0.0000000   0.0000000), wk =   0.1250000
        k(    9) = (  -0.2500000   0.2500000   0.0000000), wk =   0.2500000
        k(   10) = (  -0.5000000   0.2500000   0.0000000), wk =   0.2500000

     Dense  grid:  1474595 G-vectors     FFT dimensions: ( 108, 108, 270)

     Smooth grid:   521381 G-vectors     FFT dimensions: (  75,  75, 192)

     Dynamical RAM for                 wfc:      10.90 MB

     Dynamical RAM for     wfc (w. buffer):      65.37 MB

     Dynamical RAM for           str. fact:       3.75 MB

     Dynamical RAM for           local pot:       0.00 MB

     Dynamical RAM for          nlocal pot:      24.94 MB

     Dynamical RAM for                qrad:       7.03 MB

     Dynamical RAM for          rho,v,vnew:       6.02 MB

     Dynamical RAM for               rhoin:       2.01 MB

     Dynamical RAM for            rho*nmix:      15.00 MB

     Dynamical RAM for           G-vectors:       3.68 MB

     Dynamical RAM for          h,s,v(r/c):       1.40 MB

     Dynamical RAM for          <psi|beta>:       2.42 MB

     Dynamical RAM for                 psi:      21.79 MB

     Dynamical RAM for                hpsi:      21.79 MB

     Dynamical RAM for                spsi:      21.79 MB

     Dynamical RAM for      wfcinit/wfcrot:      34.89 MB

     Dynamical RAM for           addusdens:     101.73 MB

     Estimated static dynamical RAM per process >     122.82 MB

     Estimated max dynamical RAM per process >     239.55 MB

     Estimated total dynamical RAM >      10.88 GB

     Check: negative core charge=   -0.000004

     Initial potential from superposition of free atoms

     starting charge     428.5961, renormalised to     437.0000

     negative rho (up, down):  7.813E-01 0.000E+00
     Starting wfcs are  381 randomized atomic wfcs
     Checking if some PAW data can be deallocated... 
       PAW data deallocated on   18 nodes for type:  2

     total cpu time spent up to now is        9.0 secs

     Self-consistent Calculation

     iteration #  1     ecut=    60.00 Ry     beta= 0.15
     Davidson diagonalization with overlap

---- Real-time Memory Report at c_bands before calling an iterative solver
             0 MiB given to the printing process from OS
             0 MiB allocation reported by mallinfo(arena+hblkhd)
          6911 MiB available memory on the node where the printing process lives
------------------
     ethr =  1.00E-02,  avg # of iterations =  2.0

     negative rho (up, down):  7.715E-01 0.000E+00

     total cpu time spent up to now is       25.0 secs

     total energy              =   -4489.28018380 Ry
     estimated scf accuracy    <      49.76565705 Ry

     iteration #  2     ecut=    60.00 Ry     beta= 0.15
     Davidson diagonalization with overlap

---- Real-time Memory Report at c_bands before calling an iterative solver
             0 MiB given to the printing process from OS
             0 MiB allocation reported by mallinfo(arena+hblkhd)
          7198 MiB available memory on the node where the printing process lives
------------------
     ethr =  1.00E-02,  avg # of iterations =  1.0

     negative rho (up, down):  7.613E-01 0.000E+00

     total cpu time spent up to now is       38.0 secs

     total energy              =   -4486.81822476 Ry
     estimated scf accuracy    <      35.27635468 Ry

     iteration #  3     ecut=    60.00 Ry     beta= 0.15
     Davidson diagonalization with overlap

---- Real-time Memory Report at c_bands before calling an iterative solver
             0 MiB given to the printing process from OS
             0 MiB allocation reported by mallinfo(arena+hblkhd)
          6402 MiB available memory on the node where the printing process lives
------------------
     ethr =  8.07E-03,  avg # of iterations =  1.0

     negative rho (up, down):  7.562E-01 0.000E+00

     total cpu time spent up to now is       51.2 secs

     total energy              =   -4486.75754607 Ry
     estimated scf accuracy    <      35.09067520 Ry

     iteration #  4     ecut=    60.00 Ry     beta= 0.15
     Davidson diagonalization with overlap

---- Real-time Memory Report at c_bands before calling an iterative solver
             0 MiB given to the printing process from OS
             0 MiB allocation reported by mallinfo(arena+hblkhd)
          6376 MiB available memory on the node where the printing process lives
------------------
     ethr =  8.03E-03,  avg # of iterations =  1.0

     negative rho (up, down):  7.573E-01 0.000E+00

     total cpu time spent up to now is       64.1 secs

     total energy              =   -4486.65368505 Ry
     estimated scf accuracy    <      34.31562495 Ry

     iteration #  5     ecut=    60.00 Ry     beta= 0.15
     Davidson diagonalization with overlap

---- Real-time Memory Report at c_bands before calling an iterative solver
             0 MiB given to the printing process from OS
             0 MiB allocation reported by mallinfo(arena+hblkhd)
          6356 MiB available memory on the node where the printing process lives
------------------
     ethr =  7.85E-03,  avg # of iterations =  1.0

     negative rho (up, down):  7.337E-01 0.000E+00

     total cpu time spent up to now is       77.1 secs

     total energy              =   -4482.83136353 Ry
     estimated scf accuracy    <      23.52722335 Ry

     iteration #  6     ecut=    60.00 Ry     beta= 0.15
     Davidson diagonalization with overlap

---- Real-time Memory Report at c_bands before calling an iterative solver
             0 MiB given to the printing process from OS
             0 MiB allocation reported by mallinfo(arena+hblkhd)
          6341 MiB available memory on the node where the printing process lives
------------------
     ethr =  5.38E-03,  avg # of iterations =  2.0

     negative rho (up, down):  7.476E-01 0.000E+00

     total cpu time spent up to now is       91.3 secs

     total energy              =   -4484.09694337 Ry
     estimated scf accuracy    <      44.11055793 Ry

     iteration #  7     ecut=    60.00 Ry     beta= 0.15
     Davidson diagonalization with overlap

---- Real-time Memory Report at c_bands before calling an iterative solver
             0 MiB given to the printing process from OS
             0 MiB allocation reported by mallinfo(arena+hblkhd)
          6313 MiB available memory on the node where the printing process lives
------------------
     ethr =  5.38E-03,  avg # of iterations =  1.0

     negative rho (up, down):  7.533E-01 0.000E+00

     total cpu time spent up to now is      104.1 secs

     total energy              =   -4483.38770651 Ry
     estimated scf accuracy    <      44.55210190 Ry

     iteration #  8     ecut=    60.00 Ry     beta= 0.15
     Davidson diagonalization with overlap

---- Real-time Memory Report at c_bands before calling an iterative solver
             0 MiB given to the printing process from OS
             0 MiB allocation reported by mallinfo(arena+hblkhd)
          6296 MiB available memory on the node where the printing process lives
------------------
     ethr =  5.38E-03,  avg # of iterations =  1.0

     negative rho (up, down):  7.507E-01 0.000E+00

     total cpu time spent up to now is      117.4 secs

     total energy              =   -4483.84351300 Ry
     estimated scf accuracy    <       6.01308821 Ry

     iteration #  9     ecut=    60.00 Ry     beta= 0.15
     Davidson diagonalization with overlap

---- Real-time Memory Report at c_bands before calling an iterative solver
             0 MiB given to the printing process from OS
             0 MiB allocation reported by mallinfo(arena+hblkhd)
          6279 MiB available memory on the node where the printing process lives
------------------
     ethr =  1.38E-03,  avg # of iterations =  4.6

     negative rho (up, down):  7.636E-01 0.000E+00

     total cpu time spent up to now is      133.2 secs

     total energy              =   -4483.73179071 Ry
     estimated scf accuracy    <       3.53063557 Ry

     iteration # 10     ecut=    60.00 Ry     beta= 0.15
     Davidson diagonalization with overlap

---- Real-time Memory Report at c_bands before calling an iterative solver
             0 MiB given to the printing process from OS
             0 MiB allocation reported by mallinfo(arena+hblkhd)
          6224 MiB available memory on the node where the printing process lives
------------------
     ethr =  8.08E-04,  avg # of iterations = 11.2

     negative rho (up, down):  7.806E-01 0.000E+00

     total cpu time spent up to now is      152.7 secs

     total energy              =   -4483.52904695 Ry
     estimated scf accuracy    <       4.39119306 Ry

     iteration # 11     ecut=    60.00 Ry     beta= 0.15
     Davidson diagonalization with overlap

---- Real-time Memory Report at c_bands before calling an iterative solver
             0 MiB given to the printing process from OS
             0 MiB allocation reported by mallinfo(arena+hblkhd)
          5916 MiB available memory on the node where the printing process lives
------------------
     ethr =  8.08E-04,  avg # of iterations =  6.8

     negative rho (up, down):  7.886E-01 0.000E+00

     total cpu time spent up to now is      169.7 secs

     total energy              =   -4483.32953512 Ry
     estimated scf accuracy    <       4.08491073 Ry

     iteration # 12     ecut=    60.00 Ry     beta= 0.15
     Davidson diagonalization with overlap

---- Real-time Memory Report at c_bands before calling an iterative solver
             0 MiB given to the printing process from OS
             0 MiB allocation reported by mallinfo(arena+hblkhd)
          5844 MiB available memory on the node where the printing process lives
------------------
     ethr =  8.08E-04,  avg # of iterations =  8.7

     negative rho (up, down):  8.003E-01 0.000E+00

     total cpu time spent up to now is      187.5 secs

     total energy              =   -4483.18590545 Ry
     estimated scf accuracy    <       2.22801333 Ry

     iteration # 13     ecut=    60.00 Ry     beta= 0.15
     Davidson diagonalization with overlap

---- Real-time Memory Report at c_bands before calling an iterative solver
             0 MiB given to the printing process from OS
             0 MiB allocation reported by mallinfo(arena+hblkhd)
          5780 MiB available memory on the node where the printing process lives
------------------
     ethr =  5.10E-04,  avg # of iterations =  2.0

     negative rho (up, down):  7.980E-01 0.000E+00

     total cpu time spent up to now is      202.5 secs

     total energy              =   -4483.29745116 Ry
     estimated scf accuracy    <       1.92389283 Ry

     iteration # 14     ecut=    60.00 Ry     beta= 0.15
     Davidson diagonalization with overlap

---- Real-time Memory Report at c_bands before calling an iterative solver
             0 MiB given to the printing process from OS
             0 MiB allocation reported by mallinfo(arena+hblkhd)
          5796 MiB available memory on the node where the printing process lives
------------------
     ethr =  4.40E-04,  avg # of iterations =  1.1

     negative rho (up, down):  8.060E-01 0.000E+00

     total cpu time spent up to now is      216.1 secs

     total energy              =   -4483.23436471 Ry
     estimated scf accuracy    <       0.96569182 Ry

     iteration # 15     ecut=    60.00 Ry     beta= 0.15
     Davidson diagonalization with overlap

---- Real-time Memory Report at c_bands before calling an iterative solver
             0 MiB given to the printing process from OS
             0 MiB allocation reported by mallinfo(arena+hblkhd)
          5838 MiB available memory on the node where the printing process lives
------------------
     ethr =  2.21E-04,  avg # of iterations =  8.2

     negative rho (up, down):  8.129E-01 0.000E+00

     total cpu time spent up to now is      234.1 secs

     total energy              =   -4483.15213095 Ry
     estimated scf accuracy    <       1.15576986 Ry

     iteration # 16     ecut=    60.00 Ry     beta= 0.15
     Davidson diagonalization with overlap

---- Real-time Memory Report at c_bands before calling an iterative solver
             0 MiB given to the printing process from OS
             0 MiB allocation reported by mallinfo(arena+hblkhd)
          5800 MiB available memory on the node where the printing process lives
------------------
     ethr =  2.21E-04,  avg # of iterations =  3.0

     negative rho (up, down):  8.171E-01 0.000E+00

     total cpu time spent up to now is      249.3 secs

     total energy              =   -4483.11310808 Ry
     estimated scf accuracy    <       1.39456092 Ry

     iteration # 17     ecut=    60.00 Ry     beta= 0.15
     Davidson diagonalization with overlap

---- Real-time Memory Report at c_bands before calling an iterative solver
             0 MiB given to the printing process from OS
             0 MiB allocation reported by mallinfo(arena+hblkhd)
          5800 MiB available memory on the node where the printing process lives
------------------
     ethr =  2.21E-04,  avg # of iterations =  6.3

     negative rho (up, down):  8.193E-01 0.000E+00

     total cpu time spent up to now is      266.1 secs

     total energy              =   -4483.09424241 Ry
     estimated scf accuracy    <       0.38329756 Ry

     iteration # 18     ecut=    60.00 Ry     beta= 0.15
     Davidson diagonalization with overlap

---- Real-time Memory Report at c_bands before calling an iterative solver
             0 MiB given to the printing process from OS
             0 MiB allocation reported by mallinfo(arena+hblkhd)
          5790 MiB available memory on the node where the printing process lives
------------------
     ethr =  8.77E-05,  avg # of iterations = 11.0

     negative rho (up, down):  8.186E-01 0.000E+00

     total cpu time spent up to now is      284.5 secs

     total energy              =   -4483.06324585 Ry
     estimated scf accuracy    <       0.51238507 Ry

     iteration # 19     ecut=    60.00 Ry     beta= 0.15
     Davidson diagonalization with overlap

---- Real-time Memory Report at c_bands before calling an iterative solver
             0 MiB given to the printing process from OS
             0 MiB allocation reported by mallinfo(arena+hblkhd)
          5766 MiB available memory on the node where the printing process lives
------------------
     ethr =  8.77E-05,  avg # of iterations =  6.6

     negative rho (up, down):  8.294E-01 0.000E+00

     total cpu time spent up to now is      300.9 secs

     total energy              =   -4483.02724327 Ry
     estimated scf accuracy    <       0.43870872 Ry

     iteration # 20     ecut=    60.00 Ry     beta= 0.15
     Davidson diagonalization with overlap

---- Real-time Memory Report at c_bands before calling an iterative solver
             0 MiB given to the printing process from OS
             0 MiB allocation reported by mallinfo(arena+hblkhd)
          5763 MiB available memory on the node where the printing process lives
------------------
     ethr =  8.77E-05,  avg # of iterations =  8.7

     negative rho (up, down):  8.263E-01 0.000E+00

     total cpu time spent up to now is      318.4 secs

     total energy              =   -4482.99997218 Ry
     estimated scf accuracy    <       0.25336521 Ry

     iteration # 21     ecut=    60.00 Ry     beta= 0.15
     Davidson diagonalization with overlap

---- Real-time Memory Report at c_bands before calling an iterative solver
             0 MiB given to the printing process from OS
             0 MiB allocation reported by mallinfo(arena+hblkhd)
          5746 MiB available memory on the node where the printing process lives
------------------
     ethr =  5.80E-05,  avg # of iterations =  8.4

     negative rho (up, down):  8.464E-01 0.000E+00

     total cpu time spent up to now is      335.9 secs

     total energy              =   -4482.98324614 Ry
     estimated scf accuracy    <       0.26790780 Ry

     iteration # 22     ecut=    60.00 Ry     beta= 0.15
     Davidson diagonalization with overlap

---- Real-time Memory Report at c_bands before calling an iterative solver
             0 MiB given to the printing process from OS
             0 MiB allocation reported by mallinfo(arena+hblkhd)
          5714 MiB available memory on the node where the printing process lives
------------------
     ethr =  5.80E-05,  avg # of iterations =  7.2

     negative rho (up, down):  8.349E-01 0.000E+00

     total cpu time spent up to now is      352.9 secs

     total energy              =   -4482.98236971 Ry
     estimated scf accuracy    <       0.07241403 Ry

     iteration # 23     ecut=    60.00 Ry     beta= 0.15
     Davidson diagonalization with overlap

---- Real-time Memory Report at c_bands before calling an iterative solver
             0 MiB given to the printing process from OS
             0 MiB allocation reported by mallinfo(arena+hblkhd)
          5698 MiB available memory on the node where the printing process lives
------------------
     ethr =  1.66E-05,  avg # of iterations =  7.8

     negative rho (up, down):  8.302E-01 0.000E+00

     total cpu time spent up to now is      370.4 secs

     total energy              =   -4482.97858314 Ry
     estimated scf accuracy    <       0.03648163 Ry

     iteration # 24     ecut=    60.00 Ry     beta= 0.15
     Davidson diagonalization with overlap

---- Real-time Memory Report at c_bands before calling an iterative solver
             0 MiB given to the printing process from OS
             0 MiB allocation reported by mallinfo(arena+hblkhd)
          5642 MiB available memory on the node where the printing process lives
------------------
     ethr =  8.35E-06,  avg # of iterations = 12.2

     negative rho (up, down):  8.188E-01 0.000E+00

     total cpu time spent up to now is      391.0 secs

     total energy              =   -4482.97829295 Ry
     estimated scf accuracy    <       0.01667787 Ry

     iteration # 25     ecut=    60.00 Ry     beta= 0.15
     Davidson diagonalization with overlap

---- Real-time Memory Report at c_bands before calling an iterative solver
             0 MiB given to the printing process from OS
             0 MiB allocation reported by mallinfo(arena+hblkhd)
          5566 MiB available memory on the node where the printing process lives
------------------
     ethr =  3.82E-06,  avg # of iterations =  4.2

     negative rho (up, down):  8.051E-01 0.000E+00

     total cpu time spent up to now is      407.4 secs

     total energy              =   -4482.97659997 Ry
     estimated scf accuracy    <       0.01285425 Ry

     iteration # 26     ecut=    60.00 Ry     beta= 0.15
     Davidson diagonalization with overlap

---- Real-time Memory Report at c_bands before calling an iterative solver
             0 MiB given to the printing process from OS
             0 MiB allocation reported by mallinfo(arena+hblkhd)
          5576 MiB available memory on the node where the printing process lives
------------------
     ethr =  2.94E-06,  avg # of iterations =  8.5

     negative rho (up, down):  7.952E-01 0.000E+00

     total cpu time spent up to now is      425.9 secs

     total energy              =   -4482.97528394 Ry
     estimated scf accuracy    <       0.00734698 Ry

     iteration # 27     ecut=    60.00 Ry     beta= 0.15
     Davidson diagonalization with overlap

---- Real-time Memory Report at c_bands before calling an iterative solver
             0 MiB given to the printing process from OS
             0 MiB allocation reported by mallinfo(arena+hblkhd)
          5583 MiB available memory on the node where the printing process lives
------------------
     ethr =  1.68E-06,  avg # of iterations = 10.2

     negative rho (up, down):  7.951E-01 0.000E+00

     total cpu time spent up to now is      446.2 secs

     total energy              =   -4482.97537658 Ry
     estimated scf accuracy    <       0.00273346 Ry

     iteration # 28     ecut=    60.00 Ry     beta= 0.15
     Davidson diagonalization with overlap

---- Real-time Memory Report at c_bands before calling an iterative solver
             0 MiB given to the printing process from OS
             0 MiB allocation reported by mallinfo(arena+hblkhd)
          5562 MiB available memory on the node where the printing process lives
------------------
     ethr =  6.26E-07,  avg # of iterations =  3.3

     negative rho (up, down):  7.957E-01 0.000E+00

     total cpu time spent up to now is      462.0 secs

     total energy              =   -4482.97545286 Ry
     estimated scf accuracy    <       0.00123269 Ry

     iteration # 29     ecut=    60.00 Ry     beta= 0.15
     Davidson diagonalization with overlap

---- Real-time Memory Report at c_bands before calling an iterative solver
             0 MiB given to the printing process from OS
             0 MiB allocation reported by mallinfo(arena+hblkhd)
          5547 MiB available memory on the node where the printing process lives
------------------
     ethr =  2.82E-07,  avg # of iterations =  6.8

     negative rho (up, down):  7.957E-01 0.000E+00

     total cpu time spent up to now is      479.2 secs

     total energy              =   -4482.97536356 Ry
     estimated scf accuracy    <       0.00073540 Ry

     iteration # 30     ecut=    60.00 Ry     beta= 0.15
     Davidson diagonalization with overlap

---- Real-time Memory Report at c_bands before calling an iterative solver
             0 MiB given to the printing process from OS
             0 MiB allocation reported by mallinfo(arena+hblkhd)
          5524 MiB available memory on the node where the printing process lives
------------------
     ethr =  1.68E-07,  avg # of iterations =  7.5

     negative rho (up, down):  7.953E-01 0.000E+00

     total cpu time spent up to now is      496.6 secs

     total energy              =   -4482.97531187 Ry
     estimated scf accuracy    <       0.00043766 Ry

     iteration # 31     ecut=    60.00 Ry     beta= 0.15
     Davidson diagonalization with overlap

---- Real-time Memory Report at c_bands before calling an iterative solver
             0 MiB given to the printing process from OS
             0 MiB allocation reported by mallinfo(arena+hblkhd)
          5499 MiB available memory on the node where the printing process lives
------------------
     ethr =  1.00E-07,  avg # of iterations =  5.5

     negative rho (up, down):  7.916E-01 0.000E+00

     total cpu time spent up to now is      513.1 secs

     total energy              =   -4482.97526266 Ry
     estimated scf accuracy    <       0.00030613 Ry

     iteration # 32     ecut=    60.00 Ry     beta= 0.15
     Davidson diagonalization with overlap

---- Real-time Memory Report at c_bands before calling an iterative solver
             0 MiB given to the printing process from OS
             0 MiB allocation reported by mallinfo(arena+hblkhd)
          5490 MiB available memory on the node where the printing process lives
------------------
     c_bands:  1 eigenvalues not converged
     ethr =  7.01E-08,  avg # of iterations =  8.6

     negative rho (up, down):  7.915E-01 0.000E+00

     total cpu time spent up to now is      530.9 secs

     total energy              =   -4482.97526128 Ry
     estimated scf accuracy    <       0.00013661 Ry

     iteration # 33     ecut=    60.00 Ry     beta= 0.15
     Davidson diagonalization with overlap

---- Real-time Memory Report at c_bands before calling an iterative solver
             0 MiB given to the printing process from OS
             0 MiB allocation reported by mallinfo(arena+hblkhd)
          5522 MiB available memory on the node where the printing process lives
------------------
     ethr =  3.13E-08,  avg # of iterations =  7.4

     negative rho (up, down):  7.916E-01 0.000E+00

     total cpu time spent up to now is      548.3 secs

     total energy              =   -4482.97525786 Ry
     estimated scf accuracy    <       0.00007353 Ry

     iteration # 34     ecut=    60.00 Ry     beta= 0.15
     Davidson diagonalization with overlap

---- Real-time Memory Report at c_bands before calling an iterative solver
             0 MiB given to the printing process from OS
             0 MiB allocation reported by mallinfo(arena+hblkhd)
          5529 MiB available memory on the node where the printing process lives
------------------
     ethr =  1.68E-08,  avg # of iterations =  2.5

     negative rho (up, down):  7.919E-01 0.000E+00

     total cpu time spent up to now is      563.2 secs

     total energy              =   -4482.97525221 Ry
     estimated scf accuracy    <       0.00004360 Ry

     iteration # 35     ecut=    60.00 Ry     beta= 0.15
     Davidson diagonalization with overlap

---- Real-time Memory Report at c_bands before calling an iterative solver
             0 MiB given to the printing process from OS
             0 MiB allocation reported by mallinfo(arena+hblkhd)
          5537 MiB available memory on the node where the printing process lives
------------------
     ethr =  9.98E-09,  avg # of iterations =  4.0

     negative rho (up, down):  7.920E-01 0.000E+00

     total cpu time spent up to now is      578.8 secs

     total energy              =   -4482.97525418 Ry
     estimated scf accuracy    <       0.00001841 Ry

     iteration # 36     ecut=    60.00 Ry     beta= 0.15
     Davidson diagonalization with overlap

---- Real-time Memory Report at c_bands before calling an iterative solver
             0 MiB given to the printing process from OS
             0 MiB allocation reported by mallinfo(arena+hblkhd)
          5548 MiB available memory on the node where the printing process lives
------------------
     ethr =  4.21E-09,  avg # of iterations =  2.3

     negative rho (up, down):  7.921E-01 0.000E+00

     total cpu time spent up to now is      593.7 secs

     total energy              =   -4482.97525743 Ry
     estimated scf accuracy    <       0.00001092 Ry

     iteration # 37     ecut=    60.00 Ry     beta= 0.15
     Davidson diagonalization with overlap

---- Real-time Memory Report at c_bands before calling an iterative solver
             0 MiB given to the printing process from OS
             0 MiB allocation reported by mallinfo(arena+hblkhd)
          5622 MiB available memory on the node where the printing process lives
------------------
     ethr =  2.50E-09,  avg # of iterations =  3.5

     negative rho (up, down):  7.923E-01 0.000E+00

     total cpu time spent up to now is      608.8 secs

     total energy              =   -4482.97526071 Ry
     estimated scf accuracy    <       0.00000701 Ry

     iteration # 38     ecut=    60.00 Ry     beta= 0.15
     Davidson diagonalization with overlap

---- Real-time Memory Report at c_bands before calling an iterative solver
             0 MiB given to the printing process from OS
             0 MiB allocation reported by mallinfo(arena+hblkhd)
          5610 MiB available memory on the node where the printing process lives
------------------
     ethr =  1.60E-09,  avg # of iterations =  4.2

     negative rho (up, down):  7.924E-01 0.000E+00

     total cpu time spent up to now is      624.7 secs

     total energy              =   -4482.97526208 Ry
     estimated scf accuracy    <       0.00000443 Ry

     iteration # 39     ecut=    60.00 Ry     beta= 0.15
     Davidson diagonalization with overlap

---- Real-time Memory Report at c_bands before calling an iterative solver
             0 MiB given to the printing process from OS
             0 MiB allocation reported by mallinfo(arena+hblkhd)
          5634 MiB available memory on the node where the printing process lives
------------------
     ethr =  1.01E-09,  avg # of iterations =  3.6

     negative rho (up, down):  7.924E-01 0.000E+00

     total cpu time spent up to now is      639.9 secs

     total energy              =   -4482.97526203 Ry
     estimated scf accuracy    <       0.00000254 Ry

     iteration # 40     ecut=    60.00 Ry     beta= 0.15
     Davidson diagonalization with overlap

---- Real-time Memory Report at c_bands before calling an iterative solver
             0 MiB given to the printing process from OS
             0 MiB allocation reported by mallinfo(arena+hblkhd)
          5631 MiB available memory on the node where the printing process lives
------------------
     ethr =  5.81E-10,  avg # of iterations =  3.3

     negative rho (up, down):  7.924E-01 0.000E+00

     total cpu time spent up to now is      654.9 secs

     total energy              =   -4482.97526202 Ry
     estimated scf accuracy    <       0.00000247 Ry

     iteration # 41     ecut=    60.00 Ry     beta= 0.15
     Davidson diagonalization with overlap

---- Real-time Memory Report at c_bands before calling an iterative solver
             0 MiB given to the printing process from OS
             0 MiB allocation reported by mallinfo(arena+hblkhd)
          5633 MiB available memory on the node where the printing process lives
------------------
     ethr =  5.64E-10,  avg # of iterations =  2.4

     negative rho (up, down):  7.923E-01 0.000E+00

     total cpu time spent up to now is      669.5 secs

     total energy              =   -4482.97526254 Ry
     estimated scf accuracy    <       0.00000228 Ry

     iteration # 42     ecut=    60.00 Ry     beta= 0.15
     Davidson diagonalization with overlap

---- Real-time Memory Report at c_bands before calling an iterative solver
             0 MiB given to the printing process from OS
             0 MiB allocation reported by mallinfo(arena+hblkhd)
          5635 MiB available memory on the node where the printing process lives
------------------
     ethr =  5.21E-10,  avg # of iterations =  3.6

     negative rho (up, down):  7.923E-01 0.000E+00

     total cpu time spent up to now is      684.9 secs

     total energy              =   -4482.97526265 Ry
     estimated scf accuracy    <       0.00000154 Ry

     iteration # 43     ecut=    60.00 Ry     beta= 0.15
     Davidson diagonalization with overlap

---- Real-time Memory Report at c_bands before calling an iterative solver
             0 MiB given to the printing process from OS
             0 MiB allocation reported by mallinfo(arena+hblkhd)
          5633 MiB available memory on the node where the printing process lives
------------------
     ethr =  3.53E-10,  avg # of iterations =  2.8

     negative rho (up, down):  7.923E-01 0.000E+00

     total cpu time spent up to now is      699.8 secs

     total energy              =   -4482.97526263 Ry
     estimated scf accuracy    <       0.00000127 Ry

     iteration # 44     ecut=    60.00 Ry     beta= 0.15
     Davidson diagonalization with overlap

---- Real-time Memory Report at c_bands before calling an iterative solver
             0 MiB given to the printing process from OS
             0 MiB allocation reported by mallinfo(arena+hblkhd)
          5636 MiB available memory on the node where the printing process lives
------------------
     ethr =  2.90E-10,  avg # of iterations =  1.0

     negative rho (up, down):  7.923E-01 0.000E+00

     total cpu time spent up to now is      713.0 secs

     total energy              =   -4482.97526256 Ry
     estimated scf accuracy    <       0.00000109 Ry

     iteration # 45     ecut=    60.00 Ry     beta= 0.15
     Davidson diagonalization with overlap

---- Real-time Memory Report at c_bands before calling an iterative solver
             0 MiB given to the printing process from OS
             0 MiB allocation reported by mallinfo(arena+hblkhd)
          5634 MiB available memory on the node where the printing process lives
------------------
     ethr =  2.49E-10,  avg # of iterations =  3.3

     negative rho (up, down):  7.923E-01 0.000E+00

     total cpu time spent up to now is      728.1 secs

     total energy              =   -4482.97526280 Ry
     estimated scf accuracy    <       0.00000064 Ry

     iteration # 46     ecut=    60.00 Ry     beta= 0.15
     Davidson diagonalization with overlap

---- Real-time Memory Report at c_bands before calling an iterative solver
             0 MiB given to the printing process from OS
             0 MiB allocation reported by mallinfo(arena+hblkhd)
          5634 MiB available memory on the node where the printing process lives
------------------
     ethr =  1.47E-10,  avg # of iterations =  4.0

     negative rho (up, down):  7.923E-01 0.000E+00

     total cpu time spent up to now is      743.5 secs

     total energy              =   -4482.97526293 Ry
     estimated scf accuracy    <       0.00000046 Ry

     iteration # 47     ecut=    60.00 Ry     beta= 0.15
     Davidson diagonalization with overlap

---- Real-time Memory Report at c_bands before calling an iterative solver
             0 MiB given to the printing process from OS
             0 MiB allocation reported by mallinfo(arena+hblkhd)
          5635 MiB available memory on the node where the printing process lives
------------------
     ethr =  1.05E-10,  avg # of iterations =  5.3

     negative rho (up, down):  7.923E-01 0.000E+00

     total cpu time spent up to now is      759.5 secs

     total energy              =   -4482.97526299 Ry
     estimated scf accuracy    <       0.00000026 Ry

     iteration # 48     ecut=    60.00 Ry     beta= 0.15
     Davidson diagonalization with overlap

---- Real-time Memory Report at c_bands before calling an iterative solver
             0 MiB given to the printing process from OS
             0 MiB allocation reported by mallinfo(arena+hblkhd)
          5633 MiB available memory on the node where the printing process lives
------------------
     ethr =  6.04E-11,  avg # of iterations =  5.3

     negative rho (up, down):  7.923E-01 0.000E+00

     total cpu time spent up to now is      775.5 secs

     total energy              =   -4482.97526304 Ry
     estimated scf accuracy    <       0.00000016 Ry

     iteration # 49     ecut=    60.00 Ry     beta= 0.15
     Davidson diagonalization with overlap

---- Real-time Memory Report at c_bands before calling an iterative solver
             0 MiB given to the printing process from OS
             0 MiB allocation reported by mallinfo(arena+hblkhd)
          5634 MiB available memory on the node where the printing process lives
------------------
     ethr =  3.57E-11,  avg # of iterations =  4.6

     negative rho (up, down):  7.923E-01 0.000E+00

     total cpu time spent up to now is      791.1 secs

     total energy              =   -4482.97526310 Ry
     estimated scf accuracy    <       0.00000011 Ry

     iteration # 50     ecut=    60.00 Ry     beta= 0.15
     Davidson diagonalization with overlap

---- Real-time Memory Report at c_bands before calling an iterative solver
             0 MiB given to the printing process from OS
             0 MiB allocation reported by mallinfo(arena+hblkhd)
          5636 MiB available memory on the node where the printing process lives
------------------
     ethr =  2.55E-11,  avg # of iterations =  4.0

     negative rho (up, down):  7.923E-01 0.000E+00

     total cpu time spent up to now is      806.6 secs

     total energy              =   -4482.97526314 Ry
     estimated scf accuracy    <       0.00000007 Ry

     iteration # 51     ecut=    60.00 Ry     beta= 0.15
     Davidson diagonalization with overlap

---- Real-time Memory Report at c_bands before calling an iterative solver
             0 MiB given to the printing process from OS
             0 MiB allocation reported by mallinfo(arena+hblkhd)
          5636 MiB available memory on the node where the printing process lives
------------------
     ethr =  1.54E-11,  avg # of iterations =  4.8

     negative rho (up, down):  7.923E-01 0.000E+00

     total cpu time spent up to now is      822.5 secs

     total energy              =   -4482.97526316 Ry
     estimated scf accuracy    <       0.00000002 Ry

     iteration # 52     ecut=    60.00 Ry     beta= 0.15
     Davidson diagonalization with overlap

---- Real-time Memory Report at c_bands before calling an iterative solver
             0 MiB given to the printing process from OS
             0 MiB allocation reported by mallinfo(arena+hblkhd)
          5637 MiB available memory on the node where the printing process lives
------------------
     ethr =  4.51E-12,  avg # of iterations =  4.3

     negative rho (up, down):  7.923E-01 0.000E+00

     total cpu time spent up to now is      838.0 secs

     End of self-consistent calculation

          k = 0.0000 0.0000 0.0000 ( 65197 PWs)   bands (ev):

   -92.3428 -92.2887 -92.1968 -92.1477 -92.0909 -92.0493 -92.0317 -91.9076
   -55.6959 -55.6750 -55.5547 -55.5439 -55.5360 -55.5306 -55.4930 -55.4664
   -55.4497 -55.4484 -55.4402 -55.3987 -55.3790 -55.3424 -55.3229 -55.2906
   -55.2829 -55.2380 -55.2357 -55.2350 -55.2265 -55.1816 -55.1625 -55.0743
   -30.9300 -30.9108 -30.8335 -30.7697 -30.7298 -30.6832 -30.5660 -30.3465
   -29.4948 -29.4506 -29.4251 -29.3163 -22.2556 -14.7277 -14.6884 -14.6056
   -14.4748 -14.2902 -14.1664 -13.8687 -13.8519 -13.8191 -13.7806 -13.7778
   -13.7338 -13.7242 -13.7121 -13.6939 -13.6755 -13.6450 -13.5779 -13.4296
   -13.2557 -13.2181 -13.1860 -13.1579 -13.1392 -13.0935 -13.0546 -12.9768
   -12.9043 -12.8372 -12.8171 -12.7628 -12.7524 -12.7281 -12.7120 -12.7030
   -12.6677 -12.6486 -12.6318 -12.6204 -12.6052 -12.5780 -12.5682 -12.5535
   -12.5045 -12.4802 -12.4683 -12.3046 -12.2953 -12.2862 -11.9950 -11.8502
   -11.7104 -11.6342 -11.5081 -11.4338 -11.4225 -11.4000 -11.3823 -11.3184
   -11.3012 -11.2665 -11.2381 -11.1258 -11.0456 -11.0421  -5.9094  -3.1607
    -3.1543  -2.5879  -2.3547  -2.1251  -1.9788  -1.9148  -1.7721  -1.4655
    -1.4512  -1.4306  -1.3475  -1.3297  -1.2616  -1.2455  -1.2033  -1.1596
    -0.9784  -0.7558  -0.7250  -0.5761  -0.5624  -0.5180  -0.5000  -0.4561
    -0.4406  -0.3797  -0.3533  -0.2836  -0.2731  -0.1924  -0.0660  -0.0519
    -0.0221   0.0599   0.0767   0.0812   0.1441   0.2244   0.2562   0.3158
     0.3385   0.4001   0.4706   0.5335   0.5497   0.5640   0.8176   0.8325
     1.0005   1.0743   1.1361   1.1759   1.2698   1.2835   1.2974   1.3713
     1.4001   1.4339   1.4934   1.6280   1.6799   1.7016   1.7198   1.7317
     1.7983   1.8777   1.9725   1.9862   2.0409   2.0654   2.1027   2.1222
     2.1314   2.1869   2.2411   2.2459   2.2765   2.3056   2.3762   2.5053
     2.5912   2.6348   2.6426   2.7959   2.8104   2.8623   2.8694   2.9686
     3.0098   3.0281   3.0368   3.0514   3.0646   3.0754   3.1486   3.2599
     3.2940   3.3069   3.3137   3.3800   3.3842   3.4082   3.4172   3.4246
     3.4328   3.4436   3.4560   3.4627   3.4751   3.4841   3.4925   3.5124
     3.5337   3.5386   3.5508   3.5704   3.6919   3.7402   4.4176   4.7575
     4.7854   5.1374   5.3863   5.4717   5.7118   6.2798   6.3220   6.3448
     6.6173   6.6379   6.6706   6.7189   6.9595   7.1622   7.2326   7.3645
     7.5693   7.6494   7.8303   7.8964   7.9369   7.9480   7.9894   8.0534
     8.3010   8.3554   8.3880   8.4290   8.5098   8.5477   8.6819

     occupation numbers 
     1.0000   1.0000   1.0000   1.0000   1.0000   1.0000   1.0000   1.0000
     1.0000   1.0000   1.0000   1.0000   1.0000   1.0000   1.0000   1.0000
     1.0000   1.0000   1.0000   1.0000   1.0000   1.0000   1.0000   1.0000
     1.0000   1.0000   1.0000   1.0000   1.0000   1.0000   1.0000   1.0000
     1.0000   1.0000   1.0000   1.0000   1.0000   1.0000   1.0000   1.0000
     1.0000   1.0000   1.0000   1.0000   1.0000   1.0000   1.0000   1.0000
     1.0000   1.0000   1.0000   1.0000   1.0000   1.0000   1.0000   1.0000
     1.0000   1.0000   1.0000   1.0000   1.0000   1.0000   1.0000   1.0000
     1.0000   1.0000   1.0000   1.0000   1.0000   1.0000   1.0000   1.0000
     1.0000   1.0000   1.0000   1.0000   1.0000   1.0000   1.0000   1.0000
     1.0000   1.0000   1.0000   1.0000   1.0000   1.0000   1.0000   1.0000
     1.0000   1.0000   1.0000   1.0000   1.0000   1.0000   1.0000   1.0000
     1.0000   1.0000   1.0000   1.0000   1.0000   1.0000   1.0000   1.0000
     1.0000   1.0000   1.0000   1.0000   1.0000   1.0000   1.0000   1.0000
     1.0000   1.0000   1.0000   1.0000   1.0000   1.0000   1.0000   1.0000
     1.0000   1.0000   1.0000   1.0000   1.0000   1.0000   1.0000   1.0000
     1.0000   1.0000   1.0000   1.0000   1.0000   1.0000   1.0000   1.0000
     1.0000   1.0000   1.0000   1.0000   1.0000   1.0000   1.0000   1.0000
     1.0000   1.0000   1.0000   1.0000   1.0000   1.0000   1.0000   1.0000
     1.0000   1.0000   1.0000   1.0000   1.0000   1.0000   1.0000   1.0000
     1.0000   0.9999   0.9999   0.9999   0.9998   0.9998   0.9998   0.9997
     0.9997   0.9996   0.9994   0.9989   0.9985   0.9984   0.9982   0.9981
     0.9974   0.9963   0.9945   0.9941   0.9926   0.9919   0.9905   0.9898
     0.9894   0.9869   0.9839   0.9836   0.9817   0.9796   0.9739   0.9599
     0.9476   0.9403   0.9389   0.9062   0.9026   0.8886   0.8866   0.8558
     0.8414   0.8348   0.8315   0.8260   0.8210   0.8167   0.7865   0.7353
     0.7185   0.7120   0.7086   0.6739   0.6716   0.6587   0.6538   0.6497
     0.6452   0.6392   0.6323   0.6285   0.6215   0.6165   0.6117   0.6003
     0.5880   0.5852   0.5781   0.5667   0.4950   0.4665   0.1378   0.0554
     0.0509   0.0154   0.0057   0.0040   0.0013   0.0001   0.0000   0.0000
     0.0000   0.0000   0.0000   0.0000   0.0000   0.0000   0.0000   0.0000
     0.0000   0.0000   0.0000   0.0000   0.0000   0.0000   0.0000   0.0000
     0.0000   0.0000   0.0000   0.0000   0.0000   0.0000   0.0000

          k = 0.0000 0.2500 0.0000 ( 65257 PWs)   bands (ev):

   -92.3428 -92.2887 -92.1968 -92.1477 -92.0909 -92.0493 -92.0317 -91.9076
   -55.6959 -55.6750 -55.5547 -55.5439 -55.5360 -55.5306 -55.4930 -55.4664
   -55.4497 -55.4484 -55.4402 -55.3987 -55.3790 -55.3424 -55.3229 -55.2906
   -55.2829 -55.2380 -55.2357 -55.2350 -55.2265 -55.1816 -55.1625 -55.0743
   -30.9298 -30.9107 -30.8332 -30.7699 -30.7301 -30.6834 -30.5659 -30.3467
   -29.4942 -29.4503 -29.4258 -29.3166 -22.2556 -14.6908 -14.6619 -14.5806
   -14.4456 -14.3289 -14.1568 -14.0136 -13.8343 -13.8045 -13.7837 -13.7789
   -13.7543 -13.6957 -13.6902 -13.6737 -13.6590 -13.6249 -13.4978 -13.4603
   -13.2981 -13.2809 -13.2285 -13.1927 -13.1490 -13.1079 -13.0715 -12.9965
   -12.9640 -12.9382 -12.8795 -12.8096 -12.7988 -12.7605 -12.7434 -12.6795
   -12.6342 -12.6092 -12.5873 -12.5707 -12.5623 -12.5384 -12.5169 -12.4986
   -12.4503 -12.4479 -12.4191 -12.2884 -12.2277 -12.1664 -12.0563 -11.9015
   -11.7656 -11.6987 -11.4736 -11.4305 -11.4030 -11.3742 -11.3575 -11.3104
   -11.2991 -11.2767 -11.2429 -11.1400 -11.0873 -11.0767  -5.9095  -3.1608
    -3.1543  -2.4526  -2.2303  -2.0930  -1.9107  -1.8672  -1.7029  -1.4848
    -1.3984  -1.3853  -1.3281  -1.2258  -1.2116  -1.1777  -1.1513  -1.1080
    -0.9096  -0.7809  -0.7690  -0.6935  -0.6823  -0.5780  -0.5474  -0.4920
    -0.4673  -0.4238  -0.3616  -0.3365  -0.3025  -0.2736  -0.2562  -0.2223
    -0.1501  -0.0968  -0.0339   0.0776   0.0974   0.1363   0.2591   0.2951
     0.3456   0.4021   0.4488   0.4782   0.5099   0.5686   0.8654   0.9527
     0.9858   1.0668   1.1097   1.1351   1.2578   1.2776   1.3708   1.3969
     1.4285   1.5424   1.6307   1.6564   1.6808   1.6957   1.7254   1.7882
     1.8122   1.8406   1.8888   1.9189   1.9485   2.0307   2.0637   2.0924
     2.1502   2.2036   2.2338   2.2623   2.2948   2.3180   2.4098   2.5482
     2.6135   2.6285   2.7126   2.7548   2.7937   2.8000   2.8651   2.9090
     2.9862   3.0222   3.0333   3.0443   3.0705   3.2203   3.2415   3.2746
     3.2958   3.3127   3.3220   3.3297   3.3375   3.3678   3.3696   3.3863
     3.3912   3.4027   3.4193   3.4302   3.4406   3.4631   3.4740   3.4787
     3.5146   3.5311   3.5906   3.9495   3.9682   4.2299   4.6010   4.7507
     4.9051   5.0864   5.4059   5.4960   5.8462   5.9393   6.1581   6.2901
     6.3353   6.4520   6.5231   6.7551   6.8770   7.0517   7.2426   7.5469
     7.6429   7.7146   7.7894   7.8615   7.8988   7.9609   8.0778   8.2104
     8.3173   8.3554   8.5490   8.5922   8.6422   8.6760   8.9394

     occupation numbers 
     1.0000   1.0000   1.0000   1.0000   1.0000   1.0000   1.0000   1.0000
     1.0000   1.0000   1.0000   1.0000   1.0000   1.0000   1.0000   1.0000
     1.0000   1.0000   1.0000   1.0000   1.0000   1.0000   1.0000   1.0000
     1.0000   1.0000   1.0000   1.0000   1.0000   1.0000   1.0000   1.0000
     1.0000   1.0000   1.0000   1.0000   1.0000   1.0000   1.0000   1.0000
     1.0000   1.0000   1.0000   1.0000   1.0000   1.0000   1.0000   1.0000
     1.0000   1.0000   1.0000   1.0000   1.0000   1.0000   1.0000   1.0000
     1.0000   1.0000   1.0000   1.0000   1.0000   1.0000   1.0000   1.0000
     1.0000   1.0000   1.0000   1.0000   1.0000   1.0000   1.0000   1.0000
     1.0000   1.0000   1.0000   1.0000   1.0000   1.0000   1.0000   1.0000
     1.0000   1.0000   1.0000   1.0000   1.0000   1.0000   1.0000   1.0000
     1.0000   1.0000   1.0000   1.0000   1.0000   1.0000   1.0000   1.0000
     1.0000   1.0000   1.0000   1.0000   1.0000   1.0000   1.0000   1.0000
     1.0000   1.0000   1.0000   1.0000   1.0000   1.0000   1.0000   1.0000
     1.0000   1.0000   1.0000   1.0000   1.0000   1.0000   1.0000   1.0000
     1.0000   1.0000   1.0000   1.0000   1.0000   1.0000   1.0000   1.0000
     1.0000   1.0000   1.0000   1.0000   1.0000   1.0000   1.0000   1.0000
     1.0000   1.0000   1.0000   1.0000   1.0000   1.0000   1.0000   1.0000
     1.0000   1.0000   1.0000   1.0000   1.0000   1.0000   1.0000   1.0000
     1.0000   1.0000   1.0000   1.0000   1.0000   1.0000   1.0000   1.0000
     1.0000   0.9999   0.9999   0.9999   0.9998   0.9998   0.9997   0.9997
     0.9996   0.9993   0.9988   0.9987   0.9985   0.9984   0.9982   0.9976
     0.9973   0.9969   0.9962   0.9956   0.9950   0.9929   0.9919   0.9909
     0.9886   0.9860   0.9843   0.9826   0.9804   0.9787   0.9707   0.9541
     0.9440   0.9414   0.9253   0.9161   0.9068   0.9052   0.8879   0.8749
     0.8498   0.8370   0.8328   0.8288   0.8187   0.7542   0.7442   0.7282
     0.7176   0.7091   0.7043   0.7003   0.6963   0.6804   0.6794   0.6705
     0.6679   0.6616   0.6526   0.6466   0.6408   0.6283   0.6221   0.6195
     0.5990   0.5895   0.5549   0.3464   0.3362   0.2086   0.0865   0.0565
     0.0348   0.0186   0.0053   0.0036   0.0007   0.0004   0.0001   0.0001
     0.0000   0.0000   0.0000   0.0000   0.0000   0.0000   0.0000   0.0000
     0.0000   0.0000   0.0000   0.0000   0.0000   0.0000   0.0000   0.0000
     0.0000   0.0000   0.0000   0.0000   0.0000   0.0000   0.0000

          k = 0.0000-0.5000 0.0000 ( 65180 PWs)   bands (ev):

   -92.3428 -92.2887 -92.1968 -92.1477 -92.0909 -92.0493 -92.0317 -91.9076
   -55.6959 -55.6750 -55.5547 -55.5439 -55.5360 -55.5306 -55.4930 -55.4664
   -55.4497 -55.4484 -55.4402 -55.3987 -55.3790 -55.3424 -55.3229 -55.2906
   -55.2829 -55.2380 -55.2357 -55.2350 -55.2265 -55.1816 -55.1625 -55.0743
   -30.9296 -30.9106 -30.8329 -30.7701 -30.7304 -30.6835 -30.5657 -30.3468
   -29.4936 -29.4500 -29.4264 -29.3169 -22.2556 -14.6570 -14.6092 -14.5560
   -14.4333 -14.3432 -14.2086 -14.0574 -13.9405 -13.8041 -13.7800 -13.7462
   -13.6979 -13.6852 -13.6393 -13.6202 -13.5735 -13.5542 -13.5286 -13.4954
   -13.4712 -13.4294 -13.2311 -13.1733 -13.1570 -13.1048 -13.0806 -13.0112
   -13.0023 -12.9582 -12.9368 -12.8716 -12.7995 -12.7604 -12.7337 -12.7217
   -12.6197 -12.6092 -12.5818 -12.5657 -12.5363 -12.5340 -12.5012 -12.4253
   -12.4003 -12.3575 -12.3046 -12.2888 -12.1674 -12.1035 -11.9812 -11.9767
   -11.8613 -11.8154 -11.4275 -11.4252 -11.3981 -11.3598 -11.3258 -11.3149
   -11.2725 -11.2685 -11.2244 -11.1616 -11.1477 -11.1336  -5.9094  -3.1610
    -3.1543  -2.2373  -2.1793  -2.0267  -1.9547  -1.6736  -1.5918  -1.4619
    -1.3249  -1.2867  -1.2683  -1.1903  -1.1599  -1.0768  -1.0424  -0.9650
    -0.9246  -0.8853  -0.8588  -0.8012  -0.7653  -0.7188  -0.6833  -0.6485
    -0.6158  -0.5043  -0.4596  -0.4269  -0.4245  -0.3390  -0.3073  -0.2845
    -0.2391  -0.1507  -0.0820   0.0050   0.0312   0.1402   0.1691   0.3237
     0.3534   0.3879   0.4226   0.5384   0.6181   0.7461   0.8115   0.8196
     0.9496   0.9928   1.0685   1.2308   1.3291   1.3623   1.4001   1.4092
     1.4380   1.4630   1.4989   1.5133   1.5283   1.6369   1.6938   1.7227
     1.7460   2.0119   2.0427   2.0607   2.1411   2.1723   2.2122   2.2303
     2.2612   2.2714   2.2779   2.3057   2.3532   2.3743   2.3997   2.4193
     2.4472   2.5014   2.5851   2.6209   2.7825   2.9570   2.9671   2.9780
     3.0095   3.0207   3.0335   3.0462   3.0621   3.0925   3.1006   3.1546
     3.1744   3.2499   3.2640   3.3350   3.3374   3.3651   3.3666   3.3846
     3.3875   3.3914   3.3980   3.4009   3.4129   3.4334   3.4342   3.4999
     3.5045   3.5206   3.5758   4.4641   4.4730   4.5369   4.5839   5.0238
     5.0722   5.2419   5.2970   5.5329   5.7038   5.8347   5.8697   6.0508
     6.2303   6.3549   6.3911   6.4044   7.0236   7.1061   7.1199   7.4230
     7.5086   7.6375   7.8376   8.0511   8.0613   8.1801   8.2099   8.2453
     8.5242   8.5711   8.6452   8.7205   8.7630   8.8537   8.9604

     occupation numbers 
     1.0000   1.0000   1.0000   1.0000   1.0000   1.0000   1.0000   1.0000
     1.0000   1.0000   1.0000   1.0000   1.0000   1.0000   1.0000   1.0000
     1.0000   1.0000   1.0000   1.0000   1.0000   1.0000   1.0000   1.0000
     1.0000   1.0000   1.0000   1.0000   1.0000   1.0000   1.0000   1.0000
     1.0000   1.0000   1.0000   1.0000   1.0000   1.0000   1.0000   1.0000
     1.0000   1.0000   1.0000   1.0000   1.0000   1.0000   1.0000   1.0000
     1.0000   1.0000   1.0000   1.0000   1.0000   1.0000   1.0000   1.0000
     1.0000   1.0000   1.0000   1.0000   1.0000   1.0000   1.0000   1.0000
     1.0000   1.0000   1.0000   1.0000   1.0000   1.0000   1.0000   1.0000
     1.0000   1.0000   1.0000   1.0000   1.0000   1.0000   1.0000   1.0000
     1.0000   1.0000   1.0000   1.0000   1.0000   1.0000   1.0000   1.0000
     1.0000   1.0000   1.0000   1.0000   1.0000   1.0000   1.0000   1.0000
     1.0000   1.0000   1.0000   1.0000   1.0000   1.0000   1.0000   1.0000
     1.0000   1.0000   1.0000   1.0000   1.0000   1.0000   1.0000   1.0000
     1.0000   1.0000   1.0000   1.0000   1.0000   1.0000   1.0000   1.0000
     1.0000   1.0000   1.0000   1.0000   1.0000   1.0000   1.0000   1.0000
     1.0000   1.0000   1.0000   1.0000   1.0000   1.0000   1.0000   1.0000
     1.0000   1.0000   1.0000   1.0000   1.0000   1.0000   1.0000   1.0000
     1.0000   1.0000   1.0000   1.0000   1.0000   1.0000   1.0000   1.0000
     1.0000   1.0000   1.0000   1.0000   1.0000   1.0000   1.0000   1.0000
     1.0000   1.0000   0.9999   0.9999   0.9998   0.9997   0.9997   0.9996
     0.9996   0.9995   0.9994   0.9994   0.9993   0.9988   0.9984   0.9982
     0.9980   0.9935   0.9926   0.9920   0.9890   0.9876   0.9855   0.9845
     0.9827   0.9820   0.9816   0.9796   0.9759   0.9741   0.9717   0.9698
     0.9668   0.9604   0.9486   0.9427   0.9095   0.8597   0.8563   0.8526
     0.8416   0.8375   0.8328   0.8280   0.8219   0.8099   0.8066   0.7839
     0.7752   0.7402   0.7333   0.6976   0.6964   0.6819   0.6811   0.6714
     0.6699   0.6678   0.6642   0.6627   0.6561   0.6448   0.6444   0.6074
     0.6048   0.5956   0.5635   0.1232   0.1205   0.1026   0.0906   0.0233
     0.0196   0.0103   0.0083   0.0030   0.0014   0.0007   0.0006   0.0002
     0.0001   0.0000   0.0000   0.0000   0.0000   0.0000   0.0000   0.0000
     0.0000   0.0000   0.0000   0.0000   0.0000   0.0000   0.0000   0.0000
     0.0000   0.0000   0.0000   0.0000   0.0000   0.0000   0.0000

          k = 0.2500 0.2500 0.0000 ( 65198 PWs)   bands (ev):

   -92.3428 -92.2887 -92.1968 -92.1477 -92.0909 -92.0493 -92.0317 -91.9076
   -55.6959 -55.6750 -55.5547 -55.5439 -55.5360 -55.5306 -55.4930 -55.4664
   -55.4497 -55.4484 -55.4402 -55.3987 -55.3790 -55.3424 -55.3229 -55.2906
   -55.2829 -55.2380 -55.2357 -55.2350 -55.2265 -55.1816 -55.1625 -55.0743
   -30.9281 -30.9124 -30.8331 -30.7696 -30.7301 -30.6838 -30.5660 -30.3468
   -29.4932 -29.4513 -29.4254 -29.3170 -22.2556 -14.6625 -14.6262 -14.5527
   -14.4354 -14.3209 -14.1957 -14.1192 -13.9196 -13.7801 -13.7576 -13.7469
   -13.7130 -13.6816 -13.6595 -13.6323 -13.6044 -13.5876 -13.4904 -13.4749
   -13.3144 -13.3014 -13.2691 -13.2509 -13.2068 -13.1612 -13.1140 -13.0782
   -12.9968 -12.9639 -12.8836 -12.7996 -12.7750 -12.7511 -12.7054 -12.6775
   -12.6699 -12.6206 -12.6003 -12.5930 -12.5563 -12.5328 -12.4982 -12.4489
   -12.3964 -12.3794 -12.3665 -12.2894 -12.1978 -12.1048 -12.0628 -11.9307
   -11.7912 -11.7486 -11.4459 -11.4138 -11.4034 -11.3963 -11.3335 -11.2984
   -11.2919 -11.2567 -11.2493 -11.1566 -11.1154 -11.0981  -5.9094  -3.1608
    -3.1545  -2.3145  -2.1046  -1.9872  -1.8934  -1.7714  -1.7062  -1.5098
    -1.3636  -1.3437  -1.3150  -1.2205  -1.1877  -1.0944  -1.0666  -1.0170
    -0.8850  -0.8369  -0.7651  -0.7198  -0.6752  -0.6514  -0.6263  -0.5847
    -0.5686  -0.4792  -0.4293  -0.3653  -0.3165  -0.2872  -0.2351  -0.2247
    -0.1606  -0.1091  -0.0532  -0.0193   0.0653   0.1188   0.1458   0.1872
     0.2402   0.3126   0.3491   0.3730   0.4426   0.4768   0.7583   0.9073
     0.9435   0.9964   1.0377   1.0822   1.1389   1.2073   1.2459   1.5192
     1.5906   1.6652   1.6909   1.7351   1.7694   1.8058   1.8431   1.8602
     1.8890   1.9285   1.9374   1.9552   1.9952   2.0327   2.0767   2.1292
     2.1580   2.1770   2.1990   2.2435   2.2894   2.3164   2.4498   2.5242
     2.5633   2.5892   2.6446   2.7125   2.7459   2.7843   2.8093   2.8179
     2.9291   2.9691   3.0295   3.0562   3.0699   3.2314   3.2487   3.2548
     3.2712   3.2851   3.2982   3.3107   3.3184   3.3279   3.3419   3.3532
     3.3727   3.3788   3.3901   3.4101   3.4246   3.4347   3.4650   3.7669
     3.8572   3.8964   3.9617   3.9740   4.2023   4.3083   4.6396   4.7989
     4.9757   5.1328   5.3283   5.5491   5.9272   5.9687   6.0063   6.1185
     6.1956   6.2451   6.3407   6.4198   6.9055   7.0180   7.1209   7.2169
     7.7040   7.7754   7.8673   7.9202   8.0199   8.1275   8.2183   8.3225
     8.3548   8.4468   8.5547   8.6883   8.7192   8.7737   8.9273

     occupation numbers 
     1.0000   1.0000   1.0000   1.0000   1.0000   1.0000   1.0000   1.0000
     1.0000   1.0000   1.0000   1.0000   1.0000   1.0000   1.0000   1.0000
     1.0000   1.0000   1.0000   1.0000   1.0000   1.0000   1.0000   1.0000
     1.0000   1.0000   1.0000   1.0000   1.0000   1.0000   1.0000   1.0000
     1.0000   1.0000   1.0000   1.0000   1.0000   1.0000   1.0000   1.0000
     1.0000   1.0000   1.0000   1.0000   1.0000   1.0000   1.0000   1.0000
     1.0000   1.0000   1.0000   1.0000   1.0000   1.0000   1.0000   1.0000
     1.0000   1.0000   1.0000   1.0000   1.0000   1.0000   1.0000   1.0000
     1.0000   1.0000   1.0000   1.0000   1.0000   1.0000   1.0000   1.0000
     1.0000   1.0000   1.0000   1.0000   1.0000   1.0000   1.0000   1.0000
     1.0000   1.0000   1.0000   1.0000   1.0000   1.0000   1.0000   1.0000
     1.0000   1.0000   1.0000   1.0000   1.0000   1.0000   1.0000   1.0000
     1.0000   1.0000   1.0000   1.0000   1.0000   1.0000   1.0000   1.0000
     1.0000   1.0000   1.0000   1.0000   1.0000   1.0000   1.0000   1.0000
     1.0000   1.0000   1.0000   1.0000   1.0000   1.0000   1.0000   1.0000
     1.0000   1.0000   1.0000   1.0000   1.0000   1.0000   1.0000   1.0000
     1.0000   1.0000   1.0000   1.0000   1.0000   1.0000   1.0000   1.0000
     1.0000   1.0000   1.0000   1.0000   1.0000   1.0000   1.0000   1.0000
     1.0000   1.0000   1.0000   1.0000   1.0000   1.0000   1.0000   1.0000
     1.0000   1.0000   1.0000   1.0000   1.0000   1.0000   1.0000   1.0000
     1.0000   1.0000   1.0000   0.9999   0.9999   0.9999   0.9999   0.9993
     0.9991   0.9986   0.9985   0.9981   0.9978   0.9974   0.9969   0.9966
     0.9961   0.9954   0.9952   0.9949   0.9939   0.9929   0.9915   0.9895
     0.9882   0.9874   0.9863   0.9838   0.9808   0.9788   0.9665   0.9574
     0.9519   0.9479   0.9385   0.9253   0.9181   0.9091   0.9029   0.9007
     0.8687   0.8556   0.8343   0.8242   0.8189   0.7490   0.7407   0.7378
     0.7298   0.7230   0.7164   0.7101   0.7062   0.7013   0.6940   0.6881
     0.6778   0.6746   0.6685   0.6576   0.6497   0.6441   0.6272   0.4507
     0.3982   0.3760   0.3398   0.3331   0.2206   0.1768   0.0779   0.0488
     0.0275   0.0157   0.0073   0.0028   0.0004   0.0003   0.0003   0.0001
     0.0001   0.0001   0.0000   0.0000   0.0000   0.0000   0.0000   0.0000
     0.0000   0.0000   0.0000   0.0000   0.0000   0.0000   0.0000   0.0000
     0.0000   0.0000   0.0000   0.0000   0.0000   0.0000   0.0000

          k = 0.2500-0.5000 0.0000 ( 65138 PWs)   bands (ev):

   -92.3428 -92.2887 -92.1968 -92.1476 -92.0909 -92.0493 -92.0317 -91.9076
   -55.6959 -55.6750 -55.5547 -55.5439 -55.5360 -55.5306 -55.4930 -55.4664
   -55.4497 -55.4484 -55.4402 -55.3987 -55.3790 -55.3424 -55.3229 -55.2906
   -55.2829 -55.2380 -55.2357 -55.2350 -55.2265 -55.1816 -55.1625 -55.0743
   -30.9279 -30.9123 -30.8328 -30.7698 -30.7303 -30.6839 -30.5658 -30.3469
   -29.4926 -29.4510 -29.4260 -29.3173 -22.2556 -14.6264 -14.5822 -14.5127
   -14.4024 -14.3677 -14.2484 -14.1609 -14.0355 -13.7798 -13.7219 -13.6753
   -13.6446 -13.6232 -13.6081 -13.5914 -13.5582 -13.5421 -13.5109 -13.4701
   -13.4554 -13.4191 -13.3147 -13.2669 -13.2243 -13.1873 -13.1342 -13.1179
   -13.0547 -13.0227 -12.8592 -12.7956 -12.7858 -12.7391 -12.6925 -12.6823
   -12.6411 -12.6206 -12.5957 -12.5647 -12.5599 -12.5280 -12.4940 -12.4482
   -12.4230 -12.3098 -12.2944 -12.2745 -12.1741 -12.0791 -11.9745 -11.9534
   -11.8518 -11.8206 -11.4214 -11.4094 -11.3984 -11.3713 -11.3399 -11.3113
   -11.2705 -11.2421 -11.2204 -11.1747 -11.1489 -11.1377  -5.9094  -3.1610
    -3.1545  -2.0956  -2.0316  -1.9007  -1.8237  -1.6942  -1.6119  -1.4865
    -1.3364  -1.2821  -1.2603  -1.1985  -1.1851  -1.0875  -1.0216  -0.9355
    -0.8872  -0.8779  -0.8135  -0.7721  -0.7374  -0.6902  -0.6533  -0.6181
    -0.5777  -0.5666  -0.5220  -0.4936  -0.4518  -0.4212  -0.3535  -0.2523
    -0.2163  -0.1358  -0.0705  -0.0212   0.0199   0.0404   0.0969   0.2532
     0.2620   0.3657   0.3978   0.4097   0.4550   0.4897   0.5210   0.5592
     0.6296   0.8957   0.9936   1.0352   1.0995   1.3836   1.3989   1.4912
     1.5184   1.6875   1.7200   1.7619   1.7875   1.8032   1.8239   1.8843
     1.9304   1.9662   2.0355   2.1340   2.1647   2.1874   2.2006   2.2339
     2.2525   2.2565   2.2984   2.3122   2.3328   2.3546   2.3793   2.4106
     2.4395   2.5002   2.5407   2.6202   2.7536   2.9097   2.9242   2.9426
     2.9711   2.9949   3.0099   3.0373   3.0491   3.0584   3.0650   3.0892
     3.1804   3.2294   3.2501   3.2524   3.2682   3.2884   3.3023   3.3211
     3.3287   3.3607   3.3710   3.3873   3.3946   3.4029   3.4145   3.9200
     3.9449   4.0983   4.1503   4.4693   4.5241   4.5417   4.6541   5.0790
     5.0995   5.3042   5.3205   5.5002   5.6372   5.7691   5.8395   5.9445
     6.0695   6.1221   6.3297   6.4520   6.5643   6.6486   7.1502   7.3538
     7.5035   7.6673   7.9612   8.0667   8.1769   8.2022   8.3369   8.4269
     8.5070   8.6325   8.6710   8.8000   8.8534   8.9274   8.9620

     occupation numbers 
     1.0000   1.0000   1.0000   1.0000   1.0000   1.0000   1.0000   1.0000
     1.0000   1.0000   1.0000   1.0000   1.0000   1.0000   1.0000   1.0000
     1.0000   1.0000   1.0000   1.0000   1.0000   1.0000   1.0000   1.0000
     1.0000   1.0000   1.0000   1.0000   1.0000   1.0000   1.0000   1.0000
     1.0000   1.0000   1.0000   1.0000   1.0000   1.0000   1.0000   1.0000
     1.0000   1.0000   1.0000   1.0000   1.0000   1.0000   1.0000   1.0000
     1.0000   1.0000   1.0000   1.0000   1.0000   1.0000   1.0000   1.0000
     1.0000   1.0000   1.0000   1.0000   1.0000   1.0000   1.0000   1.0000
     1.0000   1.0000   1.0000   1.0000   1.0000   1.0000   1.0000   1.0000
     1.0000   1.0000   1.0000   1.0000   1.0000   1.0000   1.0000   1.0000
     1.0000   1.0000   1.0000   1.0000   1.0000   1.0000   1.0000   1.0000
     1.0000   1.0000   1.0000   1.0000   1.0000   1.0000   1.0000   1.0000
     1.0000   1.0000   1.0000   1.0000   1.0000   1.0000   1.0000   1.0000
     1.0000   1.0000   1.0000   1.0000   1.0000   1.0000   1.0000   1.0000
     1.0000   1.0000   1.0000   1.0000   1.0000   1.0000   1.0000   1.0000
     1.0000   1.0000   1.0000   1.0000   1.0000   1.0000   1.0000   1.0000
     1.0000   1.0000   1.0000   1.0000   1.0000   1.0000   1.0000   1.0000
     1.0000   1.0000   1.0000   1.0000   1.0000   1.0000   1.0000   1.0000
     1.0000   1.0000   1.0000   1.0000   1.0000   1.0000   1.0000   1.0000
     1.0000   1.0000   1.0000   1.0000   1.0000   1.0000   1.0000   1.0000
     1.0000   1.0000   1.0000   1.0000   0.9999   0.9997   0.9997   0.9994
     0.9993   0.9985   0.9982   0.9978   0.9976   0.9974   0.9971   0.9962
     0.9954   0.9946   0.9928   0.9893   0.9879   0.9868   0.9862   0.9843
     0.9832   0.9830   0.9801   0.9791   0.9776   0.9758   0.9736   0.9706
     0.9676   0.9606   0.9552   0.9428   0.9163   0.8747   0.8702   0.8644
     0.8550   0.8467   0.8414   0.8314   0.8269   0.8234   0.8208   0.8112
     0.7725   0.7499   0.7401   0.7390   0.7313   0.7213   0.7143   0.7047
     0.7009   0.6842   0.6787   0.6700   0.6660   0.6615   0.6552   0.3627
     0.3490   0.2690   0.2441   0.1216   0.1060   0.1013   0.0748   0.0191
     0.0178   0.0081   0.0075   0.0035   0.0019   0.0010   0.0007   0.0004
     0.0002   0.0001   0.0000   0.0000   0.0000   0.0000   0.0000   0.0000
     0.0000   0.0000   0.0000   0.0000   0.0000   0.0000   0.0000   0.0000
     0.0000   0.0000   0.0000   0.0000   0.0000   0.0000   0.0000

          k =-0.5000-0.5000 0.0000 ( 65132 PWs)   bands (ev):

   -92.3428 -92.2887 -92.1968 -92.1477 -92.0909 -92.0493 -92.0317 -91.9076
   -55.6959 -55.6750 -55.5547 -55.5439 -55.5360 -55.5306 -55.4930 -55.4664
   -55.4497 -55.4484 -55.4402 -55.3987 -55.3790 -55.3424 -55.3229 -55.2906
   -55.2829 -55.2380 -55.2357 -55.2350 -55.2265 -55.1816 -55.1625 -55.0743
   -30.9256 -30.9146 -30.8327 -30.7694 -30.7303 -30.6843 -30.5660 -30.3470
   -29.4916 -29.4520 -29.4256 -29.3177 -22.2556 -14.5794 -14.5547 -14.4377
   -14.4250 -14.3346 -14.2943 -14.2676 -14.1338 -13.7797 -13.6339 -13.6234
   -13.5863 -13.5712 -13.5514 -13.5372 -13.5076 -13.4992 -13.4862 -13.4793
   -13.4645 -13.3847 -13.3775 -13.3564 -13.3163 -13.3143 -13.2127 -13.2032
   -13.1016 -13.0767 -12.8107 -12.7814 -12.7152 -12.7048 -12.6785 -12.6648
   -12.6369 -12.6319 -12.6252 -12.6062 -12.5389 -12.5137 -12.4951 -12.4810
   -12.4419 -12.3035 -12.2568 -12.2491 -12.1905 -12.0566 -11.9710 -11.9250
   -11.8409 -11.8290 -11.4174 -11.4058 -11.3880 -11.3709 -11.3366 -11.3182
   -11.2838 -11.2221 -11.2027 -11.1969 -11.1468 -11.1436  -5.9094  -3.1610
    -3.1546  -1.8718  -1.7956  -1.7881  -1.7153  -1.6752  -1.5969  -1.5287
    -1.4038  -1.2864  -1.2570  -1.2162  -1.1598  -1.0886  -1.0741  -1.0028
    -0.9609  -0.8451  -0.8163  -0.7690  -0.7366  -0.6726  -0.6282  -0.6095
    -0.5980  -0.5451  -0.4976  -0.4850  -0.3712  -0.3134  -0.2658  -0.2177
    -0.1941  -0.1808  -0.1453  -0.1060  -0.0687  -0.0584   0.0284   0.0980
     0.1441   0.1666   0.2414   0.2964   0.3002   0.3650   0.3871   0.3977
     0.4045   0.8622   0.9204   0.9802   1.0006   1.4104   1.4252   1.4563
     1.4940   1.7703   1.7883   1.7963   1.8347   1.9695   2.0651   2.0913
     2.1274   2.1464   2.1624   2.1760   2.2068   2.2138   2.2315   2.2358
     2.2935   2.3022   2.3246   2.3311   2.3554   2.3643   2.4105   2.4333
     2.4492   2.4850   2.5078   2.5837   2.6499   2.9204   2.9537   2.9716
     2.9933   3.0021   3.0195   3.0284   3.0383   3.0554   3.0618   3.0781
     3.0860   3.1058   3.1208   3.1823   3.1855   3.2060   3.2204   3.2309
     3.2508   3.2573   3.2657   3.3667   3.3727   3.3980   3.4088   4.3374
     4.3791   4.3899   4.4279   4.6743   4.7441   4.7750   5.0137   5.1352
     5.1676   5.2202   5.3366   5.4047   5.4654   5.5606   5.5637   5.7506
[...]
     0.0000   0.0000   0.0000   0.0000   0.0000   0.0000   0.0000   0.0000
     0.0000   0.0000   0.0000   0.0000   0.0000   0.0000   0.0000

          k =-0.5000 0.0000 0.0000 ( 65180 PWs)   bands (ev):

   -92.3428 -92.2887 -92.1968 -92.1477 -92.0909 -92.0493 -92.0317 -91.9076
   -55.6959 -55.6750 -55.5547 -55.5439 -55.5360 -55.5306 -55.4930 -55.4664
   -55.4497 -55.4484 -55.4402 -55.3987 -55.3790 -55.3424 -55.3229 -55.2906
   -55.2829 -55.2380 -55.2357 -55.2350 -55.2265 -55.1816 -55.1625 -55.0743
   -30.9260 -30.9148 -30.8333 -30.7690 -30.7297 -30.6840 -30.5662 -30.3467
   -29.4928 -29.4526 -29.4244 -29.3171 -22.2556 -14.6618 -14.6109 -14.5498
   -14.4466 -14.3360 -14.1936 -14.0500 -13.9182 -13.7843 -13.7788 -13.7751
   -13.7546 -13.7030 -13.6428 -13.6081 -13.5607 -13.5597 -13.5429 -13.4891
   -13.4849 -13.3851 -13.2026 -13.1788 -13.1432 -13.1350 -13.0909 -13.0139
   -12.9948 -12.9219 -12.9110 -12.8983 -12.8129 -12.7068 -12.7023 -12.6945
   -12.6812 -12.6643 -12.6198 -12.6056 -12.5926 -12.5701 -12.4809 -12.3428
   -12.3251 -12.2938 -12.2913 -12.2821 -12.1935 -12.1557 -12.0325 -11.9808
   -11.8455 -11.7997 -11.4250 -11.4037 -11.3968 -11.3813 -11.3635 -11.3225
   -11.2593 -11.2422 -11.2102 -11.1638 -11.1546 -11.1389  -5.9094  -3.1606
    -3.1547  -2.2277  -2.1891  -2.0244  -1.9857  -1.6732  -1.5974  -1.4487
    -1.3314  -1.2920  -1.2468  -1.1980  -1.1728  -1.0513  -1.0059  -0.9919
    -0.9086  -0.8739  -0.8595  -0.8262  -0.7701  -0.7006  -0.6709  -0.6440
    -0.5508  -0.5004  -0.4517  -0.4197  -0.3984  -0.3692  -0.3206  -0.2963
    -0.2573  -0.1610  -0.0935  -0.0244   0.0360   0.1943   0.2281   0.2963
     0.3249   0.3904   0.4057   0.5363   0.5719   0.6071   0.7947   0.8928
     0.9390   1.0047   1.0757   1.2061   1.2189   1.3520   1.3824   1.4346
     1.4578   1.4969   1.5142   1.5566   1.5848   1.6502   1.6925   1.7400
     1.7492   2.0447   2.0534   2.0721   2.0860   2.2070   2.2150   2.2197
     2.2344   2.2662   2.2797   2.3125   2.3438   2.3622   2.4313   2.4359
     2.4933   2.5053   2.5721   2.6672   2.7757   2.8545   2.8693   2.9509
     2.9826   3.0080   3.0298   3.0654   3.0769   3.0849   3.0951   3.1233
     3.1899   3.2357   3.2808   3.3100   3.3538   3.3587   3.3599   3.3725
     3.3857   3.3986   3.4138   3.4161   3.4378   3.4430   3.4647   3.4853
     3.4901   3.6185   3.6220   4.4001   4.4701   4.5333   4.6385   4.9773
     5.1307   5.2675   5.3176   5.4468   5.6775   5.8716   5.9282   5.9891
     6.1581   6.3825   6.3939   6.5114   6.9625   7.0602   7.1815   7.4679
     7.5320   7.6498   7.7231   7.9255   8.0690   8.0947   8.1901   8.4135
     8.4839   8.6707   8.6891   8.7276   8.7847   8.8590   8.9604

     occupation numbers 
     1.0000   1.0000   1.0000   1.0000   1.0000   1.0000   1.0000   1.0000
     1.0000   1.0000   1.0000   1.0000   1.0000   1.0000   1.0000   1.0000
     1.0000   1.0000   1.0000   1.0000   1.0000   1.0000   1.0000   1.0000
     1.0000   1.0000   1.0000   1.0000   1.0000   1.0000   1.0000   1.0000
     1.0000   1.0000   1.0000   1.0000   1.0000   1.0000   1.0000   1.0000
     1.0000   1.0000   1.0000   1.0000   1.0000   1.0000   1.0000   1.0000
     1.0000   1.0000   1.0000   1.0000   1.0000   1.0000   1.0000   1.0000
     1.0000   1.0000   1.0000   1.0000   1.0000   1.0000   1.0000   1.0000
     1.0000   1.0000   1.0000   1.0000   1.0000   1.0000   1.0000   1.0000
     1.0000   1.0000   1.0000   1.0000   1.0000   1.0000   1.0000   1.0000
     1.0000   1.0000   1.0000   1.0000   1.0000   1.0000   1.0000   1.0000
     1.0000   1.0000   1.0000   1.0000   1.0000   1.0000   1.0000   1.0000
     1.0000   1.0000   1.0000   1.0000   1.0000   1.0000   1.0000   1.0000
     1.0000   1.0000   1.0000   1.0000   1.0000   1.0000   1.0000   1.0000
     1.0000   1.0000   1.0000   1.0000   1.0000   1.0000   1.0000   1.0000
     1.0000   1.0000   1.0000   1.0000   1.0000   1.0000   1.0000   1.0000
     1.0000   1.0000   1.0000   1.0000   1.0000   1.0000   1.0000   1.0000
     1.0000   1.0000   1.0000   1.0000   1.0000   1.0000   1.0000   1.0000
     1.0000   1.0000   1.0000   1.0000   1.0000   1.0000   1.0000   1.0000
     1.0000   1.0000   1.0000   1.0000   1.0000   1.0000   1.0000   1.0000
     1.0000   1.0000   0.9999   0.9999   0.9999   0.9997   0.9997   0.9996
     0.9995   0.9994   0.9994   0.9992   0.9991   0.9987   0.9984   0.9980
     0.9980   0.9925   0.9923   0.9916   0.9912   0.9858   0.9854   0.9851
     0.9843   0.9823   0.9814   0.9791   0.9767   0.9751   0.9685   0.9680
     0.9614   0.9599   0.9506   0.9344   0.9112   0.8908   0.8867   0.8617
     0.8510   0.8421   0.8341   0.8207   0.8161   0.8130   0.8089   0.7973
     0.7682   0.7470   0.7251   0.7104   0.6878   0.6852   0.6846   0.6779
     0.6708   0.6639   0.6556   0.6543   0.6424   0.6395   0.6274   0.6158
     0.6130   0.5385   0.5364   0.1437   0.1214   0.1035   0.0781   0.0274
     0.0158   0.0093   0.0076   0.0044   0.0015   0.0006   0.0004   0.0003
     0.0001   0.0000   0.0000   0.0000   0.0000   0.0000   0.0000   0.0000
     0.0000   0.0000   0.0000   0.0000   0.0000   0.0000   0.0000   0.0000
     0.0000   0.0000   0.0000   0.0000   0.0000   0.0000   0.0000

          k =-0.2500 0.2500 0.0000 ( 65198 PWs)   bands (ev):

   -92.3428 -92.2887 -92.1968 -92.1477 -92.0909 -92.0493 -92.0317 -91.9076
   -55.6959 -55.6750 -55.5547 -55.5439 -55.5360 -55.5306 -55.4930 -55.4664
   -55.4497 -55.4484 -55.4402 -55.3987 -55.3790 -55.3424 -55.3229 -55.2906
   -55.2829 -55.2380 -55.2357 -55.2350 -55.2265 -55.1816 -55.1625 -55.0743
   -30.9281 -30.9124 -30.8331 -30.7696 -30.7301 -30.6838 -30.5660 -30.3468
   -29.4932 -29.4513 -29.4254 -29.3170 -22.2556 -14.6639 -14.6250 -14.5514
   -14.4333 -14.3274 -14.2006 -14.1109 -13.9103 -13.7800 -13.7657 -13.7356
   -13.7257 -13.6765 -13.6522 -13.6354 -13.6220 -13.5875 -13.4869 -13.4756
   -13.3234 -13.2966 -13.2673 -13.2473 -13.2086 -13.1462 -13.1037 -13.0879
   -13.0050 -12.9705 -12.8769 -12.8014 -12.7724 -12.7479 -12.6961 -12.6772
   -12.6528 -12.6280 -12.6113 -12.5895 -12.5782 -12.5452 -12.5016 -12.4509
   -12.4228 -12.3550 -12.3445 -12.2902 -12.1569 -12.1073 -12.0946 -11.9365
   -11.8016 -11.7356 -11.4451 -11.4235 -11.3961 -11.3840 -11.3432 -11.3081
   -11.2852 -11.2640 -11.2414 -11.1563 -11.1109 -11.1014  -5.9095  -3.1608
    -3.1545  -2.3128  -2.1035  -1.9830  -1.8951  -1.7756  -1.7089  -1.5074
    -1.3603  -1.3413  -1.3129  -1.2210  -1.1866  -1.0939  -1.0607  -1.0341
    -0.8904  -0.8357  -0.7678  -0.7386  -0.6789  -0.6571  -0.6166  -0.5876
    -0.5474  -0.4857  -0.4386  -0.3767  -0.3082  -0.2836  -0.2304  -0.2032
    -0.1577  -0.0996  -0.0554  -0.0147   0.0851   0.1184   0.1264   0.1747
     0.2379   0.3124   0.3497   0.3791   0.4468   0.4737   0.7400   0.9075
     0.9524   0.9881   1.0448   1.0808   1.1420   1.2143   1.2431   1.5267
     1.6418   1.6808   1.7138   1.7197   1.7629   1.7801   1.8246   1.8557
     1.8712   1.8975   1.9381   1.9518   1.9940   2.0122   2.0558   2.1394
     2.1526   2.1756   2.2025   2.2398   2.2759   2.3184   2.4384   2.5577
     2.5858   2.6264   2.6483   2.7119   2.7578   2.7868   2.8092   2.8288
     2.9300   2.9681   3.0285   3.0588   3.0677   3.2388   3.2465   3.2604
     3.2701   3.2809   3.2948   3.3012   3.3183   3.3259   3.3427   3.3520
     3.3650   3.3740   3.3801   3.4124   3.4239   3.4338   3.4669   3.7599
     3.8402   3.8988   3.9577   3.9914   4.1858   4.3170   4.6379   4.8002
     4.9709   5.1368   5.3374   5.5506   5.9154   5.9648   6.0172   6.1290
     6.1920   6.2424   6.3482   6.4124   6.9304   7.0020   7.0947   7.2199
     7.7128   7.8059   7.8619   7.9165   7.9802   8.1765   8.2109   8.2817
     8.4048   8.4346   8.5220   8.6904   8.7209   8.7841   8.9367

     occupation numbers 
     1.0000   1.0000   1.0000   1.0000   1.0000   1.0000   1.0000   1.0000
     1.0000   1.0000   1.0000   1.0000   1.0000   1.0000   1.0000   1.0000
     1.0000   1.0000   1.0000   1.0000   1.0000   1.0000   1.0000   1.0000
     1.0000   1.0000   1.0000   1.0000   1.0000   1.0000   1.0000   1.0000
     1.0000   1.0000   1.0000   1.0000   1.0000   1.0000   1.0000   1.0000
     1.0000   1.0000   1.0000   1.0000   1.0000   1.0000   1.0000   1.0000
     1.0000   1.0000   1.0000   1.0000   1.0000   1.0000   1.0000   1.0000
     1.0000   1.0000   1.0000   1.0000   1.0000   1.0000   1.0000   1.0000
     1.0000   1.0000   1.0000   1.0000   1.0000   1.0000   1.0000   1.0000
     1.0000   1.0000   1.0000   1.0000   1.0000   1.0000   1.0000   1.0000
     1.0000   1.0000   1.0000   1.0000   1.0000   1.0000   1.0000   1.0000
     1.0000   1.0000   1.0000   1.0000   1.0000   1.0000   1.0000   1.0000
     1.0000   1.0000   1.0000   1.0000   1.0000   1.0000   1.0000   1.0000
     1.0000   1.0000   1.0000   1.0000   1.0000   1.0000   1.0000   1.0000
     1.0000   1.0000   1.0000   1.0000   1.0000   1.0000   1.0000   1.0000
     1.0000   1.0000   1.0000   1.0000   1.0000   1.0000   1.0000   1.0000
     1.0000   1.0000   1.0000   1.0000   1.0000   1.0000   1.0000   1.0000
     1.0000   1.0000   1.0000   1.0000   1.0000   1.0000   1.0000   1.0000
     1.0000   1.0000   1.0000   1.0000   1.0000   1.0000   1.0000   1.0000
     1.0000   1.0000   1.0000   1.0000   1.0000   1.0000   1.0000   1.0000
     1.0000   1.0000   1.0000   0.9999   0.9999   0.9999   0.9999   0.9993
     0.9988   0.9985   0.9983   0.9982   0.9978   0.9976   0.9971   0.9967
     0.9964   0.9960   0.9952   0.9949   0.9939   0.9935   0.9922   0.9891
     0.9885   0.9874   0.9861   0.9840   0.9817   0.9787   0.9678   0.9527
     0.9484   0.9418   0.9379   0.9255   0.9154   0.9085   0.9029   0.8978
     0.8684   0.8560   0.8346   0.8232   0.8198   0.7455   0.7418   0.7351
     0.7303   0.7250   0.7181   0.7149   0.7062   0.7023   0.6936   0.6887
     0.6819   0.6771   0.6738   0.6564   0.6501   0.6446   0.6262   0.4548
     0.4080   0.3746   0.3419   0.3238   0.2279   0.1734   0.0782   0.0486
     0.0280   0.0155   0.0070   0.0028   0.0005   0.0004   0.0003   0.0001
     0.0001   0.0001   0.0000   0.0000   0.0000   0.0000   0.0000   0.0000
     0.0000   0.0000   0.0000   0.0000   0.0000   0.0000   0.0000   0.0000
     0.0000   0.0000   0.0000   0.0000   0.0000   0.0000   0.0000

          k =-0.5000 0.2500 0.0000 ( 65138 PWs)   bands (ev):

   -92.3428 -92.2887 -92.1968 -92.1476 -92.0909 -92.0493 -92.0317 -91.9076
   -55.6959 -55.6750 -55.5547 -55.5439 -55.5360 -55.5306 -55.4930 -55.4664
   -55.4497 -55.4484 -55.4402 -55.3987 -55.3790 -55.3424 -55.3229 -55.2906
   -55.2829 -55.2380 -55.2357 -55.2350 -55.2265 -55.1816 -55.1625 -55.0743
   -30.9258 -30.9147 -30.8330 -30.7692 -30.7300 -30.6842 -30.5661 -30.3469
   -29.4922 -29.4523 -29.4250 -29.3174 -22.2556 -14.6290 -14.5844 -14.5067
   -14.4118 -14.3665 -14.2400 -14.1549 -14.0310 -13.7798 -13.7158 -13.6863
   -13.6736 -13.6281 -13.6115 -13.5816 -13.5477 -13.5452 -13.5190 -13.4854
   -13.4688 -13.3733 -13.2870 -13.2401 -13.2363 -13.2251 -13.1479 -13.1203
   -13.0459 -13.0030 -12.8532 -12.8184 -12.7629 -12.7212 -12.6829 -12.6699
   -12.6652 -12.6330 -12.6179 -12.5963 -12.5873 -12.5517 -12.4899 -12.4061
   -12.3841 -12.2946 -12.2740 -12.2657 -12.1918 -12.1000 -11.9782 -11.9756
   -11.8430 -11.8111 -11.4177 -11.4048 -11.3908 -11.3792 -11.3574 -11.3272
   -11.2470 -11.2377 -11.2152 -11.1783 -11.1503 -11.1415  -5.9094  -3.1608
    -3.1547  -2.0857  -2.0435  -1.8942  -1.8526  -1.6928  -1.6162  -1.4730
    -1.3379  -1.2803  -1.2538  -1.2142  -1.1753  -1.0953  -0.9807  -0.9239
    -0.9008  -0.8755  -0.7994  -0.7700  -0.7327  -0.7139  -0.6532  -0.6253
    -0.5854  -0.5503  -0.5215  -0.4642  -0.4381  -0.3965  -0.3620  -0.2578
    -0.2312  -0.1438  -0.0864  -0.0504   0.0065   0.0895   0.1212   0.2252
     0.2592   0.3157   0.3649   0.3945   0.4702   0.4918   0.5233   0.5849
     0.6230   0.9255   0.9963   1.0367   1.0519   1.3612   1.4171   1.4934
     1.5204   1.6991   1.7356   1.7728   1.7876   1.8055   1.8231   1.8930
     1.9344   1.9740   2.0013   2.1178   2.1584   2.1866   2.1971   2.2305
     2.2635   2.2770   2.2867   2.3103   2.3348   2.3752   2.4030   2.4323
     2.4554   2.4834   2.5477   2.6634   2.7694   2.8005   2.8682   2.9093
     2.9669   3.0057   3.0133   3.0274   3.0504   3.0670   3.0857   3.1077
     3.1898   3.2318   3.2470   3.2528   3.2736   3.2962   3.3090   3.3244
     3.3362   3.3563   3.3692   3.3806   3.3877   3.3970   3.4090   3.9305
     3.9736   4.1282   4.1502   4.4114   4.4945   4.5397   4.7356   5.0470
     5.1332   5.2727   5.3558   5.4427   5.7171   5.7669   5.8187   5.8907
     6.0687   6.1327   6.2659   6.5399   6.6053   6.6628   7.1209   7.2203
     7.5779   7.6974   7.9681   8.0596   8.1861   8.1961   8.3186   8.3654
     8.5264   8.5994   8.6893   8.8224   8.8694   8.9240   8.9794

     occupation numbers 
     1.0000   1.0000   1.0000   1.0000   1.0000   1.0000   1.0000   1.0000
     1.0000   1.0000   1.0000   1.0000   1.0000   1.0000   1.0000   1.0000
     1.0000   1.0000   1.0000   1.0000   1.0000   1.0000   1.0000   1.0000
     1.0000   1.0000   1.0000   1.0000   1.0000   1.0000   1.0000   1.0000
     1.0000   1.0000   1.0000   1.0000   1.0000   1.0000   1.0000   1.0000
     1.0000   1.0000   1.0000   1.0000   1.0000   1.0000   1.0000   1.0000
     1.0000   1.0000   1.0000   1.0000   1.0000   1.0000   1.0000   1.0000
     1.0000   1.0000   1.0000   1.0000   1.0000   1.0000   1.0000   1.0000
     1.0000   1.0000   1.0000   1.0000   1.0000   1.0000   1.0000   1.0000
     1.0000   1.0000   1.0000   1.0000   1.0000   1.0000   1.0000   1.0000
     1.0000   1.0000   1.0000   1.0000   1.0000   1.0000   1.0000   1.0000
     1.0000   1.0000   1.0000   1.0000   1.0000   1.0000   1.0000   1.0000
     1.0000   1.0000   1.0000   1.0000   1.0000   1.0000   1.0000   1.0000
     1.0000   1.0000   1.0000   1.0000   1.0000   1.0000   1.0000   1.0000
     1.0000   1.0000   1.0000   1.0000   1.0000   1.0000   1.0000   1.0000
     1.0000   1.0000   1.0000   1.0000   1.0000   1.0000   1.0000   1.0000
     1.0000   1.0000   1.0000   1.0000   1.0000   1.0000   1.0000   1.0000
     1.0000   1.0000   1.0000   1.0000   1.0000   1.0000   1.0000   1.0000
     1.0000   1.0000   1.0000   1.0000   1.0000   1.0000   1.0000   1.0000
     1.0000   1.0000   1.0000   1.0000   1.0000   1.0000   1.0000   1.0000
     1.0000   1.0000   1.0000   1.0000   1.0000   0.9997   0.9996   0.9994
     0.9993   0.9984   0.9981   0.9977   0.9976   0.9974   0.9971   0.9961
     0.9953   0.9944   0.9938   0.9900   0.9882   0.9869   0.9863   0.9845
     0.9825   0.9816   0.9810   0.9793   0.9774   0.9740   0.9714   0.9684
     0.9659   0.9626   0.9542   0.9351   0.9127   0.9051   0.8870   0.8748
     0.8564   0.8429   0.8402   0.8350   0.8264   0.8200   0.8126   0.8037
     0.7683   0.7488   0.7416   0.7388   0.7286   0.7174   0.7109   0.7031
     0.6970   0.6865   0.6797   0.6736   0.6698   0.6647   0.6582   0.3569
     0.3333   0.2545   0.2442   0.1399   0.1143   0.1018   0.0591   0.0215
     0.0157   0.0091   0.0065   0.0045   0.0013   0.0010   0.0008   0.0005
     0.0002   0.0001   0.0001   0.0000   0.0000   0.0000   0.0000   0.0000
     0.0000   0.0000   0.0000   0.0000   0.0000   0.0000   0.0000   0.0000
     0.0000   0.0000   0.0000   0.0000   0.0000   0.0000   0.0000

     the Fermi energy is     3.6835 ev

!    total energy              =   -4482.97526317 Ry
     estimated scf accuracy    <          9.4E-09 Ry
     smearing contrib. (-TS)   =      -1.17218840 Ry
     internal energy E=F+TS    =   -4481.80307477 Ry

     The total energy is F=E-TS. E is the sum of the following terms:
     one-electron contribution =  -20253.22398858 Ry
     hartree contribution      =   10266.22097946 Ry
     xc contribution           =    -701.58437475 Ry
     ewald contribution        =    6492.43937564 Ry
     one-center paw contrib.   =    -285.65506653 Ry
      -> PAW hartree energy AE =      25.14984828 Ry
      -> PAW hartree energy PS =     -25.03393554 Ry
      -> PAW xc energy AE      =     -16.51556271 Ry
      -> PAW xc energy PS      =       6.87495729 Ry
      -> total E_H with PAW    =   10266.33689221 Ry
      -> total E_XC with PAW   =    -711.22498017 Ry

     convergence has been achieved in  52 iterations

     Writing all to output data dir /bsuhome/zayahcortright/scratch/pwscf.save/
 
     init_run     :      8.19s CPU      8.65s WALL (       1 calls)
     electrons    :    795.31s CPU    829.34s WALL (       1 calls)

     Called by init_run:
     wfcinit      :      6.29s CPU      6.50s WALL (       1 calls)
     wfcinit:atom :      0.06s CPU      0.08s WALL (       5 calls)
     wfcinit:wfcr :      5.94s CPU      6.06s WALL (       5 calls)
     potinit      :      0.18s CPU      0.20s WALL (       1 calls)
     hinit0       :      0.79s CPU      0.83s WALL (       1 calls)

     Called by electrons:
     c_bands      :    635.72s CPU    643.24s WALL (      52 calls)
     sum_band     :    120.53s CPU    135.31s WALL (      52 calls)
     v_of_rho     :      5.72s CPU      6.11s WALL (      53 calls)
     v_h          :      0.48s CPU      0.49s WALL (      53 calls)
     v_xc         :      5.24s CPU      5.62s WALL (      53 calls)
     newd         :     18.02s CPU     28.78s WALL (      53 calls)
     PAW_pot      :      1.75s CPU      1.78s WALL (      53 calls)
     mix_rho      :     13.18s CPU     13.59s WALL (      52 calls)

     Called by c_bands:
     init_us_2    :      7.45s CPU      7.50s WALL (     525 calls)
     init_us_2:cp :      7.44s CPU      7.50s WALL (     525 calls)
     cegterg      :    601.55s CPU    608.76s WALL (     260 calls)

     Called by sum_band:
     sum_band:wei :      0.38s CPU      0.39s WALL (      52 calls)
     sum_band:loo :     99.47s CPU    100.26s WALL (      52 calls)
     sum_band:buf :      1.52s CPU      1.59s WALL (     260 calls)
     sum_band:ini :      3.33s CPU      3.34s WALL (     260 calls)
     sum_band:cal :     21.62s CPU     21.68s WALL (     260 calls)
     sum_band:bec :      0.64s CPU      0.66s WALL (     260 calls)
     addusdens    :     18.05s CPU     31.98s WALL (      52 calls)
                                        0.00s GPU  (      52 calls)
     addusd:skk   :      0.35s CPU      1.01s WALL (     208 calls)
                                        0.00s GPU  (     208 calls)

     Called by *egterg:
     cdiaghg      :     67.45s CPU     67.81s WALL (    1557 calls)
     cegterg:over :     44.10s CPU     44.29s WALL (    1297 calls)
     cegterg:upda :     33.46s CPU     34.05s WALL (    1297 calls)
     cegterg:last :     67.62s CPU     68.00s WALL (     481 calls)
     cdiaghg:chol :      3.79s CPU      3.82s WALL (    1557 calls)
     cdiaghg:inve :      4.21s CPU      4.24s WALL (    1557 calls)
     cdiaghg:para :      8.25s CPU      8.31s WALL (    3114 calls)
     h_psi        :    325.73s CPU    329.08s WALL (    1562 calls)
     s_psi        :     45.61s CPU     45.74s WALL (    1562 calls)
     g_psi        :      1.15s CPU      1.15s WALL (    1297 calls)

     Called by h_psi:
     h_psi:calbec :     50.66s CPU     50.89s WALL (    1562 calls)
     vloc_psi     :    226.85s CPU    229.01s WALL (    1562 calls)
     add_vuspsi   :     45.17s CPU     45.40s WALL (    1562 calls)

     General routines
     calbec       :     72.26s CPU     72.56s WALL (    1822 calls)
     fft          :      3.89s CPU      3.94s WALL (     687 calls)
     ffts         :      4.83s CPU      4.88s WALL (    5512 calls)
     fftw         :    191.05s CPU    192.59s WALL (  358690 calls)
     interpolate  :      0.44s CPU      0.45s WALL (      53 calls)
 
     Parallel routines

     PAW routines
     PAW_pot      :      1.75s CPU      1.78s WALL (      53 calls)
 
     PWSCF        :  13m24.92s CPU  14m 5.09s WALL

 
   This run was terminated on:  22: 9:51  18Jun2024            

=------------------------------------------------------------------------------=
   JOB DONE.
=------------------------------------------------------------------------------=
