
     Program PWSCF v.7.2 starts on 22Jun2024 at  3: 1:47 

     This program is part of the open-source Quantum ESPRESSO suite
     for quantum simulation of materials; please cite
         "P. Giannozzi et al., J. Phys.:Condens. Matter 21 395502 (2009);
         "P. Giannozzi et al., J. Phys.:Condens. Matter 29 465901 (2017);
         "P. Giannozzi et al., J. Chem. Phys. 152 154105 (2020);
          URL http://www.quantum-espresso.org", 
     in publications or presentations arising from this work. More details at
     http://www.quantum-espresso.org/quote

     Parallel version (MPI & OpenMP), running on      48 processor cores
     Number of MPI processes:                48
     Threads/MPI process:                     1

     MPI processes distributed on     1 nodes
     60563 MiB available memory on the printing compute node when the environment starts
 
     Reading input from espresso.pwi
Warning: card &CELL ignored
Warning: card / ignored
Warning: card &FCP ignored
Warning: card / ignored
Warning: card &RISM ignored
Warning: card / ignored

     Current dimensions of program PWSCF are:
     Max number of different atomic species (ntypx) = 10
     Max number of k-points (npk) =  40000
     Max angular momentum in pseudopotentials (lmaxx) =  4
     file O.pbe-n-kjpaw_psl.0.1.UPF: wavefunction(s)  2P renormalized
     signal trapping enabled: kill the code with -SIGUSR1 to stop cleanly the simulation 
 
     K-points division:     npool     =       2
     R & G space division:  proc/nbgrp/npool/nimage =      24
     Subspace diagonalization in iterative solution of the eigenvalue problem:
     one sub-group per band group will be used
     scalapack distributed-memory algorithm (size of sub-group:  3*  3 procs)

 
     Parallelization info
     --------------------
     sticks:   dense  smooth     PW     G-vecs:    dense   smooth      PW
     Min         350     175     47                61430    21716    3036
     Max         351     177     48                61449    21727    3041
     Sum        8421    4205   1137              1474595   521381   72913
 
     Using Slab Decomposition
 


     bravais-lattice index     =            0
     lattice parameter (alat)  =      14.8599  a.u.
     unit-cell volume          =    8305.1283 (a.u.)^3
     number of atoms/cell      =           49
     number of atomic types    =            3
     number of electrons       =       430.00
     number of Kohn-Sham states=          258
     kinetic-energy cutoff     =      60.0000  Ry
     charge density cutoff     =     480.0000  Ry
     scf convergence threshold =      1.0E-08
     mixing beta               =       0.1500
     number of iterations used =            8  local-TF  mixing
     Exchange-correlation= SLA  PW   PBE  PBE
                           (   1   4   3   4   0   0   0)

     celldm(1)=  14.859904  celldm(2)=   0.000000  celldm(3)=   0.000000
     celldm(4)=   0.000000  celldm(5)=   0.000000  celldm(6)=   0.000000

     crystal axes: (cart. coord. in units of alat)
               a(1) = (   1.000000   0.000000   0.000000 )  
               a(2) = (   0.000000   1.000000   0.000000 )  
               a(3) = (   0.000000   0.000000   2.531036 )  

     reciprocal axes: (cart. coord. in units 2 pi/alat)
               b(1) = (  1.000000  0.000000  0.000000 )  
               b(2) = (  0.000000  1.000000  0.000000 )  
               b(3) = (  0.000000  0.000000  0.395095 )  


     PseudoPot. # 1 for Sr read from file:
     /bsuhome/zayahcortright/q-e/pseudo/Sr_pbe_v1.uspp.F.UPF
     MD5 check sum: 6b418c05fbe9db5448babca5e47b7a5b
     Pseudo is Ultrasoft + core correction, Zval = 10.0
     Generated by new atomic code, or converted to UPF format
     Using radial grid of  883 points,  6 beta functions with: 
                l(1) =   0
                l(2) =   0
                l(3) =   1
                l(4) =   1
                l(5) =   2
                l(6) =   2
     Q(r) pseudized with  6 coefficients,  rinner =    1.400   1.400   1.400
                                                       1.400   1.400

     PseudoPot. # 2 for O  read from file:
     /bsuhome/zayahcortright/q-e/pseudo/O.pbe-n-kjpaw_psl.0.1.UPF
     MD5 check sum: 0234752ac141de4415c5fc33072bef88
     Pseudo is Projector augmented-wave + core cor, Zval =  6.0
     Generated using "atomic" code by A. Dal Corso  v.5.0.99 svn rev. 10869
     Shape of augmentation charge: BESSEL
     Using radial grid of 1095 points,  4 beta functions with: 
                l(1) =   0
                l(2) =   0
                l(3) =   1
                l(4) =   1
     Q(r) pseudized with 0 coefficients 


     PseudoPot. # 3 for Co read from file:
     /bsuhome/zayahcortright/q-e/pseudo/Co_pbe_v1.2.uspp.F.UPF
     MD5 check sum: 5f91765df6ddd3222702df6e7b74a16d
     Pseudo is Ultrasoft + core correction, Zval = 17.0
     Generated by new atomic code, or converted to UPF format
     Using radial grid of  863 points,  6 beta functions with: 
                l(1) =   0
                l(2) =   0
                l(3) =   1
                l(4) =   1
                l(5) =   2
                l(6) =   2
     Q(r) pseudized with  8 coefficients,  rinner =    1.200   1.200   1.200
                                                       1.200   1.200

     atomic species   valence    mass     pseudopotential
        Sr            10.00    87.62000     Sr( 1.00)
        O              6.00    15.99900     O ( 1.00)
        Co            17.00    58.93319     Co( 1.00)

     No symmetry found


                                    s                        frac. trans.

      isym =  1     identity                                     

 cryst.   s( 1) = (     1          0          0      )
                  (     0          1          0      )
                  (     0          0          1      )

 cart.    s( 1) = (  1.0000000  0.0000000  0.0000000 )
                  (  0.0000000  1.0000000  0.0000000 )
                  (  0.0000000  0.0000000  1.0000000 )


   Cartesian axes

     site n.     atom                  positions (alat units)
         1           Sr  tau(   1) = (   0.2508693   0.7491307   1.7574407  )
         2           O   tau(   2) = (   0.4985141   0.5014859   1.7715967  )
         3           Sr  tau(   3) = (   0.7482398   0.7454518   1.7648669  )
         4           Sr  tau(   4) = (   0.7441748   0.2558252   1.7667843  )
         5           Sr  tau(   5) = (   0.2508693   0.7491307   1.2696799  )
         6           Sr  tau(   6) = (   0.2508693   0.7491307   0.7632319  )
         7           Co  tau(   7) = (   0.4998914   0.5001086   1.0164559  )
         8           Co  tau(   8) = (   0.4936915   0.5063085   1.5135603  )
         9           O   tau(   9) = (   0.4988895   0.7610401   1.0164559  )
        10           O   tau(  10) = (   0.2389599   0.5011105   1.0164559  )
        11           O   tau(  11) = (   0.0070918   0.7374880   1.0164559  )
        12           O   tau(  12) = (   0.0088340   0.7405089   1.5135603  )
        13           O   tau(  13) = (   0.5066944   0.7415376   1.5135603  )
        14           O   tau(  14) = (   0.2584624   0.4933056   1.5135603  )
        15           O   tau(  15) = (   0.4985141   0.5014859   0.7773880  )
        16           O   tau(  16) = (   0.4985141   0.5014859   1.2555238  )
        17           Sr  tau(  17) = (   0.7482398   0.7454518   0.7706582  )
        18           Sr  tau(  18) = (   0.7482398   0.7454518   1.2622536  )
        19           Sr  tau(  19) = (   0.7441748   0.2558252   0.7725755  )
        20           Sr  tau(  20) = (   0.7441748   0.2558252   1.2603363  )
        21           O   tau(  21) = (   0.7322655   0.0078049   1.5135603  )
        22           O   tau(  22) = (   0.7558175   0.4996027   1.5135603  )
        23           O   tau(  23) = (   0.5003973   0.2441825   1.5135603  )
        24           O   tau(  24) = (   0.7527966   0.4978604   1.0164559  )
        25           O   tau(  25) = (   0.5021396   0.2472034   1.0164559  )
        26           O   tau(  26) = (   0.7517679   0.0000000   1.0164559  )
        27           O   tau(  27) = (   0.0114961   0.4948124   1.7455321  )
        28           O   tau(  28) = (   0.0048226   0.0077944   1.7715967  )
        29           Sr  tau(  29) = (   0.2545482   0.2517602   1.7648669  )
        30           O   tau(  30) = (   0.5048017   0.0015068   1.7786929  )
        31           Co  tau(  31) = (   0.0056869   0.5006215   1.0164559  )
        32           Co  tau(  32) = (   0.0065315   0.4997770   1.5135603  )
        33           Co  tau(  33) = (   0.0061999   0.0064171   1.0164559  )
        34           Co  tau(  34) = (   0.0000000   0.0126169   1.5135603  )
        35           O   tau(  35) = (   0.0114961   0.4948124   1.2815885  )
        36           O   tau(  36) = (   0.0114961   0.4948124   0.7513233  )
        37           O   tau(  37) = (   0.0051979   0.2673486   1.0164559  )
        38           O   tau(  38) = (   0.0130029   0.2478461   1.5135603  )
        39           O   tau(  39) = (   0.0048226   0.0077944   0.7773880  )
        40           O   tau(  40) = (   0.0048226   0.0077944   1.2555238  )
        41           Sr  tau(  41) = (   0.2545482   0.2517602   0.7706582  )
        42           Sr  tau(  42) = (   0.2545482   0.2517602   1.2622536  )
        43           Co  tau(  43) = (   0.4989925   0.0073160   1.5135603  )
        44           Co  tau(  44) = (   0.4998370   0.0064714   1.0164559  )
        45           O   tau(  45) = (   0.5048017   0.0015068   0.7844841  )
        46           O   tau(  46) = (   0.5048017   0.0015068   1.2484277  )
        47           O   tau(  47) = (   0.2621260   0.0059111   1.5135603  )
        48           O   tau(  48) = (   0.2591051   0.0041689   1.0164559  )
        49           O   tau(  49) = (   0.9951520   0.5686583   2.1602013  )

   Crystallographic axes

     site n.     atom                  positions (cryst. coord.)
         1           Sr  tau(   1) = (  0.2508693  0.7491307  0.6943562  )
         2           O   tau(   2) = (  0.4985141  0.5014859  0.6999492  )
         3           Sr  tau(   3) = (  0.7482398  0.7454518  0.6972903  )
         4           Sr  tau(   4) = (  0.7441748  0.2558252  0.6980478  )
         5           Sr  tau(   5) = (  0.2508693  0.7491307  0.5016443  )
         6           Sr  tau(   6) = (  0.2508693  0.7491307  0.3015492  )
         7           Co  tau(   7) = (  0.4998914  0.5001086  0.4015968  )
         8           Co  tau(   8) = (  0.4936915  0.5063085  0.5980003  )
         9           O   tau(   9) = (  0.4988895  0.7610401  0.4015968  )
        10           O   tau(  10) = (  0.2389599  0.5011105  0.4015968  )
        11           O   tau(  11) = (  0.0070918  0.7374880  0.4015968  )
        12           O   tau(  12) = (  0.0088340  0.7405089  0.5980003  )
        13           O   tau(  13) = (  0.5066944  0.7415376  0.5980003  )
        14           O   tau(  14) = (  0.2584624  0.4933056  0.5980003  )
        15           O   tau(  15) = (  0.4985141  0.5014859  0.3071422  )
        16           O   tau(  16) = (  0.4985141  0.5014859  0.4960513  )
        17           Sr  tau(  17) = (  0.7482398  0.7454518  0.3044833  )
        18           Sr  tau(  18) = (  0.7482398  0.7454518  0.4987103  )
        19           Sr  tau(  19) = (  0.7441748  0.2558252  0.3052408  )
        20           Sr  tau(  20) = (  0.7441748  0.2558252  0.4979527  )
        21           O   tau(  21) = (  0.7322655  0.0078049  0.5980003  )
        22           O   tau(  22) = (  0.7558175  0.4996027  0.5980003  )
        23           O   tau(  23) = (  0.5003973  0.2441825  0.5980003  )
        24           O   tau(  24) = (  0.7527966  0.4978604  0.4015968  )
        25           O   tau(  25) = (  0.5021396  0.2472034  0.4015968  )
        26           O   tau(  26) = (  0.7517679  0.0000000  0.4015968  )
        27           O   tau(  27) = (  0.0114961  0.4948124  0.6896512  )
        28           O   tau(  28) = (  0.0048226  0.0077944  0.6999492  )
        29           Sr  tau(  29) = (  0.2545482  0.2517602  0.6972903  )
        30           O   tau(  30) = (  0.5048017  0.0015068  0.7027529  )
        31           Co  tau(  31) = (  0.0056869  0.5006215  0.4015968  )
        32           Co  tau(  32) = (  0.0065315  0.4997770  0.5980003  )
        33           Co  tau(  33) = (  0.0061999  0.0064171  0.4015968  )
        34           Co  tau(  34) = (  0.0000000  0.0126169  0.5980003  )
        35           O   tau(  35) = (  0.0114961  0.4948124  0.5063494  )
        36           O   tau(  36) = (  0.0114961  0.4948124  0.2968442  )
        37           O   tau(  37) = (  0.0051979  0.2673486  0.4015968  )
        38           O   tau(  38) = (  0.0130029  0.2478461  0.5980003  )
        39           O   tau(  39) = (  0.0048226  0.0077944  0.3071422  )
        40           O   tau(  40) = (  0.0048226  0.0077944  0.4960513  )
        41           Sr  tau(  41) = (  0.2545482  0.2517602  0.3044833  )
        42           Sr  tau(  42) = (  0.2545482  0.2517602  0.4987103  )
        43           Co  tau(  43) = (  0.4989925  0.0073160  0.5980003  )
        44           Co  tau(  44) = (  0.4998370  0.0064714  0.4015968  )
        45           O   tau(  45) = (  0.5048017  0.0015068  0.3099459  )
        46           O   tau(  46) = (  0.5048017  0.0015068  0.4932477  )
        47           O   tau(  47) = (  0.2621260  0.0059111  0.5980003  )
        48           O   tau(  48) = (  0.2591051  0.0041689  0.4015968  )
        49           O   tau(  49) = (  0.9951520  0.5686583  0.8534850  )

     number of k points=    10  Gaussian smearing, width (Ry)=  0.0700
                       cart. coord. in units 2pi/alat
        k(    1) = (   0.0000000   0.0000000   0.0000000), wk =   0.1250000
        k(    2) = (   0.0000000   0.2500000   0.0000000), wk =   0.2500000
        k(    3) = (   0.0000000  -0.5000000   0.0000000), wk =   0.1250000
        k(    4) = (   0.2500000   0.2500000   0.0000000), wk =   0.2500000
        k(    5) = (   0.2500000  -0.5000000   0.0000000), wk =   0.2500000
        k(    6) = (  -0.5000000  -0.5000000   0.0000000), wk =   0.1250000
        k(    7) = (   0.2500000   0.0000000   0.0000000), wk =   0.2500000
        k(    8) = (  -0.5000000   0.0000000   0.0000000), wk =   0.1250000
        k(    9) = (  -0.2500000   0.2500000   0.0000000), wk =   0.2500000
        k(   10) = (  -0.5000000   0.2500000   0.0000000), wk =   0.2500000

                       cryst. coord.
        k(    1) = (   0.0000000   0.0000000   0.0000000), wk =   0.1250000
        k(    2) = (   0.0000000   0.2500000   0.0000000), wk =   0.2500000
        k(    3) = (   0.0000000  -0.5000000   0.0000000), wk =   0.1250000
        k(    4) = (   0.2500000   0.2500000   0.0000000), wk =   0.2500000
        k(    5) = (   0.2500000  -0.5000000   0.0000000), wk =   0.2500000
        k(    6) = (  -0.5000000  -0.5000000   0.0000000), wk =   0.1250000
        k(    7) = (   0.2500000   0.0000000   0.0000000), wk =   0.2500000
        k(    8) = (  -0.5000000   0.0000000   0.0000000), wk =   0.1250000
        k(    9) = (  -0.2500000   0.2500000   0.0000000), wk =   0.2500000
        k(   10) = (  -0.5000000   0.2500000   0.0000000), wk =   0.2500000

     Dense  grid:  1474595 G-vectors     FFT dimensions: ( 108, 108, 270)

     Smooth grid:   521381 G-vectors     FFT dimensions: (  75,  75, 192)

     Dynamical RAM for                 wfc:      10.69 MB

     Dynamical RAM for     wfc (w. buffer):      64.13 MB

     Dynamical RAM for           str. fact:       2.81 MB

     Dynamical RAM for           local pot:       0.00 MB

     Dynamical RAM for          nlocal pot:      24.53 MB

     Dynamical RAM for                qrad:       5.27 MB

     Dynamical RAM for          rho,v,vnew:       6.02 MB

     Dynamical RAM for               rhoin:       2.01 MB

     Dynamical RAM for            rho*nmix:      15.00 MB

     Dynamical RAM for           G-vectors:       3.68 MB

     Dynamical RAM for          h,s,v(r/c):       1.35 MB

     Dynamical RAM for          <psi|beta>:       2.33 MB

     Dynamical RAM for                 psi:      21.38 MB

     Dynamical RAM for                hpsi:      21.38 MB

     Dynamical RAM for                spsi:      21.38 MB

     Dynamical RAM for      wfcinit/wfcrot:      34.39 MB

     Dynamical RAM for           addusdens:     101.26 MB

     Estimated static dynamical RAM per process >     117.53 MB

     Estimated max dynamical RAM per process >     233.79 MB

     Estimated total dynamical RAM >      10.61 GB

     Check: negative core charge=   -0.000004

     Initial potential from superposition of free atoms

     starting charge     421.5961, renormalised to     430.0000

     negative rho (up, down):  7.826E-01 0.000E+00
     Starting wfcs are  376 randomized atomic wfcs
     Checking if some PAW data can be deallocated... 
       PAW data deallocated on   19 nodes for type:  2

     total cpu time spent up to now is        8.8 secs

     Self-consistent Calculation

     iteration #  1     ecut=    60.00 Ry     beta= 0.15
     Davidson diagonalization with overlap

---- Real-time Memory Report at c_bands before calling an iterative solver
             0 MiB given to the printing process from OS
             0 MiB allocation reported by mallinfo(arena+hblkhd)
         51472 MiB available memory on the node where the printing process lives
------------------
     ethr =  1.00E-02,  avg # of iterations =  2.0

     negative rho (up, down):  7.718E-01 0.000E+00

     total cpu time spent up to now is       24.3 secs

     total energy              =   -4445.27327440 Ry
     estimated scf accuracy    <      54.11546457 Ry

     iteration #  2     ecut=    60.00 Ry     beta= 0.15
     Davidson diagonalization with overlap

---- Real-time Memory Report at c_bands before calling an iterative solver
             0 MiB given to the printing process from OS
             0 MiB allocation reported by mallinfo(arena+hblkhd)
         51846 MiB available memory on the node where the printing process lives
------------------
     ethr =  1.00E-02,  avg # of iterations =  1.0

     negative rho (up, down):  7.587E-01 0.000E+00

     total cpu time spent up to now is       37.0 secs

     total energy              =   -4441.81005488 Ry
     estimated scf accuracy    <      28.84084466 Ry

     iteration #  3     ecut=    60.00 Ry     beta= 0.15
     Davidson diagonalization with overlap

---- Real-time Memory Report at c_bands before calling an iterative solver
             0 MiB given to the printing process from OS
             0 MiB allocation reported by mallinfo(arena+hblkhd)
         51087 MiB available memory on the node where the printing process lives
------------------
     ethr =  6.71E-03,  avg # of iterations =  1.0

     negative rho (up, down):  7.534E-01 0.000E+00

     total cpu time spent up to now is       49.7 secs

     total energy              =   -4442.65063177 Ry
     estimated scf accuracy    <      28.53909507 Ry

     iteration #  4     ecut=    60.00 Ry     beta= 0.15
     Davidson diagonalization with overlap

---- Real-time Memory Report at c_bands before calling an iterative solver
             0 MiB given to the printing process from OS
             0 MiB allocation reported by mallinfo(arena+hblkhd)
         51036 MiB available memory on the node where the printing process lives
------------------
     ethr =  6.64E-03,  avg # of iterations =  1.0

     negative rho (up, down):  7.538E-01 0.000E+00

     total cpu time spent up to now is       62.8 secs

     total energy              =   -4442.45953424 Ry
     estimated scf accuracy    <      26.26641561 Ry

     iteration #  5     ecut=    60.00 Ry     beta= 0.15
     Davidson diagonalization with overlap

---- Real-time Memory Report at c_bands before calling an iterative solver
             0 MiB given to the printing process from OS
             0 MiB allocation reported by mallinfo(arena+hblkhd)
         51013 MiB available memory on the node where the printing process lives
------------------
     ethr =  6.11E-03,  avg # of iterations =  1.0

     negative rho (up, down):  7.356E-01 0.000E+00

     total cpu time spent up to now is       76.1 secs

     total energy              =   -4441.20286000 Ry
     estimated scf accuracy    <      18.30613525 Ry

     iteration #  6     ecut=    60.00 Ry     beta= 0.15
     Davidson diagonalization with overlap

---- Real-time Memory Report at c_bands before calling an iterative solver
             0 MiB given to the printing process from OS
             0 MiB allocation reported by mallinfo(arena+hblkhd)
         50994 MiB available memory on the node where the printing process lives
------------------
     ethr =  4.26E-03,  avg # of iterations =  2.0

     negative rho (up, down):  7.372E-01 0.000E+00

     total cpu time spent up to now is       90.7 secs

     total energy              =   -4444.78463952 Ry
     estimated scf accuracy    <      71.48831251 Ry

     iteration #  7     ecut=    60.00 Ry     beta= 0.15
     Davidson diagonalization with overlap

---- Real-time Memory Report at c_bands before calling an iterative solver
             0 MiB given to the printing process from OS
             0 MiB allocation reported by mallinfo(arena+hblkhd)
         50974 MiB available memory on the node where the printing process lives
------------------
     ethr =  4.26E-03,  avg # of iterations =  1.0

     negative rho (up, down):  7.366E-01 0.000E+00

     total cpu time spent up to now is      103.6 secs

     total energy              =   -4445.16245978 Ry
     estimated scf accuracy    <      71.40607541 Ry

     iteration #  8     ecut=    60.00 Ry     beta= 0.15
     Davidson diagonalization with overlap

---- Real-time Memory Report at c_bands before calling an iterative solver
             0 MiB given to the printing process from OS
             0 MiB allocation reported by mallinfo(arena+hblkhd)
         50962 MiB available memory on the node where the printing process lives
------------------
     ethr =  4.26E-03,  avg # of iterations =  1.0

     negative rho (up, down):  7.498E-01 0.000E+00

     total cpu time spent up to now is      116.6 secs

     total energy              =   -4440.44337350 Ry
     estimated scf accuracy    <      80.16039130 Ry

     iteration #  9     ecut=    60.00 Ry     beta= 0.15
     Davidson diagonalization with overlap

---- Real-time Memory Report at c_bands before calling an iterative solver
             0 MiB given to the printing process from OS
             0 MiB allocation reported by mallinfo(arena+hblkhd)
         50940 MiB available memory on the node where the printing process lives
------------------
     ethr =  4.26E-03,  avg # of iterations =  1.0

     negative rho (up, down):  7.583E-01 0.000E+00

     total cpu time spent up to now is      129.5 secs

     total energy              =   -4441.02813669 Ry
     estimated scf accuracy    <      10.18718082 Ry

     iteration # 10     ecut=    60.00 Ry     beta= 0.15
     Davidson diagonalization with overlap

---- Real-time Memory Report at c_bands before calling an iterative solver
             0 MiB given to the printing process from OS
             0 MiB allocation reported by mallinfo(arena+hblkhd)
         50917 MiB available memory on the node where the printing process lives
------------------
     ethr =  2.37E-03,  avg # of iterations =  1.2

     negative rho (up, down):  7.548E-01 0.000E+00

     total cpu time spent up to now is      142.8 secs

     total energy              =   -4440.32508026 Ry
     estimated scf accuracy    <       5.84846157 Ry

     iteration # 11     ecut=    60.00 Ry     beta= 0.15
     Davidson diagonalization with overlap

---- Real-time Memory Report at c_bands before calling an iterative solver
             0 MiB given to the printing process from OS
             0 MiB allocation reported by mallinfo(arena+hblkhd)
         50911 MiB available memory on the node where the printing process lives
------------------
     ethr =  1.36E-03,  avg # of iterations =  5.9

     negative rho (up, down):  7.684E-01 0.000E+00

     total cpu time spent up to now is      158.4 secs

     total energy              =   -4439.12306022 Ry
     estimated scf accuracy    <      15.34500591 Ry

     iteration # 12     ecut=    60.00 Ry     beta= 0.15
     Davidson diagonalization with overlap

---- Real-time Memory Report at c_bands before calling an iterative solver
             0 MiB given to the printing process from OS
             0 MiB allocation reported by mallinfo(arena+hblkhd)
         50803 MiB available memory on the node where the printing process lives
------------------
     ethr =  1.36E-03,  avg # of iterations =  2.0

     negative rho (up, down):  7.841E-01 0.000E+00

     total cpu time spent up to now is      172.3 secs

     total energy              =   -4440.67373194 Ry
     estimated scf accuracy    <      20.69185768 Ry

     iteration # 13     ecut=    60.00 Ry     beta= 0.15
     Davidson diagonalization with overlap

---- Real-time Memory Report at c_bands before calling an iterative solver
             0 MiB given to the printing process from OS
             0 MiB allocation reported by mallinfo(arena+hblkhd)
         50811 MiB available memory on the node where the printing process lives
------------------
     ethr =  1.36E-03,  avg # of iterations =  3.9

     negative rho (up, down):  7.836E-01 0.000E+00

     total cpu time spent up to now is      187.1 secs

     total energy              =   -4440.41164644 Ry
     estimated scf accuracy    <       6.65622145 Ry

     iteration # 14     ecut=    60.00 Ry     beta= 0.15
     Davidson diagonalization with overlap

---- Real-time Memory Report at c_bands before calling an iterative solver
             0 MiB given to the printing process from OS
             0 MiB allocation reported by mallinfo(arena+hblkhd)
         50788 MiB available memory on the node where the printing process lives
------------------
     ethr =  1.36E-03,  avg # of iterations =  2.3

     negative rho (up, down):  7.874E-01 0.000E+00

     total cpu time spent up to now is      201.0 secs

     total energy              =   -4440.50999876 Ry
     estimated scf accuracy    <       1.58482804 Ry

     iteration # 15     ecut=    60.00 Ry     beta= 0.15
     Davidson diagonalization with overlap

---- Real-time Memory Report at c_bands before calling an iterative solver
             0 MiB given to the printing process from OS
             0 MiB allocation reported by mallinfo(arena+hblkhd)
         50784 MiB available memory on the node where the printing process lives
------------------
     ethr =  3.69E-04,  avg # of iterations = 12.9

     negative rho (up, down):  7.917E-01 0.000E+00

     total cpu time spent up to now is      220.7 secs

     total energy              =   -4440.35842634 Ry
     estimated scf accuracy    <       1.88330872 Ry

     iteration # 16     ecut=    60.00 Ry     beta= 0.15
     Davidson diagonalization with overlap

---- Real-time Memory Report at c_bands before calling an iterative solver
             0 MiB given to the printing process from OS
             0 MiB allocation reported by mallinfo(arena+hblkhd)
         50373 MiB available memory on the node where the printing process lives
------------------
     ethr =  3.69E-04,  avg # of iterations =  2.0

     negative rho (up, down):  8.046E-01 0.000E+00

     total cpu time spent up to now is      234.9 secs

     total energy              =   -4440.46800893 Ry
     estimated scf accuracy    <       1.61957848 Ry

     iteration # 17     ecut=    60.00 Ry     beta= 0.15
     Davidson diagonalization with overlap

---- Real-time Memory Report at c_bands before calling an iterative solver
             0 MiB given to the printing process from OS
             0 MiB allocation reported by mallinfo(arena+hblkhd)
         50377 MiB available memory on the node where the printing process lives
------------------
     ethr =  3.69E-04,  avg # of iterations =  1.7

     negative rho (up, down):  8.220E-01 0.000E+00

     total cpu time spent up to now is      248.9 secs

     total energy              =   -4440.24505906 Ry
     estimated scf accuracy    <       1.44639621 Ry

     iteration # 18     ecut=    60.00 Ry     beta= 0.15
     Davidson diagonalization with overlap

---- Real-time Memory Report at c_bands before calling an iterative solver
             0 MiB given to the printing process from OS
             0 MiB allocation reported by mallinfo(arena+hblkhd)
         50386 MiB available memory on the node where the printing process lives
------------------
     ethr =  3.36E-04,  avg # of iterations =  4.0

     negative rho (up, down):  8.258E-01 0.000E+00

     total cpu time spent up to now is      264.2 secs

     total energy              =   -4440.35873197 Ry
     estimated scf accuracy    <       7.08734880 Ry

     iteration # 19     ecut=    60.00 Ry     beta= 0.15
     Davidson diagonalization with overlap

---- Real-time Memory Report at c_bands before calling an iterative solver
             0 MiB given to the printing process from OS
             0 MiB allocation reported by mallinfo(arena+hblkhd)
         50428 MiB available memory on the node where the printing process lives
------------------
     ethr =  3.36E-04,  avg # of iterations =  1.1

     negative rho (up, down):  8.181E-01 0.000E+00

     total cpu time spent up to now is      277.4 secs

     total energy              =   -4440.33376553 Ry
     estimated scf accuracy    <       1.55848721 Ry

     iteration # 20     ecut=    60.00 Ry     beta= 0.15
     Davidson diagonalization with overlap

---- Real-time Memory Report at c_bands before calling an iterative solver
             0 MiB given to the printing process from OS
             0 MiB allocation reported by mallinfo(arena+hblkhd)
         50418 MiB available memory on the node where the printing process lives
------------------
     ethr =  3.36E-04,  avg # of iterations =  1.5

     negative rho (up, down):  8.193E-01 0.000E+00

     total cpu time spent up to now is      290.9 secs

     total energy              =   -4440.34279491 Ry
     estimated scf accuracy    <       0.17521176 Ry

     iteration # 21     ecut=    60.00 Ry     beta= 0.15
     Davidson diagonalization with overlap

---- Real-time Memory Report at c_bands before calling an iterative solver
             0 MiB given to the printing process from OS
             0 MiB allocation reported by mallinfo(arena+hblkhd)
         50425 MiB available memory on the node where the printing process lives
------------------
     ethr =  4.07E-05,  avg # of iterations = 16.9

     negative rho (up, down):  8.137E-01 0.000E+00

     total cpu time spent up to now is      311.6 secs

     total energy              =   -4440.32949629 Ry
     estimated scf accuracy    <       0.42849122 Ry

     iteration # 22     ecut=    60.00 Ry     beta= 0.15
     Davidson diagonalization with overlap

---- Real-time Memory Report at c_bands before calling an iterative solver
             0 MiB given to the printing process from OS
             0 MiB allocation reported by mallinfo(arena+hblkhd)
         50326 MiB available memory on the node where the printing process lives
------------------
     ethr =  4.07E-05,  avg # of iterations =  1.2

     negative rho (up, down):  8.025E-01 0.000E+00

     total cpu time spent up to now is      324.9 secs

     total energy              =   -4440.31734119 Ry
     estimated scf accuracy    <       0.12368260 Ry

     iteration # 23     ecut=    60.00 Ry     beta= 0.15
     Davidson diagonalization with overlap

---- Real-time Memory Report at c_bands before calling an iterative solver
             0 MiB given to the printing process from OS
             0 MiB allocation reported by mallinfo(arena+hblkhd)
         50321 MiB available memory on the node where the printing process lives
------------------
     ethr =  2.88E-05,  avg # of iterations =  6.8

     negative rho (up, down):  8.227E-01 0.000E+00

     total cpu time spent up to now is      341.7 secs

     total energy              =   -4440.30621134 Ry
     estimated scf accuracy    <       0.06203177 Ry

     iteration # 24     ecut=    60.00 Ry     beta= 0.15
     Davidson diagonalization with overlap

---- Real-time Memory Report at c_bands before calling an iterative solver
             0 MiB given to the printing process from OS
             0 MiB allocation reported by mallinfo(arena+hblkhd)
         50319 MiB available memory on the node where the printing process lives
------------------
     c_bands:  1 eigenvalues not converged
     ethr =  1.44E-05,  avg # of iterations = 10.5

     negative rho (up, down):  8.255E-01 0.000E+00

     total cpu time spent up to now is      360.8 secs

     total energy              =   -4440.30576860 Ry
     estimated scf accuracy    <       0.06335479 Ry

     iteration # 25     ecut=    60.00 Ry     beta= 0.15
     Davidson diagonalization with overlap

---- Real-time Memory Report at c_bands before calling an iterative solver
             0 MiB given to the printing process from OS
             0 MiB allocation reported by mallinfo(arena+hblkhd)
         50309 MiB available memory on the node where the printing process lives
------------------
     ethr =  1.44E-05,  avg # of iterations =  2.0

     negative rho (up, down):  8.136E-01 0.000E+00

     total cpu time spent up to now is      375.2 secs

     total energy              =   -4440.30396915 Ry
     estimated scf accuracy    <       0.01997554 Ry

     iteration # 26     ecut=    60.00 Ry     beta= 0.15
     Davidson diagonalization with overlap

---- Real-time Memory Report at c_bands before calling an iterative solver
             0 MiB given to the printing process from OS
             0 MiB allocation reported by mallinfo(arena+hblkhd)
         50318 MiB available memory on the node where the printing process lives
------------------
     ethr =  4.65E-06,  avg # of iterations =  7.1

     negative rho (up, down):  8.099E-01 0.000E+00

     total cpu time spent up to now is      391.7 secs

     total energy              =   -4440.30246917 Ry
     estimated scf accuracy    <       0.01509085 Ry

     iteration # 27     ecut=    60.00 Ry     beta= 0.15
     Davidson diagonalization with overlap

---- Real-time Memory Report at c_bands before calling an iterative solver
             0 MiB given to the printing process from OS
             0 MiB allocation reported by mallinfo(arena+hblkhd)
         50334 MiB available memory on the node where the printing process lives
------------------
     c_bands:  1 eigenvalues not converged
     ethr =  3.51E-06,  avg # of iterations = 12.5

     negative rho (up, down):  7.953E-01 0.000E+00

     total cpu time spent up to now is      411.3 secs

     total energy              =   -4440.30152870 Ry
     estimated scf accuracy    <       0.00972878 Ry

     iteration # 28     ecut=    60.00 Ry     beta= 0.15
     Davidson diagonalization with overlap

---- Real-time Memory Report at c_bands before calling an iterative solver
             0 MiB given to the printing process from OS
             0 MiB allocation reported by mallinfo(arena+hblkhd)
         50315 MiB available memory on the node where the printing process lives
------------------
     c_bands:  1 eigenvalues not converged
     ethr =  2.26E-06,  avg # of iterations =  8.1

     negative rho (up, down):  7.938E-01 0.000E+00

     total cpu time spent up to now is      428.1 secs

     total energy              =   -4440.30134062 Ry
     estimated scf accuracy    <       0.00538660 Ry

     iteration # 29     ecut=    60.00 Ry     beta= 0.15
     Davidson diagonalization with overlap

---- Real-time Memory Report at c_bands before calling an iterative solver
             0 MiB given to the printing process from OS
             0 MiB allocation reported by mallinfo(arena+hblkhd)
         50318 MiB available memory on the node where the printing process lives
------------------
     ethr =  1.25E-06,  avg # of iterations =  3.0

     negative rho (up, down):  7.926E-01 0.000E+00

     total cpu time spent up to now is      442.9 secs

     total energy              =   -4440.30108054 Ry
     estimated scf accuracy    <       0.00417560 Ry

     iteration # 30     ecut=    60.00 Ry     beta= 0.15
     Davidson diagonalization with overlap

---- Real-time Memory Report at c_bands before calling an iterative solver
             0 MiB given to the printing process from OS
             0 MiB allocation reported by mallinfo(arena+hblkhd)
         50360 MiB available memory on the node where the printing process lives
------------------
     ethr =  9.71E-07,  avg # of iterations =  5.2

     negative rho (up, down):  7.917E-01 0.000E+00

     total cpu time spent up to now is      458.6 secs

     total energy              =   -4440.30076514 Ry
     estimated scf accuracy    <       0.00342659 Ry

     iteration # 31     ecut=    60.00 Ry     beta= 0.15
     Davidson diagonalization with overlap

---- Real-time Memory Report at c_bands before calling an iterative solver
             0 MiB given to the printing process from OS
             0 MiB allocation reported by mallinfo(arena+hblkhd)
         50381 MiB available memory on the node where the printing process lives
------------------
     c_bands:  1 eigenvalues not converged
     ethr =  7.97E-07,  avg # of iterations =  6.6

     negative rho (up, down):  7.938E-01 0.000E+00

     total cpu time spent up to now is      475.1 secs

     total energy              =   -4440.30094312 Ry
     estimated scf accuracy    <       0.00200552 Ry

     iteration # 32     ecut=    60.00 Ry     beta= 0.15
     Davidson diagonalization with overlap

---- Real-time Memory Report at c_bands before calling an iterative solver
             0 MiB given to the printing process from OS
             0 MiB allocation reported by mallinfo(arena+hblkhd)
         50387 MiB available memory on the node where the printing process lives
------------------
     c_bands:  1 eigenvalues not converged
     ethr =  4.66E-07,  avg # of iterations =  9.4

     negative rho (up, down):  7.997E-01 0.000E+00

     total cpu time spent up to now is      493.5 secs

     total energy              =   -4440.30110667 Ry
     estimated scf accuracy    <       0.00082904 Ry

     iteration # 33     ecut=    60.00 Ry     beta= 0.15
     Davidson diagonalization with overlap

---- Real-time Memory Report at c_bands before calling an iterative solver
             0 MiB given to the printing process from OS
             0 MiB allocation reported by mallinfo(arena+hblkhd)
         50364 MiB available memory on the node where the printing process lives
------------------
     ethr =  1.93E-07,  avg # of iterations =  7.5

     negative rho (up, down):  7.960E-01 0.000E+00

     total cpu time spent up to now is      511.1 secs

     total energy              =   -4440.30101026 Ry
     estimated scf accuracy    <       0.00028699 Ry

     iteration # 34     ecut=    60.00 Ry     beta= 0.15
     Davidson diagonalization with overlap

---- Real-time Memory Report at c_bands before calling an iterative solver
             0 MiB given to the printing process from OS
             0 MiB allocation reported by mallinfo(arena+hblkhd)
         50270 MiB available memory on the node where the printing process lives
------------------
     ethr =  6.67E-08,  avg # of iterations =  6.5

     negative rho (up, down):  7.947E-01 0.000E+00

     total cpu time spent up to now is      527.8 secs

     total energy              =   -4440.30097455 Ry
     estimated scf accuracy    <       0.00011604 Ry

     iteration # 35     ecut=    60.00 Ry     beta= 0.15
     Davidson diagonalization with overlap

---- Real-time Memory Report at c_bands before calling an iterative solver
             0 MiB given to the printing process from OS
             0 MiB allocation reported by mallinfo(arena+hblkhd)
         50361 MiB available memory on the node where the printing process lives
------------------
     ethr =  2.70E-08,  avg # of iterations =  3.7

     negative rho (up, down):  7.925E-01 0.000E+00

     total cpu time spent up to now is      543.4 secs

     total energy              =   -4440.30094414 Ry
     estimated scf accuracy    <       0.00007055 Ry

     iteration # 36     ecut=    60.00 Ry     beta= 0.15
     Davidson diagonalization with overlap

---- Real-time Memory Report at c_bands before calling an iterative solver
             0 MiB given to the printing process from OS
             0 MiB allocation reported by mallinfo(arena+hblkhd)
         50360 MiB available memory on the node where the printing process lives
------------------
     ethr =  1.64E-08,  avg # of iterations =  5.7

     negative rho (up, down):  7.925E-01 0.000E+00

     total cpu time spent up to now is      560.1 secs

     total energy              =   -4440.30094228 Ry
     estimated scf accuracy    <       0.00003340 Ry

     iteration # 37     ecut=    60.00 Ry     beta= 0.15
     Davidson diagonalization with overlap

---- Real-time Memory Report at c_bands before calling an iterative solver
             0 MiB given to the printing process from OS
             0 MiB allocation reported by mallinfo(arena+hblkhd)
         50356 MiB available memory on the node where the printing process lives
------------------
     ethr =  7.77E-09,  avg # of iterations =  2.0

     negative rho (up, down):  7.928E-01 0.000E+00

     total cpu time spent up to now is      575.1 secs

     total energy              =   -4440.30093999 Ry
     estimated scf accuracy    <       0.00002301 Ry

     iteration # 38     ecut=    60.00 Ry     beta= 0.15
     Davidson diagonalization with overlap

---- Real-time Memory Report at c_bands before calling an iterative solver
             0 MiB given to the printing process from OS
             0 MiB allocation reported by mallinfo(arena+hblkhd)
         50371 MiB available memory on the node where the printing process lives
------------------
     ethr =  5.35E-09,  avg # of iterations =  2.0

     negative rho (up, down):  7.932E-01 0.000E+00

     total cpu time spent up to now is      589.5 secs

     total energy              =   -4440.30093807 Ry
     estimated scf accuracy    <       0.00001471 Ry

     iteration # 39     ecut=    60.00 Ry     beta= 0.15
     Davidson diagonalization with overlap

---- Real-time Memory Report at c_bands before calling an iterative solver
             0 MiB given to the printing process from OS
             0 MiB allocation reported by mallinfo(arena+hblkhd)
         50368 MiB available memory on the node where the printing process lives
------------------
     ethr =  3.42E-09,  avg # of iterations =  2.0

     negative rho (up, down):  7.932E-01 0.000E+00

     total cpu time spent up to now is      603.9 secs

     total energy              =   -4440.30093895 Ry
     estimated scf accuracy    <       0.00000939 Ry

     iteration # 40     ecut=    60.00 Ry     beta= 0.15
     Davidson diagonalization with overlap

---- Real-time Memory Report at c_bands before calling an iterative solver
             0 MiB given to the printing process from OS
             0 MiB allocation reported by mallinfo(arena+hblkhd)
         50377 MiB available memory on the node where the printing process lives
------------------
     ethr =  2.18E-09,  avg # of iterations =  2.1

     negative rho (up, down):  7.928E-01 0.000E+00

     total cpu time spent up to now is      618.8 secs

     total energy              =   -4440.30094215 Ry
     estimated scf accuracy    <       0.00000477 Ry

     iteration # 41     ecut=    60.00 Ry     beta= 0.15
     Davidson diagonalization with overlap

---- Real-time Memory Report at c_bands before calling an iterative solver
             0 MiB given to the printing process from OS
             0 MiB allocation reported by mallinfo(arena+hblkhd)
         50390 MiB available memory on the node where the printing process lives
------------------
     ethr =  1.11E-09,  avg # of iterations =  2.6

     negative rho (up, down):  7.927E-01 0.000E+00

     total cpu time spent up to now is      633.9 secs

     total energy              =   -4440.30094299 Ry
     estimated scf accuracy    <       0.00000314 Ry

     iteration # 42     ecut=    60.00 Ry     beta= 0.15
     Davidson diagonalization with overlap

---- Real-time Memory Report at c_bands before calling an iterative solver
             0 MiB given to the printing process from OS
             0 MiB allocation reported by mallinfo(arena+hblkhd)
         50391 MiB available memory on the node where the printing process lives
------------------
     ethr =  7.31E-10,  avg # of iterations =  2.2

     negative rho (up, down):  7.926E-01 0.000E+00

     total cpu time spent up to now is      648.5 secs

     total energy              =   -4440.30094329 Ry
     estimated scf accuracy    <       0.00000265 Ry

     iteration # 43     ecut=    60.00 Ry     beta= 0.15
     Davidson diagonalization with overlap

---- Real-time Memory Report at c_bands before calling an iterative solver
             0 MiB given to the printing process from OS
             0 MiB allocation reported by mallinfo(arena+hblkhd)
         50393 MiB available memory on the node where the printing process lives
------------------
     ethr =  6.16E-10,  avg # of iterations =  2.6

     negative rho (up, down):  7.926E-01 0.000E+00

     total cpu time spent up to now is      663.2 secs

     total energy              =   -4440.30094349 Ry
     estimated scf accuracy    <       0.00000161 Ry

     iteration # 44     ecut=    60.00 Ry     beta= 0.15
     Davidson diagonalization with overlap

---- Real-time Memory Report at c_bands before calling an iterative solver
             0 MiB given to the printing process from OS
             0 MiB allocation reported by mallinfo(arena+hblkhd)
         50398 MiB available memory on the node where the printing process lives
------------------
     ethr =  3.74E-10,  avg # of iterations =  3.6

     negative rho (up, down):  7.926E-01 0.000E+00

     total cpu time spent up to now is      678.6 secs

     total energy              =   -4440.30094341 Ry
     estimated scf accuracy    <       0.00000064 Ry

     iteration # 45     ecut=    60.00 Ry     beta= 0.15
     Davidson diagonalization with overlap

---- Real-time Memory Report at c_bands before calling an iterative solver
             0 MiB given to the printing process from OS
             0 MiB allocation reported by mallinfo(arena+hblkhd)
         50403 MiB available memory on the node where the printing process lives
------------------
     ethr =  1.49E-10,  avg # of iterations =  3.2

     negative rho (up, down):  7.926E-01 0.000E+00

     total cpu time spent up to now is      693.9 secs

     total energy              =   -4440.30094346 Ry
     estimated scf accuracy    <       0.00000034 Ry

     iteration # 46     ecut=    60.00 Ry     beta= 0.15
     Davidson diagonalization with overlap

---- Real-time Memory Report at c_bands before calling an iterative solver
             0 MiB given to the printing process from OS
             0 MiB allocation reported by mallinfo(arena+hblkhd)
         50382 MiB available memory on the node where the printing process lives
------------------
     ethr =  7.95E-11,  avg # of iterations =  2.0

     negative rho (up, down):  7.926E-01 0.000E+00

     total cpu time spent up to now is      708.9 secs

     total energy              =   -4440.30094357 Ry
     estimated scf accuracy    <       0.00000023 Ry

     iteration # 47     ecut=    60.00 Ry     beta= 0.15
     Davidson diagonalization with overlap

---- Real-time Memory Report at c_bands before calling an iterative solver
             0 MiB given to the printing process from OS
             0 MiB allocation reported by mallinfo(arena+hblkhd)
         50383 MiB available memory on the node where the printing process lives
------------------
     ethr =  5.30E-11,  avg # of iterations =  2.3

     negative rho (up, down):  7.926E-01 0.000E+00

     total cpu time spent up to now is      723.2 secs

     total energy              =   -4440.30094361 Ry
     estimated scf accuracy    <       0.00000010 Ry

     iteration # 48     ecut=    60.00 Ry     beta= 0.15
     Davidson diagonalization with overlap

---- Real-time Memory Report at c_bands before calling an iterative solver
             0 MiB given to the printing process from OS
             0 MiB allocation reported by mallinfo(arena+hblkhd)
         50385 MiB available memory on the node where the printing process lives
------------------
     ethr =  2.42E-11,  avg # of iterations =  3.6

     negative rho (up, down):  7.926E-01 0.000E+00

     total cpu time spent up to now is      738.6 secs

     total energy              =   -4440.30094359 Ry
     estimated scf accuracy    <       0.00000003 Ry

     iteration # 49     ecut=    60.00 Ry     beta= 0.15
     Davidson diagonalization with overlap

---- Real-time Memory Report at c_bands before calling an iterative solver
             0 MiB given to the printing process from OS
             0 MiB allocation reported by mallinfo(arena+hblkhd)
         50394 MiB available memory on the node where the printing process lives
------------------
     ethr =  8.09E-12,  avg # of iterations =  3.5

     negative rho (up, down):  7.926E-01 0.000E+00

     total cpu time spent up to now is      754.2 secs

     total energy              =   -4440.30094359 Ry
     estimated scf accuracy    <       0.00000001 Ry

     iteration # 50     ecut=    60.00 Ry     beta= 0.15
     Davidson diagonalization with overlap

---- Real-time Memory Report at c_bands before calling an iterative solver
             0 MiB given to the printing process from OS
             0 MiB allocation reported by mallinfo(arena+hblkhd)
         50374 MiB available memory on the node where the printing process lives
------------------
     ethr =  2.56E-12,  avg # of iterations =  3.2

     negative rho (up, down):  7.926E-01 0.000E+00

     total cpu time spent up to now is      769.6 secs

     End of self-consistent calculation

          k = 0.0000 0.0000 0.0000 ( 65197 PWs)   bands (ev):

   -92.8857 -92.8360 -92.7407 -92.6923 -92.6363 -92.5925 -92.5749 -92.4541
   -56.2392 -56.2210 -56.0971 -56.0862 -56.0797 -56.0730 -56.0399 -56.0093
   -55.9938 -55.9923 -55.9869 -55.9430 -55.9228 -55.8869 -55.8677 -55.8364
   -55.8278 -55.7802 -55.7802 -55.7773 -55.7689 -55.7294 -55.7050 -55.6193
   -31.4488 -31.4290 -31.2880 -31.2011 -31.1445 -31.1254 -30.9639 -30.9234
   -30.0304 -29.9870 -29.9619 -29.8537 -15.2623 -15.2148 -15.1360 -15.0070
   -14.8049 -14.6865 -14.3978 -14.3745 -14.3486 -14.3023 -14.2552 -14.2419
   -14.2309 -14.2126 -14.1889 -14.1530 -14.1111 -13.9570 -13.7688 -13.7448
   -13.7158 -13.6757 -13.6580 -13.6068 -13.5754 -13.4915 -13.4233 -13.2942
   -13.2812 -13.2697 -13.2469 -13.2289 -13.1778 -13.1716 -13.1670 -13.1517
   -13.1240 -13.0945 -13.0719 -13.0032 -12.9945 -12.9782 -12.9249 -12.9055
   -12.8974 -12.8449 -12.8026 -12.7941 -12.5156 -12.3689 -12.1884 -12.1148
   -12.0436 -11.9934 -11.9697 -11.9588 -11.9357 -11.9181 -11.8547 -11.8376
   -11.8024 -11.7734 -11.6621 -11.5823 -11.5789  -3.1228  -2.8918  -2.6623
    -2.5127  -2.4526  -2.3106  -2.0020  -1.9867  -1.9691  -1.8791  -1.8631
    -1.7952  -1.7782  -1.7383  -1.6942  -1.5131  -1.2845  -1.2546  -1.1130
    -1.0981  -1.0497  -1.0310  -0.9839  -0.9671  -0.9160  -0.8886  -0.8132
    -0.8024  -0.7291  -0.5941  -0.5809  -0.5523  -0.4731  -0.4452  -0.3934
    -0.3683  -0.3077  -0.2599  -0.2050  -0.1847  -0.1165  -0.0441  -0.0016
     0.0241   0.0344   0.2957   0.3114   0.4875   0.5457   0.6098   0.6626
     0.7472   0.7591   0.7756   0.8443   0.8712   0.9040   0.9613   1.0912
     1.1515   1.1734   1.2024   1.2132   1.2711   1.3376   1.4538   1.4738
     1.5286   1.5342   1.5810   1.6015   1.6128   1.6654   1.7305   1.7360
     1.7735   1.8001   1.8466   1.9796   2.0674   2.1067   2.1277   2.2710
     2.2858   2.3285   2.3336   2.4436   2.4761   2.5022   2.5207   2.5276
     2.5893   2.6096   2.6348   2.6558   2.7280   2.7647   2.7692   2.7749
     2.8423   2.8578   2.8708   2.8777   2.8875   2.9005   2.9081   2.9232
     2.9299   2.9385   2.9462   2.9536   2.9736   2.9949   2.9998   3.0122
     3.0354   3.1522   3.2586   3.9335   4.2512   4.6100   4.8277   4.8627
     5.7669   5.8100   5.8363   5.9282   6.1329   6.1781   6.4319   6.4424
     6.9402   6.9956   7.0852   7.1587   7.5047   7.5426   7.5577   7.5751
     7.6199   7.8672   7.9041   8.0299   8.0715   8.1449   8.3056   8.3881
     8.7576   8.9139

     occupation numbers 
     1.0000   1.0000   1.0000   1.0000   1.0000   1.0000   1.0000   1.0000
     1.0000   1.0000   1.0000   1.0000   1.0000   1.0000   1.0000   1.0000
     1.0000   1.0000   1.0000   1.0000   1.0000   1.0000   1.0000   1.0000
     1.0000   1.0000   1.0000   1.0000   1.0000   1.0000   1.0000   1.0000
     1.0000   1.0000   1.0000   1.0000   1.0000   1.0000   1.0000   1.0000
     1.0000   1.0000   1.0000   1.0000   1.0000   1.0000   1.0000   1.0000
     1.0000   1.0000   1.0000   1.0000   1.0000   1.0000   1.0000   1.0000
     1.0000   1.0000   1.0000   1.0000   1.0000   1.0000   1.0000   1.0000
     1.0000   1.0000   1.0000   1.0000   1.0000   1.0000   1.0000   1.0000
     1.0000   1.0000   1.0000   1.0000   1.0000   1.0000   1.0000   1.0000
     1.0000   1.0000   1.0000   1.0000   1.0000   1.0000   1.0000   1.0000
     1.0000   1.0000   1.0000   1.0000   1.0000   1.0000   1.0000   1.0000
     1.0000   1.0000   1.0000   1.0000   1.0000   1.0000   1.0000   1.0000
     1.0000   1.0000   1.0000   1.0000   1.0000   1.0000   1.0000   1.0000
     1.0000   1.0000   1.0000   1.0000   1.0000   1.0000   1.0000   1.0000
     1.0000   1.0000   1.0000   1.0000   1.0000   1.0000   1.0000   1.0000
     1.0000   1.0000   1.0000   1.0000   1.0000   1.0000   1.0000   1.0000
     1.0000   1.0000   1.0000   1.0000   1.0000   1.0000   1.0000   1.0000
     1.0000   1.0000   1.0000   1.0000   1.0000   1.0000   1.0000   1.0000
     1.0000   1.0000   1.0000   1.0000   1.0000   0.9999   0.9999   0.9999
     0.9998   0.9998   0.9998   0.9997   0.9996   0.9996   0.9994   0.9988
     0.9984   0.9983   0.9980   0.9979   0.9973   0.9963   0.9939   0.9934
     0.9917   0.9915   0.9898   0.9890   0.9885   0.9859   0.9820   0.9816
     0.9790   0.9769   0.9729   0.9580   0.9449   0.9381   0.9341   0.9023
     0.8984   0.8867   0.8852   0.8504   0.8389   0.8293   0.8222   0.8195
     0.7944   0.7858   0.7747   0.7652   0.7311   0.7128   0.7105   0.7076
     0.6723   0.6640   0.6569   0.6531   0.6477   0.6406   0.6363   0.6279
     0.6241   0.6193   0.6149   0.6107   0.5992   0.5870   0.5841   0.5769
     0.5634   0.4945   0.4318   0.1202   0.0499   0.0147   0.0062   0.0053
     0.0000   0.0000   0.0000   0.0000   0.0000   0.0000   0.0000   0.0000
     0.0000   0.0000   0.0000   0.0000   0.0000   0.0000   0.0000   0.0000
     0.0000   0.0000   0.0000   0.0000   0.0000   0.0000   0.0000   0.0000
     0.0000   0.0000

          k = 0.0000 0.2500 0.0000 ( 65257 PWs)   bands (ev):

   -92.8857 -92.8360 -92.7407 -92.6923 -92.6363 -92.5925 -92.5749 -92.4541
   -56.2392 -56.2210 -56.0971 -56.0862 -56.0797 -56.0730 -56.0399 -56.0093
   -55.9938 -55.9923 -55.9869 -55.9430 -55.9228 -55.8869 -55.8677 -55.8364
   -55.8278 -55.7802 -55.7802 -55.7773 -55.7689 -55.7294 -55.7050 -55.6193
   -31.4487 -31.4288 -31.2882 -31.2012 -31.1428 -31.1271 -30.9631 -30.9242
   -30.0298 -29.9867 -29.9626 -29.8540 -15.2258 -15.1884 -15.1113 -14.9772
   -14.8492 -14.6751 -14.5443 -14.3641 -14.3234 -14.3053 -14.2778 -14.2179
   -14.2124 -14.1968 -14.1712 -14.1198 -14.0295 -13.9870 -13.8243 -13.7941
   -13.7561 -13.7186 -13.6562 -13.6292 -13.5783 -13.5170 -13.4775 -13.4041
   -13.3333 -13.3184 -13.2798 -13.2608 -13.1598 -13.1571 -13.1299 -13.1066
   -13.0742 -13.0429 -13.0389 -12.9724 -12.9516 -12.9319 -12.9024 -12.8935
   -12.8832 -12.8339 -12.7134 -12.6449 -12.5769 -12.4201 -12.2471 -12.1827
   -12.0091 -11.9934 -11.9664 -11.9385 -11.9106 -11.8940 -11.8463 -11.8352
   -11.8125 -11.7778 -11.6765 -11.6241 -11.6135  -2.9873  -2.7675  -2.6292
    -2.4465  -2.4033  -2.2409  -2.0168  -1.9375  -1.9243  -1.8588  -1.7621
    -1.7462  -1.7124  -1.6847  -1.6405  -1.4444  -1.3137  -1.3025  -1.2246
    -1.2154  -1.1125  -1.0834  -1.0239  -0.9965  -0.9596  -0.8927  -0.8651
    -0.8341  -0.8036  -0.7869  -0.7537  -0.6798  -0.6298  -0.5477  -0.4445
    -0.4111  -0.3681  -0.2698  -0.2292  -0.1621  -0.1193  -0.0585  -0.0468
    -0.0204   0.0388   0.3436   0.4310   0.4671   0.5508   0.5973   0.6195
     0.7297   0.7476   0.8456   0.8719   0.8958   1.0102   1.1104   1.1273
     1.1541   1.1764   1.1948   1.2539   1.2830   1.3107   1.3567   1.3951
     1.4286   1.5190   1.5561   1.5799   1.6360   1.6889   1.7278   1.7568
     1.7810   1.7939   1.8986   2.0174   2.0905   2.1117   2.1786   2.2246
     2.2666   2.2729   2.3357   2.3724   2.4591   2.4940   2.5128   2.6022
     2.6116   2.6370   2.6879   2.7077   2.7392   2.7646   2.7776   2.7868
     2.7913   2.8004   2.8308   2.8345   2.8506   2.8639   2.8658   2.8886
     2.8996   2.9074   2.9248   2.9358   2.9435   2.9764   2.9926   3.0519
     3.4216   3.4724   3.7020   4.1236   4.2480   4.5518   4.8807   4.9896
     5.5122   5.6584   5.8097   5.9126   5.9593   6.0585   6.0819   6.5468
     7.0294   7.1073   7.2226   7.2441   7.3450   7.4039   7.5441   7.6530
     7.7235   8.0152   8.0692   8.1674   8.2717   8.2951   8.3264   8.3886
     8.4436   8.8156

     occupation numbers 
     1.0000   1.0000   1.0000   1.0000   1.0000   1.0000   1.0000   1.0000
     1.0000   1.0000   1.0000   1.0000   1.0000   1.0000   1.0000   1.0000
     1.0000   1.0000   1.0000   1.0000   1.0000   1.0000   1.0000   1.0000
     1.0000   1.0000   1.0000   1.0000   1.0000   1.0000   1.0000   1.0000
     1.0000   1.0000   1.0000   1.0000   1.0000   1.0000   1.0000   1.0000
     1.0000   1.0000   1.0000   1.0000   1.0000   1.0000   1.0000   1.0000
     1.0000   1.0000   1.0000   1.0000   1.0000   1.0000   1.0000   1.0000
     1.0000   1.0000   1.0000   1.0000   1.0000   1.0000   1.0000   1.0000
     1.0000   1.0000   1.0000   1.0000   1.0000   1.0000   1.0000   1.0000
     1.0000   1.0000   1.0000   1.0000   1.0000   1.0000   1.0000   1.0000
     1.0000   1.0000   1.0000   1.0000   1.0000   1.0000   1.0000   1.0000
     1.0000   1.0000   1.0000   1.0000   1.0000   1.0000   1.0000   1.0000
     1.0000   1.0000   1.0000   1.0000   1.0000   1.0000   1.0000   1.0000
     1.0000   1.0000   1.0000   1.0000   1.0000   1.0000   1.0000   1.0000
     1.0000   1.0000   1.0000   1.0000   1.0000   1.0000   1.0000   1.0000
     1.0000   1.0000   1.0000   1.0000   1.0000   1.0000   1.0000   1.0000
     1.0000   1.0000   1.0000   1.0000   1.0000   1.0000   1.0000   1.0000
     1.0000   1.0000   1.0000   1.0000   1.0000   1.0000   1.0000   1.0000
     1.0000   1.0000   1.0000   1.0000   1.0000   1.0000   1.0000   1.0000
     1.0000   1.0000   1.0000   1.0000   1.0000   0.9999   0.9999   0.9999
     0.9998   0.9998   0.9997   0.9996   0.9996   0.9992   0.9987   0.9986
     0.9984   0.9983   0.9981   0.9975   0.9971   0.9967   0.9960   0.9953
     0.9945   0.9921   0.9908   0.9899   0.9874   0.9846   0.9822   0.9802
     0.9784   0.9774   0.9677   0.9527   0.9409   0.9371   0.9239   0.9136
     0.9034   0.9018   0.8846   0.8737   0.8450   0.8323   0.8253   0.7890
     0.7849   0.7737   0.7503   0.7409   0.7256   0.7128   0.7062   0.7015
     0.6992   0.6944   0.6785   0.6765   0.6679   0.6607   0.6596   0.6471
     0.6410   0.6367   0.6270   0.6208   0.6164   0.5976   0.5883   0.5537
     0.3395   0.3123   0.2032   0.0727   0.0504   0.0182   0.0049   0.0031
     0.0002   0.0001   0.0000   0.0000   0.0000   0.0000   0.0000   0.0000
     0.0000   0.0000   0.0000   0.0000   0.0000   0.0000   0.0000   0.0000
     0.0000   0.0000   0.0000   0.0000   0.0000   0.0000   0.0000   0.0000
     0.0000   0.0000

          k = 0.0000-0.5000 0.0000 ( 65180 PWs)   bands (ev):

   -92.8857 -92.8360 -92.7407 -92.6923 -92.6363 -92.5925 -92.5749 -92.4541
   -56.2392 -56.2210 -56.0971 -56.0862 -56.0797 -56.0730 -56.0399 -56.0093
   -55.9938 -55.9923 -55.9869 -55.9430 -55.9228 -55.8869 -55.8677 -55.8364
   -55.8278 -55.7802 -55.7802 -55.7773 -55.7689 -55.7294 -55.7050 -55.6193
   -31.4485 -31.4287 -31.2885 -31.2014 -31.1406 -31.1293 -30.9622 -30.9250
   -30.0291 -29.9864 -29.9632 -29.8544 -15.1891 -15.1405 -15.0871 -14.9548
   -14.8756 -14.7362 -14.5808 -14.4530 -14.3371 -14.2606 -14.2203 -14.2123
   -14.1606 -14.1487 -14.1022 -14.0698 -14.0536 -14.0141 -13.9598 -13.9382
   -13.7631 -13.7035 -13.6566 -13.6352 -13.5673 -13.5352 -13.4822 -13.4532
   -13.4261 -13.3882 -13.2806 -13.2613 -13.1460 -13.1370 -13.1099 -13.1067
   -13.0998 -13.0544 -12.9472 -12.9254 -12.9014 -12.8874 -12.8781 -12.8604
   -12.8399 -12.8247 -12.6878 -12.5611 -12.4949 -12.4255 -12.3591 -12.3226
   -11.9934 -11.9633 -11.9606 -11.9334 -11.8969 -11.8620 -11.8509 -11.8077
   -11.8040 -11.7592 -11.6985 -11.6849 -11.6708  -2.7719  -2.7144  -2.5643
    -2.4926  -2.2060  -2.1259  -1.9990  -1.8631  -1.8169  -1.8047  -1.7275
    -1.6943  -1.6140  -1.5780  -1.4978  -1.4602  -1.4229  -1.3951  -1.3333
    -1.2995  -1.2494  -1.2138  -1.1840  -1.1490  -1.0399  -0.9958  -0.9574
    -0.9536  -0.8680  -0.8379  -0.8167  -0.7690  -0.6759  -0.6084  -0.5154
    -0.4650  -0.3816  -0.3511  -0.2112  -0.1436  -0.1360  -0.0880   0.0303
     0.0941   0.2100   0.2811   0.2922   0.4158   0.4870   0.5709   0.6966
     0.8002   0.8342   0.8741   0.8906   0.9216   0.9349   0.9687   0.9865
     0.9995   1.1082   1.1689   1.2058   1.2365   1.5081   1.5211   1.5440
     1.6349   1.6597   1.6938   1.7104   1.7313   1.7552   1.7593   1.7823
     1.8275   1.8541   1.8864   1.8898   1.9193   1.9717   2.0652   2.0982
     2.2620   2.4211   2.4279   2.4508   2.4863   2.4933   2.4999   2.5388
     2.5611   2.5933   2.6105   2.6161   2.6364   2.6454   2.7209   2.7440
     2.8021   2.8054   2.8330   2.8373   2.8479   2.8517   2.8557   2.8633
     2.8695   2.8847   2.8955   2.9003   2.9613   2.9661   2.9822   3.0387
     3.9468   3.9647   4.0089   4.1045   4.5606   4.7312   4.9011   5.0213
     5.2832   5.3644   5.4877   5.6017   5.8673   5.8710   6.4075   6.6301
     6.7886   6.8939   7.1417   7.3084   7.5805   7.6523   7.7474   7.7724
     7.7837   8.0046   8.0458   8.1898   8.2094   8.3205   8.3508   8.5161
     8.6861   8.7972

     occupation numbers 
     1.0000   1.0000   1.0000   1.0000   1.0000   1.0000   1.0000   1.0000
     1.0000   1.0000   1.0000   1.0000   1.0000   1.0000   1.0000   1.0000
     1.0000   1.0000   1.0000   1.0000   1.0000   1.0000   1.0000   1.0000
     1.0000   1.0000   1.0000   1.0000   1.0000   1.0000   1.0000   1.0000
     1.0000   1.0000   1.0000   1.0000   1.0000   1.0000   1.0000   1.0000
     1.0000   1.0000   1.0000   1.0000   1.0000   1.0000   1.0000   1.0000
     1.0000   1.0000   1.0000   1.0000   1.0000   1.0000   1.0000   1.0000
     1.0000   1.0000   1.0000   1.0000   1.0000   1.0000   1.0000   1.0000
     1.0000   1.0000   1.0000   1.0000   1.0000   1.0000   1.0000   1.0000
     1.0000   1.0000   1.0000   1.0000   1.0000   1.0000   1.0000   1.0000
     1.0000   1.0000   1.0000   1.0000   1.0000   1.0000   1.0000   1.0000
     1.0000   1.0000   1.0000   1.0000   1.0000   1.0000   1.0000   1.0000
     1.0000   1.0000   1.0000   1.0000   1.0000   1.0000   1.0000   1.0000
     1.0000   1.0000   1.0000   1.0000   1.0000   1.0000   1.0000   1.0000
     1.0000   1.0000   1.0000   1.0000   1.0000   1.0000   1.0000   1.0000
     1.0000   1.0000   1.0000   1.0000   1.0000   1.0000   1.0000   1.0000
     1.0000   1.0000   1.0000   1.0000   1.0000   1.0000   1.0000   1.0000
     1.0000   1.0000   1.0000   1.0000   1.0000   1.0000   1.0000   1.0000
     1.0000   1.0000   1.0000   1.0000   1.0000   1.0000   1.0000   1.0000
     1.0000   1.0000   1.0000   1.0000   1.0000   1.0000   0.9999   0.9999
     0.9997   0.9997   0.9996   0.9996   0.9995   0.9995   0.9994   0.9993
     0.9993   0.9987   0.9983   0.9980   0.9977   0.9924   0.9920   0.9912
     0.9874   0.9862   0.9843   0.9833   0.9820   0.9803   0.9800   0.9783
     0.9746   0.9722   0.9690   0.9686   0.9654   0.9590   0.9452   0.9396
     0.9046   0.8581   0.8558   0.8479   0.8352   0.8326   0.8301   0.8151
     0.8062   0.7928   0.7854   0.7830   0.7740   0.7700   0.7345   0.7232
     0.6936   0.6918   0.6773   0.6750   0.6693   0.6673   0.6651   0.6610
     0.6576   0.6493   0.6433   0.6407   0.6063   0.6035   0.5943   0.5615
     0.1163   0.1112   0.0992   0.0767   0.0176   0.0092   0.0045   0.0026
     0.0007   0.0005   0.0002   0.0001   0.0000   0.0000   0.0000   0.0000
     0.0000   0.0000   0.0000   0.0000   0.0000   0.0000   0.0000   0.0000
     0.0000   0.0000   0.0000   0.0000   0.0000   0.0000   0.0000   0.0000
     0.0000   0.0000

          k = 0.2500 0.2500 0.0000 ( 65198 PWs)   bands (ev):

   -92.8857 -92.8360 -92.7407 -92.6923 -92.6363 -92.5925 -92.5749 -92.4541
   -56.2392 -56.2210 -56.0971 -56.0862 -56.0797 -56.0730 -56.0399 -56.0093
   -55.9938 -55.9923 -55.9869 -55.9430 -55.9228 -55.8869 -55.8677 -55.8364
   -55.8278 -55.7802 -55.7802 -55.7773 -55.7689 -55.7294 -55.7050 -55.6193
   -31.4470 -31.4305 -31.2879 -31.2016 -31.1427 -31.1269 -30.9633 -30.9243
   -30.0288 -29.9877 -29.9622 -29.8545 -15.1968 -15.1536 -15.0833 -14.9667
   -14.8416 -14.7181 -14.6499 -14.4376 -14.2867 -14.2715 -14.2359 -14.2060
   -14.1849 -14.1539 -14.1180 -14.0811 -14.0193 -14.0001 -13.8403 -13.8257
   -13.7966 -13.7767 -13.6958 -13.6845 -13.6052 -13.5998 -13.4622 -13.4201
   -13.3991 -13.3130 -13.2729 -13.2211 -13.1901 -13.1500 -13.1248 -13.1133
   -13.0884 -13.0375 -12.9856 -12.9421 -12.9213 -12.9163 -12.8865 -12.8777
   -12.8439 -12.8283 -12.6525 -12.6253 -12.5504 -12.4490 -12.2789 -12.2309
   -11.9935 -11.9813 -11.9500 -11.9389 -11.9319 -11.8692 -11.8347 -11.8281
   -11.7926 -11.7846 -11.6932 -11.6524 -11.6349  -2.8488  -2.6417  -2.5233
    -2.4266  -2.3087  -2.2442  -2.0413  -1.9018  -1.8830  -1.8469  -1.7562
    -1.7231  -1.6287  -1.6005  -1.5501  -1.4203  -1.3717  -1.2962  -1.2533
    -1.2071  -1.1849  -1.1620  -1.1192  -1.1041  -1.0126  -0.9628  -0.8910
    -0.8444  -0.8164  -0.7697  -0.7541  -0.6897  -0.6396  -0.5718  -0.5461
    -0.4505  -0.4082  -0.3738  -0.3406  -0.2851  -0.2069  -0.1734  -0.1378
    -0.0697  -0.0339   0.2320   0.3844   0.4141   0.4790   0.5161   0.5787
     0.6216   0.6910   0.7296   1.0013   1.0617   1.1356   1.1583   1.2162
     1.2390   1.2767   1.3139   1.3295   1.3570   1.4057   1.4121   1.4315
     1.4784   1.5126   1.5507   1.6131   1.6483   1.6641   1.6917   1.7276
     1.7839   1.8061   1.9359   1.9988   2.0332   2.0528   2.1276   2.1865
     2.2145   2.2502   2.2778   2.2868   2.4016   2.4403   2.5189   2.5978
     2.6078   2.6415   2.6951   2.7150   2.7186   2.7356   2.7506   2.7646
     2.7754   2.7802   2.7934   2.8068   2.8259   2.8360   2.8418   2.8549
     2.8829   2.8886   2.8964   2.9282   3.2278   3.3201   3.3774   3.4391
     3.4546   3.6906   3.7716   4.1291   4.3384   4.5587   4.8033   5.1288
     5.4989   5.5625   5.6276   5.6591   5.7211   6.0900   6.1560   6.2186
     6.8357   7.1914   7.2074   7.3743   7.4518   7.4798   7.5907   7.7579
     7.8708   7.9390   8.2020   8.3020   8.3243   8.3897   8.4545   8.4878
     8.5111   8.5718

     occupation numbers 
     1.0000   1.0000   1.0000   1.0000   1.0000   1.0000   1.0000   1.0000
     1.0000   1.0000   1.0000   1.0000   1.0000   1.0000   1.0000   1.0000
     1.0000   1.0000   1.0000   1.0000   1.0000   1.0000   1.0000   1.0000
     1.0000   1.0000   1.0000   1.0000   1.0000   1.0000   1.0000   1.0000
     1.0000   1.0000   1.0000   1.0000   1.0000   1.0000   1.0000   1.0000
     1.0000   1.0000   1.0000   1.0000   1.0000   1.0000   1.0000   1.0000
     1.0000   1.0000   1.0000   1.0000   1.0000   1.0000   1.0000   1.0000
     1.0000   1.0000   1.0000   1.0000   1.0000   1.0000   1.0000   1.0000
     1.0000   1.0000   1.0000   1.0000   1.0000   1.0000   1.0000   1.0000
     1.0000   1.0000   1.0000   1.0000   1.0000   1.0000   1.0000   1.0000
     1.0000   1.0000   1.0000   1.0000   1.0000   1.0000   1.0000   1.0000
     1.0000   1.0000   1.0000   1.0000   1.0000   1.0000   1.0000   1.0000
     1.0000   1.0000   1.0000   1.0000   1.0000   1.0000   1.0000   1.0000
     1.0000   1.0000   1.0000   1.0000   1.0000   1.0000   1.0000   1.0000
     1.0000   1.0000   1.0000   1.0000   1.0000   1.0000   1.0000   1.0000
     1.0000   1.0000   1.0000   1.0000   1.0000   1.0000   1.0000   1.0000
     1.0000   1.0000   1.0000   1.0000   1.0000   1.0000   1.0000   1.0000
     1.0000   1.0000   1.0000   1.0000   1.0000   1.0000   1.0000   1.0000
     1.0000   1.0000   1.0000   1.0000   1.0000   1.0000   1.0000   1.0000
     1.0000   1.0000   1.0000   1.0000   1.0000   1.0000   1.0000   0.9999
     0.9999   0.9999   0.9998   0.9993   0.9990   0.9986   0.9984   0.9979
     0.9977   0.9972   0.9967   0.9965   0.9960   0.9951   0.9949   0.9945
     0.9933   0.9923   0.9910   0.9884   0.9868   0.9859   0.9844   0.9822
     0.9782   0.9764   0.9635   0.9553   0.9503   0.9472   0.9342   0.9222
     0.9160   0.9075   0.9005   0.8982   0.8645   0.8516   0.8229   0.7908
     0.7866   0.7717   0.7469   0.7374   0.7356   0.7273   0.7199   0.7129
     0.7074   0.7049   0.6981   0.6911   0.6810   0.6757   0.6726   0.6656
     0.6503   0.6471   0.6428   0.6250   0.4498   0.3962   0.3638   0.3300
     0.3217   0.2080   0.1752   0.0715   0.0379   0.0178   0.0068   0.0016
     0.0002   0.0002   0.0001   0.0001   0.0001   0.0000   0.0000   0.0000
     0.0000   0.0000   0.0000   0.0000   0.0000   0.0000   0.0000   0.0000
     0.0000   0.0000   0.0000   0.0000   0.0000   0.0000   0.0000   0.0000
     0.0000   0.0000

          k = 0.2500-0.5000 0.0000 ( 65138 PWs)   bands (ev):

   -92.8857 -92.8360 -92.7407 -92.6923 -92.6363 -92.5925 -92.5749 -92.4541
   -56.2392 -56.2210 -56.0971 -56.0862 -56.0797 -56.0730 -56.0399 -56.0093
   -55.9938 -55.9923 -55.9869 -55.9430 -55.9228 -55.8869 -55.8677 -55.8364
   -55.8278 -55.7802 -55.7802 -55.7773 -55.7689 -55.7294 -55.7050 -55.6193
   -31.4468 -31.4304 -31.2881 -31.2018 -31.1405 -31.1291 -30.9624 -30.9252
   -30.0282 -29.9874 -29.9628 -29.8548 -15.1585 -15.1136 -15.0440 -14.9260
   -14.8971 -14.7779 -14.6841 -14.5525 -14.2522 -14.1954 -14.1712 -14.1469
   -14.1308 -14.1216 -14.0858 -14.0595 -14.0279 -13.9952 -13.9619 -13.9200
   -13.8440 -13.7947 -13.7168 -13.7095 -13.6427 -13.6112 -13.5171 -13.4803
   -13.3787 -13.3137 -13.2906 -13.2058 -13.1630 -13.1483 -13.1178 -13.0942
   -13.0832 -13.0644 -12.9515 -12.9371 -12.9114 -12.8953 -12.8647 -12.8491
   -12.8279 -12.7966 -12.6942 -12.5430 -12.4922 -12.4044 -12.3473 -12.3223
   -11.9934 -11.9571 -11.9449 -11.9343 -11.9072 -11.8753 -11.8473 -11.8052
   -11.7787 -11.7560 -11.7116 -11.6861 -11.6748  -2.6291  -2.5661  -2.4379
    -2.3612  -2.2266  -2.1455  -2.0233  -1.8734  -1.8154  -1.7946  -1.7344
    -1.7219  -1.6248  -1.5568  -1.4729  -1.4204  -1.4108  -1.3501  -1.3047
    -1.2728  -1.2239  -1.1859  -1.1521  -1.1138  -1.1008  -1.0561  -1.0262
    -0.9808  -0.9523  -0.8845  -0.7785  -0.7448  -0.6621  -0.5960  -0.5404
    -0.5036  -0.4875  -0.4206  -0.2718  -0.2615  -0.1341  -0.1235  -0.1149
    -0.0706  -0.0327  -0.0013   0.0307   0.0957   0.3888   0.4837   0.5367
     0.5895   0.8690   0.8808   0.9735   0.9978   1.1592   1.2005   1.2344
     1.2576   1.2695   1.2928   1.3586   1.4120   1.4450   1.5161   1.6200
     1.6501   1.6705   1.6775   1.7149   1.7291   1.7374   1.7807   1.7911
     1.8106   1.8489   1.8592   1.8796   1.9148   1.9718   2.0191   2.0978
     2.2278   2.3726   2.3908   2.4091   2.4384   2.4611   2.4872   2.5082
     2.5185   2.5386   2.5885   2.6014   2.6402   2.6479   2.7011   2.7165
     2.7292   2.7340   2.7516   2.7646   2.7841   2.7943   2.8382   2.8443
     2.8526   2.8588   2.8700   2.8776   3.3966   3.4283   3.5597   3.6139
     3.9490   4.0098   4.0180   4.1515   4.5796   4.7519   4.9208   4.9754
     5.1318   5.3115   5.5077   5.5511   5.6297   5.6694   6.3417   6.4463
     6.5114   6.7504   7.3551   7.5844   7.6541   7.6815   7.7232   7.7811
     7.8806   7.9254   8.2374   8.3268   8.4034   8.4473   8.5468   8.5579
     8.5869   8.6366

     occupation numbers 
     1.0000   1.0000   1.0000   1.0000   1.0000   1.0000   1.0000   1.0000
     1.0000   1.0000   1.0000   1.0000   1.0000   1.0000   1.0000   1.0000
     1.0000   1.0000   1.0000   1.0000   1.0000   1.0000   1.0000   1.0000
     1.0000   1.0000   1.0000   1.0000   1.0000   1.0000   1.0000   1.0000
     1.0000   1.0000   1.0000   1.0000   1.0000   1.0000   1.0000   1.0000
     1.0000   1.0000   1.0000   1.0000   1.0000   1.0000   1.0000   1.0000
     1.0000   1.0000   1.0000   1.0000   1.0000   1.0000   1.0000   1.0000
     1.0000   1.0000   1.0000   1.0000   1.0000   1.0000   1.0000   1.0000
     1.0000   1.0000   1.0000   1.0000   1.0000   1.0000   1.0000   1.0000
     1.0000   1.0000   1.0000   1.0000   1.0000   1.0000   1.0000   1.0000
     1.0000   1.0000   1.0000   1.0000   1.0000   1.0000   1.0000   1.0000
     1.0000   1.0000   1.0000   1.0000   1.0000   1.0000   1.0000   1.0000
     1.0000   1.0000   1.0000   1.0000   1.0000   1.0000   1.0000   1.0000
     1.0000   1.0000   1.0000   1.0000   1.0000   1.0000   1.0000   1.0000
     1.0000   1.0000   1.0000   1.0000   1.0000   1.0000   1.0000   1.0000
     1.0000   1.0000   1.0000   1.0000   1.0000   1.0000   1.0000   1.0000
     1.0000   1.0000   1.0000   1.0000   1.0000   1.0000   1.0000   1.0000
     1.0000   1.0000   1.0000   1.0000   1.0000   1.0000   1.0000   1.0000
     1.0000   1.0000   1.0000   1.0000   1.0000   1.0000   1.0000   1.0000
     1.0000   1.0000   1.0000   1.0000   1.0000   1.0000   1.0000   0.9999
     0.9999   0.9996   0.9996   0.9994   0.9993   0.9984   0.9980   0.9977
     0.9974   0.9973   0.9970   0.9960   0.9949   0.9942   0.9921   0.9881
     0.9867   0.9856   0.9852   0.9830   0.9821   0.9816   0.9784   0.9776
     0.9760   0.9727   0.9717   0.9697   0.9659   0.9590   0.9524   0.9397
     0.9129   0.8736   0.8679   0.8620   0.8522   0.8443   0.8349   0.8270
     0.8231   0.8152   0.7948   0.7893   0.7723   0.7688   0.7441   0.7367
     0.7305   0.7281   0.7194   0.7129   0.7029   0.6977   0.6745   0.6712
     0.6668   0.6634   0.6574   0.6532   0.3532   0.3358   0.2680   0.2421
     0.1157   0.0990   0.0969   0.0671   0.0164   0.0084   0.0041   0.0033
     0.0016   0.0006   0.0002   0.0002   0.0001   0.0001   0.0000   0.0000
     0.0000   0.0000   0.0000   0.0000   0.0000   0.0000   0.0000   0.0000
     0.0000   0.0000   0.0000   0.0000   0.0000   0.0000   0.0000   0.0000
     0.0000   0.0000

          k =-0.5000-0.5000 0.0000 ( 65132 PWs)   bands (ev):

   -92.8857 -92.8360 -92.7407 -92.6923 -92.6363 -92.5925 -92.5749 -92.4541
   -56.2392 -56.2210 -56.0971 -56.0862 -56.0797 -56.0730 -56.0399 -56.0093
   -55.9938 -55.9923 -55.9868 -55.9430 -55.9228 -55.8869 -55.8677 -55.8364
   -55.8278 -55.7802 -55.7802 -55.7773 -55.7689 -55.7294 -55.7050 -55.6193
   -31.4447 -31.4324 -31.2877 -31.2021 -31.1403 -31.1290 -30.9626 -30.9253
   -30.0272 -29.9884 -29.9624 -29.8552 -15.1115 -15.0866 -14.9689 -14.9557
   -14.8588 -14.8262 -14.7859 -14.6534 -14.1631 -14.1484 -14.1165 -14.0973
   -14.0813 -14.0577 -14.0384 -14.0274 -14.0125 -13.9984 -13.9812 -13.9107
   -13.9022 -13.8649 -13.8370 -13.7913 -13.7281 -13.6655 -13.5555 -13.5238
   -13.3287 -13.2885 -13.2224 -13.1980 -13.1634 -13.1566 -13.1472 -13.1295
   -13.0734 -13.0346 -12.9537 -12.9293 -12.9121 -12.9034 -12.8782 -12.8723
   -12.7779 -12.7701 -12.7103 -12.5259 -12.4884 -12.3817 -12.3353 -12.3238
   -11.9934 -11.9539 -11.9414 -11.9232 -11.9067 -11.8712 -11.8535 -11.8195
   -11.7591 -11.7386 -11.7338 -11.6838 -11.6805  -2.4021  -2.3296  -2.3225
    -2.2496  -2.2108  -2.1327  -2.0649  -1.9373  -1.8237  -1.7942  -1.7488
    -1.6981  -1.6252  -1.6109  -1.5404  -1.4978  -1.3789  -1.3469  -1.2996
    -1.2751  -1.2105  -1.1619  -1.1443  -1.1311  -1.0744  -1.0350  -1.0131
    -0.9044  -0.8472  -0.8020  -0.7517  -0.7205  -0.7022  -0.6729  -0.6336
    -0.5918  -0.5843  -0.5012  -0.4338  -0.3923  -0.3619  -0.2912  -0.2249
    -0.2209  -0.1589  -0.1285  -0.1136  -0.0909   0.3676   0.4049   0.4829
     0.5046   0.8926   0.9056   0.9434   0.9819   1.2482   1.2662   1.2728
     1.3198   1.4374   1.5316   1.5597   1.5960   1.6271   1.6408   1.6505
     1.6819   1.6973   1.7140   1.7223   1.7685   1.7715   1.7998   1.8183
     1.8360   1.8527   1.8887   1.9144   1.9301   1.9572   1.9946   2.0531
     2.1219   2.3865   2.4148   2.4330   2.4544   2.4653   2.4912   2.4979
     2.5181   2.5271   2.5449   2.5585   2.5762   2.5922   2.5949   2.6387
     2.6457   2.6570   2.6713   2.6844   2.7074   2.7233   2.7291   2.7403
     2.8433   2.8525   2.8633   2.8790   3.8311   3.8717   3.8825   3.9145
     4.1358   4.2122   4.2351   4.4752   4.5981   4.6804   4.8137   4.9200
     4.9277   5.0274   5.1591   5.3105   5.8105   5.8478   5.8851   6.0156
     6.7298   6.9640   6.9882   7.3167   7.8358   7.8502   7.9294   8.0733
     8.1345   8.1786   8.2337   8.3112   8.3935   8.4570   8.4954   8.5249
     8.5400   8.6656

     occupation numbers 
     1.0000   1.0000   1.0000   1.0000   1.0000   1.0000   1.0000   1.0000
     1.0000   1.0000   1.0000   1.0000   1.0000   1.0000   1.0000   1.0000
     1.0000   1.0000   1.0000   1.0000   1.0000   1.0000   1.0000   1.0000
     1.0000   1.0000   1.0000   1.0000   1.0000   1.0000   1.0000   1.0000
     1.0000   1.0000   1.0000   1.0000   1.0000   1.0000   1.0000   1.0000
     1.0000   1.0000   1.0000   1.0000   1.0000   1.0000   1.0000   1.0000
     1.0000   1.0000   1.0000   1.0000   1.0000   1.0000   1.0000   1.0000
     1.0000   1.0000   1.0000   1.0000   1.0000   1.0000   1.0000   1.0000
     1.0000   1.0000   1.0000   1.0000   1.0000   1.0000   1.0000   1.0000
     1.0000   1.0000   1.0000   1.0000   1.0000   1.0000   1.0000   1.0000
     1.0000   1.0000   1.0000   1.0000   1.0000   1.0000   1.0000   1.0000
     1.0000   1.0000   1.0000   1.0000   1.0000   1.0000   1.0000   1.0000
     1.0000   1.0000   1.0000   1.0000   1.0000   1.0000   1.0000   1.0000
     1.0000   1.0000   1.0000   1.0000   1.0000   1.0000   1.0000   1.0000
     1.0000   1.0000   1.0000   1.0000   1.0000   1.0000   1.0000   1.0000
     1.0000   1.0000   1.0000   1.0000   1.0000   1.0000   1.0000   1.0000
     1.0000   1.0000   1.0000   1.0000   1.0000   1.0000   1.0000   1.0000
     1.0000   1.0000   1.0000   1.0000   1.0000   1.0000   1.0000   1.0000
     1.0000   1.0000   1.0000   1.0000   1.0000   1.0000   1.0000   1.0000
     1.0000   1.0000   1.0000   1.0000   1.0000   1.0000   1.0000   1.0000
     1.0000   0.9996   0.9996   0.9995   0.9993   0.9975   0.9973   0.9973
     0.9966   0.9943   0.9916   0.9906   0.9892   0.9878   0.9871   0.9867
     0.9850   0.9841   0.9831   0.9825   0.9794   0.9791   0.9769   0.9754
     0.9738   0.9723   0.9687   0.9659   0.9641   0.9608   0.9559   0.9472
     0.9352   0.8693   0.8602   0.8541   0.8467   0.8428   0.8334   0.8309
     0.8232   0.8198   0.8127   0.8072   0.8000   0.7933   0.7921   0.7730
     0.7698   0.7647   0.7581   0.7520   0.7410   0.7334   0.7305   0.7250
     0.6718   0.6669   0.6610   0.6524   0.1534   0.1396   0.1360   0.1260
     0.0702   0.0562   0.0524   0.0239   0.0154   0.0112   0.0066   0.0042
[...]
     0.6326   0.6211   0.6183   0.6145   0.6090   0.6048   0.5992   0.5264
     0.3529   0.3154   0.2024   0.0769   0.0446   0.0203   0.0050   0.0030
     0.0002   0.0001   0.0000   0.0000   0.0000   0.0000   0.0000   0.0000
     0.0000   0.0000   0.0000   0.0000   0.0000   0.0000   0.0000   0.0000
     0.0000   0.0000   0.0000   0.0000   0.0000   0.0000   0.0000   0.0000
     0.0000   0.0000

          k =-0.5000 0.0000 0.0000 ( 65180 PWs)   bands (ev):

   -92.8857 -92.8360 -92.7407 -92.6923 -92.6363 -92.5925 -92.5749 -92.4541
   -56.2392 -56.2210 -56.0971 -56.0862 -56.0797 -56.0730 -56.0399 -56.0093
   -55.9938 -55.9923 -55.9868 -55.9430 -55.9228 -55.8869 -55.8677 -55.8364
   -55.8278 -55.7802 -55.7802 -55.7773 -55.7689 -55.7294 -55.7050 -55.6193
   -31.4451 -31.4327 -31.2873 -31.2018 -31.1442 -31.1251 -30.9643 -30.9237
   -30.0284 -29.9890 -29.9612 -29.8545 -15.1953 -15.1410 -15.0801 -14.9674
   -14.8688 -14.7240 -14.5760 -14.4260 -14.3117 -14.2926 -14.2880 -14.2200
   -14.1682 -14.1376 -14.0860 -14.0713 -14.0590 -14.0131 -13.9850 -13.8852
   -13.7346 -13.6852 -13.6715 -13.6608 -13.5799 -13.5410 -13.4757 -13.4382
   -13.4142 -13.3990 -13.2261 -13.2128 -13.1891 -13.1794 -13.1568 -13.1185
   -13.0972 -13.0738 -12.9934 -12.9752 -12.8849 -12.8582 -12.8138 -12.8044
   -12.8040 -12.7979 -12.7138 -12.6026 -12.4987 -12.4720 -12.3440 -12.3017
   -11.9934 -11.9607 -11.9388 -11.9323 -11.9179 -11.8994 -11.8580 -11.7960
   -11.7780 -11.7449 -11.7006 -11.6917 -11.6760  -2.7626  -2.7245  -2.5620
    -2.5227  -2.2066  -2.1289  -1.9860  -1.8683  -1.8269  -1.7797  -1.7344
    -1.7112  -1.5869  -1.5434  -1.5256  -1.4445  -1.4097  -1.3909  -1.3627
    -1.3017  -1.2350  -1.2075  -1.1732  -1.0805  -1.0356  -0.9848  -0.9528
    -0.9326  -0.8970  -0.8523  -0.8283  -0.7892  -0.6791  -0.6203  -0.5369
    -0.4789  -0.3245  -0.2809  -0.2374  -0.1777  -0.1343  -0.1176   0.0208
     0.0513   0.0954   0.2585   0.3587   0.4066   0.5081   0.5629   0.6809
     0.6919   0.8267   0.8522   0.9071   0.9450   0.9769   0.9831   1.0332
     1.0535   1.1244   1.1720   1.2177   1.2343   1.5283   1.5401   1.5572
     1.5862   1.6801   1.6965   1.7071   1.7152   1.7484   1.7586   1.7945
     1.8174   1.8405   1.8959   1.9144   1.9652   1.9876   2.0440   2.1570
     2.2495   2.3209   2.3358   2.4167   2.4432   2.4673   2.5277   2.5458
     2.5542   2.5833   2.5915   2.6319   2.6520   2.6555   2.7029   2.7651
     2.7730   2.8182   2.8242   2.8289   2.8347   2.8538   2.8644   2.8750
     2.8862   2.9028   2.9042   2.9271   2.9461   2.9511   3.0800   3.0893
     3.8887   3.9637   4.0232   4.1429   4.6160   4.6972   4.8988   4.9216
     5.3775   5.4035   5.4849   5.5233   5.8586   5.8833   6.4221   6.6245
     6.7295   6.9492   7.1976   7.2582   7.6174   7.6325   7.6963   7.7394
     7.7996   8.0155   8.1028   8.1302   8.2494   8.3446   8.3686   8.4836
     8.6337   8.7711

     occupation numbers 
     1.0000   1.0000   1.0000   1.0000   1.0000   1.0000   1.0000   1.0000
     1.0000   1.0000   1.0000   1.0000   1.0000   1.0000   1.0000   1.0000
     1.0000   1.0000   1.0000   1.0000   1.0000   1.0000   1.0000   1.0000
     1.0000   1.0000   1.0000   1.0000   1.0000   1.0000   1.0000   1.0000
     1.0000   1.0000   1.0000   1.0000   1.0000   1.0000   1.0000   1.0000
     1.0000   1.0000   1.0000   1.0000   1.0000   1.0000   1.0000   1.0000
     1.0000   1.0000   1.0000   1.0000   1.0000   1.0000   1.0000   1.0000
     1.0000   1.0000   1.0000   1.0000   1.0000   1.0000   1.0000   1.0000
     1.0000   1.0000   1.0000   1.0000   1.0000   1.0000   1.0000   1.0000
     1.0000   1.0000   1.0000   1.0000   1.0000   1.0000   1.0000   1.0000
     1.0000   1.0000   1.0000   1.0000   1.0000   1.0000   1.0000   1.0000
     1.0000   1.0000   1.0000   1.0000   1.0000   1.0000   1.0000   1.0000
     1.0000   1.0000   1.0000   1.0000   1.0000   1.0000   1.0000   1.0000
     1.0000   1.0000   1.0000   1.0000   1.0000   1.0000   1.0000   1.0000
     1.0000   1.0000   1.0000   1.0000   1.0000   1.0000   1.0000   1.0000
     1.0000   1.0000   1.0000   1.0000   1.0000   1.0000   1.0000   1.0000
     1.0000   1.0000   1.0000   1.0000   1.0000   1.0000   1.0000   1.0000
     1.0000   1.0000   1.0000   1.0000   1.0000   1.0000   1.0000   1.0000
     1.0000   1.0000   1.0000   1.0000   1.0000   1.0000   1.0000   1.0000
     1.0000   1.0000   1.0000   1.0000   1.0000   1.0000   0.9999   0.9999
     0.9999   0.9997   0.9997   0.9995   0.9994   0.9994   0.9993   0.9991
     0.9990   0.9986   0.9983   0.9979   0.9977   0.9917   0.9913   0.9907
     0.9896   0.9851   0.9841   0.9835   0.9830   0.9808   0.9801   0.9774
     0.9755   0.9734   0.9680   0.9659   0.9598   0.9569   0.9486   0.9284
     0.9077   0.8889   0.8846   0.8596   0.8506   0.8421   0.8195   0.8124
     0.8090   0.7970   0.7935   0.7760   0.7670   0.7654   0.7432   0.7126
     0.7086   0.6851   0.6820   0.6795   0.6764   0.6661   0.6604   0.6546
     0.6485   0.6393   0.6385   0.6257   0.6149   0.6121   0.5372   0.5317
     0.1341   0.1115   0.0956   0.0688   0.0144   0.0105   0.0046   0.0041
     0.0005   0.0004   0.0003   0.0002   0.0000   0.0000   0.0000   0.0000
     0.0000   0.0000   0.0000   0.0000   0.0000   0.0000   0.0000   0.0000
     0.0000   0.0000   0.0000   0.0000   0.0000   0.0000   0.0000   0.0000
     0.0000   0.0000

          k =-0.2500 0.2500 0.0000 ( 65198 PWs)   bands (ev):

   -92.8857 -92.8360 -92.7407 -92.6923 -92.6363 -92.5925 -92.5749 -92.4541
   -56.2392 -56.2210 -56.0971 -56.0862 -56.0797 -56.0730 -56.0399 -56.0093
   -55.9938 -55.9923 -55.9869 -55.9430 -55.9228 -55.8869 -55.8677 -55.8364
   -55.8278 -55.7802 -55.7802 -55.7773 -55.7689 -55.7294 -55.7050 -55.6193
   -31.4470 -31.4305 -31.2879 -31.2016 -31.1427 -31.1269 -30.9633 -30.9243
   -30.0288 -29.9877 -29.9622 -29.8545 -15.1981 -15.1526 -15.0817 -14.9655
   -14.8473 -14.7233 -14.6418 -14.4280 -14.2930 -14.2639 -14.2474 -14.2025
   -14.1778 -14.1569 -14.1278 -14.0880 -14.0147 -14.0005 -13.8482 -13.8232
   -13.7914 -13.7728 -13.6985 -13.6754 -13.6089 -13.5953 -13.4666 -13.4223
   -13.3939 -13.3173 -13.2740 -13.2113 -13.1801 -13.1579 -13.1256 -13.1143
   -13.0980 -13.0319 -12.9927 -12.9448 -12.9427 -12.9168 -12.8774 -12.8656
   -12.8421 -12.8282 -12.6418 -12.6151 -12.5622 -12.4547 -12.2818 -12.2272
   -11.9935 -11.9804 -11.9592 -11.9322 -11.9200 -11.8787 -11.8445 -11.8210
   -11.7997 -11.7771 -11.6929 -11.6477 -11.6383  -2.8472  -2.6406  -2.5193
    -2.4279  -2.3131  -2.2469  -2.0387  -1.8989  -1.8805  -1.8449  -1.7569
    -1.7221  -1.6287  -1.5935  -1.5674  -1.4265  -1.3697  -1.2990  -1.2722
    -1.2103  -1.1921  -1.1516  -1.1232  -1.0828  -1.0187  -0.9711  -0.9005
    -0.8373  -0.8126  -0.7633  -0.7340  -0.6884  -0.6287  -0.5738  -0.5420
    -0.4339  -0.4107  -0.3899  -0.3494  -0.2887  -0.2122  -0.1733  -0.1276
    -0.0654  -0.0358   0.2116   0.3894   0.4213   0.4663   0.5240   0.5782
     0.6259   0.6970   0.7275   1.0092   1.1123   1.1523   1.1855   1.1964
     1.2332   1.2483   1.2953   1.3265   1.3381   1.3643   1.4153   1.4315
     1.4693   1.4960   1.5375   1.6254   1.6415   1.6632   1.6937   1.7260
     1.7648   1.8142   1.9243   2.0304   2.0537   2.1026   2.1230   2.1846
     2.2259   2.2529   2.2777   2.2984   2.4018   2.4384   2.5213   2.5944
     2.6094   2.6408   2.7046   2.7106   2.7251   2.7324   2.7446   2.7592
     2.7678   2.7842   2.7971   2.8057   2.8199   2.8279   2.8378   2.8460
     2.8811   2.8907   2.8959   2.9303   3.2212   3.3021   3.3789   3.4438
     3.4637   3.6752   3.7800   4.1284   4.3354   4.5609   4.8126   5.1290
     5.5003   5.5599   5.6316   5.6549   5.7219   6.1058   6.1385   6.2184
     6.8368   7.1776   7.2234   7.3754   7.4610   7.4858   7.5665   7.7682
     7.8676   7.9368   8.2015   8.3091   8.3260   8.3652   8.4575   8.4734
     8.5398   8.5764

     occupation numbers 
     1.0000   1.0000   1.0000   1.0000   1.0000   1.0000   1.0000   1.0000
     1.0000   1.0000   1.0000   1.0000   1.0000   1.0000   1.0000   1.0000
     1.0000   1.0000   1.0000   1.0000   1.0000   1.0000   1.0000   1.0000
     1.0000   1.0000   1.0000   1.0000   1.0000   1.0000   1.0000   1.0000
     1.0000   1.0000   1.0000   1.0000   1.0000   1.0000   1.0000   1.0000
     1.0000   1.0000   1.0000   1.0000   1.0000   1.0000   1.0000   1.0000
     1.0000   1.0000   1.0000   1.0000   1.0000   1.0000   1.0000   1.0000
     1.0000   1.0000   1.0000   1.0000   1.0000   1.0000   1.0000   1.0000
     1.0000   1.0000   1.0000   1.0000   1.0000   1.0000   1.0000   1.0000
     1.0000   1.0000   1.0000   1.0000   1.0000   1.0000   1.0000   1.0000
     1.0000   1.0000   1.0000   1.0000   1.0000   1.0000   1.0000   1.0000
     1.0000   1.0000   1.0000   1.0000   1.0000   1.0000   1.0000   1.0000
     1.0000   1.0000   1.0000   1.0000   1.0000   1.0000   1.0000   1.0000
     1.0000   1.0000   1.0000   1.0000   1.0000   1.0000   1.0000   1.0000
     1.0000   1.0000   1.0000   1.0000   1.0000   1.0000   1.0000   1.0000
     1.0000   1.0000   1.0000   1.0000   1.0000   1.0000   1.0000   1.0000
     1.0000   1.0000   1.0000   1.0000   1.0000   1.0000   1.0000   1.0000
     1.0000   1.0000   1.0000   1.0000   1.0000   1.0000   1.0000   1.0000
     1.0000   1.0000   1.0000   1.0000   1.0000   1.0000   1.0000   1.0000
     1.0000   1.0000   1.0000   1.0000   1.0000   1.0000   0.9999   0.9999
     0.9999   0.9999   0.9998   0.9992   0.9987   0.9984   0.9982   0.9981
     0.9977   0.9975   0.9970   0.9965   0.9963   0.9959   0.9948   0.9945
     0.9935   0.9928   0.9914   0.9879   0.9871   0.9860   0.9843   0.9823
     0.9796   0.9757   0.9648   0.9507   0.9471   0.9388   0.9350   0.9226
     0.9133   0.9068   0.9006   0.8951   0.8644   0.8522   0.8220   0.7923
     0.7859   0.7720   0.7424   0.7395   0.7325   0.7289   0.7229   0.7156
     0.7112   0.7028   0.6962   0.6917   0.6843   0.6800   0.6747   0.6703
     0.6513   0.6460   0.6431   0.6239   0.4537   0.4066   0.3630   0.3275
     0.3169   0.2146   0.1721   0.0717   0.0383   0.0176   0.0066   0.0016
     0.0002   0.0002   0.0001   0.0001   0.0001   0.0000   0.0000   0.0000
     0.0000   0.0000   0.0000   0.0000   0.0000   0.0000   0.0000   0.0000
     0.0000   0.0000   0.0000   0.0000   0.0000   0.0000   0.0000   0.0000
     0.0000   0.0000

          k =-0.5000 0.2500 0.0000 ( 65138 PWs)   bands (ev):

   -92.8857 -92.8360 -92.7407 -92.6923 -92.6363 -92.5925 -92.5749 -92.4541
   -56.2392 -56.2210 -56.0971 -56.0862 -56.0797 -56.0730 -56.0399 -56.0093
   -55.9938 -55.9923 -55.9868 -55.9430 -55.9228 -55.8869 -55.8677 -55.8364
   -55.8278 -55.7802 -55.7802 -55.7773 -55.7689 -55.7294 -55.7050 -55.6193
   -31.4449 -31.4326 -31.2875 -31.2020 -31.1425 -31.1268 -30.9635 -30.9245
   -30.0278 -29.9887 -29.9618 -29.8549 -15.1622 -15.1149 -15.0372 -14.9347
   -14.8962 -14.7713 -14.6795 -14.5460 -14.2441 -14.2124 -14.1997 -14.1557
   -14.1306 -14.1101 -14.0729 -14.0540 -14.0403 -14.0003 -13.9850 -13.8790
   -13.8151 -13.7665 -13.7578 -13.7205 -13.6432 -13.6234 -13.5123 -13.4663
   -13.3714 -13.3363 -13.2385 -13.1983 -13.1878 -13.1587 -13.1247 -13.1141
   -13.1087 -13.0324 -13.0145 -12.9414 -12.8943 -12.8836 -12.8406 -12.8320
   -12.7951 -12.7870 -12.7118 -12.5604 -12.4939 -12.4291 -12.3379 -12.3102
   -11.9934 -11.9535 -11.9407 -11.9264 -11.9144 -11.8929 -11.8628 -11.7825
   -11.7744 -11.7507 -11.7152 -11.6873 -11.6785  -2.6196  -2.5782  -2.4314
    -2.3892  -2.2265  -2.1475  -2.0102  -1.8739  -1.8145  -1.7883  -1.7503
    -1.7141  -1.6326  -1.5168  -1.4593  -1.4365  -1.4089  -1.3306  -1.3052
    -1.2648  -1.2494  -1.1887  -1.1558  -1.1199  -1.0853  -1.0563  -0.9970
    -0.9698  -0.9288  -0.8916  -0.7861  -0.7622  -0.6610  -0.6122  -0.5757
    -0.5101  -0.4391  -0.4048  -0.3029  -0.2632  -0.2013  -0.1540  -0.1056
    -0.0581  -0.0296   0.0035   0.0514   0.0903   0.4260   0.4763   0.5307
     0.5508   0.8401   0.9055   0.9749   1.0050   1.1746   1.2089   1.2467
     1.2567   1.2747   1.2920   1.3626   1.4103   1.4510   1.4882   1.6006
     1.6469   1.6701   1.6812   1.7134   1.7438   1.7607   1.7708   1.7879
     1.8128   1.8552   1.8715   1.9077   1.9327   1.9659   2.0204   2.1463
     2.2387   2.2682   2.3336   2.3699   2.4336   2.4647   2.4743   2.5123
     2.5445   2.5658   2.5899   2.6076   2.6485   2.6561   2.7047   2.7132
     2.7206   2.7428   2.7594   2.7709   2.7887   2.8000   2.8261   2.8377
     2.8470   2.8593   2.8627   2.8748   3.4114   3.4445   3.5944   3.6122
     3.8984   3.9727   4.0333   4.2261   4.6086   4.7097   4.8871   4.9357
     5.2447   5.2647   5.4872   5.5873   5.6094   5.6587   6.3286   6.4592
     6.5215   6.7456   7.3475   7.6004   7.6628   7.6824   7.7298   7.7815
     7.8375   7.9421   8.1863   8.3760   8.4147   8.4567   8.5041   8.5611
     8.5764   8.7005

     occupation numbers 
     1.0000   1.0000   1.0000   1.0000   1.0000   1.0000   1.0000   1.0000
     1.0000   1.0000   1.0000   1.0000   1.0000   1.0000   1.0000   1.0000
     1.0000   1.0000   1.0000   1.0000   1.0000   1.0000   1.0000   1.0000
     1.0000   1.0000   1.0000   1.0000   1.0000   1.0000   1.0000   1.0000
     1.0000   1.0000   1.0000   1.0000   1.0000   1.0000   1.0000   1.0000
     1.0000   1.0000   1.0000   1.0000   1.0000   1.0000   1.0000   1.0000
     1.0000   1.0000   1.0000   1.0000   1.0000   1.0000   1.0000   1.0000
     1.0000   1.0000   1.0000   1.0000   1.0000   1.0000   1.0000   1.0000
     1.0000   1.0000   1.0000   1.0000   1.0000   1.0000   1.0000   1.0000
     1.0000   1.0000   1.0000   1.0000   1.0000   1.0000   1.0000   1.0000
     1.0000   1.0000   1.0000   1.0000   1.0000   1.0000   1.0000   1.0000
     1.0000   1.0000   1.0000   1.0000   1.0000   1.0000   1.0000   1.0000
     1.0000   1.0000   1.0000   1.0000   1.0000   1.0000   1.0000   1.0000
     1.0000   1.0000   1.0000   1.0000   1.0000   1.0000   1.0000   1.0000
     1.0000   1.0000   1.0000   1.0000   1.0000   1.0000   1.0000   1.0000
     1.0000   1.0000   1.0000   1.0000   1.0000   1.0000   1.0000   1.0000
     1.0000   1.0000   1.0000   1.0000   1.0000   1.0000   1.0000   1.0000
     1.0000   1.0000   1.0000   1.0000   1.0000   1.0000   1.0000   1.0000
     1.0000   1.0000   1.0000   1.0000   1.0000   1.0000   1.0000   1.0000
     1.0000   1.0000   1.0000   1.0000   1.0000   1.0000   1.0000   0.9999
     0.9999   0.9997   0.9996   0.9994   0.9992   0.9983   0.9980   0.9976
     0.9975   0.9972   0.9970   0.9959   0.9950   0.9940   0.9930   0.9890
     0.9868   0.9856   0.9850   0.9831   0.9811   0.9799   0.9792   0.9779
     0.9759   0.9721   0.9705   0.9667   0.9638   0.9597   0.9522   0.9305
     0.9103   0.9030   0.8852   0.8745   0.8539   0.8430   0.8396   0.8254
     0.8129   0.8043   0.7942   0.7866   0.7685   0.7651   0.7424   0.7383
     0.7347   0.7238   0.7155   0.7097   0.7005   0.6947   0.6809   0.6748
     0.6698   0.6631   0.6613   0.6547   0.3450   0.3271   0.2513   0.2429
     0.1310   0.1089   0.0931   0.0539   0.0148   0.0100   0.0048   0.0039
     0.0009   0.0008   0.0002   0.0001   0.0001   0.0001   0.0000   0.0000
     0.0000   0.0000   0.0000   0.0000   0.0000   0.0000   0.0000   0.0000
     0.0000   0.0000   0.0000   0.0000   0.0000   0.0000   0.0000   0.0000
     0.0000   0.0000

     the Fermi energy is     3.1429 ev

!    total energy              =   -4440.30094362 Ry
     estimated scf accuracy    <          5.3E-09 Ry
     smearing contrib. (-TS)   =      -1.20791152 Ry
     internal energy E=F+TS    =   -4439.09303210 Ry

     The total energy is F=E-TS. E is the sum of the following terms:
     one-electron contribution =  -20888.57618152 Ry
     hartree contribution      =   10573.23095725 Ry
     xc contribution           =    -693.24426071 Ry
     ewald contribution        =    6845.68787093 Ry
     one-center paw contrib.   =    -276.19141803 Ry
      -> PAW hartree energy AE =      25.15428570 Ry
      -> PAW hartree energy PS =     -25.03825512 Ry
      -> PAW xc energy AE      =     -16.51632193 Ry
      -> PAW xc energy PS      =       6.87570901 Ry
      -> total E_H with PAW    =   10573.34698783 Ry
      -> total E_XC with PAW   =    -702.88487363 Ry

     convergence has been achieved in  50 iterations

     Writing all to output data dir /bsuhome/zayahcortright/scratch/pwscf.save/
 
     init_run     :      7.55s CPU      8.46s WALL (       1 calls)
     electrons    :    726.09s CPU    760.96s WALL (       1 calls)

     Called by init_run:
     wfcinit      :      6.19s CPU      6.41s WALL (       1 calls)
     wfcinit:atom :      0.05s CPU      0.06s WALL (       5 calls)
     wfcinit:wfcr :      5.87s CPU      6.01s WALL (       5 calls)
     potinit      :      0.16s CPU      0.19s WALL (       1 calls)
     hinit0       :      0.32s CPU      0.71s WALL (       1 calls)

     Called by electrons:
     c_bands      :    573.43s CPU    580.74s WALL (      50 calls)
     sum_band     :    114.81s CPU    129.97s WALL (      50 calls)
     v_of_rho     :      5.44s CPU      5.92s WALL (      51 calls)
     v_h          :      0.48s CPU      0.49s WALL (      51 calls)
     v_xc         :      4.97s CPU      5.43s WALL (      51 calls)
     newd         :     16.61s CPU     28.12s WALL (      51 calls)
     PAW_pot      :      1.76s CPU      1.79s WALL (      51 calls)
     mix_rho      :     13.65s CPU     14.07s WALL (      50 calls)

     Called by c_bands:
     init_us_2    :      7.07s CPU      7.15s WALL (     505 calls)
     init_us_2:cp :      7.07s CPU      7.15s WALL (     505 calls)
     cegterg      :    542.60s CPU    549.55s WALL (     250 calls)

     Called by sum_band:
     sum_band:wei :      0.36s CPU      0.36s WALL (      50 calls)
     sum_band:loo :     96.55s CPU     97.46s WALL (      50 calls)
     sum_band:buf :      1.43s CPU      1.63s WALL (     250 calls)
     sum_band:ini :      3.13s CPU      3.14s WALL (     250 calls)
     sum_band:cal :     19.99s CPU     20.06s WALL (     250 calls)
     sum_band:bec :      0.60s CPU      0.60s WALL (     250 calls)
     addusdens    :     16.23s CPU     30.36s WALL (      50 calls)
                                        0.00s GPU  (      50 calls)
     addusd:skk   :      0.31s CPU      1.02s WALL (     150 calls)
                                        0.00s GPU  (     150 calls)

     Called by *egterg:
     cdiaghg      :     55.73s CPU     56.03s WALL (    1277 calls)
     cegterg:over :     39.72s CPU     39.90s WALL (    1027 calls)
     cegterg:upda :     29.13s CPU     29.70s WALL (    1027 calls)
     cegterg:last :     59.27s CPU     59.60s WALL (     449 calls)
     cdiaghg:chol :      3.23s CPU      3.25s WALL (    1277 calls)
     cdiaghg:inve :      2.99s CPU      3.01s WALL (    1277 calls)
     cdiaghg:para :      7.14s CPU      7.20s WALL (    2554 calls)
     h_psi        :    302.33s CPU    305.70s WALL (    1282 calls)
     s_psi        :     40.56s CPU     40.73s WALL (    1282 calls)
     g_psi        :      1.03s CPU      1.04s WALL (    1027 calls)

     Called by h_psi:
     h_psi:calbec :     45.57s CPU     45.88s WALL (    1282 calls)
     vloc_psi     :    213.42s CPU    215.50s WALL (    1282 calls)
     add_vuspsi   :     40.57s CPU     40.84s WALL (    1282 calls)

     General routines
     calbec       :     65.55s CPU     65.94s WALL (    1532 calls)
     fft          :      3.89s CPU      3.96s WALL (     661 calls)
     ffts         :      4.89s CPU      4.93s WALL (    5416 calls)
     fftw         :    183.55s CPU    185.06s WALL (  336676 calls)
     interpolate  :      0.42s CPU      0.43s WALL (      51 calls)
 
     Parallel routines

     PAW routines
     PAW_pot      :      1.76s CPU      1.79s WALL (      51 calls)
 
     PWSCF        :  12m15.12s CPU  12m53.88s WALL

 
   This run was terminated on:   3:14:41  22Jun2024            

=------------------------------------------------------------------------------=
   JOB DONE.
=------------------------------------------------------------------------------=
