
     Program PWSCF v.7.2 starts on 20Jun2024 at 14:21:35 

     This program is part of the open-source Quantum ESPRESSO suite
     for quantum simulation of materials; please cite
         "P. Giannozzi et al., J. Phys.:Condens. Matter 21 395502 (2009);
         "P. Giannozzi et al., J. Phys.:Condens. Matter 29 465901 (2017);
         "P. Giannozzi et al., J. Chem. Phys. 152 154105 (2020);
          URL http://www.quantum-espresso.org", 
     in publications or presentations arising from this work. More details at
     http://www.quantum-espresso.org/quote

     Parallel version (MPI & OpenMP), running on      48 processor cores
     Number of MPI processes:                48
     Threads/MPI process:                     1

     MPI processes distributed on     1 nodes
     41859 MiB available memory on the printing compute node when the environment starts
 
     Reading input from espresso.pwi
Warning: card &CELL ignored
Warning: card / ignored
Warning: card &FCP ignored
Warning: card / ignored
Warning: card &RISM ignored
Warning: card / ignored

     Current dimensions of program PWSCF are:
     Max number of different atomic species (ntypx) = 10
     Max number of k-points (npk) =  40000
     Max angular momentum in pseudopotentials (lmaxx) =  4
     file O.pbe-n-kjpaw_psl.0.1.UPF: wavefunction(s)  2P renormalized
     signal trapping enabled: kill the code with -SIGUSR1 to stop cleanly the simulation 
 
     K-points division:     npool     =       2
     R & G space division:  proc/nbgrp/npool/nimage =      24
     Subspace diagonalization in iterative solution of the eigenvalue problem:
     one sub-group per band group will be used
     scalapack distributed-memory algorithm (size of sub-group:  3*  3 procs)

 
     Parallelization info
     --------------------
     sticks:   dense  smooth     PW     G-vecs:    dense   smooth      PW
     Min         350     175     47                61430    21716    3036
     Max         351     177     48                61449    21727    3041
     Sum        8421    4205   1137              1474595   521381   72913
 
     Using Slab Decomposition
 


     bravais-lattice index     =            0
     lattice parameter (alat)  =      14.8599  a.u.
     unit-cell volume          =    8305.1283 (a.u.)^3
     number of atoms/cell      =           51
     number of atomic types    =            4
     number of electrons       =       437.00
     number of Kohn-Sham states=          263
     kinetic-energy cutoff     =      60.0000  Ry
     charge density cutoff     =     480.0000  Ry
     scf convergence threshold =      1.0E-08
     mixing beta               =       0.1500
     number of iterations used =            8  local-TF  mixing
     Exchange-correlation= PBE
                           (   1   4   3   4   0   0   0)

     celldm(1)=  14.859904  celldm(2)=   0.000000  celldm(3)=   0.000000
     celldm(4)=   0.000000  celldm(5)=   0.000000  celldm(6)=   0.000000

     crystal axes: (cart. coord. in units of alat)
               a(1) = (   1.000000   0.000000   0.000000 )  
               a(2) = (   0.000000   1.000000   0.000000 )  
               a(3) = (   0.000000   0.000000   2.531036 )  

     reciprocal axes: (cart. coord. in units 2 pi/alat)
               b(1) = (  1.000000  0.000000  0.000000 )  
               b(2) = (  0.000000  1.000000  0.000000 )  
               b(3) = (  0.000000  0.000000  0.395095 )  


     PseudoPot. # 1 for Sr read from file:
     /bsuhome/zayahcortright/q-e/pseudo/Sr_pbe_v1.uspp.F.UPF
     MD5 check sum: 6b418c05fbe9db5448babca5e47b7a5b
     Pseudo is Ultrasoft + core correction, Zval = 10.0
     Generated by new atomic code, or converted to UPF format
     Using radial grid of  883 points,  6 beta functions with: 
                l(1) =   0
                l(2) =   0
                l(3) =   1
                l(4) =   1
                l(5) =   2
                l(6) =   2
     Q(r) pseudized with  6 coefficients,  rinner =    1.400   1.400   1.400
                                                       1.400   1.400

     PseudoPot. # 2 for O  read from file:
     /bsuhome/zayahcortright/q-e/pseudo/O.pbe-n-kjpaw_psl.0.1.UPF
     MD5 check sum: 0234752ac141de4415c5fc33072bef88
     Pseudo is Projector augmented-wave + core cor, Zval =  6.0
     Generated using "atomic" code by A. Dal Corso  v.5.0.99 svn rev. 10869
     Shape of augmentation charge: BESSEL
     Using radial grid of 1095 points,  4 beta functions with: 
                l(1) =   0
                l(2) =   0
                l(3) =   1
                l(4) =   1
     Q(r) pseudized with 0 coefficients 


     PseudoPot. # 3 for Co read from file:
     /bsuhome/zayahcortright/q-e/pseudo/Co_pbe_v1.2.uspp.F.UPF
     MD5 check sum: 5f91765df6ddd3222702df6e7b74a16d
     Pseudo is Ultrasoft + core correction, Zval = 17.0
     Generated by new atomic code, or converted to UPF format
     Using radial grid of  863 points,  6 beta functions with: 
                l(1) =   0
                l(2) =   0
                l(3) =   1
                l(4) =   1
                l(5) =   2
                l(6) =   2
     Q(r) pseudized with  8 coefficients,  rinner =    1.200   1.200   1.200
                                                       1.200   1.200

     PseudoPot. # 4 for H  read from file:
     /bsuhome/zayahcortright/q-e/pseudo/H.pbe-rrkjus_psl.1.0.0.UPF
     MD5 check sum: f52b6d4d1c606e5624b1dc7b2218f220
     Pseudo is Ultrasoft, Zval =  1.0
     Generated using "atomic" code by A. Dal Corso  v.5.1
     Using radial grid of  929 points,  2 beta functions with: 
                l(1) =   0
                l(2) =   0
     Q(r) pseudized with 0 coefficients 


     atomic species   valence    mass     pseudopotential
        Sr            10.00    87.62000     Sr( 1.00)
        O              6.00    15.99900     O ( 1.00)
        Co            17.00    58.93319     Co( 1.00)
        H              1.00     1.00800     H ( 1.00)

     No symmetry found


                                    s                        frac. trans.

      isym =  1     identity                                     

 cryst.   s( 1) = (     1          0          0      )
                  (     0          1          0      )
                  (     0          0          1      )

 cart.    s( 1) = (  1.0000000  0.0000000  0.0000000 )
                  (  0.0000000  1.0000000  0.0000000 )
                  (  0.0000000  0.0000000  1.0000000 )


   Cartesian axes

     site n.     atom                  positions (alat units)
         1           Sr  tau(   1) = (   0.2508693   0.7491307   1.7574407  )
         2           O   tau(   2) = (   0.4985141   0.5014859   1.7715967  )
         3           Sr  tau(   3) = (   0.7482398   0.7454518   1.7648669  )
         4           Sr  tau(   4) = (   0.7441748   0.2558252   1.7667843  )
         5           Sr  tau(   5) = (   0.2508693   0.7491307   1.2696799  )
         6           Sr  tau(   6) = (   0.2508693   0.7491307   0.7632319  )
         7           Co  tau(   7) = (   0.4998914   0.5001086   1.0164559  )
         8           Co  tau(   8) = (   0.4936915   0.5063085   1.5135603  )
         9           O   tau(   9) = (   0.4988895   0.7610401   1.0164559  )
        10           O   tau(  10) = (   0.2389599   0.5011105   1.0164559  )
        11           O   tau(  11) = (   0.0070918   0.7374880   1.0164559  )
        12           O   tau(  12) = (   0.0088340   0.7405089   1.5135603  )
        13           O   tau(  13) = (   0.5066944   0.7415376   1.5135603  )
        14           O   tau(  14) = (   0.2584624   0.4933056   1.5135603  )
        15           O   tau(  15) = (   0.4985141   0.5014859   0.7773880  )
        16           O   tau(  16) = (   0.4985141   0.5014859   1.2555238  )
        17           Sr  tau(  17) = (   0.7482398   0.7454518   0.7706582  )
        18           Sr  tau(  18) = (   0.7482398   0.7454518   1.2622536  )
        19           Sr  tau(  19) = (   0.7441748   0.2558252   0.7725755  )
        20           Sr  tau(  20) = (   0.7441748   0.2558252   1.2603363  )
        21           O   tau(  21) = (   0.7322655   0.0078049   1.5135603  )
        22           O   tau(  22) = (   0.7558175   0.4996027   1.5135603  )
        23           O   tau(  23) = (   0.5003973   0.2441825   1.5135603  )
        24           O   tau(  24) = (   0.7527966   0.4978604   1.0164559  )
        25           O   tau(  25) = (   0.5021396   0.2472034   1.0164559  )
        26           O   tau(  26) = (   0.7517679   0.0000000   1.0164559  )
        27           O   tau(  27) = (   0.0114961   0.4948124   1.7455321  )
        28           O   tau(  28) = (   0.0048226   0.0077944   1.7715967  )
        29           Sr  tau(  29) = (   0.2545482   0.2517602   1.7648669  )
        30           O   tau(  30) = (   0.5048017   0.0015068   1.7786929  )
        31           Co  tau(  31) = (   0.0056869   0.5006215   1.0164559  )
        32           Co  tau(  32) = (   0.0065315   0.4997770   1.5135603  )
        33           Co  tau(  33) = (   0.0061999   0.0064171   1.0164559  )
        34           Co  tau(  34) = (   0.0000000   0.0126169   1.5135603  )
        35           O   tau(  35) = (   0.0114961   0.4948124   1.2815885  )
        36           O   tau(  36) = (   0.0114961   0.4948124   0.7513233  )
        37           O   tau(  37) = (   0.0051979   0.2673486   1.0164559  )
        38           O   tau(  38) = (   0.0130029   0.2478461   1.5135603  )
        39           O   tau(  39) = (   0.0048226   0.0077944   0.7773880  )
        40           O   tau(  40) = (   0.0048226   0.0077944   1.2555238  )
        41           Sr  tau(  41) = (   0.2545482   0.2517602   0.7706582  )
        42           Sr  tau(  42) = (   0.2545482   0.2517602   1.2622536  )
        43           Co  tau(  43) = (   0.4989925   0.0073160   1.5135603  )
        44           Co  tau(  44) = (   0.4998370   0.0064714   1.0164559  )
        45           O   tau(  45) = (   0.5048017   0.0015068   0.7844841  )
        46           O   tau(  46) = (   0.5048017   0.0015068   1.2484277  )
        47           O   tau(  47) = (   0.2621260   0.0059111   1.5135603  )
        48           O   tau(  48) = (   0.2591051   0.0041689   1.0164559  )
        49           O   tau(  49) = (   0.5686583   0.4264937   2.1602013  )
        50           O   tau(  50) = (   0.5686583   0.4264937   2.3186489  )
        51           H   tau(  51) = (   0.5686583   0.4264937   2.4431567  )

   Crystallographic axes

     site n.     atom                  positions (cryst. coord.)
         1           Sr  tau(   1) = (  0.2508693  0.7491307  0.6943562  )
         2           O   tau(   2) = (  0.4985141  0.5014859  0.6999492  )
         3           Sr  tau(   3) = (  0.7482398  0.7454518  0.6972903  )
         4           Sr  tau(   4) = (  0.7441748  0.2558252  0.6980478  )
         5           Sr  tau(   5) = (  0.2508693  0.7491307  0.5016443  )
         6           Sr  tau(   6) = (  0.2508693  0.7491307  0.3015492  )
         7           Co  tau(   7) = (  0.4998914  0.5001086  0.4015968  )
         8           Co  tau(   8) = (  0.4936915  0.5063085  0.5980003  )
         9           O   tau(   9) = (  0.4988895  0.7610401  0.4015968  )
        10           O   tau(  10) = (  0.2389599  0.5011105  0.4015968  )
        11           O   tau(  11) = (  0.0070918  0.7374880  0.4015968  )
        12           O   tau(  12) = (  0.0088340  0.7405089  0.5980003  )
        13           O   tau(  13) = (  0.5066944  0.7415376  0.5980003  )
        14           O   tau(  14) = (  0.2584624  0.4933056  0.5980003  )
        15           O   tau(  15) = (  0.4985141  0.5014859  0.3071422  )
        16           O   tau(  16) = (  0.4985141  0.5014859  0.4960513  )
        17           Sr  tau(  17) = (  0.7482398  0.7454518  0.3044833  )
        18           Sr  tau(  18) = (  0.7482398  0.7454518  0.4987103  )
        19           Sr  tau(  19) = (  0.7441748  0.2558252  0.3052408  )
        20           Sr  tau(  20) = (  0.7441748  0.2558252  0.4979527  )
        21           O   tau(  21) = (  0.7322655  0.0078049  0.5980003  )
        22           O   tau(  22) = (  0.7558175  0.4996027  0.5980003  )
        23           O   tau(  23) = (  0.5003973  0.2441825  0.5980003  )
        24           O   tau(  24) = (  0.7527966  0.4978604  0.4015968  )
        25           O   tau(  25) = (  0.5021396  0.2472034  0.4015968  )
        26           O   tau(  26) = (  0.7517679  0.0000000  0.4015968  )
        27           O   tau(  27) = (  0.0114961  0.4948124  0.6896512  )
        28           O   tau(  28) = (  0.0048226  0.0077944  0.6999492  )
        29           Sr  tau(  29) = (  0.2545482  0.2517602  0.6972903  )
        30           O   tau(  30) = (  0.5048017  0.0015068  0.7027529  )
        31           Co  tau(  31) = (  0.0056869  0.5006215  0.4015968  )
        32           Co  tau(  32) = (  0.0065315  0.4997770  0.5980003  )
        33           Co  tau(  33) = (  0.0061999  0.0064171  0.4015968  )
        34           Co  tau(  34) = (  0.0000000  0.0126169  0.5980003  )
        35           O   tau(  35) = (  0.0114961  0.4948124  0.5063494  )
        36           O   tau(  36) = (  0.0114961  0.4948124  0.2968442  )
        37           O   tau(  37) = (  0.0051979  0.2673486  0.4015968  )
        38           O   tau(  38) = (  0.0130029  0.2478461  0.5980003  )
        39           O   tau(  39) = (  0.0048226  0.0077944  0.3071422  )
        40           O   tau(  40) = (  0.0048226  0.0077944  0.4960513  )
        41           Sr  tau(  41) = (  0.2545482  0.2517602  0.3044833  )
        42           Sr  tau(  42) = (  0.2545482  0.2517602  0.4987103  )
        43           Co  tau(  43) = (  0.4989925  0.0073160  0.5980003  )
        44           Co  tau(  44) = (  0.4998370  0.0064714  0.4015968  )
        45           O   tau(  45) = (  0.5048017  0.0015068  0.3099459  )
        46           O   tau(  46) = (  0.5048017  0.0015068  0.4932477  )
        47           O   tau(  47) = (  0.2621260  0.0059111  0.5980003  )
        48           O   tau(  48) = (  0.2591051  0.0041689  0.4015968  )
        49           O   tau(  49) = (  0.5686583  0.4264937  0.8534850  )
        50           O   tau(  50) = (  0.5686583  0.4264937  0.9160869  )
        51           H   tau(  51) = (  0.5686583  0.4264937  0.9652793  )

     number of k points=    10  Gaussian smearing, width (Ry)=  0.0700
                       cart. coord. in units 2pi/alat
        k(    1) = (   0.0000000   0.0000000   0.0000000), wk =   0.1250000
        k(    2) = (   0.0000000   0.2500000   0.0000000), wk =   0.2500000
        k(    3) = (   0.0000000  -0.5000000   0.0000000), wk =   0.1250000
        k(    4) = (   0.2500000   0.2500000   0.0000000), wk =   0.2500000
        k(    5) = (   0.2500000  -0.5000000   0.0000000), wk =   0.2500000
        k(    6) = (  -0.5000000  -0.5000000   0.0000000), wk =   0.1250000
        k(    7) = (   0.2500000   0.0000000   0.0000000), wk =   0.2500000
        k(    8) = (  -0.5000000   0.0000000   0.0000000), wk =   0.1250000
        k(    9) = (  -0.2500000   0.2500000   0.0000000), wk =   0.2500000
        k(   10) = (  -0.5000000   0.2500000   0.0000000), wk =   0.2500000

                       cryst. coord.
        k(    1) = (   0.0000000   0.0000000   0.0000000), wk =   0.1250000
        k(    2) = (   0.0000000   0.2500000   0.0000000), wk =   0.2500000
        k(    3) = (   0.0000000  -0.5000000   0.0000000), wk =   0.1250000
        k(    4) = (   0.2500000   0.2500000   0.0000000), wk =   0.2500000
        k(    5) = (   0.2500000  -0.5000000   0.0000000), wk =   0.2500000
        k(    6) = (  -0.5000000  -0.5000000   0.0000000), wk =   0.1250000
        k(    7) = (   0.2500000   0.0000000   0.0000000), wk =   0.2500000
        k(    8) = (  -0.5000000   0.0000000   0.0000000), wk =   0.1250000
        k(    9) = (  -0.2500000   0.2500000   0.0000000), wk =   0.2500000
        k(   10) = (  -0.5000000   0.2500000   0.0000000), wk =   0.2500000

     Dense  grid:  1474595 G-vectors     FFT dimensions: ( 108, 108, 270)

     Smooth grid:   521381 G-vectors     FFT dimensions: (  75,  75, 192)

     Dynamical RAM for                 wfc:      10.90 MB

     Dynamical RAM for     wfc (w. buffer):      65.37 MB

     Dynamical RAM for           str. fact:       3.75 MB

     Dynamical RAM for           local pot:       0.00 MB

     Dynamical RAM for          nlocal pot:      24.94 MB

     Dynamical RAM for                qrad:       7.03 MB

     Dynamical RAM for          rho,v,vnew:       6.02 MB

     Dynamical RAM for               rhoin:       2.01 MB

     Dynamical RAM for            rho*nmix:      15.00 MB

     Dynamical RAM for           G-vectors:       3.68 MB

     Dynamical RAM for          h,s,v(r/c):       1.40 MB

     Dynamical RAM for          <psi|beta>:       2.42 MB

     Dynamical RAM for                 psi:      21.79 MB

     Dynamical RAM for                hpsi:      21.79 MB

     Dynamical RAM for                spsi:      21.79 MB

     Dynamical RAM for      wfcinit/wfcrot:      34.89 MB

     Dynamical RAM for           addusdens:     101.73 MB

     Estimated static dynamical RAM per process >     122.82 MB

     Estimated max dynamical RAM per process >     239.55 MB

     Estimated total dynamical RAM >      10.88 GB

     Check: negative core charge=   -0.000004

     Initial potential from superposition of free atoms

     starting charge     428.5961, renormalised to     437.0000

     negative rho (up, down):  7.814E-01 0.000E+00
     Starting wfcs are  381 randomized atomic wfcs
     Checking if some PAW data can be deallocated... 
       PAW data deallocated on   18 nodes for type:  2

     total cpu time spent up to now is        9.9 secs

     Self-consistent Calculation

     iteration #  1     ecut=    60.00 Ry     beta= 0.15
     Davidson diagonalization with overlap

---- Real-time Memory Report at c_bands before calling an iterative solver
             0 MiB given to the printing process from OS
             0 MiB allocation reported by mallinfo(arena+hblkhd)
         32046 MiB available memory on the node where the printing process lives
------------------
     ethr =  1.00E-02,  avg # of iterations =  2.0

     negative rho (up, down):  7.716E-01 0.000E+00

     total cpu time spent up to now is       25.8 secs

     total energy              =   -4489.30636121 Ry
     estimated scf accuracy    <      49.81602764 Ry

     iteration #  2     ecut=    60.00 Ry     beta= 0.15
     Davidson diagonalization with overlap

---- Real-time Memory Report at c_bands before calling an iterative solver
             0 MiB given to the printing process from OS
             0 MiB allocation reported by mallinfo(arena+hblkhd)
         32423 MiB available memory on the node where the printing process lives
------------------
     ethr =  1.00E-02,  avg # of iterations =  1.0

     negative rho (up, down):  7.614E-01 0.000E+00

     total cpu time spent up to now is       38.9 secs

     total energy              =   -4486.82182295 Ry
     estimated scf accuracy    <      35.40569145 Ry

     iteration #  3     ecut=    60.00 Ry     beta= 0.15
     Davidson diagonalization with overlap

---- Real-time Memory Report at c_bands before calling an iterative solver
             0 MiB given to the printing process from OS
             0 MiB allocation reported by mallinfo(arena+hblkhd)
         31668 MiB available memory on the node where the printing process lives
------------------
     ethr =  8.10E-03,  avg # of iterations =  1.0

     negative rho (up, down):  7.562E-01 0.000E+00

     total cpu time spent up to now is       51.9 secs

     total energy              =   -4486.76507654 Ry
     estimated scf accuracy    <      35.20610118 Ry

     iteration #  4     ecut=    60.00 Ry     beta= 0.15
     Davidson diagonalization with overlap

---- Real-time Memory Report at c_bands before calling an iterative solver
             0 MiB given to the printing process from OS
             0 MiB allocation reported by mallinfo(arena+hblkhd)
         31668 MiB available memory on the node where the printing process lives
------------------
     ethr =  8.06E-03,  avg # of iterations =  1.0

     negative rho (up, down):  7.574E-01 0.000E+00

     total cpu time spent up to now is       65.0 secs

     total energy              =   -4486.63326557 Ry
     estimated scf accuracy    <      34.33918207 Ry

     iteration #  5     ecut=    60.00 Ry     beta= 0.15
     Davidson diagonalization with overlap

---- Real-time Memory Report at c_bands before calling an iterative solver
             0 MiB given to the printing process from OS
             0 MiB allocation reported by mallinfo(arena+hblkhd)
         31643 MiB available memory on the node where the printing process lives
------------------
     ethr =  7.86E-03,  avg # of iterations =  1.0

     negative rho (up, down):  7.334E-01 0.000E+00

     total cpu time spent up to now is       78.0 secs

     total energy              =   -4482.66642929 Ry
     estimated scf accuracy    <      23.07500287 Ry

     iteration #  6     ecut=    60.00 Ry     beta= 0.15
     Davidson diagonalization with overlap

---- Real-time Memory Report at c_bands before calling an iterative solver
             0 MiB given to the printing process from OS
             0 MiB allocation reported by mallinfo(arena+hblkhd)
         31630 MiB available memory on the node where the printing process lives
------------------
     ethr =  5.28E-03,  avg # of iterations =  2.0

     negative rho (up, down):  7.480E-01 0.000E+00

     total cpu time spent up to now is       92.4 secs

     total energy              =   -4483.93576733 Ry
     estimated scf accuracy    <      42.34536275 Ry

     iteration #  7     ecut=    60.00 Ry     beta= 0.15
     Davidson diagonalization with overlap

---- Real-time Memory Report at c_bands before calling an iterative solver
             0 MiB given to the printing process from OS
             0 MiB allocation reported by mallinfo(arena+hblkhd)
         31605 MiB available memory on the node where the printing process lives
------------------
     ethr =  5.28E-03,  avg # of iterations =  1.0

     negative rho (up, down):  7.537E-01 0.000E+00

     total cpu time spent up to now is      105.3 secs

     total energy              =   -4483.41147452 Ry
     estimated scf accuracy    <      44.14614308 Ry

     iteration #  8     ecut=    60.00 Ry     beta= 0.15
     Davidson diagonalization with overlap

---- Real-time Memory Report at c_bands before calling an iterative solver
             0 MiB given to the printing process from OS
             0 MiB allocation reported by mallinfo(arena+hblkhd)
         31581 MiB available memory on the node where the printing process lives
------------------
     ethr =  5.28E-03,  avg # of iterations =  1.0

     negative rho (up, down):  7.509E-01 0.000E+00

     total cpu time spent up to now is      118.7 secs

     total energy              =   -4483.83080352 Ry
     estimated scf accuracy    <       6.20685190 Ry

     iteration #  9     ecut=    60.00 Ry     beta= 0.15
     Davidson diagonalization with overlap

---- Real-time Memory Report at c_bands before calling an iterative solver
             0 MiB given to the printing process from OS
             0 MiB allocation reported by mallinfo(arena+hblkhd)
         31558 MiB available memory on the node where the printing process lives
------------------
     ethr =  1.42E-03,  avg # of iterations =  4.0

     negative rho (up, down):  7.636E-01 0.000E+00

     total cpu time spent up to now is      134.6 secs

     total energy              =   -4483.78957934 Ry
     estimated scf accuracy    <       3.57937303 Ry

     iteration # 10     ecut=    60.00 Ry     beta= 0.15
     Davidson diagonalization with overlap

---- Real-time Memory Report at c_bands before calling an iterative solver
             0 MiB given to the printing process from OS
             0 MiB allocation reported by mallinfo(arena+hblkhd)
         31487 MiB available memory on the node where the printing process lives
------------------
     ethr =  8.19E-04,  avg # of iterations = 11.4

     negative rho (up, down):  7.842E-01 0.000E+00

     total cpu time spent up to now is      154.4 secs

     total energy              =   -4483.54546108 Ry
     estimated scf accuracy    <       4.80100551 Ry

     iteration # 11     ecut=    60.00 Ry     beta= 0.15
     Davidson diagonalization with overlap

---- Real-time Memory Report at c_bands before calling an iterative solver
             0 MiB given to the printing process from OS
             0 MiB allocation reported by mallinfo(arena+hblkhd)
         31214 MiB available memory on the node where the printing process lives
------------------
     ethr =  8.19E-04,  avg # of iterations =  6.4

     negative rho (up, down):  7.899E-01 0.000E+00

     total cpu time spent up to now is      171.7 secs

     total energy              =   -4483.28143121 Ry
     estimated scf accuracy    <       4.46797574 Ry

     iteration # 12     ecut=    60.00 Ry     beta= 0.15
     Davidson diagonalization with overlap

---- Real-time Memory Report at c_bands before calling an iterative solver
             0 MiB given to the printing process from OS
             0 MiB allocation reported by mallinfo(arena+hblkhd)
         31098 MiB available memory on the node where the printing process lives
------------------
     ethr =  8.19E-04,  avg # of iterations =  7.1

     negative rho (up, down):  8.012E-01 0.000E+00

     total cpu time spent up to now is      188.9 secs

     total energy              =   -4483.17567719 Ry
     estimated scf accuracy    <       2.37772067 Ry

     iteration # 13     ecut=    60.00 Ry     beta= 0.15
     Davidson diagonalization with overlap

---- Real-time Memory Report at c_bands before calling an iterative solver
             0 MiB given to the printing process from OS
             0 MiB allocation reported by mallinfo(arena+hblkhd)
         31061 MiB available memory on the node where the printing process lives
------------------
     ethr =  5.44E-04,  avg # of iterations =  2.0

     negative rho (up, down):  7.984E-01 0.000E+00

     total cpu time spent up to now is      203.6 secs

     total energy              =   -4483.29275791 Ry
     estimated scf accuracy    <       1.99598181 Ry

     iteration # 14     ecut=    60.00 Ry     beta= 0.15
     Davidson diagonalization with overlap

---- Real-time Memory Report at c_bands before calling an iterative solver
             0 MiB given to the printing process from OS
             0 MiB allocation reported by mallinfo(arena+hblkhd)
         31086 MiB available memory on the node where the printing process lives
------------------
     ethr =  4.57E-04,  avg # of iterations =  1.2

     negative rho (up, down):  8.069E-01 0.000E+00

     total cpu time spent up to now is      217.3 secs

     total energy              =   -4483.21850029 Ry
     estimated scf accuracy    <       1.02134736 Ry

     iteration # 15     ecut=    60.00 Ry     beta= 0.15
     Davidson diagonalization with overlap

---- Real-time Memory Report at c_bands before calling an iterative solver
             0 MiB given to the printing process from OS
             0 MiB allocation reported by mallinfo(arena+hblkhd)
         31113 MiB available memory on the node where the printing process lives
------------------
     ethr =  2.34E-04,  avg # of iterations =  6.7

     negative rho (up, down):  8.109E-01 0.000E+00

     total cpu time spent up to now is      234.5 secs

     total energy              =   -4483.16199767 Ry
     estimated scf accuracy    <       1.37754668 Ry

     iteration # 16     ecut=    60.00 Ry     beta= 0.15
     Davidson diagonalization with overlap

---- Real-time Memory Report at c_bands before calling an iterative solver
             0 MiB given to the printing process from OS
             0 MiB allocation reported by mallinfo(arena+hblkhd)
         31070 MiB available memory on the node where the printing process lives
------------------
     ethr =  2.34E-04,  avg # of iterations =  3.2

     negative rho (up, down):  8.143E-01 0.000E+00

     total cpu time spent up to now is      249.1 secs

     total energy              =   -4483.13421069 Ry
     estimated scf accuracy    <       1.04044592 Ry

     iteration # 17     ecut=    60.00 Ry     beta= 0.15
     Davidson diagonalization with overlap

---- Real-time Memory Report at c_bands before calling an iterative solver
             0 MiB given to the printing process from OS
             0 MiB allocation reported by mallinfo(arena+hblkhd)
         31071 MiB available memory on the node where the printing process lives
------------------
     ethr =  2.34E-04,  avg # of iterations =  3.9

     negative rho (up, down):  8.172E-01 0.000E+00

     total cpu time spent up to now is      264.3 secs

     total energy              =   -4483.10251155 Ry
     estimated scf accuracy    <       0.39713303 Ry

     iteration # 18     ecut=    60.00 Ry     beta= 0.15
     Davidson diagonalization with overlap

---- Real-time Memory Report at c_bands before calling an iterative solver
             0 MiB given to the printing process from OS
             0 MiB allocation reported by mallinfo(arena+hblkhd)
         31059 MiB available memory on the node where the printing process lives
------------------
     ethr =  9.09E-05,  avg # of iterations = 11.0

     negative rho (up, down):  8.179E-01 0.000E+00

     total cpu time spent up to now is      283.1 secs

     total energy              =   -4483.06719633 Ry
     estimated scf accuracy    <       0.38879818 Ry

     iteration # 19     ecut=    60.00 Ry     beta= 0.15
     Davidson diagonalization with overlap

---- Real-time Memory Report at c_bands before calling an iterative solver
             0 MiB given to the printing process from OS
             0 MiB allocation reported by mallinfo(arena+hblkhd)
         30999 MiB available memory on the node where the printing process lives
------------------
     ethr =  8.90E-05,  avg # of iterations =  5.6

     negative rho (up, down):  8.283E-01 0.000E+00

     total cpu time spent up to now is      299.1 secs

     total energy              =   -4483.02412263 Ry
     estimated scf accuracy    <       0.35154934 Ry

     iteration # 20     ecut=    60.00 Ry     beta= 0.15
     Davidson diagonalization with overlap

---- Real-time Memory Report at c_bands before calling an iterative solver
             0 MiB given to the printing process from OS
             0 MiB allocation reported by mallinfo(arena+hblkhd)
         31012 MiB available memory on the node where the printing process lives
------------------
     ethr =  8.04E-05,  avg # of iterations =  9.2

     negative rho (up, down):  8.257E-01 0.000E+00

     total cpu time spent up to now is      316.8 secs

     total energy              =   -4483.01011430 Ry
     estimated scf accuracy    <       0.30413886 Ry

     iteration # 21     ecut=    60.00 Ry     beta= 0.15
     Davidson diagonalization with overlap

---- Real-time Memory Report at c_bands before calling an iterative solver
             0 MiB given to the printing process from OS
             0 MiB allocation reported by mallinfo(arena+hblkhd)
         31005 MiB available memory on the node where the printing process lives
------------------
     ethr =  6.96E-05,  avg # of iterations =  4.1

     negative rho (up, down):  8.228E-01 0.000E+00

     total cpu time spent up to now is      332.3 secs

     total energy              =   -4482.99998917 Ry
     estimated scf accuracy    <       0.24524729 Ry

     iteration # 22     ecut=    60.00 Ry     beta= 0.15
     Davidson diagonalization with overlap

---- Real-time Memory Report at c_bands before calling an iterative solver
             0 MiB given to the printing process from OS
             0 MiB allocation reported by mallinfo(arena+hblkhd)
         31005 MiB available memory on the node where the printing process lives
------------------
     ethr =  5.61E-05,  avg # of iterations =  6.0

     negative rho (up, down):  8.010E-01 0.000E+00

     total cpu time spent up to now is      348.4 secs

     total energy              =   -4482.98801472 Ry
     estimated scf accuracy    <       0.12912574 Ry

     iteration # 23     ecut=    60.00 Ry     beta= 0.15
     Davidson diagonalization with overlap

---- Real-time Memory Report at c_bands before calling an iterative solver
             0 MiB given to the printing process from OS
             0 MiB allocation reported by mallinfo(arena+hblkhd)
         31012 MiB available memory on the node where the printing process lives
------------------
     ethr =  2.95E-05,  avg # of iterations =  7.8

     negative rho (up, down):  8.292E-01 0.000E+00

     total cpu time spent up to now is      366.5 secs

     total energy              =   -4482.97431922 Ry
     estimated scf accuracy    <       0.07680322 Ry

     iteration # 24     ecut=    60.00 Ry     beta= 0.15
     Davidson diagonalization with overlap

---- Real-time Memory Report at c_bands before calling an iterative solver
             0 MiB given to the printing process from OS
             0 MiB allocation reported by mallinfo(arena+hblkhd)
         31002 MiB available memory on the node where the printing process lives
------------------
     ethr =  1.76E-05,  avg # of iterations = 11.2

     negative rho (up, down):  8.326E-01 0.000E+00

     total cpu time spent up to now is      387.4 secs

     total energy              =   -4482.97515217 Ry
     estimated scf accuracy    <       0.02852659 Ry

     iteration # 25     ecut=    60.00 Ry     beta= 0.15
     Davidson diagonalization with overlap

---- Real-time Memory Report at c_bands before calling an iterative solver
             0 MiB given to the printing process from OS
             0 MiB allocation reported by mallinfo(arena+hblkhd)
         30821 MiB available memory on the node where the printing process lives
------------------
     c_bands:  1 eigenvalues not converged
     ethr =  6.53E-06,  avg # of iterations = 10.8

     negative rho (up, down):  8.021E-01 0.000E+00

     total cpu time spent up to now is      407.4 secs

     total energy              =   -4482.97378234 Ry
     estimated scf accuracy    <       0.01370390 Ry

     iteration # 26     ecut=    60.00 Ry     beta= 0.15
     Davidson diagonalization with overlap

---- Real-time Memory Report at c_bands before calling an iterative solver
             0 MiB given to the printing process from OS
             0 MiB allocation reported by mallinfo(arena+hblkhd)
         30788 MiB available memory on the node where the printing process lives
------------------
     c_bands:  1 eigenvalues not converged
     ethr =  3.14E-06,  avg # of iterations =  9.8

     negative rho (up, down):  7.970E-01 0.000E+00

     total cpu time spent up to now is      427.5 secs

     total energy              =   -4482.97343306 Ry
     estimated scf accuracy    <       0.00945335 Ry

     iteration # 27     ecut=    60.00 Ry     beta= 0.15
     Davidson diagonalization with overlap

---- Real-time Memory Report at c_bands before calling an iterative solver
             0 MiB given to the printing process from OS
             0 MiB allocation reported by mallinfo(arena+hblkhd)
         30701 MiB available memory on the node where the printing process lives
------------------
     ethr =  2.16E-06,  avg # of iterations =  4.8

     negative rho (up, down):  7.950E-01 0.000E+00

     total cpu time spent up to now is      443.6 secs

     total energy              =   -4482.97275133 Ry
     estimated scf accuracy    <       0.00599225 Ry

     iteration # 28     ecut=    60.00 Ry     beta= 0.15
     Davidson diagonalization with overlap

---- Real-time Memory Report at c_bands before calling an iterative solver
             0 MiB given to the printing process from OS
             0 MiB allocation reported by mallinfo(arena+hblkhd)
         30719 MiB available memory on the node where the printing process lives
------------------
     ethr =  1.37E-06,  avg # of iterations =  6.5

     negative rho (up, down):  7.933E-01 0.000E+00

     total cpu time spent up to now is      460.8 secs

     total energy              =   -4482.97244470 Ry
     estimated scf accuracy    <       0.00292741 Ry

     iteration # 29     ecut=    60.00 Ry     beta= 0.15
     Davidson diagonalization with overlap

---- Real-time Memory Report at c_bands before calling an iterative solver
             0 MiB given to the printing process from OS
             0 MiB allocation reported by mallinfo(arena+hblkhd)
         30735 MiB available memory on the node where the printing process lives
------------------
     ethr =  6.70E-07,  avg # of iterations =  6.2

     negative rho (up, down):  7.940E-01 0.000E+00

     total cpu time spent up to now is      477.9 secs

     total energy              =   -4482.97258836 Ry
     estimated scf accuracy    <       0.00083761 Ry

     iteration # 30     ecut=    60.00 Ry     beta= 0.15
     Davidson diagonalization with overlap

---- Real-time Memory Report at c_bands before calling an iterative solver
             0 MiB given to the printing process from OS
             0 MiB allocation reported by mallinfo(arena+hblkhd)
         30737 MiB available memory on the node where the printing process lives
------------------
     ethr =  1.92E-07,  avg # of iterations =  3.4

     negative rho (up, down):  7.938E-01 0.000E+00

     total cpu time spent up to now is      493.0 secs

     total energy              =   -4482.97257658 Ry
     estimated scf accuracy    <       0.00052260 Ry

     iteration # 31     ecut=    60.00 Ry     beta= 0.15
     Davidson diagonalization with overlap

---- Real-time Memory Report at c_bands before calling an iterative solver
             0 MiB given to the printing process from OS
             0 MiB allocation reported by mallinfo(arena+hblkhd)
         30741 MiB available memory on the node where the printing process lives
------------------
     ethr =  1.20E-07,  avg # of iterations =  9.9

     negative rho (up, down):  7.930E-01 0.000E+00

     total cpu time spent up to now is      510.8 secs

     total energy              =   -4482.97257490 Ry
     estimated scf accuracy    <       0.00026846 Ry

     iteration # 32     ecut=    60.00 Ry     beta= 0.15
     Davidson diagonalization with overlap

---- Real-time Memory Report at c_bands before calling an iterative solver
             0 MiB given to the printing process from OS
             0 MiB allocation reported by mallinfo(arena+hblkhd)
         30793 MiB available memory on the node where the printing process lives
------------------
     ethr =  6.14E-08,  avg # of iterations =  3.6

     negative rho (up, down):  7.927E-01 0.000E+00

     total cpu time spent up to now is      526.0 secs

     total energy              =   -4482.97257140 Ry
     estimated scf accuracy    <       0.00015729 Ry

     iteration # 33     ecut=    60.00 Ry     beta= 0.15
     Davidson diagonalization with overlap

---- Real-time Memory Report at c_bands before calling an iterative solver
             0 MiB given to the printing process from OS
             0 MiB allocation reported by mallinfo(arena+hblkhd)
         30822 MiB available memory on the node where the printing process lives
------------------
     ethr =  3.60E-08,  avg # of iterations =  3.0

     negative rho (up, down):  7.923E-01 0.000E+00

     total cpu time spent up to now is      540.9 secs

     total energy              =   -4482.97256878 Ry
     estimated scf accuracy    <       0.00011403 Ry

     iteration # 34     ecut=    60.00 Ry     beta= 0.15
     Davidson diagonalization with overlap

---- Real-time Memory Report at c_bands before calling an iterative solver
             0 MiB given to the printing process from OS
             0 MiB allocation reported by mallinfo(arena+hblkhd)
         30812 MiB available memory on the node where the printing process lives
------------------
     ethr =  2.61E-08,  avg # of iterations =  3.2

     negative rho (up, down):  7.919E-01 0.000E+00

     total cpu time spent up to now is      556.0 secs

     total energy              =   -4482.97257045 Ry
     estimated scf accuracy    <       0.00007534 Ry

     iteration # 35     ecut=    60.00 Ry     beta= 0.15
     Davidson diagonalization with overlap

---- Real-time Memory Report at c_bands before calling an iterative solver
             0 MiB given to the printing process from OS
             0 MiB allocation reported by mallinfo(arena+hblkhd)
         30820 MiB available memory on the node where the printing process lives
------------------
     ethr =  1.72E-08,  avg # of iterations =  3.2

     negative rho (up, down):  7.918E-01 0.000E+00

     total cpu time spent up to now is      570.9 secs

     total energy              =   -4482.97256859 Ry
     estimated scf accuracy    <       0.00004615 Ry

     iteration # 36     ecut=    60.00 Ry     beta= 0.15
     Davidson diagonalization with overlap

---- Real-time Memory Report at c_bands before calling an iterative solver
             0 MiB given to the printing process from OS
             0 MiB allocation reported by mallinfo(arena+hblkhd)
         30837 MiB available memory on the node where the printing process lives
------------------
     ethr =  1.06E-08,  avg # of iterations =  3.7

     negative rho (up, down):  7.918E-01 0.000E+00

     total cpu time spent up to now is      586.1 secs

     total energy              =   -4482.97256373 Ry
     estimated scf accuracy    <       0.00003685 Ry

     iteration # 37     ecut=    60.00 Ry     beta= 0.15
     Davidson diagonalization with overlap

---- Real-time Memory Report at c_bands before calling an iterative solver
             0 MiB given to the printing process from OS
             0 MiB allocation reported by mallinfo(arena+hblkhd)
         30840 MiB available memory on the node where the printing process lives
------------------
     ethr =  8.43E-09,  avg # of iterations =  4.1

     negative rho (up, down):  7.919E-01 0.000E+00

     total cpu time spent up to now is      601.4 secs

     total energy              =   -4482.97256067 Ry
     estimated scf accuracy    <       0.00002494 Ry

     iteration # 38     ecut=    60.00 Ry     beta= 0.15
     Davidson diagonalization with overlap

---- Real-time Memory Report at c_bands before calling an iterative solver
             0 MiB given to the printing process from OS
             0 MiB allocation reported by mallinfo(arena+hblkhd)
         30837 MiB available memory on the node where the printing process lives
------------------
     ethr =  5.71E-09,  avg # of iterations =  3.4

     negative rho (up, down):  7.919E-01 0.000E+00

     total cpu time spent up to now is      616.5 secs

     total energy              =   -4482.97255812 Ry
     estimated scf accuracy    <       0.00002058 Ry

     iteration # 39     ecut=    60.00 Ry     beta= 0.15
     Davidson diagonalization with overlap

---- Real-time Memory Report at c_bands before calling an iterative solver
             0 MiB given to the printing process from OS
             0 MiB allocation reported by mallinfo(arena+hblkhd)
         30828 MiB available memory on the node where the printing process lives
------------------
     ethr =  4.71E-09,  avg # of iterations =  2.1

     negative rho (up, down):  7.920E-01 0.000E+00

     total cpu time spent up to now is      631.1 secs

     total energy              =   -4482.97255640 Ry
     estimated scf accuracy    <       0.00001580 Ry

     iteration # 40     ecut=    60.00 Ry     beta= 0.15
     Davidson diagonalization with overlap

---- Real-time Memory Report at c_bands before calling an iterative solver
             0 MiB given to the printing process from OS
             0 MiB allocation reported by mallinfo(arena+hblkhd)
         30820 MiB available memory on the node where the printing process lives
------------------
     ethr =  3.61E-09,  avg # of iterations =  2.5

     negative rho (up, down):  7.923E-01 0.000E+00

     total cpu time spent up to now is      645.9 secs

     total energy              =   -4482.97256343 Ry
     estimated scf accuracy    <       0.00001044 Ry

     iteration # 41     ecut=    60.00 Ry     beta= 0.15
     Davidson diagonalization with overlap

---- Real-time Memory Report at c_bands before calling an iterative solver
             0 MiB given to the printing process from OS
             0 MiB allocation reported by mallinfo(arena+hblkhd)
         30826 MiB available memory on the node where the printing process lives
------------------
     ethr =  2.39E-09,  avg # of iterations =  5.4

     negative rho (up, down):  7.923E-01 0.000E+00

     total cpu time spent up to now is      662.4 secs

     total energy              =   -4482.97256520 Ry
     estimated scf accuracy    <       0.00000368 Ry

     iteration # 42     ecut=    60.00 Ry     beta= 0.15
     Davidson diagonalization with overlap

---- Real-time Memory Report at c_bands before calling an iterative solver
             0 MiB given to the printing process from OS
             0 MiB allocation reported by mallinfo(arena+hblkhd)
         30838 MiB available memory on the node where the printing process lives
------------------
     ethr =  8.43E-10,  avg # of iterations =  4.5

     negative rho (up, down):  7.923E-01 0.000E+00

     total cpu time spent up to now is      678.0 secs

     total energy              =   -4482.97256552 Ry
     estimated scf accuracy    <       0.00000216 Ry

     iteration # 43     ecut=    60.00 Ry     beta= 0.15
     Davidson diagonalization with overlap

---- Real-time Memory Report at c_bands before calling an iterative solver
             0 MiB given to the printing process from OS
             0 MiB allocation reported by mallinfo(arena+hblkhd)
         30834 MiB available memory on the node where the printing process lives
------------------
     ethr =  4.95E-10,  avg # of iterations =  4.4

     negative rho (up, down):  7.923E-01 0.000E+00

     total cpu time spent up to now is      693.9 secs

     total energy              =   -4482.97256574 Ry
     estimated scf accuracy    <       0.00000069 Ry

     iteration # 44     ecut=    60.00 Ry     beta= 0.15
     Davidson diagonalization with overlap

---- Real-time Memory Report at c_bands before calling an iterative solver
             0 MiB given to the printing process from OS
             0 MiB allocation reported by mallinfo(arena+hblkhd)
         30829 MiB available memory on the node where the printing process lives
------------------
     ethr =  1.58E-10,  avg # of iterations =  3.3

     negative rho (up, down):  7.923E-01 0.000E+00

     total cpu time spent up to now is      708.9 secs

     total energy              =   -4482.97256594 Ry
     estimated scf accuracy    <       0.00000035 Ry

     iteration # 45     ecut=    60.00 Ry     beta= 0.15
     Davidson diagonalization with overlap

---- Real-time Memory Report at c_bands before calling an iterative solver
             0 MiB given to the printing process from OS
             0 MiB allocation reported by mallinfo(arena+hblkhd)
         30858 MiB available memory on the node where the printing process lives
------------------
     ethr =  7.97E-11,  avg # of iterations =  4.7

     negative rho (up, down):  7.923E-01 0.000E+00

     total cpu time spent up to now is      724.8 secs

     total energy              =   -4482.97256599 Ry
     estimated scf accuracy    <       0.00000009 Ry

     iteration # 46     ecut=    60.00 Ry     beta= 0.15
     Davidson diagonalization with overlap

---- Real-time Memory Report at c_bands before calling an iterative solver
             0 MiB given to the printing process from OS
             0 MiB allocation reported by mallinfo(arena+hblkhd)
         30855 MiB available memory on the node where the printing process lives
------------------
     ethr =  2.08E-11,  avg # of iterations =  4.2

     negative rho (up, down):  7.923E-01 0.000E+00

     total cpu time spent up to now is      740.6 secs

     total energy              =   -4482.97256601 Ry
     estimated scf accuracy    <       0.00000004 Ry

     iteration # 47     ecut=    60.00 Ry     beta= 0.15
     Davidson diagonalization with overlap

---- Real-time Memory Report at c_bands before calling an iterative solver
             0 MiB given to the printing process from OS
             0 MiB allocation reported by mallinfo(arena+hblkhd)
         30843 MiB available memory on the node where the printing process lives
------------------
     ethr =  1.01E-11,  avg # of iterations =  4.6

     negative rho (up, down):  7.923E-01 0.000E+00

     total cpu time spent up to now is      756.5 secs

     total energy              =   -4482.97256603 Ry
     estimated scf accuracy    <       0.00000002 Ry

     iteration # 48     ecut=    60.00 Ry     beta= 0.15
     Davidson diagonalization with overlap

---- Real-time Memory Report at c_bands before calling an iterative solver
             0 MiB given to the printing process from OS
             0 MiB allocation reported by mallinfo(arena+hblkhd)
         30810 MiB available memory on the node where the printing process lives
------------------
     ethr =  4.85E-12,  avg # of iterations =  4.5

     negative rho (up, down):  7.923E-01 0.000E+00

     total cpu time spent up to now is      772.3 secs

     total energy              =   -4482.97256603 Ry
     estimated scf accuracy    <       0.00000001 Ry

     iteration # 49     ecut=    60.00 Ry     beta= 0.15
     Davidson diagonalization with overlap

---- Real-time Memory Report at c_bands before calling an iterative solver
             0 MiB given to the printing process from OS
             0 MiB allocation reported by mallinfo(arena+hblkhd)
         30807 MiB available memory on the node where the printing process lives
------------------
     ethr =  2.50E-12,  avg # of iterations =  3.5

     negative rho (up, down):  7.923E-01 0.000E+00

     total cpu time spent up to now is      787.2 secs

     End of self-consistent calculation

          k = 0.0000 0.0000 0.0000 ( 65197 PWs)   bands (ev):

   -92.3360 -92.2806 -92.1898 -92.1410 -92.0843 -92.0427 -92.0249 -91.8997
   -55.6891 -55.6671 -55.5477 -55.5371 -55.5290 -55.5239 -55.4851 -55.4594
   -55.4429 -55.4419 -55.4326 -55.3917 -55.3726 -55.3355 -55.3157 -55.2843
   -55.2764 -55.2312 -55.2283 -55.2280 -55.2198 -55.1735 -55.1557 -55.0669
   -30.9231 -30.9042 -30.7826 -30.7630 -30.6764 -30.6187 -30.6160 -30.4695
   -29.4875 -29.4444 -29.4182 -29.3097 -22.2511 -14.7212 -14.6854 -14.5993
   -14.4685 -14.2861 -14.1618 -13.8616 -13.8462 -13.8128 -13.7713 -13.7679
   -13.7269 -13.7202 -13.7053 -13.6875 -13.6709 -13.6297 -13.5710 -13.4228
   -13.2527 -13.2105 -13.1792 -13.1534 -13.1326 -13.0842 -13.0463 -12.9701
   -12.8972 -12.8057 -12.7842 -12.7561 -12.7440 -12.7209 -12.7029 -12.6808
   -12.6507 -12.6390 -12.6075 -12.5849 -12.5762 -12.5631 -12.5419 -12.5261
   -12.5131 -12.4752 -12.4592 -12.4044 -12.3702 -12.3542 -11.9882 -11.8433
   -11.7248 -11.6460 -11.5016 -11.4268 -11.4155 -11.3937 -11.3759 -11.3118
   -11.2945 -11.2601 -11.2309 -11.1197 -11.0391 -11.0355  -5.8404  -3.1582
    -3.1545  -2.5816  -2.3481  -2.1182  -1.9732  -1.9082  -1.7655  -1.4595
    -1.4452  -1.4240  -1.3427  -1.3237  -1.2553  -1.2395  -1.1963  -1.1535
    -0.9723  -0.7508  -0.7193  -0.5693  -0.5558  -0.5126  -0.4935  -0.4494
    -0.4344  -0.3733  -0.3465  -0.2767  -0.2678  -0.1855  -0.0591  -0.0452
    -0.0158   0.0653   0.0672   0.0864   0.1493   0.2303   0.2710   0.3212
     0.3456   0.4136   0.4766   0.5403   0.5548   0.5713   0.8231   0.8384
     1.0064   1.0805   1.1436   1.1816   1.2786   1.2899   1.3030   1.3782
     1.4060   1.4401   1.5002   1.6346   1.6865   1.7075   1.7241   1.7393
     1.8060   1.8846   1.9775   1.9919   2.0485   2.0729   2.1104   2.1278
     2.1369   2.1972   2.2441   2.2540   2.2837   2.3122   2.3826   2.5116
     2.5973   2.6401   2.6475   2.8044   2.8160   2.8690   2.8762   2.9727
     3.0159   3.0391   3.0593   3.0618   3.0702   3.0751   3.1536   3.2652
     3.2995   3.3140   3.3204   3.3865   3.3906   3.4153   3.4238   3.4310
     3.4395   3.4506   3.4624   3.4690   3.4817   3.4908   3.4989   3.5190
     3.5404   3.5452   3.5574   3.5784   3.6992   3.7456   4.4226   4.7699
     4.7849   5.1420   5.3904   5.5023   5.7141   6.2787   6.3286   6.3499
     6.6217   6.6278   6.6771   6.7242   6.9649   7.2163   7.2611   7.3996
     7.4909   7.6524   7.7865   7.9067   7.9378   7.9615   8.0432   8.1224
     8.3171   8.3552   8.3848   8.4290   8.4784   8.5684   8.6079

     occupation numbers 
     1.0000   1.0000   1.0000   1.0000   1.0000   1.0000   1.0000   1.0000
     1.0000   1.0000   1.0000   1.0000   1.0000   1.0000   1.0000   1.0000
     1.0000   1.0000   1.0000   1.0000   1.0000   1.0000   1.0000   1.0000
     1.0000   1.0000   1.0000   1.0000   1.0000   1.0000   1.0000   1.0000
     1.0000   1.0000   1.0000   1.0000   1.0000   1.0000   1.0000   1.0000
     1.0000   1.0000   1.0000   1.0000   1.0000   1.0000   1.0000   1.0000
     1.0000   1.0000   1.0000   1.0000   1.0000   1.0000   1.0000   1.0000
     1.0000   1.0000   1.0000   1.0000   1.0000   1.0000   1.0000   1.0000
     1.0000   1.0000   1.0000   1.0000   1.0000   1.0000   1.0000   1.0000
     1.0000   1.0000   1.0000   1.0000   1.0000   1.0000   1.0000   1.0000
     1.0000   1.0000   1.0000   1.0000   1.0000   1.0000   1.0000   1.0000
     1.0000   1.0000   1.0000   1.0000   1.0000   1.0000   1.0000   1.0000
     1.0000   1.0000   1.0000   1.0000   1.0000   1.0000   1.0000   1.0000
     1.0000   1.0000   1.0000   1.0000   1.0000   1.0000   1.0000   1.0000
     1.0000   1.0000   1.0000   1.0000   1.0000   1.0000   1.0000   1.0000
     1.0000   1.0000   1.0000   1.0000   1.0000   1.0000   1.0000   1.0000
     1.0000   1.0000   1.0000   1.0000   1.0000   1.0000   1.0000   1.0000
     1.0000   1.0000   1.0000   1.0000   1.0000   1.0000   1.0000   1.0000
     1.0000   1.0000   1.0000   1.0000   1.0000   1.0000   1.0000   1.0000
     1.0000   1.0000   1.0000   1.0000   1.0000   1.0000   1.0000   1.0000
     1.0000   0.9999   0.9999   0.9999   0.9998   0.9998   0.9998   0.9997
     0.9997   0.9996   0.9994   0.9989   0.9985   0.9984   0.9982   0.9981
     0.9974   0.9963   0.9945   0.9942   0.9926   0.9918   0.9905   0.9898
     0.9895   0.9867   0.9841   0.9835   0.9816   0.9796   0.9739   0.9600
     0.9477   0.9406   0.9393   0.9058   0.9029   0.8887   0.8867   0.8567
     0.8417   0.8332   0.8256   0.8247   0.8214   0.8195   0.7873   0.7360
     0.7191   0.7119   0.7086   0.6741   0.6719   0.6585   0.6538   0.6499
     0.6452   0.6391   0.6325   0.6288   0.6216   0.6165   0.6119   0.6004
     0.5881   0.5853   0.5782   0.5660   0.4947   0.4673   0.1384   0.0545
     0.0520   0.0156   0.0058   0.0036   0.0013   0.0001   0.0000   0.0000
     0.0000   0.0000   0.0000   0.0000   0.0000   0.0000   0.0000   0.0000
     0.0000   0.0000   0.0000   0.0000   0.0000   0.0000   0.0000   0.0000
     0.0000   0.0000   0.0000   0.0000   0.0000   0.0000   0.0000

          k = 0.0000 0.2500 0.0000 ( 65257 PWs)   bands (ev):

   -92.3360 -92.2806 -92.1898 -92.1410 -92.0843 -92.0427 -92.0249 -91.8997
   -55.6891 -55.6671 -55.5477 -55.5371 -55.5290 -55.5239 -55.4851 -55.4594
   -55.4429 -55.4419 -55.4326 -55.3917 -55.3726 -55.3355 -55.3157 -55.2843
   -55.2764 -55.2312 -55.2283 -55.2280 -55.2198 -55.1735 -55.1557 -55.0669
   -30.9229 -30.9041 -30.7824 -30.7632 -30.6765 -30.6189 -30.6159 -30.4697
   -29.4869 -29.4441 -29.4188 -29.3101 -22.2511 -14.6841 -14.6594 -14.5742
   -14.4393 -14.3246 -14.1517 -14.0075 -13.8275 -13.7993 -13.7761 -13.7689
   -13.7457 -13.6898 -13.6810 -13.6698 -13.6548 -13.6110 -13.4913 -13.4539
   -13.2915 -13.2761 -13.2215 -13.1868 -13.1463 -13.0981 -13.0586 -12.9889
   -12.9561 -12.9199 -12.8595 -12.7942 -12.7710 -12.7533 -12.7344 -12.6394
   -12.6152 -12.6017 -12.5805 -12.5594 -12.5487 -12.5299 -12.5107 -12.4860
   -12.4432 -12.4244 -12.4157 -12.3899 -12.2837 -12.2033 -12.0495 -11.8946
   -11.7806 -11.7125 -11.4670 -11.4237 -11.3961 -11.3676 -11.3510 -11.3039
   -11.2924 -11.2699 -11.2361 -11.1338 -11.0807 -11.0701  -5.8404  -3.1582
    -3.1547  -2.4464  -2.2238  -2.0864  -1.9047  -1.8608  -1.6963  -1.4793
    -1.3918  -1.3787  -1.3238  -1.2190  -1.2053  -1.1717  -1.1452  -1.1019
    -0.9034  -0.7746  -0.7631  -0.6884  -0.6763  -0.5718  -0.5406  -0.4853
    -0.4609  -0.4170  -0.3560  -0.3303  -0.2964  -0.2665  -0.2500  -0.2158
    -0.1430  -0.0906  -0.0345   0.0830   0.0986   0.1404   0.2695   0.3056
     0.3499   0.4121   0.4521   0.4847   0.5181   0.5764   0.8716   0.9593
     0.9949   1.0726   1.1152   1.1401   1.2631   1.2837   1.3808   1.4033
     1.4352   1.5483   1.6354   1.6641   1.6871   1.7004   1.7318   1.7952
     1.8187   1.8478   1.8956   1.9255   1.9560   2.0375   2.0658   2.1008
     2.1553   2.2134   2.2452   2.2680   2.2982   2.3244   2.4168   2.5549
     2.6177   2.6329   2.7190   2.7624   2.8006   2.8079   2.8712   2.9158
     2.9913   3.0305   3.0474   3.0613   3.0682   3.2269   3.2485   3.2812
     3.3020   3.3192   3.3287   3.3368   3.3439   3.3744   3.3760   3.3922
     3.3970   3.4098   3.4269   3.4367   3.4475   3.4699   3.4805   3.4852
     3.5212   3.5378   3.5978   3.9617   3.9714   4.2353   4.6042   4.7614
     4.9072   5.0955   5.4119   5.5159   5.8450   5.9555   6.1571   6.2955
     6.3407   6.4584   6.5306   6.7424   6.9010   7.0600   7.2906   7.5297
     7.5581   7.6991   7.8032   7.8847   7.9737   8.0115   8.0987   8.2051
     8.2432   8.4225   8.4971   8.5534   8.6059   8.6819   8.9451

     occupation numbers 
     1.0000   1.0000   1.0000   1.0000   1.0000   1.0000   1.0000   1.0000
     1.0000   1.0000   1.0000   1.0000   1.0000   1.0000   1.0000   1.0000
     1.0000   1.0000   1.0000   1.0000   1.0000   1.0000   1.0000   1.0000
     1.0000   1.0000   1.0000   1.0000   1.0000   1.0000   1.0000   1.0000
     1.0000   1.0000   1.0000   1.0000   1.0000   1.0000   1.0000   1.0000
     1.0000   1.0000   1.0000   1.0000   1.0000   1.0000   1.0000   1.0000
     1.0000   1.0000   1.0000   1.0000   1.0000   1.0000   1.0000   1.0000
     1.0000   1.0000   1.0000   1.0000   1.0000   1.0000   1.0000   1.0000
     1.0000   1.0000   1.0000   1.0000   1.0000   1.0000   1.0000   1.0000
     1.0000   1.0000   1.0000   1.0000   1.0000   1.0000   1.0000   1.0000
     1.0000   1.0000   1.0000   1.0000   1.0000   1.0000   1.0000   1.0000
     1.0000   1.0000   1.0000   1.0000   1.0000   1.0000   1.0000   1.0000
     1.0000   1.0000   1.0000   1.0000   1.0000   1.0000   1.0000   1.0000
     1.0000   1.0000   1.0000   1.0000   1.0000   1.0000   1.0000   1.0000
     1.0000   1.0000   1.0000   1.0000   1.0000   1.0000   1.0000   1.0000
     1.0000   1.0000   1.0000   1.0000   1.0000   1.0000   1.0000   1.0000
     1.0000   1.0000   1.0000   1.0000   1.0000   1.0000   1.0000   1.0000
     1.0000   1.0000   1.0000   1.0000   1.0000   1.0000   1.0000   1.0000
     1.0000   1.0000   1.0000   1.0000   1.0000   1.0000   1.0000   1.0000
     1.0000   1.0000   1.0000   1.0000   1.0000   1.0000   1.0000   1.0000
     1.0000   0.9999   0.9999   0.9999   0.9998   0.9998   0.9997   0.9997
     0.9996   0.9993   0.9989   0.9987   0.9985   0.9984   0.9982   0.9976
     0.9973   0.9969   0.9962   0.9956   0.9950   0.9929   0.9921   0.9909
     0.9887   0.9859   0.9841   0.9827   0.9806   0.9787   0.9707   0.9541
     0.9444   0.9418   0.9254   0.9159   0.9068   0.9050   0.8881   0.8749
     0.8504   0.8364   0.8301   0.8249   0.8222   0.7543   0.7441   0.7282
     0.7179   0.7092   0.7044   0.7002   0.6965   0.6805   0.6797   0.6710
     0.6684   0.6615   0.6522   0.6468   0.6408   0.6283   0.6223   0.6197
     0.5992   0.5896   0.5547   0.3435   0.3382   0.2092   0.0874   0.0559
     0.0354   0.0185   0.0053   0.0034   0.0007   0.0004   0.0001   0.0001
     0.0000   0.0000   0.0000   0.0000   0.0000   0.0000   0.0000   0.0000
     0.0000   0.0000   0.0000   0.0000   0.0000   0.0000   0.0000   0.0000
     0.0000   0.0000   0.0000   0.0000   0.0000   0.0000   0.0000

          k = 0.0000-0.5000 0.0000 ( 65180 PWs)   bands (ev):

   -92.3360 -92.2806 -92.1898 -92.1410 -92.0843 -92.0427 -92.0249 -91.8997
   -55.6891 -55.6671 -55.5477 -55.5371 -55.5290 -55.5239 -55.4851 -55.4594
   -55.4429 -55.4419 -55.4326 -55.3917 -55.3726 -55.3355 -55.3157 -55.2843
   -55.2764 -55.2312 -55.2283 -55.2280 -55.2198 -55.1735 -55.1557 -55.0669
   -30.9228 -30.9039 -30.7823 -30.7634 -30.6767 -30.6191 -30.6157 -30.4700
   -29.4863 -29.4438 -29.4194 -29.3104 -22.2511 -14.6522 -14.6038 -14.5513
   -14.4278 -14.3368 -14.2026 -14.0522 -13.9354 -13.7974 -13.7692 -13.7354
   -13.6902 -13.6783 -13.6332 -13.6135 -13.5664 -13.5512 -13.5222 -13.4892
   -13.4645 -13.4196 -13.2241 -13.1685 -13.1550 -13.0979 -13.0532 -13.0029
   -12.9912 -12.9468 -12.9300 -12.8648 -12.7679 -12.7530 -12.7303 -12.6603
   -12.6168 -12.6036 -12.5752 -12.5584 -12.5298 -12.5221 -12.4806 -12.4136
   -12.4058 -12.3907 -12.3506 -12.2972 -12.1607 -12.1428 -11.9931 -11.9699
   -11.8783 -11.8362 -11.4206 -11.4186 -11.3913 -11.3530 -11.3190 -11.3081
   -11.2659 -11.2618 -11.2180 -11.1552 -11.1413 -11.1271  -5.8404  -3.1581
    -3.1548  -2.2312  -2.1728  -2.0204  -1.9481  -1.6680  -1.5854  -1.4558
    -1.3181  -1.2830  -1.2618  -1.1839  -1.1529  -1.0705  -1.0357  -0.9591
    -0.9183  -0.8787  -0.8521  -0.7975  -0.7581  -0.7131  -0.6767  -0.6419
    -0.6094  -0.4976  -0.4528  -0.4205  -0.4187  -0.3329  -0.3015  -0.2779
    -0.2331  -0.1467  -0.0743   0.0060   0.0320   0.1528   0.1768   0.3303
     0.3518   0.3979   0.4269   0.5454   0.6311   0.7529   0.8179   0.8262
     0.9559   1.0016   1.0725   1.2376   1.3356   1.3684   1.4062   1.4135
     1.4423   1.4696   1.5063   1.5211   1.5394   1.6445   1.7000   1.7259
     1.7492   2.0163   2.0504   2.0698   2.1487   2.1770   2.2217   2.2369
     2.2683   2.2757   2.2904   2.3123   2.3586   2.3799   2.4050   2.4252
     2.4535   2.5079   2.5910   2.6251   2.7889   2.9635   2.9732   2.9837
     3.0187   3.0264   3.0403   3.0624   3.0744   3.0939   3.1073   3.1614
     3.1816   3.2563   3.2690   3.3404   3.3438   3.3723   3.3728   3.3913
     3.3942   3.3978   3.4045   3.4079   3.4202   3.4405   3.4408   3.5068
     3.5112   3.5274   3.5836   4.4676   4.4840   4.5518   4.5862   5.0234
     5.0753   5.2468   5.3201   5.5306   5.7104   5.8518   5.8764   6.0535
     6.2319   6.3503   6.3978   6.4369   7.0367   7.0879   7.1120   7.4262
     7.5061   7.7390   7.8167   7.9233   8.0688   8.1102   8.2148   8.3897
     8.4780   8.5713   8.6583   8.7114   8.7419   8.8614   8.9599

     occupation numbers 
     1.0000   1.0000   1.0000   1.0000   1.0000   1.0000   1.0000   1.0000
     1.0000   1.0000   1.0000   1.0000   1.0000   1.0000   1.0000   1.0000
     1.0000   1.0000   1.0000   1.0000   1.0000   1.0000   1.0000   1.0000
     1.0000   1.0000   1.0000   1.0000   1.0000   1.0000   1.0000   1.0000
     1.0000   1.0000   1.0000   1.0000   1.0000   1.0000   1.0000   1.0000
     1.0000   1.0000   1.0000   1.0000   1.0000   1.0000   1.0000   1.0000
     1.0000   1.0000   1.0000   1.0000   1.0000   1.0000   1.0000   1.0000
     1.0000   1.0000   1.0000   1.0000   1.0000   1.0000   1.0000   1.0000
     1.0000   1.0000   1.0000   1.0000   1.0000   1.0000   1.0000   1.0000
     1.0000   1.0000   1.0000   1.0000   1.0000   1.0000   1.0000   1.0000
     1.0000   1.0000   1.0000   1.0000   1.0000   1.0000   1.0000   1.0000
     1.0000   1.0000   1.0000   1.0000   1.0000   1.0000   1.0000   1.0000
     1.0000   1.0000   1.0000   1.0000   1.0000   1.0000   1.0000   1.0000
     1.0000   1.0000   1.0000   1.0000   1.0000   1.0000   1.0000   1.0000
     1.0000   1.0000   1.0000   1.0000   1.0000   1.0000   1.0000   1.0000
     1.0000   1.0000   1.0000   1.0000   1.0000   1.0000   1.0000   1.0000
     1.0000   1.0000   1.0000   1.0000   1.0000   1.0000   1.0000   1.0000
     1.0000   1.0000   1.0000   1.0000   1.0000   1.0000   1.0000   1.0000
     1.0000   1.0000   1.0000   1.0000   1.0000   1.0000   1.0000   1.0000
     1.0000   1.0000   1.0000   1.0000   1.0000   1.0000   1.0000   1.0000
     1.0000   1.0000   0.9999   0.9999   0.9998   0.9997   0.9997   0.9996
     0.9996   0.9995   0.9994   0.9994   0.9993   0.9988   0.9984   0.9982
     0.9980   0.9935   0.9926   0.9919   0.9890   0.9877   0.9854   0.9845
     0.9826   0.9822   0.9812   0.9796   0.9760   0.9742   0.9718   0.9698
     0.9669   0.9604   0.9487   0.9432   0.9096   0.8598   0.8565   0.8530
     0.8407   0.8379   0.8328   0.8244   0.8198   0.8121   0.8067   0.7839
     0.7750   0.7404   0.7342   0.6983   0.6966   0.6816   0.6814   0.6715
     0.6699   0.6680   0.6644   0.6626   0.6559   0.6447   0.6445   0.6074
     0.6049   0.5956   0.5630   0.1242   0.1193   0.1004   0.0917   0.0239
     0.0199   0.0104   0.0078   0.0031   0.0014   0.0007   0.0006   0.0002
     0.0001   0.0000   0.0000   0.0000   0.0000   0.0000   0.0000   0.0000
     0.0000   0.0000   0.0000   0.0000   0.0000   0.0000   0.0000   0.0000
     0.0000   0.0000   0.0000   0.0000   0.0000   0.0000   0.0000

          k = 0.2500 0.2500 0.0000 ( 65198 PWs)   bands (ev):

   -92.3360 -92.2806 -92.1898 -92.1410 -92.0843 -92.0427 -92.0249 -91.8997
   -55.6891 -55.6671 -55.5477 -55.5371 -55.5290 -55.5238 -55.4851 -55.4594
   -55.4429 -55.4419 -55.4326 -55.3917 -55.3726 -55.3355 -55.3157 -55.2843
   -55.2764 -55.2312 -55.2283 -55.2280 -55.2198 -55.1735 -55.1557 -55.0669
   -30.9212 -30.9058 -30.7823 -30.7628 -30.6769 -30.6187 -30.6161 -30.4700
   -29.4859 -29.4451 -29.4184 -29.3105 -22.2511 -14.6561 -14.6240 -14.5463
   -14.4289 -14.3159 -14.1911 -14.1123 -13.9127 -13.7695 -13.7507 -13.7404
   -13.7051 -13.6754 -13.6517 -13.6310 -13.6004 -13.5718 -13.4837 -13.4682
   -13.3068 -13.2940 -13.2631 -13.2442 -13.2079 -13.1531 -13.0935 -13.0708
   -12.9866 -12.9516 -12.8762 -12.7897 -12.7507 -12.7259 -12.6908 -12.6665
   -12.6265 -12.6026 -12.5932 -12.5687 -12.5541 -12.5132 -12.4858 -12.4585
   -12.4073 -12.3952 -12.3875 -12.3593 -12.2122 -12.0981 -12.0925 -11.9238
   -11.8128 -11.7602 -11.4392 -11.4073 -11.3966 -11.3892 -11.3271 -11.2918
   -11.2854 -11.2501 -11.2421 -11.1504 -11.1089 -11.0915  -5.8404  -3.1583
    -3.1547  -2.3083  -2.0981  -1.9804  -1.8877  -1.7649  -1.6997  -1.5044
    -1.3573  -1.3369  -1.3104  -1.2139  -1.1814  -1.0880  -1.0611  -1.0106
    -0.8783  -0.8313  -0.7594  -0.7135  -0.6696  -0.6450  -0.6196  -0.5778
    -0.5622  -0.4726  -0.4226  -0.3597  -0.3106  -0.2803  -0.2281  -0.2180
    -0.1547  -0.1034  -0.0521  -0.0139   0.0677   0.1261   0.1500   0.1939
     0.2468   0.3271   0.3541   0.3776   0.4513   0.4821   0.7649   0.9134
     0.9506   1.0050   1.0466   1.0872   1.1443   1.2146   1.2505   1.5237
     1.5966   1.6710   1.6987   1.7404   1.7759   1.8115   1.8493   1.8667
     1.8959   1.9360   1.9430   1.9618   1.9992   2.0378   2.0829   2.1374
     2.1679   2.1824   2.2097   2.2514   2.2961   2.3211   2.4571   2.5300
     2.5698   2.5958   2.6483   2.7201   2.7530   2.7911   2.8168   2.8252
     2.9350   2.9746   3.0549   3.0614   3.0682   3.2379   3.2554   3.2621
     3.2784   3.2923   3.3045   3.3171   3.3246   3.3343   3.3479   3.3591
     3.3789   3.3855   3.3964   3.4161   3.4312   3.4416   3.4717   3.7736
     3.8642   3.9016   3.9687   3.9861   4.2064   4.3151   4.6449   4.8077
     4.9750   5.1412   5.3408   5.5729   5.9466   5.9640   6.0068   6.1236
     6.2019   6.2519   6.3643   6.3937   6.9751   7.0074   7.0713   7.2070
     7.7229   7.8199   7.8592   7.8900   8.0273   8.1471   8.2479   8.2737
     8.3722   8.4569   8.5689   8.6758   8.7200   8.7581   8.8534

     occupation numbers 
     1.0000   1.0000   1.0000   1.0000   1.0000   1.0000   1.0000   1.0000
     1.0000   1.0000   1.0000   1.0000   1.0000   1.0000   1.0000   1.0000
     1.0000   1.0000   1.0000   1.0000   1.0000   1.0000   1.0000   1.0000
     1.0000   1.0000   1.0000   1.0000   1.0000   1.0000   1.0000   1.0000
     1.0000   1.0000   1.0000   1.0000   1.0000   1.0000   1.0000   1.0000
     1.0000   1.0000   1.0000   1.0000   1.0000   1.0000   1.0000   1.0000
     1.0000   1.0000   1.0000   1.0000   1.0000   1.0000   1.0000   1.0000
     1.0000   1.0000   1.0000   1.0000   1.0000   1.0000   1.0000   1.0000
     1.0000   1.0000   1.0000   1.0000   1.0000   1.0000   1.0000   1.0000
     1.0000   1.0000   1.0000   1.0000   1.0000   1.0000   1.0000   1.0000
     1.0000   1.0000   1.0000   1.0000   1.0000   1.0000   1.0000   1.0000
     1.0000   1.0000   1.0000   1.0000   1.0000   1.0000   1.0000   1.0000
     1.0000   1.0000   1.0000   1.0000   1.0000   1.0000   1.0000   1.0000
     1.0000   1.0000   1.0000   1.0000   1.0000   1.0000   1.0000   1.0000
     1.0000   1.0000   1.0000   1.0000   1.0000   1.0000   1.0000   1.0000
     1.0000   1.0000   1.0000   1.0000   1.0000   1.0000   1.0000   1.0000
     1.0000   1.0000   1.0000   1.0000   1.0000   1.0000   1.0000   1.0000
     1.0000   1.0000   1.0000   1.0000   1.0000   1.0000   1.0000   1.0000
     1.0000   1.0000   1.0000   1.0000   1.0000   1.0000   1.0000   1.0000
     1.0000   1.0000   1.0000   1.0000   1.0000   1.0000   1.0000   1.0000
     1.0000   1.0000   1.0000   0.9999   0.9999   0.9999   0.9999   0.9994
     0.9991   0.9986   0.9984   0.9981   0.9978   0.9974   0.9969   0.9966
     0.9961   0.9954   0.9953   0.9949   0.9940   0.9929   0.9915   0.9894
     0.9881   0.9874   0.9860   0.9837   0.9808   0.9790   0.9665   0.9576
     0.9519   0.9479   0.9391   0.9252   0.9180   0.9091   0.9027   0.9005
     0.8690   0.8560   0.8273   0.8248   0.8222   0.7492   0.7408   0.7376
     0.7296   0.7228   0.7167   0.7103   0.7065   0.7015   0.6945   0.6886
     0.6781   0.6746   0.6687   0.6581   0.6498   0.6441   0.6273   0.4508
     0.3982   0.3769   0.3397   0.3303   0.2217   0.1768   0.0782   0.0485
     0.0282   0.0156   0.0071   0.0026   0.0004   0.0004   0.0003   0.0002
     0.0001   0.0001   0.0000   0.0000   0.0000   0.0000   0.0000   0.0000
     0.0000   0.0000   0.0000   0.0000   0.0000   0.0000   0.0000   0.0000
     0.0000   0.0000   0.0000   0.0000   0.0000   0.0000   0.0000

          k = 0.2500-0.5000 0.0000 ( 65138 PWs)   bands (ev):

   -92.3360 -92.2806 -92.1898 -92.1410 -92.0843 -92.0427 -92.0249 -91.8997
   -55.6891 -55.6671 -55.5477 -55.5371 -55.5290 -55.5238 -55.4851 -55.4594
   -55.4429 -55.4419 -55.4326 -55.3917 -55.3726 -55.3355 -55.3157 -55.2843
   -55.2764 -55.2312 -55.2283 -55.2280 -55.2198 -55.1735 -55.1557 -55.0669
   -30.9210 -30.9057 -30.7821 -30.7630 -30.6771 -30.6188 -30.6159 -30.4702
   -29.4853 -29.4448 -29.4190 -29.3108 -22.2511 -14.6220 -14.5768 -14.5084
   -14.3966 -14.3610 -14.2423 -14.1544 -14.0298 -13.7691 -13.7144 -13.6674
   -13.6379 -13.6161 -13.6010 -13.5849 -13.5516 -13.5390 -13.5049 -13.4634
   -13.4498 -13.4078 -13.3080 -13.2601 -13.2241 -13.1805 -13.1160 -13.1029
   -13.0396 -13.0136 -12.8525 -12.7884 -12.7710 -12.7097 -12.6762 -12.6384
   -12.6256 -12.6043 -12.5897 -12.5668 -12.5572 -12.5090 -12.4899 -12.4416
   -12.4185 -12.4074 -12.3011 -12.2696 -12.1673 -12.1142 -11.9676 -11.9603
   -11.8700 -11.8427 -11.4146 -11.4027 -11.3917 -11.3644 -11.3332 -11.3045
   -11.2638 -11.2358 -11.2139 -11.1684 -11.1423 -11.1313  -5.8404  -3.1583
    -3.1548  -2.0897  -2.0251  -1.8944  -1.8170  -1.6887  -1.6057  -1.4804
    -1.3299  -1.2774  -1.2544  -1.1920  -1.1784  -1.0811  -1.0150  -0.9287
    -0.8813  -0.8719  -0.8072  -0.7672  -0.7308  -0.6835  -0.6470  -0.6116
    -0.5712  -0.5600  -0.5155  -0.4872  -0.4455  -0.4150  -0.3474  -0.2476
    -0.2102  -0.1305  -0.0652  -0.0183   0.0244   0.0468   0.1045   0.2612
     0.2733   0.3651   0.4031   0.4163   0.4609   0.4977   0.5282   0.5673
     0.6362   0.9074   1.0016   1.0396   1.1055   1.3879   1.4057   1.4965
     1.5242   1.6933   1.7240   1.7685   1.7960   1.8096   1.8304   1.8900
     1.9343   1.9720   2.0407   2.1431   2.1730   2.1956   2.2080   2.2424
     2.2592   2.2651   2.3064   2.3200   2.3393   2.3575   2.3866   2.4171
     2.4453   2.5067   2.5459   2.6249   2.7603   2.9164   2.9304   2.9489
     2.9763   3.0016   3.0213   3.0501   3.0553   3.0639   3.0776   3.0918
     3.1874   3.2361   3.2570   3.2577   3.2745   3.2954   3.3089   3.3283
     3.3353   3.3657   3.3764   3.3943   3.4013   3.4092   3.4214   3.9261
     3.9527   4.1052   4.1589   4.4772   4.5307   4.5524   4.6605   5.0753
     5.1008   5.3119   5.3432   5.5046   5.6438   5.7791   5.8430   5.9776
     6.0784   6.1075   6.3335   6.4683   6.5732   6.6463   7.1541   7.3163
     7.4862   7.6639   7.9665   8.0806   8.1800   8.2049   8.3502   8.4791
     8.5335   8.5613   8.6942   8.8005   8.8193   8.8921   8.9405

     occupation numbers 
     1.0000   1.0000   1.0000   1.0000   1.0000   1.0000   1.0000   1.0000
     1.0000   1.0000   1.0000   1.0000   1.0000   1.0000   1.0000   1.0000
     1.0000   1.0000   1.0000   1.0000   1.0000   1.0000   1.0000   1.0000
     1.0000   1.0000   1.0000   1.0000   1.0000   1.0000   1.0000   1.0000
     1.0000   1.0000   1.0000   1.0000   1.0000   1.0000   1.0000   1.0000
     1.0000   1.0000   1.0000   1.0000   1.0000   1.0000   1.0000   1.0000
     1.0000   1.0000   1.0000   1.0000   1.0000   1.0000   1.0000   1.0000
     1.0000   1.0000   1.0000   1.0000   1.0000   1.0000   1.0000   1.0000
     1.0000   1.0000   1.0000   1.0000   1.0000   1.0000   1.0000   1.0000
     1.0000   1.0000   1.0000   1.0000   1.0000   1.0000   1.0000   1.0000
     1.0000   1.0000   1.0000   1.0000   1.0000   1.0000   1.0000   1.0000
     1.0000   1.0000   1.0000   1.0000   1.0000   1.0000   1.0000   1.0000
     1.0000   1.0000   1.0000   1.0000   1.0000   1.0000   1.0000   1.0000
     1.0000   1.0000   1.0000   1.0000   1.0000   1.0000   1.0000   1.0000
     1.0000   1.0000   1.0000   1.0000   1.0000   1.0000   1.0000   1.0000
     1.0000   1.0000   1.0000   1.0000   1.0000   1.0000   1.0000   1.0000
     1.0000   1.0000   1.0000   1.0000   1.0000   1.0000   1.0000   1.0000
     1.0000   1.0000   1.0000   1.0000   1.0000   1.0000   1.0000   1.0000
     1.0000   1.0000   1.0000   1.0000   1.0000   1.0000   1.0000   1.0000
     1.0000   1.0000   1.0000   1.0000   1.0000   1.0000   1.0000   1.0000
     1.0000   1.0000   1.0000   1.0000   0.9999   0.9997   0.9997   0.9994
     0.9994   0.9985   0.9982   0.9978   0.9975   0.9974   0.9971   0.9962
     0.9954   0.9946   0.9928   0.9892   0.9879   0.9868   0.9861   0.9842
     0.9832   0.9828   0.9801   0.9791   0.9776   0.9761   0.9736   0.9707
     0.9678   0.9606   0.9554   0.9432   0.9164   0.8748   0.8704   0.8645
     0.8555   0.8468   0.8397   0.8291   0.8272   0.8239   0.8185   0.8129
     0.7724   0.7500   0.7400   0.7397   0.7315   0.7212   0.7144   0.7046
     0.7010   0.6851   0.6795   0.6699   0.6661   0.6618   0.6552   0.3631
     0.3484   0.2689   0.2433   0.1213   0.1060   0.1003   0.0748   0.0199
     0.0181   0.0080   0.0071   0.0035   0.0019   0.0010   0.0007   0.0003
     0.0002   0.0002   0.0000   0.0000   0.0000   0.0000   0.0000   0.0000
     0.0000   0.0000   0.0000   0.0000   0.0000   0.0000   0.0000   0.0000
     0.0000   0.0000   0.0000   0.0000   0.0000   0.0000   0.0000

          k =-0.5000-0.5000 0.0000 ( 65132 PWs)   bands (ev):

   -92.3360 -92.2806 -92.1898 -92.1410 -92.0843 -92.0427 -92.0249 -91.8997
   -55.6891 -55.6671 -55.5477 -55.5371 -55.5290 -55.5238 -55.4851 -55.4594
   -55.4429 -55.4419 -55.4326 -55.3917 -55.3726 -55.3355 -55.3157 -55.2843
   -55.2764 -55.2312 -55.2283 -55.2280 -55.2198 -55.1735 -55.1557 -55.0669
   -30.9187 -30.9080 -30.7819 -30.7626 -30.6774 -30.6186 -30.6161 -30.4704
   -29.4843 -29.4458 -29.4186 -29.3112 -22.2511 -14.5766 -14.5491 -14.4320
   -14.4208 -14.3270 -14.2893 -14.2591 -14.1278 -13.7690 -13.6270 -13.6162
   -13.5809 -13.5631 -13.5447 -13.5355 -13.5016 -13.4939 -13.4760 -13.4726
   -13.4563 -13.3766 -13.3712 -13.3433 -13.3229 -13.3078 -13.2065 -13.1766
   -13.0826 -13.0700 -12.8046 -12.7675 -12.6955 -12.6746 -12.6695 -12.6369
   -12.6305 -12.6211 -12.6017 -12.5648 -12.5457 -12.5105 -12.4939 -12.4757
   -12.4335 -12.4275 -12.2508 -12.2432 -12.1837 -12.0890 -11.9641 -11.9250
   -11.8623 -11.8529 -11.4110 -11.3987 -11.3810 -11.3642 -11.3296 -11.3121
   -11.2768 -11.2162 -11.1959 -11.1906 -11.1400 -11.1372  -5.8404  -3.1585
    -3.1548  -1.8662  -1.7896  -1.7812  -1.7095  -1.6694  -1.5908  -1.5226
    -1.3981  -1.2801  -1.2505  -1.2116  -1.1535  -1.0818  -1.0675  -0.9959
    -0.9540  -0.8384  -0.8110  -0.7625  -0.7298  -0.6659  -0.6220  -0.6026
    -0.5917  -0.5398  -0.4909  -0.4786  -0.3649  -0.3082  -0.2612  -0.2106
    -0.1887  -0.1770  -0.1388  -0.0993  -0.0657  -0.0507   0.0339   0.1072
     0.1510   0.1731   0.2485   0.3066   0.3086   0.3724   0.3870   0.4026
     0.4088   0.8697   0.9359   0.9822   1.0080   1.4173   1.4312   1.4612
     1.4968   1.7754   1.7947   1.8019   1.8371   1.9757   2.0706   2.0978
     2.1334   2.1557   2.1692   2.1829   2.2147   2.2227   2.2387   2.2459
     2.2986   2.3096   2.3319   2.3400   2.3616   2.3700   2.4172   2.4391
     2.4538   2.4933   2.5122   2.5912   2.6558   2.9269   2.9606   2.9763
     3.0004   3.0057   3.0322   3.0423   3.0475   3.0579   3.0740   3.0828
     3.0906   3.1146   3.1246   3.1878   3.1920   3.2129   3.2265   3.2388
     3.2561   3.2638   3.2742   3.3715   3.3776   3.4049   3.4154   4.3398
     4.3810   4.4010   4.4476   4.6809   4.7503   4.7817   5.0219   5.1383
     5.1541   5.2271   5.3427   5.4092   5.5099   5.5644   5.5873   5.7272
     6.0213   6.0852   6.1006   6.2101   6.5888   6.7288   6.7694   7.0987
     7.5478   7.5751   7.6966   8.2846   8.3029   8.3672   8.4979   8.5690
     8.6782   8.7647   8.8949   8.9126   8.9237   8.9624   8.9839

     occupation numbers 
     1.0000   1.0000   1.0000   1.0000   1.0000   1.0000   1.0000   1.0000
     1.0000   1.0000   1.0000   1.0000   1.0000   1.0000   1.0000   1.0000
     1.0000   1.0000   1.0000   1.0000   1.0000   1.0000   1.0000   1.0000
     1.0000   1.0000   1.0000   1.0000   1.0000   1.0000   1.0000   1.0000
     1.0000   1.0000   1.0000   1.0000   1.0000   1.0000   1.0000   1.0000
     1.0000   1.0000   1.0000   1.0000   1.0000   1.0000   1.0000   1.0000
     1.0000   1.0000   1.0000   1.0000   1.0000   1.0000   1.0000   1.0000
     1.0000   1.0000   1.0000   1.0000   1.0000   1.0000   1.0000   1.0000
     1.0000   1.0000   1.0000   1.0000   1.0000   1.0000   1.0000   1.0000
     1.0000   1.0000   1.0000   1.0000   1.0000   1.0000   1.0000   1.0000
     1.0000   1.0000   1.0000   1.0000   1.0000   1.0000   1.0000   1.0000
     1.0000   1.0000   1.0000   1.0000   1.0000   1.0000   1.0000   1.0000
     1.0000   1.0000   1.0000   1.0000   1.0000   1.0000   1.0000   1.0000
     1.0000   1.0000   1.0000   1.0000   1.0000   1.0000   1.0000   1.0000
     1.0000   1.0000   1.0000   1.0000   1.0000   1.0000   1.0000   1.0000
     1.0000   1.0000   1.0000   1.0000   1.0000   1.0000   1.0000   1.0000
     1.0000   1.0000   1.0000   1.0000   1.0000   1.0000   1.0000   1.0000
     1.0000   1.0000   1.0000   1.0000   1.0000   1.0000   1.0000   1.0000
     1.0000   1.0000   1.0000   1.0000   1.0000   1.0000   1.0000   1.0000
     1.0000   1.0000   1.0000   1.0000   1.0000   1.0000   1.0000   1.0000
     1.0000   1.0000   1.0000   1.0000   1.0000   0.9996   0.9996   0.9995
     0.9994   0.9978   0.9976   0.9975   0.9970   0.9946   0.9919   0.9910
     0.9896   0.9887   0.9880   0.9874   0.9858   0.9853   0.9844   0.9840
[...]
     0.0000   0.0000   0.0000   0.0000   0.0000   0.0000   0.0000   0.0000
     0.0000   0.0000   0.0000   0.0000   0.0000   0.0000   0.0000

          k =-0.5000 0.0000 0.0000 ( 65180 PWs)   bands (ev):

   -92.3360 -92.2806 -92.1898 -92.1410 -92.0843 -92.0427 -92.0249 -91.8997
   -55.6891 -55.6671 -55.5477 -55.5371 -55.5290 -55.5238 -55.4851 -55.4594
   -55.4429 -55.4419 -55.4326 -55.3917 -55.3726 -55.3355 -55.3157 -55.2843
   -55.2764 -55.2312 -55.2283 -55.2280 -55.2198 -55.1735 -55.1557 -55.0669
   -30.9191 -30.9083 -30.7823 -30.7622 -30.6772 -30.6183 -30.6165 -30.4699
   -29.4855 -29.4465 -29.4174 -29.3106 -22.2511 -14.6559 -14.6082 -14.5452
   -14.4382 -14.3306 -14.1871 -14.0490 -13.9056 -13.7766 -13.7691 -13.7687
   -13.7479 -13.6994 -13.6363 -13.6028 -13.5598 -13.5505 -13.5333 -13.4818
   -13.4695 -13.3790 -13.1959 -13.1807 -13.1369 -13.1280 -13.0700 -13.0073
   -12.9978 -12.9149 -12.9013 -12.8916 -12.7533 -12.6998 -12.6885 -12.6783
   -12.6629 -12.6540 -12.5919 -12.5718 -12.5501 -12.5244 -12.4915 -12.4155
   -12.4048 -12.3791 -12.2855 -12.2765 -12.1867 -12.1453 -11.9948 -11.9738
   -11.8761 -11.8385 -11.4178 -11.3970 -11.3898 -11.3753 -11.3574 -11.3162
   -11.2525 -11.2349 -11.2026 -11.1579 -11.1485 -11.1325  -5.8404  -3.1585
    -3.1545  -2.2214  -2.1826  -2.0181  -1.9789  -1.6672  -1.5926  -1.4430
    -1.3247  -1.2863  -1.2413  -1.1923  -1.1660  -1.0447  -0.9989  -0.9862
    -0.9028  -0.8667  -0.8548  -0.8195  -0.7636  -0.6945  -0.6643  -0.6376
    -0.5429  -0.4939  -0.4465  -0.4131  -0.3919  -0.3637  -0.3138  -0.2894
    -0.2502  -0.1582  -0.0875  -0.0237   0.0392   0.2064   0.2323   0.3034
     0.3273   0.4039   0.4103   0.5470   0.5795   0.6088   0.8019   0.9001
     0.9470   1.0068   1.0855   1.2101   1.2286   1.3602   1.3890   1.4399
     1.4602   1.5024   1.5215   1.5643   1.5892   1.6564   1.6978   1.7447
     1.7549   2.0500   2.0620   2.0760   2.0943   2.2149   2.2217   2.2292
     2.2423   2.2714   2.2855   2.3192   2.3516   2.3710   2.4379   2.4424
     2.4995   2.5118   2.5781   2.6699   2.7862   2.8611   2.8773   2.9588
     2.9893   3.0085   3.0543   3.0681   3.0831   3.0930   3.1013   3.1281
     3.1959   3.2436   3.2854   3.3173   3.3595   3.3660   3.3666   3.3791
     3.3916   3.4044   3.4201   3.4221   3.4445   3.4490   3.4722   3.4920
     3.4968   3.6249   3.6291   4.4027   4.4742   4.5484   4.6462   4.9677
     5.1448   5.2526   5.3575   5.5139   5.6196   5.8896   5.9245   6.0074
     6.1981   6.3877   6.3989   6.4416   6.9594   7.0888   7.2096   7.4478
     7.5541   7.6787   7.7196   8.0238   8.0928   8.0986   8.1969   8.2584
     8.4910   8.6002   8.6713   8.7135   8.7600   8.8601   8.9698

     occupation numbers 
     1.0000   1.0000   1.0000   1.0000   1.0000   1.0000   1.0000   1.0000
     1.0000   1.0000   1.0000   1.0000   1.0000   1.0000   1.0000   1.0000
     1.0000   1.0000   1.0000   1.0000   1.0000   1.0000   1.0000   1.0000
     1.0000   1.0000   1.0000   1.0000   1.0000   1.0000   1.0000   1.0000
     1.0000   1.0000   1.0000   1.0000   1.0000   1.0000   1.0000   1.0000
     1.0000   1.0000   1.0000   1.0000   1.0000   1.0000   1.0000   1.0000
     1.0000   1.0000   1.0000   1.0000   1.0000   1.0000   1.0000   1.0000
     1.0000   1.0000   1.0000   1.0000   1.0000   1.0000   1.0000   1.0000
     1.0000   1.0000   1.0000   1.0000   1.0000   1.0000   1.0000   1.0000
     1.0000   1.0000   1.0000   1.0000   1.0000   1.0000   1.0000   1.0000
     1.0000   1.0000   1.0000   1.0000   1.0000   1.0000   1.0000   1.0000
     1.0000   1.0000   1.0000   1.0000   1.0000   1.0000   1.0000   1.0000
     1.0000   1.0000   1.0000   1.0000   1.0000   1.0000   1.0000   1.0000
     1.0000   1.0000   1.0000   1.0000   1.0000   1.0000   1.0000   1.0000
     1.0000   1.0000   1.0000   1.0000   1.0000   1.0000   1.0000   1.0000
     1.0000   1.0000   1.0000   1.0000   1.0000   1.0000   1.0000   1.0000
     1.0000   1.0000   1.0000   1.0000   1.0000   1.0000   1.0000   1.0000
     1.0000   1.0000   1.0000   1.0000   1.0000   1.0000   1.0000   1.0000
     1.0000   1.0000   1.0000   1.0000   1.0000   1.0000   1.0000   1.0000
     1.0000   1.0000   1.0000   1.0000   1.0000   1.0000   1.0000   1.0000
     1.0000   1.0000   0.9999   0.9999   0.9999   0.9997   0.9997   0.9996
     0.9995   0.9994   0.9994   0.9992   0.9991   0.9987   0.9985   0.9981
     0.9980   0.9926   0.9922   0.9917   0.9911   0.9858   0.9854   0.9850
     0.9842   0.9824   0.9815   0.9791   0.9766   0.9749   0.9685   0.9681
     0.9615   0.9599   0.9507   0.9351   0.9103   0.8909   0.8863   0.8613
     0.8511   0.8443   0.8275   0.8223   0.8164   0.8125   0.8091   0.7981
     0.7686   0.7464   0.7262   0.7102   0.6884   0.6849   0.6846   0.6780
     0.6713   0.6644   0.6559   0.6548   0.6424   0.6399   0.6270   0.6158
     0.6131   0.5387   0.5362   0.1451   0.1222   0.1013   0.0779   0.0289
     0.0154   0.0102   0.0067   0.0034   0.0021   0.0005   0.0005   0.0003
     0.0001   0.0000   0.0000   0.0000   0.0000   0.0000   0.0000   0.0000
     0.0000   0.0000   0.0000   0.0000   0.0000   0.0000   0.0000   0.0000
     0.0000   0.0000   0.0000   0.0000   0.0000   0.0000   0.0000

          k =-0.2500 0.2500 0.0000 ( 65198 PWs)   bands (ev):

   -92.3360 -92.2806 -92.1898 -92.1410 -92.0843 -92.0427 -92.0249 -91.8997
   -55.6891 -55.6671 -55.5477 -55.5371 -55.5290 -55.5238 -55.4851 -55.4594
   -55.4429 -55.4419 -55.4326 -55.3917 -55.3726 -55.3355 -55.3157 -55.2843
   -55.2764 -55.2312 -55.2283 -55.2280 -55.2198 -55.1735 -55.1557 -55.0669
   -30.9212 -30.9058 -30.7823 -30.7628 -30.6769 -30.6187 -30.6161 -30.4700
   -29.4859 -29.4451 -29.4184 -29.3105 -22.2511 -14.6576 -14.6227 -14.5450
   -14.4268 -14.3224 -14.1956 -14.1040 -13.9041 -13.7694 -13.7584 -13.7292
   -13.7191 -13.6703 -13.6457 -13.6288 -13.6203 -13.5722 -13.4801 -13.4688
   -13.3166 -13.2889 -13.2622 -13.2408 -13.2091 -13.1389 -13.0864 -13.0802
   -12.9893 -12.9558 -12.8698 -12.7934 -12.7527 -12.7140 -12.6863 -12.6546
   -12.6333 -12.5997 -12.5927 -12.5740 -12.5721 -12.5243 -12.4873 -12.4572
   -12.4182 -12.4095 -12.3812 -12.3373 -12.1977 -12.1042 -12.0878 -11.9295
   -11.8135 -11.7593 -11.4384 -11.4166 -11.3896 -11.3772 -11.3367 -11.3015
   -11.2789 -11.2570 -11.2346 -11.1502 -11.1044 -11.0947  -5.8404  -3.1583
    -3.1547  -2.3066  -2.0970  -1.9761  -1.8897  -1.7691  -1.7023  -1.5021
    -1.3539  -1.3347  -1.3083  -1.2144  -1.1803  -1.0876  -1.0546  -1.0282
    -0.8840  -0.8291  -0.7625  -0.7333  -0.6732  -0.6501  -0.6099  -0.5808
    -0.5409  -0.4793  -0.4317  -0.3714  -0.3015  -0.2767  -0.2242  -0.1970
    -0.1512  -0.0946  -0.0540  -0.0089   0.0882   0.1229   0.1324   0.1806
     0.2455   0.3271   0.3556   0.3830   0.4558   0.4791   0.7463   0.9137
     0.9603   0.9967   1.0524   1.0858   1.1480   1.2202   1.2487   1.5313
     1.6478   1.6881   1.7186   1.7257   1.7685   1.7874   1.8305   1.8627
     1.8782   1.9044   1.9440   1.9579   1.9996   2.0171   2.0615   2.1514
     2.1584   2.1818   2.2104   2.2496   2.2827   2.3237   2.4467   2.5622
     2.5914   2.6310   2.6543   2.7187   2.7649   2.7941   2.8168   2.8357
     2.9354   2.9729   3.0556   3.0612   3.0691   3.2447   3.2542   3.2671
     3.2771   3.2875   3.3018   3.3075   3.3250   3.3318   3.3493   3.3583
     3.3715   3.3803   3.3862   3.4182   3.4305   3.4404   3.4736   3.7667
     3.8470   3.9046   3.9646   4.0025   4.1907   4.3238   4.6444   4.8074
     4.9716   5.1445   5.3492   5.5733   5.9553   5.9629   5.9973   6.1260
     6.1990   6.2529   6.3569   6.4016   6.9454   7.0156   7.0987   7.2118
     7.7305   7.8035   7.8462   7.9061   7.9840   8.1652   8.2540   8.3147
     8.3545   8.4512   8.5767   8.6805   8.7225   8.7451   8.8451

     occupation numbers 
     1.0000   1.0000   1.0000   1.0000   1.0000   1.0000   1.0000   1.0000
     1.0000   1.0000   1.0000   1.0000   1.0000   1.0000   1.0000   1.0000
     1.0000   1.0000   1.0000   1.0000   1.0000   1.0000   1.0000   1.0000
     1.0000   1.0000   1.0000   1.0000   1.0000   1.0000   1.0000   1.0000
     1.0000   1.0000   1.0000   1.0000   1.0000   1.0000   1.0000   1.0000
     1.0000   1.0000   1.0000   1.0000   1.0000   1.0000   1.0000   1.0000
     1.0000   1.0000   1.0000   1.0000   1.0000   1.0000   1.0000   1.0000
     1.0000   1.0000   1.0000   1.0000   1.0000   1.0000   1.0000   1.0000
     1.0000   1.0000   1.0000   1.0000   1.0000   1.0000   1.0000   1.0000
     1.0000   1.0000   1.0000   1.0000   1.0000   1.0000   1.0000   1.0000
     1.0000   1.0000   1.0000   1.0000   1.0000   1.0000   1.0000   1.0000
     1.0000   1.0000   1.0000   1.0000   1.0000   1.0000   1.0000   1.0000
     1.0000   1.0000   1.0000   1.0000   1.0000   1.0000   1.0000   1.0000
     1.0000   1.0000   1.0000   1.0000   1.0000   1.0000   1.0000   1.0000
     1.0000   1.0000   1.0000   1.0000   1.0000   1.0000   1.0000   1.0000
     1.0000   1.0000   1.0000   1.0000   1.0000   1.0000   1.0000   1.0000
     1.0000   1.0000   1.0000   1.0000   1.0000   1.0000   1.0000   1.0000
     1.0000   1.0000   1.0000   1.0000   1.0000   1.0000   1.0000   1.0000
     1.0000   1.0000   1.0000   1.0000   1.0000   1.0000   1.0000   1.0000
     1.0000   1.0000   1.0000   1.0000   1.0000   1.0000   1.0000   1.0000
     1.0000   1.0000   1.0000   0.9999   0.9999   0.9999   0.9999   0.9993
     0.9988   0.9985   0.9983   0.9982   0.9978   0.9976   0.9971   0.9967
     0.9964   0.9960   0.9952   0.9950   0.9940   0.9935   0.9922   0.9889
     0.9885   0.9875   0.9860   0.9838   0.9817   0.9788   0.9676   0.9530
     0.9486   0.9421   0.9380   0.9255   0.9153   0.9084   0.9027   0.8978
     0.8688   0.8566   0.8270   0.8249   0.8219   0.7459   0.7414   0.7352
     0.7302   0.7251   0.7180   0.7151   0.7063   0.7028   0.6937   0.6890
     0.6820   0.6774   0.6742   0.6569   0.6502   0.6447   0.6262   0.4549
     0.4080   0.3752   0.3419   0.3215   0.2287   0.1735   0.0783   0.0486
     0.0285   0.0154   0.0069   0.0026   0.0004   0.0004   0.0003   0.0001
     0.0001   0.0001   0.0000   0.0000   0.0000   0.0000   0.0000   0.0000
     0.0000   0.0000   0.0000   0.0000   0.0000   0.0000   0.0000   0.0000
     0.0000   0.0000   0.0000   0.0000   0.0000   0.0000   0.0000

          k =-0.5000 0.2500 0.0000 ( 65138 PWs)   bands (ev):

   -92.3360 -92.2806 -92.1898 -92.1410 -92.0843 -92.0427 -92.0249 -91.8997
   -55.6891 -55.6671 -55.5477 -55.5371 -55.5290 -55.5238 -55.4851 -55.4594
   -55.4429 -55.4419 -55.4326 -55.3917 -55.3726 -55.3355 -55.3157 -55.2843
   -55.2764 -55.2312 -55.2283 -55.2280 -55.2198 -55.1735 -55.1557 -55.0669
   -30.9189 -30.9081 -30.7821 -30.7624 -30.6773 -30.6185 -30.6163 -30.4702
   -29.4849 -29.4461 -29.4180 -29.3109 -22.2511 -14.6236 -14.5812 -14.5023
   -14.4041 -14.3596 -14.2338 -14.1518 -14.0219 -13.7691 -13.7090 -13.6798
   -13.6674 -13.6234 -13.6057 -13.5754 -13.5451 -13.5363 -13.5113 -13.4716
   -13.4608 -13.3667 -13.2802 -13.2412 -13.2295 -13.2197 -13.1248 -13.1133
   -13.0417 -12.9868 -12.8468 -12.8103 -12.7222 -12.7000 -12.6727 -12.6613
   -12.6317 -12.6192 -12.5983 -12.5866 -12.5572 -12.5121 -12.4926 -12.4460
   -12.4115 -12.4043 -12.2678 -12.2603 -12.1850 -12.1153 -11.9694 -11.9610
   -11.8689 -11.8440 -11.4107 -11.3982 -11.3841 -11.3722 -11.3512 -11.3209
   -11.2398 -11.2313 -11.2080 -11.1723 -11.1440 -11.1349  -5.8404  -3.1585
    -3.1546  -2.0794  -2.0373  -1.8880  -1.8459  -1.6865  -1.6115  -1.4672
    -1.3311  -1.2753  -1.2478  -1.2085  -1.1685  -1.0888  -0.9740  -0.9175
    -0.8939  -0.8693  -0.7951  -0.7629  -0.7268  -0.7070  -0.6469  -0.6191
    -0.5789  -0.5438  -0.5152  -0.4581  -0.4311  -0.3891  -0.3556  -0.2523
    -0.2242  -0.1415  -0.0791  -0.0475   0.0087   0.0957   0.1296   0.2309
     0.2707   0.3209   0.3743   0.3958   0.4798   0.4969   0.5296   0.5912
     0.6303   0.9294   1.0115   1.0406   1.0583   1.3693   1.4200   1.5003
     1.5228   1.7043   1.7414   1.7791   1.7936   1.8120   1.8297   1.8985
     1.9403   1.9804   2.0051   2.1300   2.1660   2.1921   2.2037   2.2384
     2.2698   2.2834   2.2935   2.3179   2.3438   2.3826   2.4099   2.4386
     2.4617   2.4889   2.5532   2.6678   2.7782   2.8075   2.8766   2.9158
     2.9742   3.0066   3.0200   3.0532   3.0564   3.0667   3.0943   3.1131
     3.1952   3.2401   3.2528   3.2590   3.2802   3.3026   3.3152   3.3305
     3.3442   3.3622   3.3746   3.3867   3.3939   3.4036   3.4155   3.9354
     3.9844   4.1341   4.1573   4.4143   4.5023   4.5505   4.7429   5.0353
     5.1485   5.2735   5.3600   5.5101   5.6933   5.7873   5.7942   5.9083
     6.0984   6.1201   6.3130   6.5005   6.6078   6.6258   7.1693   7.2938
     7.4917   7.6446   7.9726   8.0715   8.1900   8.2266   8.3342   8.4889
     8.5131   8.5742   8.6759   8.7987   8.8414   8.8815   8.9296

     occupation numbers 
     1.0000   1.0000   1.0000   1.0000   1.0000   1.0000   1.0000   1.0000
     1.0000   1.0000   1.0000   1.0000   1.0000   1.0000   1.0000   1.0000
     1.0000   1.0000   1.0000   1.0000   1.0000   1.0000   1.0000   1.0000
     1.0000   1.0000   1.0000   1.0000   1.0000   1.0000   1.0000   1.0000
     1.0000   1.0000   1.0000   1.0000   1.0000   1.0000   1.0000   1.0000
     1.0000   1.0000   1.0000   1.0000   1.0000   1.0000   1.0000   1.0000
     1.0000   1.0000   1.0000   1.0000   1.0000   1.0000   1.0000   1.0000
     1.0000   1.0000   1.0000   1.0000   1.0000   1.0000   1.0000   1.0000
     1.0000   1.0000   1.0000   1.0000   1.0000   1.0000   1.0000   1.0000
     1.0000   1.0000   1.0000   1.0000   1.0000   1.0000   1.0000   1.0000
     1.0000   1.0000   1.0000   1.0000   1.0000   1.0000   1.0000   1.0000
     1.0000   1.0000   1.0000   1.0000   1.0000   1.0000   1.0000   1.0000
     1.0000   1.0000   1.0000   1.0000   1.0000   1.0000   1.0000   1.0000
     1.0000   1.0000   1.0000   1.0000   1.0000   1.0000   1.0000   1.0000
     1.0000   1.0000   1.0000   1.0000   1.0000   1.0000   1.0000   1.0000
     1.0000   1.0000   1.0000   1.0000   1.0000   1.0000   1.0000   1.0000
     1.0000   1.0000   1.0000   1.0000   1.0000   1.0000   1.0000   1.0000
     1.0000   1.0000   1.0000   1.0000   1.0000   1.0000   1.0000   1.0000
     1.0000   1.0000   1.0000   1.0000   1.0000   1.0000   1.0000   1.0000
     1.0000   1.0000   1.0000   1.0000   1.0000   1.0000   1.0000   1.0000
     1.0000   1.0000   1.0000   1.0000   1.0000   0.9997   0.9996   0.9994
     0.9994   0.9984   0.9981   0.9977   0.9976   0.9974   0.9971   0.9961
     0.9953   0.9944   0.9938   0.9897   0.9882   0.9870   0.9864   0.9845
     0.9825   0.9817   0.9810   0.9792   0.9772   0.9739   0.9714   0.9685
     0.9660   0.9628   0.9543   0.9355   0.9122   0.9051   0.8865   0.8749
     0.8562   0.8450   0.8402   0.8280   0.8267   0.8228   0.8119   0.8043
     0.7689   0.7481   0.7421   0.7391   0.7287   0.7176   0.7112   0.7034
     0.6964   0.6869   0.6804   0.6739   0.6701   0.6648   0.6584   0.3580
     0.3312   0.2550   0.2440   0.1412   0.1140   0.1008   0.0590   0.0229
     0.0152   0.0094   0.0066   0.0034   0.0015   0.0009   0.0009   0.0005
     0.0002   0.0002   0.0000   0.0000   0.0000   0.0000   0.0000   0.0000
     0.0000   0.0000   0.0000   0.0000   0.0000   0.0000   0.0000   0.0000
     0.0000   0.0000   0.0000   0.0000   0.0000   0.0000   0.0000

     the Fermi energy is     3.6903 ev

!    total energy              =   -4482.97256603 Ry
     estimated scf accuracy    <          7.1E-09 Ry
     smearing contrib. (-TS)   =      -1.17222053 Ry
     internal energy E=F+TS    =   -4481.80034550 Ry

     The total energy is F=E-TS. E is the sum of the following terms:
     one-electron contribution =  -20253.64659888 Ry
     hartree contribution      =   10266.52355601 Ry
     xc contribution           =    -701.58120290 Ry
     ewald contribution        =    6492.56112906 Ry
     one-center paw contrib.   =    -285.65722879 Ry
      -> PAW hartree energy AE =      25.13414962 Ry
      -> PAW hartree energy PS =     -25.01841784 Ry
      -> PAW xc energy AE      =     -16.51333270 Ry
      -> PAW xc energy PS      =       6.87261569 Ry
      -> total E_H with PAW    =   10266.63928778 Ry
      -> total E_XC with PAW   =    -711.22191991 Ry

     convergence has been achieved in  49 iterations

     Writing all to output data dir /bsuhome/zayahcortright/scratch/pwscf.save/
 
     init_run     :      8.23s CPU      8.93s WALL (       1 calls)
     electrons    :    765.01s CPU    777.51s WALL (       1 calls)

     Called by init_run:
     wfcinit      :      6.61s CPU      6.78s WALL (       1 calls)
     wfcinit:atom :      0.06s CPU      0.07s WALL (       5 calls)
     wfcinit:wfcr :      6.26s CPU      6.38s WALL (       5 calls)
     potinit      :      0.20s CPU      0.21s WALL (       1 calls)
     hinit0       :      0.45s CPU      0.88s WALL (       1 calls)

     Called by electrons:
     c_bands      :    606.80s CPU    611.90s WALL (      49 calls)
     sum_band     :    117.07s CPU    121.30s WALL (      49 calls)
     v_of_rho     :      5.46s CPU      5.75s WALL (      50 calls)
     v_h          :      0.45s CPU      0.46s WALL (      50 calls)
     v_xc         :      5.01s CPU      5.30s WALL (      50 calls)
     newd         :     21.35s CPU     23.83s WALL (      50 calls)
     PAW_pot      :      1.63s CPU      1.65s WALL (      50 calls)
     mix_rho      :     12.44s CPU     12.73s WALL (      49 calls)

     Called by c_bands:
     init_us_2    :      7.22s CPU      7.28s WALL (     495 calls)
     init_us_2:cp :      7.22s CPU      7.28s WALL (     495 calls)
     cegterg      :    573.92s CPU    578.84s WALL (     245 calls)

     Called by sum_band:
     sum_band:wei :      0.34s CPU      0.34s WALL (      49 calls)
     sum_band:loo :     94.91s CPU     95.62s WALL (      49 calls)
     sum_band:buf :      1.63s CPU      1.65s WALL (     245 calls)
     sum_band:ini :      3.32s CPU      3.33s WALL (     245 calls)
     sum_band:cal :     20.21s CPU     20.26s WALL (     245 calls)
     sum_band:bec :      0.59s CPU      0.60s WALL (     245 calls)
     addusdens    :     17.96s CPU     21.43s WALL (      49 calls)
                                        0.00s GPU  (      49 calls)
     addusd:skk   :      0.36s CPU      0.71s WALL (     196 calls)
                                        0.00s GPU  (     196 calls)

     Called by *egterg:
     cdiaghg      :     63.03s CPU     63.32s WALL (    1424 calls)
     cegterg:over :     42.62s CPU     42.76s WALL (    1179 calls)
     cegterg:upda :     32.16s CPU     32.62s WALL (    1179 calls)
     cegterg:last :     64.23s CPU     64.42s WALL (     454 calls)
     cdiaghg:chol :      3.63s CPU      3.66s WALL (    1424 calls)
     cdiaghg:inve :      3.80s CPU      3.81s WALL (    1424 calls)
     cdiaghg:para :      7.98s CPU      8.03s WALL (    2848 calls)
     h_psi        :    311.97s CPU    314.79s WALL (    1429 calls)
     s_psi        :     42.31s CPU     42.44s WALL (    1429 calls)
     g_psi        :      1.18s CPU      1.20s WALL (    1179 calls)

     Called by h_psi:
     h_psi:calbec :     47.63s CPU     47.79s WALL (    1429 calls)
     vloc_psi     :    218.25s CPU    220.34s WALL (    1429 calls)
     add_vuspsi   :     42.76s CPU     42.92s WALL (    1429 calls)

     General routines
     calbec       :     67.83s CPU     68.04s WALL (    1674 calls)
     fft          :      6.34s CPU      6.40s WALL (     648 calls)
     ffts         :      4.54s CPU      4.58s WALL (    5075 calls)
     fftw         :    182.22s CPU    183.67s WALL (  337757 calls)
     interpolate  :      0.39s CPU      0.40s WALL (      50 calls)
 
     Parallel routines

     PAW routines
     PAW_pot      :      1.63s CPU      1.65s WALL (      50 calls)
 
     PWSCF        :  12m55.55s CPU  13m11.70s WALL

 
   This run was terminated on:  14:34:46  20Jun2024            

=------------------------------------------------------------------------------=
   JOB DONE.
=------------------------------------------------------------------------------=
