
     Program PWSCF v.7.2 starts on 21Jun2024 at 15:23:41 

     This program is part of the open-source Quantum ESPRESSO suite
     for quantum simulation of materials; please cite
         "P. Giannozzi et al., J. Phys.:Condens. Matter 21 395502 (2009);
         "P. Giannozzi et al., J. Phys.:Condens. Matter 29 465901 (2017);
         "P. Giannozzi et al., J. Chem. Phys. 152 154105 (2020);
          URL http://www.quantum-espresso.org", 
     in publications or presentations arising from this work. More details at
     http://www.quantum-espresso.org/quote

     Parallel version (MPI & OpenMP), running on      48 processor cores
     Number of MPI processes:                48
     Threads/MPI process:                     1

     MPI processes distributed on     1 nodes
     180169 MiB available memory on the printing compute node when the environment starts
 
     Reading input from espresso.pwi
Warning: card &CELL ignored
Warning: card / ignored
Warning: card &FCP ignored
Warning: card / ignored
Warning: card &RISM ignored
Warning: card / ignored

     Current dimensions of program PWSCF are:
     Max number of different atomic species (ntypx) = 10
     Max number of k-points (npk) =  40000
     Max angular momentum in pseudopotentials (lmaxx) =  4
     file O.pbe-n-kjpaw_psl.0.1.UPF: wavefunction(s)  2P renormalized
     signal trapping enabled: kill the code with -SIGUSR1 to stop cleanly the simulation 
 
     K-points division:     npool     =       2
     R & G space division:  proc/nbgrp/npool/nimage =      24
     Subspace diagonalization in iterative solution of the eigenvalue problem:
     one sub-group per band group will be used
     scalapack distributed-memory algorithm (size of sub-group:  3*  3 procs)

 
     Parallelization info
     --------------------
     sticks:   dense  smooth     PW     G-vecs:    dense   smooth      PW
     Min         350     175     47                61430    21716    3036
     Max         351     177     48                61449    21727    3041
     Sum        8421    4205   1137              1474595   521381   72913
 
     Using Slab Decomposition
 


     bravais-lattice index     =            0
     lattice parameter (alat)  =      14.8599  a.u.
     unit-cell volume          =    8305.1283 (a.u.)^3
     number of atoms/cell      =           49
     number of atomic types    =            4
     number of electrons       =       425.00
     number of Kohn-Sham states=          256
     kinetic-energy cutoff     =      60.0000  Ry
     charge density cutoff     =     480.0000  Ry
     scf convergence threshold =      1.0E-08
     mixing beta               =       0.1500
     number of iterations used =            8  local-TF  mixing
     Exchange-correlation= PBE
                           (   1   4   3   4   0   0   0)

     celldm(1)=  14.859904  celldm(2)=   0.000000  celldm(3)=   0.000000
     celldm(4)=   0.000000  celldm(5)=   0.000000  celldm(6)=   0.000000

     crystal axes: (cart. coord. in units of alat)
               a(1) = (   1.000000   0.000000   0.000000 )  
               a(2) = (   0.000000   1.000000   0.000000 )  
               a(3) = (   0.000000   0.000000   2.531036 )  

     reciprocal axes: (cart. coord. in units 2 pi/alat)
               b(1) = (  1.000000  0.000000  0.000000 )  
               b(2) = (  0.000000  1.000000  0.000000 )  
               b(3) = (  0.000000  0.000000  0.395095 )  


     PseudoPot. # 1 for Sr read from file:
     /bsuhome/zayahcortright/q-e/pseudo/Sr_pbe_v1.uspp.F.UPF
     MD5 check sum: 6b418c05fbe9db5448babca5e47b7a5b
     Pseudo is Ultrasoft + core correction, Zval = 10.0
     Generated by new atomic code, or converted to UPF format
     Using radial grid of  883 points,  6 beta functions with: 
                l(1) =   0
                l(2) =   0
                l(3) =   1
                l(4) =   1
                l(5) =   2
                l(6) =   2
     Q(r) pseudized with  6 coefficients,  rinner =    1.400   1.400   1.400
                                                       1.400   1.400

     PseudoPot. # 2 for O  read from file:
     /bsuhome/zayahcortright/q-e/pseudo/O.pbe-n-kjpaw_psl.0.1.UPF
     MD5 check sum: 0234752ac141de4415c5fc33072bef88
     Pseudo is Projector augmented-wave + core cor, Zval =  6.0
     Generated using "atomic" code by A. Dal Corso  v.5.0.99 svn rev. 10869
     Shape of augmentation charge: BESSEL
     Using radial grid of 1095 points,  4 beta functions with: 
                l(1) =   0
                l(2) =   0
                l(3) =   1
                l(4) =   1
     Q(r) pseudized with 0 coefficients 


     PseudoPot. # 3 for Co read from file:
     /bsuhome/zayahcortright/q-e/pseudo/Co_pbe_v1.2.uspp.F.UPF
     MD5 check sum: 5f91765df6ddd3222702df6e7b74a16d
     Pseudo is Ultrasoft + core correction, Zval = 17.0
     Generated by new atomic code, or converted to UPF format
     Using radial grid of  863 points,  6 beta functions with: 
                l(1) =   0
                l(2) =   0
                l(3) =   1
                l(4) =   1
                l(5) =   2
                l(6) =   2
     Q(r) pseudized with  8 coefficients,  rinner =    1.200   1.200   1.200
                                                       1.200   1.200

     PseudoPot. # 4 for H  read from file:
     /bsuhome/zayahcortright/q-e/pseudo/H.pbe-rrkjus_psl.1.0.0.UPF
     MD5 check sum: f52b6d4d1c606e5624b1dc7b2218f220
     Pseudo is Ultrasoft, Zval =  1.0
     Generated using "atomic" code by A. Dal Corso  v.5.1
     Using radial grid of  929 points,  2 beta functions with: 
                l(1) =   0
                l(2) =   0
     Q(r) pseudized with 0 coefficients 


     atomic species   valence    mass     pseudopotential
        Sr            10.00    87.62000     Sr( 1.00)
        O              6.00    15.99900     O ( 1.00)
        Co            17.00    58.93319     Co( 1.00)
        H              1.00     1.00800     H ( 1.00)

     No symmetry found


                                    s                        frac. trans.

      isym =  1     identity                                     

 cryst.   s( 1) = (     1          0          0      )
                  (     0          1          0      )
                  (     0          0          1      )

 cart.    s( 1) = (  1.0000000  0.0000000  0.0000000 )
                  (  0.0000000  1.0000000  0.0000000 )
                  (  0.0000000  0.0000000  1.0000000 )


   Cartesian axes

     site n.     atom                  positions (alat units)
         1           Sr  tau(   1) = (   0.2508693   0.7491307   1.7574407  )
         2           O   tau(   2) = (   0.4985141   0.5014859   1.7715967  )
         3           Sr  tau(   3) = (   0.7482398   0.7454518   1.7648669  )
         4           Sr  tau(   4) = (   0.7441748   0.2558252   1.7667843  )
         5           Sr  tau(   5) = (   0.2508693   0.7491307   1.2696799  )
         6           Sr  tau(   6) = (   0.2508693   0.7491307   0.7632319  )
         7           Co  tau(   7) = (   0.4998914   0.5001086   1.0164559  )
         8           Co  tau(   8) = (   0.4936915   0.5063085   1.5135603  )
         9           O   tau(   9) = (   0.4988895   0.7610401   1.0164559  )
        10           O   tau(  10) = (   0.2389599   0.5011105   1.0164559  )
        11           O   tau(  11) = (   0.0070918   0.7374880   1.0164559  )
        12           O   tau(  12) = (   0.0088340   0.7405089   1.5135603  )
        13           O   tau(  13) = (   0.5066944   0.7415376   1.5135603  )
        14           O   tau(  14) = (   0.2584624   0.4933056   1.5135603  )
        15           O   tau(  15) = (   0.4985141   0.5014859   0.7773880  )
        16           O   tau(  16) = (   0.4985141   0.5014859   1.2555238  )
        17           Sr  tau(  17) = (   0.7482398   0.7454518   0.7706582  )
        18           Sr  tau(  18) = (   0.7482398   0.7454518   1.2622536  )
        19           Sr  tau(  19) = (   0.7441748   0.2558252   0.7725755  )
        20           Sr  tau(  20) = (   0.7441748   0.2558252   1.2603363  )
        21           O   tau(  21) = (   0.7322655   0.0078049   1.5135603  )
        22           O   tau(  22) = (   0.7558175   0.4996027   1.5135603  )
        23           O   tau(  23) = (   0.5003973   0.2441825   1.5135603  )
        24           O   tau(  24) = (   0.7527966   0.4978604   1.0164559  )
        25           O   tau(  25) = (   0.5021396   0.2472034   1.0164559  )
        26           O   tau(  26) = (   0.7517679   0.0000000   1.0164559  )
        27           O   tau(  27) = (   0.0114961   0.4948124   1.7455321  )
        28           O   tau(  28) = (   0.0048226   0.0077944   1.7715967  )
        29           Sr  tau(  29) = (   0.2545482   0.2517602   1.7648669  )
        30           O   tau(  30) = (   0.5048017   0.0015068   1.7786929  )
        31           Co  tau(  31) = (   0.0056869   0.5006215   1.0164559  )
        32           Co  tau(  32) = (   0.0065315   0.4997770   1.5135603  )
        33           Co  tau(  33) = (   0.0061999   0.0064171   1.0164559  )
        34           Co  tau(  34) = (   0.0000000   0.0126169   1.5135603  )
        35           O   tau(  35) = (   0.0114961   0.4948124   1.2815885  )
        36           O   tau(  36) = (   0.0114961   0.4948124   0.7513233  )
        37           O   tau(  37) = (   0.0051979   0.2673486   1.0164559  )
        38           O   tau(  38) = (   0.0130029   0.2478461   1.5135603  )
        39           O   tau(  39) = (   0.0048226   0.0077944   0.7773880  )
        40           O   tau(  40) = (   0.0048226   0.0077944   1.2555238  )
        41           Sr  tau(  41) = (   0.2545482   0.2517602   0.7706582  )
        42           Sr  tau(  42) = (   0.2545482   0.2517602   1.2622536  )
        43           Co  tau(  43) = (   0.4989925   0.0073160   1.5135603  )
        44           Co  tau(  44) = (   0.4998370   0.0064714   1.0164559  )
        45           O   tau(  45) = (   0.5048017   0.0015068   0.7844841  )
        46           O   tau(  46) = (   0.5048017   0.0015068   1.2484277  )
        47           O   tau(  47) = (   0.2621260   0.0059111   1.5135603  )
        48           O   tau(  48) = (   0.2591051   0.0041689   1.0164559  )
        49           H   tau(  49) = (   0.2843291   0.1421646   2.1602013  )

   Crystallographic axes

     site n.     atom                  positions (cryst. coord.)
         1           Sr  tau(   1) = (  0.2508693  0.7491307  0.6943562  )
         2           O   tau(   2) = (  0.4985141  0.5014859  0.6999492  )
         3           Sr  tau(   3) = (  0.7482398  0.7454518  0.6972903  )
         4           Sr  tau(   4) = (  0.7441748  0.2558252  0.6980478  )
         5           Sr  tau(   5) = (  0.2508693  0.7491307  0.5016443  )
         6           Sr  tau(   6) = (  0.2508693  0.7491307  0.3015492  )
         7           Co  tau(   7) = (  0.4998914  0.5001086  0.4015968  )
         8           Co  tau(   8) = (  0.4936915  0.5063085  0.5980003  )
         9           O   tau(   9) = (  0.4988895  0.7610401  0.4015968  )
        10           O   tau(  10) = (  0.2389599  0.5011105  0.4015968  )
        11           O   tau(  11) = (  0.0070918  0.7374880  0.4015968  )
        12           O   tau(  12) = (  0.0088340  0.7405089  0.5980003  )
        13           O   tau(  13) = (  0.5066944  0.7415376  0.5980003  )
        14           O   tau(  14) = (  0.2584624  0.4933056  0.5980003  )
        15           O   tau(  15) = (  0.4985141  0.5014859  0.3071422  )
        16           O   tau(  16) = (  0.4985141  0.5014859  0.4960513  )
        17           Sr  tau(  17) = (  0.7482398  0.7454518  0.3044833  )
        18           Sr  tau(  18) = (  0.7482398  0.7454518  0.4987103  )
        19           Sr  tau(  19) = (  0.7441748  0.2558252  0.3052408  )
        20           Sr  tau(  20) = (  0.7441748  0.2558252  0.4979527  )
        21           O   tau(  21) = (  0.7322655  0.0078049  0.5980003  )
        22           O   tau(  22) = (  0.7558175  0.4996027  0.5980003  )
        23           O   tau(  23) = (  0.5003973  0.2441825  0.5980003  )
        24           O   tau(  24) = (  0.7527966  0.4978604  0.4015968  )
        25           O   tau(  25) = (  0.5021396  0.2472034  0.4015968  )
        26           O   tau(  26) = (  0.7517679  0.0000000  0.4015968  )
        27           O   tau(  27) = (  0.0114961  0.4948124  0.6896512  )
        28           O   tau(  28) = (  0.0048226  0.0077944  0.6999492  )
        29           Sr  tau(  29) = (  0.2545482  0.2517602  0.6972903  )
        30           O   tau(  30) = (  0.5048017  0.0015068  0.7027529  )
        31           Co  tau(  31) = (  0.0056869  0.5006215  0.4015968  )
        32           Co  tau(  32) = (  0.0065315  0.4997770  0.5980003  )
        33           Co  tau(  33) = (  0.0061999  0.0064171  0.4015968  )
        34           Co  tau(  34) = (  0.0000000  0.0126169  0.5980003  )
        35           O   tau(  35) = (  0.0114961  0.4948124  0.5063494  )
        36           O   tau(  36) = (  0.0114961  0.4948124  0.2968442  )
        37           O   tau(  37) = (  0.0051979  0.2673486  0.4015968  )
        38           O   tau(  38) = (  0.0130029  0.2478461  0.5980003  )
        39           O   tau(  39) = (  0.0048226  0.0077944  0.3071422  )
        40           O   tau(  40) = (  0.0048226  0.0077944  0.4960513  )
        41           Sr  tau(  41) = (  0.2545482  0.2517602  0.3044833  )
        42           Sr  tau(  42) = (  0.2545482  0.2517602  0.4987103  )
        43           Co  tau(  43) = (  0.4989925  0.0073160  0.5980003  )
        44           Co  tau(  44) = (  0.4998370  0.0064714  0.4015968  )
        45           O   tau(  45) = (  0.5048017  0.0015068  0.3099459  )
        46           O   tau(  46) = (  0.5048017  0.0015068  0.4932477  )
        47           O   tau(  47) = (  0.2621260  0.0059111  0.5980003  )
        48           O   tau(  48) = (  0.2591051  0.0041689  0.4015968  )
        49           H   tau(  49) = (  0.2843291  0.1421646  0.8534850  )

     number of k points=    10  Gaussian smearing, width (Ry)=  0.0700
                       cart. coord. in units 2pi/alat
        k(    1) = (   0.0000000   0.0000000   0.0000000), wk =   0.1250000
        k(    2) = (   0.0000000   0.2500000   0.0000000), wk =   0.2500000
        k(    3) = (   0.0000000  -0.5000000   0.0000000), wk =   0.1250000
        k(    4) = (   0.2500000   0.2500000   0.0000000), wk =   0.2500000
        k(    5) = (   0.2500000  -0.5000000   0.0000000), wk =   0.2500000
        k(    6) = (  -0.5000000  -0.5000000   0.0000000), wk =   0.1250000
        k(    7) = (   0.2500000   0.0000000   0.0000000), wk =   0.2500000
        k(    8) = (  -0.5000000   0.0000000   0.0000000), wk =   0.1250000
        k(    9) = (  -0.2500000   0.2500000   0.0000000), wk =   0.2500000
        k(   10) = (  -0.5000000   0.2500000   0.0000000), wk =   0.2500000

                       cryst. coord.
        k(    1) = (   0.0000000   0.0000000   0.0000000), wk =   0.1250000
        k(    2) = (   0.0000000   0.2500000   0.0000000), wk =   0.2500000
        k(    3) = (   0.0000000  -0.5000000   0.0000000), wk =   0.1250000
        k(    4) = (   0.2500000   0.2500000   0.0000000), wk =   0.2500000
        k(    5) = (   0.2500000  -0.5000000   0.0000000), wk =   0.2500000
        k(    6) = (  -0.5000000  -0.5000000   0.0000000), wk =   0.1250000
        k(    7) = (   0.2500000   0.0000000   0.0000000), wk =   0.2500000
        k(    8) = (  -0.5000000   0.0000000   0.0000000), wk =   0.1250000
        k(    9) = (  -0.2500000   0.2500000   0.0000000), wk =   0.2500000
        k(   10) = (  -0.5000000   0.2500000   0.0000000), wk =   0.2500000

     Dense  grid:  1474595 G-vectors     FFT dimensions: ( 108, 108, 270)

     Smooth grid:   521381 G-vectors     FFT dimensions: (  75,  75, 192)

     Dynamical RAM for                 wfc:      10.61 MB

     Dynamical RAM for     wfc (w. buffer):      63.63 MB

     Dynamical RAM for           str. fact:       3.75 MB

     Dynamical RAM for           local pot:       0.00 MB

     Dynamical RAM for          nlocal pot:      24.28 MB

     Dynamical RAM for                qrad:       7.03 MB

     Dynamical RAM for          rho,v,vnew:       6.02 MB

     Dynamical RAM for               rhoin:       2.01 MB

     Dynamical RAM for            rho*nmix:      15.00 MB

     Dynamical RAM for           G-vectors:       3.68 MB

     Dynamical RAM for          h,s,v(r/c):       1.32 MB

     Dynamical RAM for          <psi|beta>:       2.29 MB

     Dynamical RAM for                 psi:      21.21 MB

     Dynamical RAM for                hpsi:      21.21 MB

     Dynamical RAM for                spsi:      21.21 MB

     Dynamical RAM for      wfcinit/wfcrot:      34.09 MB

     Dynamical RAM for           addusdens:     100.79 MB

     Estimated static dynamical RAM per process >     120.42 MB

     Estimated max dynamical RAM per process >     236.21 MB

     Estimated total dynamical RAM >      10.72 GB

     Check: negative core charge=   -0.000004

     Initial potential from superposition of free atoms

     starting charge     416.5961, renormalised to     425.0000

     negative rho (up, down):  7.826E-01 0.000E+00
     Starting wfcs are  373 randomized atomic wfcs
     Checking if some PAW data can be deallocated... 
       PAW data deallocated on   20 nodes for type:  2

     total cpu time spent up to now is        8.7 secs

     Self-consistent Calculation

     iteration #  1     ecut=    60.00 Ry     beta= 0.15
     Davidson diagonalization with overlap

---- Real-time Memory Report at c_bands before calling an iterative solver
             0 MiB given to the printing process from OS
             0 MiB allocation reported by mallinfo(arena+hblkhd)
        170493 MiB available memory on the node where the printing process lives
------------------
     ethr =  1.00E-02,  avg # of iterations =  2.0

     negative rho (up, down):  7.717E-01 0.000E+00

     total cpu time spent up to now is       23.3 secs

     total energy              =   -4404.73635161 Ry
     estimated scf accuracy    <      42.18955522 Ry

     iteration #  2     ecut=    60.00 Ry     beta= 0.15
     Davidson diagonalization with overlap

---- Real-time Memory Report at c_bands before calling an iterative solver
             0 MiB given to the printing process from OS
             0 MiB allocation reported by mallinfo(arena+hblkhd)
        170715 MiB available memory on the node where the printing process lives
------------------
     ethr =  9.93E-03,  avg # of iterations =  1.0

     negative rho (up, down):  7.532E-01 0.000E+00

     total cpu time spent up to now is       35.4 secs

     total energy              =   -4400.03041539 Ry
     estimated scf accuracy    <      26.59338779 Ry

     iteration #  3     ecut=    60.00 Ry     beta= 0.15
     Davidson diagonalization with overlap

---- Real-time Memory Report at c_bands before calling an iterative solver
             0 MiB given to the printing process from OS
             0 MiB allocation reported by mallinfo(arena+hblkhd)
        169978 MiB available memory on the node where the printing process lives
------------------
     ethr =  6.26E-03,  avg # of iterations =  2.0

     negative rho (up, down):  7.544E-01 0.000E+00

     total cpu time spent up to now is       48.9 secs

     total energy              =   -4402.38342966 Ry
     estimated scf accuracy    <      49.19919822 Ry

     iteration #  4     ecut=    60.00 Ry     beta= 0.15
     Davidson diagonalization with overlap

---- Real-time Memory Report at c_bands before calling an iterative solver
             0 MiB given to the printing process from OS
             0 MiB allocation reported by mallinfo(arena+hblkhd)
        169848 MiB available memory on the node where the printing process lives
------------------
     ethr =  6.26E-03,  avg # of iterations =  1.0

     negative rho (up, down):  7.410E-01 0.000E+00

     total cpu time spent up to now is       61.0 secs

     total energy              =   -4401.64626249 Ry
     estimated scf accuracy    <      29.42790826 Ry

     iteration #  5     ecut=    60.00 Ry     beta= 0.15
     Davidson diagonalization with overlap

---- Real-time Memory Report at c_bands before calling an iterative solver
             0 MiB given to the printing process from OS
             0 MiB allocation reported by mallinfo(arena+hblkhd)
        169830 MiB available memory on the node where the printing process lives
------------------
     ethr =  6.26E-03,  avg # of iterations =  1.0

     negative rho (up, down):  7.472E-01 0.000E+00

     total cpu time spent up to now is       73.0 secs

     total energy              =   -4399.78352552 Ry
     estimated scf accuracy    <      44.26167393 Ry

     iteration #  6     ecut=    60.00 Ry     beta= 0.15
     Davidson diagonalization with overlap

---- Real-time Memory Report at c_bands before calling an iterative solver
             0 MiB given to the printing process from OS
             0 MiB allocation reported by mallinfo(arena+hblkhd)
        169806 MiB available memory on the node where the printing process lives
------------------
     ethr =  6.26E-03,  avg # of iterations =  1.0

     negative rho (up, down):  7.423E-01 0.000E+00

     total cpu time spent up to now is       85.1 secs

     total energy              =   -4400.65881259 Ry
     estimated scf accuracy    <      12.00708014 Ry

     iteration #  7     ecut=    60.00 Ry     beta= 0.15
     Davidson diagonalization with overlap

---- Real-time Memory Report at c_bands before calling an iterative solver
             0 MiB given to the printing process from OS
             0 MiB allocation reported by mallinfo(arena+hblkhd)
        169789 MiB available memory on the node where the printing process lives
------------------
     ethr =  2.83E-03,  avg # of iterations =  1.1

     negative rho (up, down):  7.444E-01 0.000E+00

     total cpu time spent up to now is       97.4 secs

     total energy              =   -4400.82330314 Ry
     estimated scf accuracy    <       4.01364705 Ry

     iteration #  8     ecut=    60.00 Ry     beta= 0.15
     Davidson diagonalization with overlap

---- Real-time Memory Report at c_bands before calling an iterative solver
             0 MiB given to the printing process from OS
             0 MiB allocation reported by mallinfo(arena+hblkhd)
        169766 MiB available memory on the node where the printing process lives
------------------
     ethr =  9.44E-04,  avg # of iterations =  1.5

     negative rho (up, down):  7.539E-01 0.000E+00

     total cpu time spent up to now is      109.9 secs

     total energy              =   -4400.31279022 Ry
     estimated scf accuracy    <       3.31116750 Ry

     iteration #  9     ecut=    60.00 Ry     beta= 0.15
     Davidson diagonalization with overlap

---- Real-time Memory Report at c_bands before calling an iterative solver
             0 MiB given to the printing process from OS
             0 MiB allocation reported by mallinfo(arena+hblkhd)
        169751 MiB available memory on the node where the printing process lives
------------------
     ethr =  7.79E-04,  avg # of iterations =  4.7

     negative rho (up, down):  7.755E-01 0.000E+00

     total cpu time spent up to now is      125.2 secs

     total energy              =   -4399.74818020 Ry
     estimated scf accuracy    <      44.38064110 Ry

     iteration # 10     ecut=    60.00 Ry     beta= 0.15
     Davidson diagonalization with overlap

---- Real-time Memory Report at c_bands before calling an iterative solver
             0 MiB given to the printing process from OS
             0 MiB allocation reported by mallinfo(arena+hblkhd)
        169590 MiB available memory on the node where the printing process lives
------------------
     ethr =  7.79E-04,  avg # of iterations =  9.4

     negative rho (up, down):  7.775E-01 0.000E+00

     total cpu time spent up to now is      143.3 secs

     total energy              =   -4399.86971533 Ry
     estimated scf accuracy    <      11.63115005 Ry

     iteration # 11     ecut=    60.00 Ry     beta= 0.15
     Davidson diagonalization with overlap

---- Real-time Memory Report at c_bands before calling an iterative solver
             0 MiB given to the printing process from OS
             0 MiB allocation reported by mallinfo(arena+hblkhd)
        169296 MiB available memory on the node where the printing process lives
------------------
     ethr =  7.79E-04,  avg # of iterations =  1.0

     negative rho (up, down):  7.810E-01 0.000E+00

     total cpu time spent up to now is      155.5 secs

     total energy              =   -4400.12031768 Ry
     estimated scf accuracy    <       1.58254622 Ry

     iteration # 12     ecut=    60.00 Ry     beta= 0.15
     Davidson diagonalization with overlap

---- Real-time Memory Report at c_bands before calling an iterative solver
             0 MiB given to the printing process from OS
             0 MiB allocation reported by mallinfo(arena+hblkhd)
        169304 MiB available memory on the node where the printing process lives
------------------
     ethr =  3.72E-04,  avg # of iterations =  1.1

     negative rho (up, down):  7.884E-01 0.000E+00

     total cpu time spent up to now is      167.9 secs

     total energy              =   -4400.10756532 Ry
     estimated scf accuracy    <       0.80068944 Ry

     iteration # 13     ecut=    60.00 Ry     beta= 0.15
     Davidson diagonalization with overlap

---- Real-time Memory Report at c_bands before calling an iterative solver
             0 MiB given to the printing process from OS
             0 MiB allocation reported by mallinfo(arena+hblkhd)
        169342 MiB available memory on the node where the printing process lives
------------------
     ethr =  1.88E-04,  avg # of iterations =  6.5

     negative rho (up, down):  7.995E-01 0.000E+00

     total cpu time spent up to now is      183.4 secs

     total energy              =   -4400.10977463 Ry
     estimated scf accuracy    <       1.64729562 Ry

     iteration # 14     ecut=    60.00 Ry     beta= 0.15
     Davidson diagonalization with overlap

---- Real-time Memory Report at c_bands before calling an iterative solver
             0 MiB given to the printing process from OS
             0 MiB allocation reported by mallinfo(arena+hblkhd)
        169312 MiB available memory on the node where the printing process lives
------------------
     ethr =  1.88E-04,  avg # of iterations =  4.1

     negative rho (up, down):  8.036E-01 0.000E+00

     total cpu time spent up to now is      198.1 secs

     total energy              =   -4400.01500830 Ry
     estimated scf accuracy    <       2.00132210 Ry

     iteration # 15     ecut=    60.00 Ry     beta= 0.15
     Davidson diagonalization with overlap

---- Real-time Memory Report at c_bands before calling an iterative solver
             0 MiB given to the printing process from OS
             0 MiB allocation reported by mallinfo(arena+hblkhd)
        169304 MiB available memory on the node where the printing process lives
------------------
     ethr =  1.88E-04,  avg # of iterations =  4.1

     negative rho (up, down):  8.077E-01 0.000E+00

     total cpu time spent up to now is      212.6 secs

     total energy              =   -4400.05098586 Ry
     estimated scf accuracy    <       0.38703918 Ry

     iteration # 16     ecut=    60.00 Ry     beta= 0.15
     Davidson diagonalization with overlap

---- Real-time Memory Report at c_bands before calling an iterative solver
             0 MiB given to the printing process from OS
             0 MiB allocation reported by mallinfo(arena+hblkhd)
        169300 MiB available memory on the node where the printing process lives
------------------
     ethr =  9.11E-05,  avg # of iterations = 10.2

     negative rho (up, down):  8.119E-01 0.000E+00

     total cpu time spent up to now is      229.9 secs

     total energy              =   -4400.02901867 Ry
     estimated scf accuracy    <       0.31650637 Ry

     iteration # 17     ecut=    60.00 Ry     beta= 0.15
     Davidson diagonalization with overlap

---- Real-time Memory Report at c_bands before calling an iterative solver
             0 MiB given to the printing process from OS
             0 MiB allocation reported by mallinfo(arena+hblkhd)
        169270 MiB available memory on the node where the printing process lives
------------------
     ethr =  7.45E-05,  avg # of iterations =  6.0

     negative rho (up, down):  8.192E-01 0.000E+00

     total cpu time spent up to now is      245.5 secs

     total energy              =   -4399.95288305 Ry
     estimated scf accuracy    <       0.26962345 Ry

     iteration # 18     ecut=    60.00 Ry     beta= 0.15
     Davidson diagonalization with overlap

---- Real-time Memory Report at c_bands before calling an iterative solver
             0 MiB given to the printing process from OS
             0 MiB allocation reported by mallinfo(arena+hblkhd)
        169268 MiB available memory on the node where the printing process lives
------------------
     ethr =  6.34E-05,  avg # of iterations = 12.8

     negative rho (up, down):  8.208E-01 0.000E+00

     total cpu time spent up to now is      264.5 secs

     total energy              =   -4399.94568039 Ry
     estimated scf accuracy    <       0.30130584 Ry

     iteration # 19     ecut=    60.00 Ry     beta= 0.15
     Davidson diagonalization with overlap

---- Real-time Memory Report at c_bands before calling an iterative solver
             0 MiB given to the printing process from OS
             0 MiB allocation reported by mallinfo(arena+hblkhd)
        169252 MiB available memory on the node where the printing process lives
------------------
     ethr =  6.34E-05,  avg # of iterations =  1.4

     negative rho (up, down):  8.201E-01 0.000E+00

     total cpu time spent up to now is      277.2 secs

     total energy              =   -4399.94821621 Ry
     estimated scf accuracy    <       0.11742585 Ry

     iteration # 20     ecut=    60.00 Ry     beta= 0.15
     Davidson diagonalization with overlap

---- Real-time Memory Report at c_bands before calling an iterative solver
             0 MiB given to the printing process from OS
             0 MiB allocation reported by mallinfo(arena+hblkhd)
        169266 MiB available memory on the node where the printing process lives
------------------
     ethr =  2.76E-05,  avg # of iterations =  5.5

     negative rho (up, down):  8.165E-01 0.000E+00

     total cpu time spent up to now is      292.4 secs

     total energy              =   -4399.93640406 Ry
     estimated scf accuracy    <       0.09290660 Ry

     iteration # 21     ecut=    60.00 Ry     beta= 0.15
     Davidson diagonalization with overlap

---- Real-time Memory Report at c_bands before calling an iterative solver
             0 MiB given to the printing process from OS
             0 MiB allocation reported by mallinfo(arena+hblkhd)
        169251 MiB available memory on the node where the printing process lives
------------------
     ethr =  2.19E-05,  avg # of iterations =  7.4

     negative rho (up, down):  8.117E-01 0.000E+00

     total cpu time spent up to now is      308.4 secs

     total energy              =   -4399.92335246 Ry
     estimated scf accuracy    <       0.06482298 Ry

     iteration # 22     ecut=    60.00 Ry     beta= 0.15
     Davidson diagonalization with overlap

---- Real-time Memory Report at c_bands before calling an iterative solver
             0 MiB given to the printing process from OS
             0 MiB allocation reported by mallinfo(arena+hblkhd)
        169241 MiB available memory on the node where the printing process lives
------------------
     ethr =  1.53E-05,  avg # of iterations = 10.6

     negative rho (up, down):  8.066E-01 0.000E+00

     total cpu time spent up to now is      326.6 secs

     total energy              =   -4399.92311558 Ry
     estimated scf accuracy    <       0.02979543 Ry

     iteration # 23     ecut=    60.00 Ry     beta= 0.15
     Davidson diagonalization with overlap

---- Real-time Memory Report at c_bands before calling an iterative solver
             0 MiB given to the printing process from OS
             0 MiB allocation reported by mallinfo(arena+hblkhd)
        169217 MiB available memory on the node where the printing process lives
------------------
     c_bands:  1 eigenvalues not converged
     ethr =  7.01E-06,  avg # of iterations =  9.5

     negative rho (up, down):  8.000E-01 0.000E+00

     total cpu time spent up to now is      343.0 secs

     total energy              =   -4399.92077643 Ry
     estimated scf accuracy    <       0.02108118 Ry

     iteration # 24     ecut=    60.00 Ry     beta= 0.15
     Davidson diagonalization with overlap

---- Real-time Memory Report at c_bands before calling an iterative solver
             0 MiB given to the printing process from OS
             0 MiB allocation reported by mallinfo(arena+hblkhd)
        169216 MiB available memory on the node where the printing process lives
------------------
     ethr =  4.96E-06,  avg # of iterations = 12.0

     negative rho (up, down):  7.966E-01 0.000E+00

     total cpu time spent up to now is      361.0 secs

     total energy              =   -4399.92067630 Ry
     estimated scf accuracy    <       0.01172693 Ry

     iteration # 25     ecut=    60.00 Ry     beta= 0.15
     Davidson diagonalization with overlap

---- Real-time Memory Report at c_bands before calling an iterative solver
             0 MiB given to the printing process from OS
             0 MiB allocation reported by mallinfo(arena+hblkhd)
        169129 MiB available memory on the node where the printing process lives
------------------
     ethr =  2.76E-06,  avg # of iterations =  2.3

     negative rho (up, down):  7.957E-01 0.000E+00

     total cpu time spent up to now is      374.8 secs

     total energy              =   -4399.92013000 Ry
     estimated scf accuracy    <       0.00904755 Ry

     iteration # 26     ecut=    60.00 Ry     beta= 0.15
     Davidson diagonalization with overlap

---- Real-time Memory Report at c_bands before calling an iterative solver
             0 MiB given to the printing process from OS
             0 MiB allocation reported by mallinfo(arena+hblkhd)
        169150 MiB available memory on the node where the printing process lives
------------------
     ethr =  2.13E-06,  avg # of iterations =  6.0

     negative rho (up, down):  7.937E-01 0.000E+00

     total cpu time spent up to now is      390.3 secs

     total energy              =   -4399.91975160 Ry
     estimated scf accuracy    <       0.00573349 Ry

     iteration # 27     ecut=    60.00 Ry     beta= 0.15
     Davidson diagonalization with overlap

---- Real-time Memory Report at c_bands before calling an iterative solver
             0 MiB given to the printing process from OS
             0 MiB allocation reported by mallinfo(arena+hblkhd)
        169179 MiB available memory on the node where the printing process lives
------------------
     ethr =  1.35E-06,  avg # of iterations =  7.2

     negative rho (up, down):  7.963E-01 0.000E+00

     total cpu time spent up to now is      406.6 secs

     total energy              =   -4399.91981511 Ry
     estimated scf accuracy    <       0.00317685 Ry

     iteration # 28     ecut=    60.00 Ry     beta= 0.15
     Davidson diagonalization with overlap

---- Real-time Memory Report at c_bands before calling an iterative solver
             0 MiB given to the printing process from OS
             0 MiB allocation reported by mallinfo(arena+hblkhd)
        169159 MiB available memory on the node where the printing process lives
------------------
     ethr =  7.47E-07,  avg # of iterations =  4.1

     negative rho (up, down):  7.949E-01 0.000E+00

     total cpu time spent up to now is      421.5 secs

     total energy              =   -4399.91953133 Ry
     estimated scf accuracy    <       0.00183897 Ry

     iteration # 29     ecut=    60.00 Ry     beta= 0.15
     Davidson diagonalization with overlap

---- Real-time Memory Report at c_bands before calling an iterative solver
             0 MiB given to the printing process from OS
             0 MiB allocation reported by mallinfo(arena+hblkhd)
        169093 MiB available memory on the node where the printing process lives
------------------
     c_bands:  1 eigenvalues not converged
     ethr =  4.33E-07,  avg # of iterations =  9.7

     negative rho (up, down):  7.953E-01 0.000E+00

     total cpu time spent up to now is      439.5 secs

     total energy              =   -4399.91946956 Ry
     estimated scf accuracy    <       0.00070887 Ry

     iteration # 30     ecut=    60.00 Ry     beta= 0.15
     Davidson diagonalization with overlap

---- Real-time Memory Report at c_bands before calling an iterative solver
             0 MiB given to the printing process from OS
             0 MiB allocation reported by mallinfo(arena+hblkhd)
        169095 MiB available memory on the node where the printing process lives
------------------
     c_bands:  1 eigenvalues not converged
     ethr =  1.67E-07,  avg # of iterations =  8.0

     negative rho (up, down):  7.949E-01 0.000E+00

     total cpu time spent up to now is      456.7 secs

     total energy              =   -4399.91945889 Ry
     estimated scf accuracy    <       0.00026305 Ry

     iteration # 31     ecut=    60.00 Ry     beta= 0.15
     Davidson diagonalization with overlap

---- Real-time Memory Report at c_bands before calling an iterative solver
             0 MiB given to the printing process from OS
             0 MiB allocation reported by mallinfo(arena+hblkhd)
        169037 MiB available memory on the node where the printing process lives
------------------
     ethr =  6.19E-08,  avg # of iterations =  3.4

     negative rho (up, down):  7.940E-01 0.000E+00

     total cpu time spent up to now is      471.9 secs

     total energy              =   -4399.91946276 Ry
     estimated scf accuracy    <       0.00007669 Ry

     iteration # 32     ecut=    60.00 Ry     beta= 0.15
     Davidson diagonalization with overlap

---- Real-time Memory Report at c_bands before calling an iterative solver
             0 MiB given to the printing process from OS
             0 MiB allocation reported by mallinfo(arena+hblkhd)
        169022 MiB available memory on the node where the printing process lives
------------------
     ethr =  1.80E-08,  avg # of iterations =  2.7

     negative rho (up, down):  7.937E-01 0.000E+00

     total cpu time spent up to now is      485.8 secs

     total energy              =   -4399.91946656 Ry
     estimated scf accuracy    <       0.00004707 Ry

     iteration # 33     ecut=    60.00 Ry     beta= 0.15
     Davidson diagonalization with overlap

---- Real-time Memory Report at c_bands before calling an iterative solver
             0 MiB given to the printing process from OS
             0 MiB allocation reported by mallinfo(arena+hblkhd)
        169044 MiB available memory on the node where the printing process lives
------------------
     ethr =  1.11E-08,  avg # of iterations =  2.0

     negative rho (up, down):  7.930E-01 0.000E+00

     total cpu time spent up to now is      499.7 secs

     total energy              =   -4399.91947288 Ry
     estimated scf accuracy    <       0.00003487 Ry

     iteration # 34     ecut=    60.00 Ry     beta= 0.15
     Davidson diagonalization with overlap

---- Real-time Memory Report at c_bands before calling an iterative solver
             0 MiB given to the printing process from OS
             0 MiB allocation reported by mallinfo(arena+hblkhd)
        169054 MiB available memory on the node where the printing process lives
------------------
     ethr =  8.21E-09,  avg # of iterations =  3.2

     negative rho (up, down):  7.928E-01 0.000E+00

     total cpu time spent up to now is      513.7 secs

     total energy              =   -4399.91947857 Ry
     estimated scf accuracy    <       0.00001756 Ry

     iteration # 35     ecut=    60.00 Ry     beta= 0.15
     Davidson diagonalization with overlap

---- Real-time Memory Report at c_bands before calling an iterative solver
             0 MiB given to the printing process from OS
             0 MiB allocation reported by mallinfo(arena+hblkhd)
        169040 MiB available memory on the node where the printing process lives
------------------
     ethr =  4.13E-09,  avg # of iterations =  2.8

     negative rho (up, down):  7.927E-01 0.000E+00

     total cpu time spent up to now is      527.5 secs

     total energy              =   -4399.91948127 Ry
     estimated scf accuracy    <       0.00001484 Ry

     iteration # 36     ecut=    60.00 Ry     beta= 0.15
     Davidson diagonalization with overlap

---- Real-time Memory Report at c_bands before calling an iterative solver
             0 MiB given to the printing process from OS
             0 MiB allocation reported by mallinfo(arena+hblkhd)
        169067 MiB available memory on the node where the printing process lives
------------------
     ethr =  3.49E-09,  avg # of iterations =  2.1

     negative rho (up, down):  7.926E-01 0.000E+00

     total cpu time spent up to now is      541.1 secs

     total energy              =   -4399.91948344 Ry
     estimated scf accuracy    <       0.00000795 Ry

     iteration # 37     ecut=    60.00 Ry     beta= 0.15
     Davidson diagonalization with overlap

---- Real-time Memory Report at c_bands before calling an iterative solver
             0 MiB given to the printing process from OS
             0 MiB allocation reported by mallinfo(arena+hblkhd)
        169058 MiB available memory on the node where the printing process lives
------------------
     ethr =  1.87E-09,  avg # of iterations =  2.4

     negative rho (up, down):  7.925E-01 0.000E+00

     total cpu time spent up to now is      554.9 secs

     total energy              =   -4399.91948418 Ry
     estimated scf accuracy    <       0.00000516 Ry

     iteration # 38     ecut=    60.00 Ry     beta= 0.15
     Davidson diagonalization with overlap

---- Real-time Memory Report at c_bands before calling an iterative solver
             0 MiB given to the printing process from OS
             0 MiB allocation reported by mallinfo(arena+hblkhd)
        169063 MiB available memory on the node where the printing process lives
------------------
     ethr =  1.21E-09,  avg # of iterations =  1.6

     negative rho (up, down):  7.925E-01 0.000E+00

     total cpu time spent up to now is      567.8 secs

     total energy              =   -4399.91948433 Ry
     estimated scf accuracy    <       0.00000480 Ry

     iteration # 39     ecut=    60.00 Ry     beta= 0.15
     Davidson diagonalization with overlap

---- Real-time Memory Report at c_bands before calling an iterative solver
             0 MiB given to the printing process from OS
             0 MiB allocation reported by mallinfo(arena+hblkhd)
        169064 MiB available memory on the node where the printing process lives
------------------
     ethr =  1.13E-09,  avg # of iterations =  1.1

     negative rho (up, down):  7.925E-01 0.000E+00

     total cpu time spent up to now is      580.1 secs

     total energy              =   -4399.91948450 Ry
     estimated scf accuracy    <       0.00000461 Ry

     iteration # 40     ecut=    60.00 Ry     beta= 0.15
     Davidson diagonalization with overlap

---- Real-time Memory Report at c_bands before calling an iterative solver
             0 MiB given to the printing process from OS
             0 MiB allocation reported by mallinfo(arena+hblkhd)
        169060 MiB available memory on the node where the printing process lives
------------------
     ethr =  1.08E-09,  avg # of iterations =  1.1

     negative rho (up, down):  7.925E-01 0.000E+00

     total cpu time spent up to now is      592.4 secs

     total energy              =   -4399.91948470 Ry
     estimated scf accuracy    <       0.00000414 Ry

     iteration # 41     ecut=    60.00 Ry     beta= 0.15
     Davidson diagonalization with overlap

---- Real-time Memory Report at c_bands before calling an iterative solver
             0 MiB given to the printing process from OS
             0 MiB allocation reported by mallinfo(arena+hblkhd)
        169064 MiB available memory on the node where the printing process lives
------------------
     ethr =  9.74E-10,  avg # of iterations =  2.0

     negative rho (up, down):  7.924E-01 0.000E+00

     total cpu time spent up to now is      606.0 secs

     total energy              =   -4399.91948360 Ry
     estimated scf accuracy    <       0.00000293 Ry

     iteration # 42     ecut=    60.00 Ry     beta= 0.15
     Davidson diagonalization with overlap

---- Real-time Memory Report at c_bands before calling an iterative solver
             0 MiB given to the printing process from OS
             0 MiB allocation reported by mallinfo(arena+hblkhd)
        169066 MiB available memory on the node where the printing process lives
------------------
     ethr =  6.89E-10,  avg # of iterations =  3.2

     negative rho (up, down):  7.924E-01 0.000E+00

     total cpu time spent up to now is      620.2 secs

     total energy              =   -4399.91948295 Ry
     estimated scf accuracy    <       0.00000140 Ry

     iteration # 43     ecut=    60.00 Ry     beta= 0.15
     Davidson diagonalization with overlap

---- Real-time Memory Report at c_bands before calling an iterative solver
             0 MiB given to the printing process from OS
             0 MiB allocation reported by mallinfo(arena+hblkhd)
        169058 MiB available memory on the node where the printing process lives
------------------
     ethr =  3.29E-10,  avg # of iterations =  2.8

     negative rho (up, down):  7.924E-01 0.000E+00

     total cpu time spent up to now is      634.0 secs

     total energy              =   -4399.91948304 Ry
     estimated scf accuracy    <       0.00000113 Ry

     iteration # 44     ecut=    60.00 Ry     beta= 0.15
     Davidson diagonalization with overlap

---- Real-time Memory Report at c_bands before calling an iterative solver
             0 MiB given to the printing process from OS
             0 MiB allocation reported by mallinfo(arena+hblkhd)
        169059 MiB available memory on the node where the printing process lives
------------------
     ethr =  2.65E-10,  avg # of iterations =  1.9

     negative rho (up, down):  7.924E-01 0.000E+00

     total cpu time spent up to now is      647.5 secs

     total energy              =   -4399.91948349 Ry
     estimated scf accuracy    <       0.00000093 Ry

     iteration # 45     ecut=    60.00 Ry     beta= 0.15
     Davidson diagonalization with overlap

---- Real-time Memory Report at c_bands before calling an iterative solver
             0 MiB given to the printing process from OS
             0 MiB allocation reported by mallinfo(arena+hblkhd)
        169060 MiB available memory on the node where the printing process lives
------------------
     ethr =  2.18E-10,  avg # of iterations =  2.5

     negative rho (up, down):  7.924E-01 0.000E+00

     total cpu time spent up to now is      661.2 secs

     total energy              =   -4399.91948384 Ry
     estimated scf accuracy    <       0.00000057 Ry

     iteration # 46     ecut=    60.00 Ry     beta= 0.15
     Davidson diagonalization with overlap

---- Real-time Memory Report at c_bands before calling an iterative solver
             0 MiB given to the printing process from OS
             0 MiB allocation reported by mallinfo(arena+hblkhd)
        169059 MiB available memory on the node where the printing process lives
------------------
     ethr =  1.35E-10,  avg # of iterations =  2.9

     negative rho (up, down):  7.924E-01 0.000E+00

     total cpu time spent up to now is      675.2 secs

     total energy              =   -4399.91948418 Ry
     estimated scf accuracy    <       0.00000039 Ry

     iteration # 47     ecut=    60.00 Ry     beta= 0.15
     Davidson diagonalization with overlap

---- Real-time Memory Report at c_bands before calling an iterative solver
             0 MiB given to the printing process from OS
             0 MiB allocation reported by mallinfo(arena+hblkhd)
        169062 MiB available memory on the node where the printing process lives
------------------
     ethr =  9.10E-11,  avg # of iterations =  4.0

     negative rho (up, down):  7.924E-01 0.000E+00

     total cpu time spent up to now is      689.5 secs

     total energy              =   -4399.91948419 Ry
     estimated scf accuracy    <       0.00000021 Ry

     iteration # 48     ecut=    60.00 Ry     beta= 0.15
     Davidson diagonalization with overlap

---- Real-time Memory Report at c_bands before calling an iterative solver
             0 MiB given to the printing process from OS
             0 MiB allocation reported by mallinfo(arena+hblkhd)
        169065 MiB available memory on the node where the printing process lives
------------------
     ethr =  4.98E-11,  avg # of iterations =  4.0

     negative rho (up, down):  7.924E-01 0.000E+00

     total cpu time spent up to now is      703.9 secs

     total energy              =   -4399.91948420 Ry
     estimated scf accuracy    <       0.00000009 Ry

     iteration # 49     ecut=    60.00 Ry     beta= 0.15
     Davidson diagonalization with overlap

---- Real-time Memory Report at c_bands before calling an iterative solver
             0 MiB given to the printing process from OS
             0 MiB allocation reported by mallinfo(arena+hblkhd)
        169064 MiB available memory on the node where the printing process lives
------------------
     ethr =  2.16E-11,  avg # of iterations =  2.6

     negative rho (up, down):  7.924E-01 0.000E+00

     total cpu time spent up to now is      717.6 secs

     total energy              =   -4399.91948424 Ry
     estimated scf accuracy    <       0.00000007 Ry

     iteration # 50     ecut=    60.00 Ry     beta= 0.15
     Davidson diagonalization with overlap

---- Real-time Memory Report at c_bands before calling an iterative solver
             0 MiB given to the printing process from OS
             0 MiB allocation reported by mallinfo(arena+hblkhd)
        169068 MiB available memory on the node where the printing process lives
------------------
     ethr =  1.62E-11,  avg # of iterations =  3.1

     negative rho (up, down):  7.924E-01 0.000E+00

     total cpu time spent up to now is      731.4 secs

     total energy              =   -4399.91948426 Ry
     estimated scf accuracy    <       0.00000005 Ry

     iteration # 51     ecut=    60.00 Ry     beta= 0.15
     Davidson diagonalization with overlap

---- Real-time Memory Report at c_bands before calling an iterative solver
             0 MiB given to the printing process from OS
             0 MiB allocation reported by mallinfo(arena+hblkhd)
        169082 MiB available memory on the node where the printing process lives
------------------
     ethr =  1.09E-11,  avg # of iterations =  3.2

     negative rho (up, down):  7.924E-01 0.000E+00

     total cpu time spent up to now is      745.8 secs

     total energy              =   -4399.91948426 Ry
     estimated scf accuracy    <       0.00000003 Ry

     iteration # 52     ecut=    60.00 Ry     beta= 0.15
     Davidson diagonalization with overlap

---- Real-time Memory Report at c_bands before calling an iterative solver
             0 MiB given to the printing process from OS
             0 MiB allocation reported by mallinfo(arena+hblkhd)
        169081 MiB available memory on the node where the printing process lives
------------------
     ethr =  7.11E-12,  avg # of iterations =  2.7

     negative rho (up, down):  7.924E-01 0.000E+00

     total cpu time spent up to now is      759.8 secs

     total energy              =   -4399.91948426 Ry
     estimated scf accuracy    <       0.00000002 Ry

     iteration # 53     ecut=    60.00 Ry     beta= 0.15
     Davidson diagonalization with overlap

---- Real-time Memory Report at c_bands before calling an iterative solver
             0 MiB given to the printing process from OS
             0 MiB allocation reported by mallinfo(arena+hblkhd)
        169083 MiB available memory on the node where the printing process lives
------------------
     ethr =  4.51E-12,  avg # of iterations =  2.1

     negative rho (up, down):  7.924E-01 0.000E+00

     total cpu time spent up to now is      773.7 secs

     total energy              =   -4399.91948428 Ry
     estimated scf accuracy    <       0.00000001 Ry

     iteration # 54     ecut=    60.00 Ry     beta= 0.15
     Davidson diagonalization with overlap

---- Real-time Memory Report at c_bands before calling an iterative solver
             0 MiB given to the printing process from OS
             0 MiB allocation reported by mallinfo(arena+hblkhd)
        169079 MiB available memory on the node where the printing process lives
------------------
     ethr =  3.10E-12,  avg # of iterations =  2.7

     negative rho (up, down):  7.924E-01 0.000E+00

     total cpu time spent up to now is      787.4 secs

     End of self-consistent calculation

          k = 0.0000 0.0000 0.0000 ( 65197 PWs)   bands (ev):

   -92.7253 -92.6712 -92.5791 -92.5313 -92.4733 -92.4317 -92.4143 -92.2927
   -56.0788 -56.0578 -55.9365 -55.9260 -55.9184 -55.9128 -55.8757 -55.8483
   -55.8329 -55.8312 -55.8220 -55.7811 -55.7629 -55.7243 -55.7055 -55.6733
   -55.6663 -55.6200 -55.6188 -55.6169 -55.6085 -55.5673 -55.5447 -55.4593
   -31.3018 -31.2819 -31.1860 -31.1402 -31.0613 -31.0525 -30.9297 -30.5368
   -29.8741 -29.8293 -29.8039 -29.6949 -15.1054 -15.0608 -14.9818 -14.8510
   -14.6605 -14.5356 -14.2452 -14.2244 -14.1955 -14.1519 -14.1046 -14.0924
   -14.0855 -14.0657 -14.0494 -14.0173 -13.9562 -13.8051 -13.6287 -13.5937
   -13.5621 -13.5343 -13.5146 -13.4620 -13.4277 -13.3458 -13.2746 -13.1848
   -13.1669 -13.1341 -13.1215 -13.0990 -13.0814 -13.0510 -13.0312 -13.0138
   -12.9900 -12.9716 -12.9650 -12.9459 -12.9285 -12.9181 -12.8595 -12.8407
   -12.8152 -12.5753 -12.5729 -12.4789 -12.3659 -12.2202 -12.0149 -11.9481
   -11.8862 -11.8129 -11.8015 -11.7777 -11.7601 -11.6969 -11.6796 -11.6452
   -11.6169 -11.5032 -11.4244 -11.4208  -2.9665  -2.7338  -2.5044  -2.3576
    -2.2943  -2.1519  -1.8451  -1.8310  -1.8111  -1.7275  -1.7076  -1.6398
    -1.6230  -1.5824  -1.5381  -1.3560  -1.1329  -1.1030  -0.9553  -0.9411
    -0.8954  -0.8769  -0.8321  -0.8159  -0.7586  -0.7321  -0.6598  -0.6467
    -0.5716  -0.4402  -0.4270  -0.3987  -0.3179  -0.3042  -0.2942  -0.2254
    -0.1534  -0.1095  -0.0574  -0.0315   0.0311   0.1066   0.1556   0.1782
     0.1873   0.4453   0.4588   0.6312   0.6996   0.7650   0.8102   0.8976
     0.9118   0.9293   0.9960   1.0239   1.0578   1.1168   1.2488   1.3064
     1.3270   1.3473   1.3576   1.4231   1.4971   1.6006   1.6117   1.6759
     1.6910   1.7318   1.7501   1.7577   1.8149   1.8697   1.8800   1.9145
     1.9519   2.0001   2.1322   2.2160   2.2592   2.2784   2.4271   2.4422
     2.4859   2.4886   2.5959   2.6324   2.6580   2.6769   2.6913   2.7462
     2.7988   2.8848   2.9140   2.9272   2.9334   3.0008   3.0049   3.0286
     3.0370   3.0450   3.0584   3.0644   3.0769   3.0828   3.0976   3.1047
     3.1122   3.1325   3.1539   3.1585   3.1704   3.2087   3.3116   3.4071
     4.0845   4.4044   4.7468   4.8547   5.0125   5.7773   5.9109   5.9642
     5.9840   6.2895   6.3369   6.4707   6.4804   6.7410   6.9931   7.0823
     7.1607   7.2941   7.5245   7.5765   7.6422   7.6560   7.6781   7.8205
     7.9352   8.0871   8.1011   8.1730   8.4006   8.5885   8.8025   8.8595

     occupation numbers 
     1.0000   1.0000   1.0000   1.0000   1.0000   1.0000   1.0000   1.0000
     1.0000   1.0000   1.0000   1.0000   1.0000   1.0000   1.0000   1.0000
     1.0000   1.0000   1.0000   1.0000   1.0000   1.0000   1.0000   1.0000
     1.0000   1.0000   1.0000   1.0000   1.0000   1.0000   1.0000   1.0000
     1.0000   1.0000   1.0000   1.0000   1.0000   1.0000   1.0000   1.0000
     1.0000   1.0000   1.0000   1.0000   1.0000   1.0000   1.0000   1.0000
     1.0000   1.0000   1.0000   1.0000   1.0000   1.0000   1.0000   1.0000
     1.0000   1.0000   1.0000   1.0000   1.0000   1.0000   1.0000   1.0000
     1.0000   1.0000   1.0000   1.0000   1.0000   1.0000   1.0000   1.0000
     1.0000   1.0000   1.0000   1.0000   1.0000   1.0000   1.0000   1.0000
     1.0000   1.0000   1.0000   1.0000   1.0000   1.0000   1.0000   1.0000
     1.0000   1.0000   1.0000   1.0000   1.0000   1.0000   1.0000   1.0000
     1.0000   1.0000   1.0000   1.0000   1.0000   1.0000   1.0000   1.0000
     1.0000   1.0000   1.0000   1.0000   1.0000   1.0000   1.0000   1.0000
     1.0000   1.0000   1.0000   1.0000   1.0000   1.0000   1.0000   1.0000
     1.0000   1.0000   1.0000   1.0000   1.0000   1.0000   1.0000   1.0000
     1.0000   1.0000   1.0000   1.0000   1.0000   1.0000   1.0000   1.0000
     1.0000   1.0000   1.0000   1.0000   1.0000   1.0000   1.0000   1.0000
     1.0000   1.0000   1.0000   1.0000   1.0000   1.0000   1.0000   1.0000
     1.0000   1.0000   1.0000   1.0000   0.9999   0.9999   0.9999   0.9998
     0.9998   0.9998   0.9997   0.9996   0.9996   0.9994   0.9989   0.9985
     0.9983   0.9982   0.9981   0.9974   0.9963   0.9943   0.9940   0.9921
     0.9916   0.9902   0.9894   0.9891   0.9864   0.9833   0.9827   0.9803
     0.9775   0.9734   0.9589   0.9467   0.9393   0.9358   0.9032   0.8993
     0.8873   0.8866   0.8529   0.8401   0.8307   0.8235   0.8179   0.7956
     0.7727   0.7324   0.7180   0.7113   0.7082   0.6729   0.6707   0.6579
     0.6533   0.6489   0.6415   0.6381   0.6312   0.6279   0.6195   0.6155
     0.6112   0.5996   0.5873   0.5847   0.5777   0.5553   0.4946   0.4383
     0.1228   0.0509   0.0160   0.0106   0.0056   0.0001   0.0001   0.0000
     0.0000   0.0000   0.0000   0.0000   0.0000   0.0000   0.0000   0.0000
     0.0000   0.0000   0.0000   0.0000   0.0000   0.0000   0.0000   0.0000
     0.0000   0.0000   0.0000   0.0000   0.0000   0.0000   0.0000   0.0000

          k = 0.0000 0.2500 0.0000 ( 65257 PWs)   bands (ev):

   -92.7253 -92.6712 -92.5791 -92.5313 -92.4733 -92.4317 -92.4143 -92.2927
   -56.0788 -56.0578 -55.9365 -55.9260 -55.9184 -55.9128 -55.8757 -55.8483
   -55.8329 -55.8312 -55.8220 -55.7811 -55.7629 -55.7243 -55.7055 -55.6733
   -55.6663 -55.6200 -55.6188 -55.6169 -55.6085 -55.5673 -55.5447 -55.4593
   -31.3016 -31.2818 -31.1858 -31.1404 -31.0616 -31.0527 -30.9296 -30.5369
   -29.8735 -29.8290 -29.8045 -29.6952 -15.0689 -15.0341 -14.9565 -14.8219
   -14.7008 -14.5275 -14.3892 -14.2102 -14.1769 -14.1552 -14.1280 -14.0695
   -14.0629 -14.0460 -14.0307 -13.9915 -13.8748 -13.8361 -13.6721 -13.6551
   -13.6039 -13.5676 -13.5252 -13.4798 -13.4406 -13.3675 -13.3320 -13.2848
   -13.2255 -13.1723 -13.1567 -13.1316 -13.1108 -13.0310 -13.0007 -12.9735
   -12.9567 -12.9291 -12.9239 -12.8971 -12.8841 -12.8589 -12.8210 -12.7809
   -12.7392 -12.5272 -12.4855 -12.4702 -12.4271 -12.2714 -12.0651 -12.0065
   -11.8515 -11.8096 -11.7813 -11.7526 -11.7359 -11.6889 -11.6776 -11.6552
   -11.6217 -11.5175 -11.4659 -11.4554  -2.8311  -2.6094  -2.4719  -2.2899
    -2.2464  -2.0824  -1.8639  -1.7785  -1.7655  -1.7087  -1.6055  -1.5897
    -1.5559  -1.5291  -1.4856  -1.2871  -1.1591  -1.1475  -1.0711  -1.0608
    -0.9565  -0.9264  -0.8689  -0.8443  -0.8028  -0.7393  -0.7133  -0.6806
    -0.6485  -0.6312  -0.5995  -0.5248  -0.4740  -0.4106  -0.2969  -0.2793
    -0.2356  -0.1166  -0.0820  -0.0191   0.0287   0.0914   0.1071   0.1342
     0.1937   0.4922   0.5799   0.6104   0.6996   0.7461   0.7671   0.8852
     0.9041   0.9966   1.0237   1.0510   1.1657   1.2577   1.2810   1.3052
     1.3225   1.3495   1.4096   1.4360   1.4638   1.5118   1.5467   1.5752
     1.6575   1.6911   1.7301   1.7801   1.8363   1.8779   1.9053   1.9311
     1.9505   2.0371   2.1680   2.2403   2.2595   2.3345   2.3818   2.4201
     2.4297   2.4910   2.5299   2.6135   2.6505   2.6675   2.7688   2.8401
     2.8700   2.8969   2.9170   2.9351   2.9425   2.9498   2.9665   2.9881
     2.9908   3.0111   3.0161   3.0244   3.0427   3.0536   3.0612   3.0834
     3.0943   3.0988   3.1352   3.1508   3.2120   3.5841   3.6237   3.8545
     4.2719   4.4035   4.6828   5.0080   5.0405   5.6163   5.7534   5.8878
     5.9580   6.0677   6.0889   6.1637   6.5869   6.8750   6.9099   7.0969
     7.3152   7.4592   7.4794   7.5074   7.6272   7.6984   7.7893   8.0026
     8.0794   8.0888   8.1725   8.2996   8.3899   8.5625   8.7096   8.9247

     occupation numbers 
     1.0000   1.0000   1.0000   1.0000   1.0000   1.0000   1.0000   1.0000
     1.0000   1.0000   1.0000   1.0000   1.0000   1.0000   1.0000   1.0000
     1.0000   1.0000   1.0000   1.0000   1.0000   1.0000   1.0000   1.0000
     1.0000   1.0000   1.0000   1.0000   1.0000   1.0000   1.0000   1.0000
     1.0000   1.0000   1.0000   1.0000   1.0000   1.0000   1.0000   1.0000
     1.0000   1.0000   1.0000   1.0000   1.0000   1.0000   1.0000   1.0000
     1.0000   1.0000   1.0000   1.0000   1.0000   1.0000   1.0000   1.0000
     1.0000   1.0000   1.0000   1.0000   1.0000   1.0000   1.0000   1.0000
     1.0000   1.0000   1.0000   1.0000   1.0000   1.0000   1.0000   1.0000
     1.0000   1.0000   1.0000   1.0000   1.0000   1.0000   1.0000   1.0000
     1.0000   1.0000   1.0000   1.0000   1.0000   1.0000   1.0000   1.0000
     1.0000   1.0000   1.0000   1.0000   1.0000   1.0000   1.0000   1.0000
     1.0000   1.0000   1.0000   1.0000   1.0000   1.0000   1.0000   1.0000
     1.0000   1.0000   1.0000   1.0000   1.0000   1.0000   1.0000   1.0000
     1.0000   1.0000   1.0000   1.0000   1.0000   1.0000   1.0000   1.0000
     1.0000   1.0000   1.0000   1.0000   1.0000   1.0000   1.0000   1.0000
     1.0000   1.0000   1.0000   1.0000   1.0000   1.0000   1.0000   1.0000
     1.0000   1.0000   1.0000   1.0000   1.0000   1.0000   1.0000   1.0000
     1.0000   1.0000   1.0000   1.0000   1.0000   1.0000   1.0000   1.0000
     1.0000   1.0000   1.0000   1.0000   0.9999   0.9999   0.9999   0.9998
     0.9998   0.9997   0.9996   0.9996   0.9992   0.9988   0.9987   0.9985
     0.9984   0.9981   0.9975   0.9972   0.9968   0.9961   0.9954   0.9948
     0.9927   0.9916   0.9902   0.9881   0.9853   0.9828   0.9810   0.9791
     0.9777   0.9699   0.9540   0.9426   0.9393   0.9247   0.9142   0.9049
     0.9025   0.8859   0.8743   0.8468   0.8335   0.8271   0.7860   0.7538
     0.7396   0.7265   0.7165   0.7073   0.7035   0.6998   0.6911   0.6797
     0.6782   0.6674   0.6647   0.6601   0.6501   0.6441   0.6399   0.6275
     0.6214   0.6188   0.5981   0.5891   0.5534   0.3379   0.3167   0.2062
     0.0750   0.0510   0.0202   0.0057   0.0049   0.0003   0.0001   0.0001
     0.0000   0.0000   0.0000   0.0000   0.0000   0.0000   0.0000   0.0000
     0.0000   0.0000   0.0000   0.0000   0.0000   0.0000   0.0000   0.0000
     0.0000   0.0000   0.0000   0.0000   0.0000   0.0000   0.0000   0.0000

          k = 0.0000-0.5000 0.0000 ( 65180 PWs)   bands (ev):

   -92.7253 -92.6712 -92.5791 -92.5313 -92.4733 -92.4317 -92.4143 -92.2927
   -56.0788 -56.0578 -55.9365 -55.9260 -55.9184 -55.9128 -55.8757 -55.8483
   -55.8329 -55.8312 -55.8220 -55.7811 -55.7629 -55.7243 -55.7055 -55.6733
   -55.6663 -55.6200 -55.6188 -55.6169 -55.6085 -55.5673 -55.5447 -55.4593
   -31.3014 -31.2816 -31.1855 -31.1406 -31.0618 -31.0528 -30.9295 -30.5370
   -29.8729 -29.8287 -29.8052 -29.6955 -15.0331 -14.9854 -14.9295 -14.8071
   -14.7192 -14.5857 -14.4267 -14.3121 -14.1815 -14.1155 -14.0705 -14.0626
   -14.0132 -13.9957 -13.9459 -13.9284 -13.9002 -13.8693 -13.8430 -13.7916
   -13.6076 -13.5495 -13.5325 -13.4805 -13.4440 -13.3829 -13.3516 -13.3071
   -13.3066 -13.2413 -13.1546 -13.1316 -13.1015 -13.0575 -12.9893 -12.9756
   -12.9520 -12.9210 -12.9057 -12.8825 -12.8629 -12.7424 -12.7293 -12.7067
   -12.6755 -12.5382 -12.4884 -12.4231 -12.3466 -12.3371 -12.1458 -12.0968
   -11.8066 -11.8034 -11.7759 -11.7384 -11.7043 -11.6933 -11.6513 -11.6473
   -11.6031 -11.5393 -11.5259 -11.5121  -2.6163  -2.5572  -2.4059  -2.3344
    -2.0534  -1.9692  -1.8413  -1.7048  -1.6676  -1.6476  -1.5691  -1.5393
    -1.4550  -1.4209  -1.3432  -1.3032  -1.2650  -1.2382  -1.1774  -1.1432
    -1.0972  -1.0617  -1.0266  -0.9941  -0.8829  -0.8386  -0.8042  -0.8016
    -0.7161  -0.6844  -0.6622  -0.6118  -0.5276  -0.4550  -0.3722  -0.3459
    -0.2367  -0.1947  -0.0539  -0.0203   0.0095   0.0654   0.1875   0.2400
     0.3674   0.4352   0.4425   0.5706   0.6165   0.7256   0.8508   0.9575
     0.9879   1.0266   1.0323   1.0715   1.0879   1.1233   1.1393   1.1508
     1.2614   1.3235   1.3500   1.3733   1.6360   1.6698   1.6903   1.7870
     1.8105   1.8424   1.8582   1.8866   1.9023   1.9118   1.9432   1.9755
     2.0058   2.0349   2.0439   2.0733   2.1269   2.2091   2.2414   2.4218
     2.5777   2.5855   2.6051   2.6351   2.6446   2.6544   2.7053   2.7212
     2.7723   2.7843   2.8034   2.8731   2.8876   2.9540   2.9730   2.9849
     2.9871   3.0062   3.0127   3.0176   3.0211   3.0288   3.0393   3.0535
     3.0553   3.1203   3.1252   3.1406   3.1942   4.1038   4.1422   4.1543
     4.2275   4.7145   4.8779   5.0084   5.1296   5.3963   5.4461   5.5705
     5.6868   5.9758   6.0244   6.0262   6.6784   6.8406   6.9418   7.2058
     7.3048   7.3367   7.4216   7.4946   7.7334   7.8052   7.8874   7.9406
     8.1126   8.2450   8.4460   8.5236   8.6429   8.7307   8.7972   8.8288

     occupation numbers 
     1.0000   1.0000   1.0000   1.0000   1.0000   1.0000   1.0000   1.0000
     1.0000   1.0000   1.0000   1.0000   1.0000   1.0000   1.0000   1.0000
     1.0000   1.0000   1.0000   1.0000   1.0000   1.0000   1.0000   1.0000
     1.0000   1.0000   1.0000   1.0000   1.0000   1.0000   1.0000   1.0000
     1.0000   1.0000   1.0000   1.0000   1.0000   1.0000   1.0000   1.0000
     1.0000   1.0000   1.0000   1.0000   1.0000   1.0000   1.0000   1.0000
     1.0000   1.0000   1.0000   1.0000   1.0000   1.0000   1.0000   1.0000
     1.0000   1.0000   1.0000   1.0000   1.0000   1.0000   1.0000   1.0000
     1.0000   1.0000   1.0000   1.0000   1.0000   1.0000   1.0000   1.0000
     1.0000   1.0000   1.0000   1.0000   1.0000   1.0000   1.0000   1.0000
     1.0000   1.0000   1.0000   1.0000   1.0000   1.0000   1.0000   1.0000
     1.0000   1.0000   1.0000   1.0000   1.0000   1.0000   1.0000   1.0000
     1.0000   1.0000   1.0000   1.0000   1.0000   1.0000   1.0000   1.0000
     1.0000   1.0000   1.0000   1.0000   1.0000   1.0000   1.0000   1.0000
     1.0000   1.0000   1.0000   1.0000   1.0000   1.0000   1.0000   1.0000
     1.0000   1.0000   1.0000   1.0000   1.0000   1.0000   1.0000   1.0000
     1.0000   1.0000   1.0000   1.0000   1.0000   1.0000   1.0000   1.0000
     1.0000   1.0000   1.0000   1.0000   1.0000   1.0000   1.0000   1.0000
     1.0000   1.0000   1.0000   1.0000   1.0000   1.0000   1.0000   1.0000
     1.0000   1.0000   1.0000   1.0000   1.0000   0.9999   0.9999   0.9998
     0.9997   0.9996   0.9996   0.9995   0.9995   0.9994   0.9993   0.9993
     0.9988   0.9984   0.9981   0.9979   0.9933   0.9923   0.9917   0.9878
     0.9866   0.9849   0.9840   0.9822   0.9812   0.9805   0.9782   0.9756
     0.9729   0.9701   0.9692   0.9660   0.9596   0.9478   0.9424   0.9045
     0.8591   0.8565   0.8498   0.8391   0.8357   0.8321   0.8124   0.8059
     0.7844   0.7792   0.7707   0.7381   0.7311   0.6976   0.6877   0.6813
     0.6802   0.6700   0.6665   0.6638   0.6619   0.6577   0.6520   0.6442
     0.6432   0.6066   0.6038   0.5949   0.5639   0.1170   0.1062   0.1029
     0.0848   0.0180   0.0097   0.0057   0.0033   0.0009   0.0007   0.0004
     0.0002   0.0000   0.0000   0.0000   0.0000   0.0000   0.0000   0.0000
     0.0000   0.0000   0.0000   0.0000   0.0000   0.0000   0.0000   0.0000
     0.0000   0.0000   0.0000   0.0000   0.0000   0.0000   0.0000   0.0000

          k = 0.2500 0.2500 0.0000 ( 65198 PWs)   bands (ev):

   -92.7253 -92.6712 -92.5791 -92.5313 -92.4733 -92.4317 -92.4143 -92.2927
   -56.0788 -56.0578 -55.9365 -55.9260 -55.9184 -55.9128 -55.8757 -55.8483
   -55.8329 -55.8312 -55.8220 -55.7811 -55.7629 -55.7243 -55.7055 -55.6733
   -55.6663 -55.6200 -55.6188 -55.6169 -55.6085 -55.5673 -55.5447 -55.4593
   -31.2999 -31.2834 -31.1856 -31.1401 -31.0615 -31.0531 -30.9297 -30.5370
   -29.8725 -29.8300 -29.8041 -29.6956 -15.0402 -14.9988 -14.9285 -14.8117
   -14.6935 -14.5668 -14.4956 -14.2921 -14.1336 -14.1208 -14.0865 -14.0561
   -14.0338 -14.0020 -13.9773 -13.9545 -13.8664 -13.8506 -13.6886 -13.6756
   -13.6450 -13.6252 -13.5797 -13.5356 -13.4811 -13.4506 -13.3386 -13.3016
   -13.2534 -13.1688 -13.1343 -13.1172 -13.0721 -13.0437 -13.0246 -12.9867
   -12.9698 -12.9499 -12.9170 -12.8703 -12.8471 -12.8035 -12.7672 -12.7373
   -12.6980 -12.5299 -12.4779 -12.4699 -12.3695 -12.3005 -12.0830 -12.0568
   -11.8241 -11.7926 -11.7816 -11.7750 -11.7119 -11.6768 -11.6703 -11.6353
   -11.6280 -11.5341 -11.4940 -11.4767  -2.6929  -2.4836  -2.3659  -2.2720
    -2.1507  -2.0855  -1.8888  -1.7433  -1.7241  -1.6953  -1.6005  -1.5663
    -1.4725  -1.4438  -1.3949  -1.2632  -1.2144  -1.1433  -1.0981  -1.0532
    -1.0301  -1.0055  -0.9630  -0.9476  -0.8575  -0.8072  -0.7429  -0.6929
    -0.6625  -0.6125  -0.5993  -0.5355  -0.4869  -0.4312  -0.3945  -0.3109
    -0.2570  -0.2287  -0.1896  -0.1345  -0.0595  -0.0228   0.0014   0.0786
     0.1137   0.3831   0.5304   0.5667   0.6224   0.6652   0.7265   0.7800
     0.8371   0.8755   1.1468   1.2150   1.2883   1.3139   1.3612   1.3934
     1.4290   1.4663   1.4837   1.5109   1.5557   1.5625   1.5780   1.6219
     1.6630   1.7020   1.7600   1.7990   1.8047   1.8411   1.8768   1.9296
     1.9608   2.0782   2.1503   2.1850   2.2104   2.2749   2.3431   2.3704
     2.4063   2.4305   2.4445   2.5556   2.5905   2.6796   2.7911   2.8515
     2.8695   2.8750   2.8923   2.9078   2.9190   2.9313   2.9413   2.9491
     2.9627   2.9747   2.9951   2.9997   3.0111   3.0323   3.0457   3.0557
     3.0853   3.3868   3.4823   3.5209   3.5882   3.6349   3.8316   3.9297
     4.2763   4.4939   4.6901   4.9529   5.1582   5.6204   5.6720   5.7280
     5.8122   5.8705   5.9681   6.1564   6.1982   6.7854   6.8872   7.0562
     7.1631   7.5362   7.5852   7.6925   7.8426   7.8749   7.9472   8.1097
     8.1446   8.1897   8.2832   8.3086   8.4229   8.4674   8.6487   8.7953

     occupation numbers 
     1.0000   1.0000   1.0000   1.0000   1.0000   1.0000   1.0000   1.0000
     1.0000   1.0000   1.0000   1.0000   1.0000   1.0000   1.0000   1.0000
     1.0000   1.0000   1.0000   1.0000   1.0000   1.0000   1.0000   1.0000
     1.0000   1.0000   1.0000   1.0000   1.0000   1.0000   1.0000   1.0000
     1.0000   1.0000   1.0000   1.0000   1.0000   1.0000   1.0000   1.0000
     1.0000   1.0000   1.0000   1.0000   1.0000   1.0000   1.0000   1.0000
     1.0000   1.0000   1.0000   1.0000   1.0000   1.0000   1.0000   1.0000
     1.0000   1.0000   1.0000   1.0000   1.0000   1.0000   1.0000   1.0000
     1.0000   1.0000   1.0000   1.0000   1.0000   1.0000   1.0000   1.0000
     1.0000   1.0000   1.0000   1.0000   1.0000   1.0000   1.0000   1.0000
     1.0000   1.0000   1.0000   1.0000   1.0000   1.0000   1.0000   1.0000
     1.0000   1.0000   1.0000   1.0000   1.0000   1.0000   1.0000   1.0000
     1.0000   1.0000   1.0000   1.0000   1.0000   1.0000   1.0000   1.0000
     1.0000   1.0000   1.0000   1.0000   1.0000   1.0000   1.0000   1.0000
     1.0000   1.0000   1.0000   1.0000   1.0000   1.0000   1.0000   1.0000
     1.0000   1.0000   1.0000   1.0000   1.0000   1.0000   1.0000   1.0000
     1.0000   1.0000   1.0000   1.0000   1.0000   1.0000   1.0000   1.0000
     1.0000   1.0000   1.0000   1.0000   1.0000   1.0000   1.0000   1.0000
     1.0000   1.0000   1.0000   1.0000   1.0000   1.0000   1.0000   1.0000
     1.0000   1.0000   1.0000   1.0000   1.0000   1.0000   0.9999   0.9999
     0.9999   0.9998   0.9993   0.9990   0.9986   0.9984   0.9980   0.9977
     0.9973   0.9968   0.9965   0.9961   0.9953   0.9951   0.9948   0.9937
     0.9925   0.9913   0.9890   0.9872   0.9869   0.9850   0.9829   0.9792
     0.9768   0.9655   0.9564   0.9515   0.9476   0.9365   0.9229   0.9168
     0.9084   0.9023   0.8987   0.8663   0.8548   0.8225   0.7761   0.7485
     0.7398   0.7372   0.7288   0.7211   0.7154   0.7092   0.7041   0.7001
     0.6931   0.6868   0.6759   0.6735   0.6674   0.6558   0.6485   0.6429
     0.6264   0.4501   0.3947   0.3729   0.3356   0.3108   0.2160   0.1758
     0.0741   0.0384   0.0197   0.0071   0.0029   0.0003   0.0002   0.0002
     0.0001   0.0001   0.0000   0.0000   0.0000   0.0000   0.0000   0.0000
     0.0000   0.0000   0.0000   0.0000   0.0000   0.0000   0.0000   0.0000
     0.0000   0.0000   0.0000   0.0000   0.0000   0.0000   0.0000   0.0000

          k = 0.2500-0.5000 0.0000 ( 65138 PWs)   bands (ev):

   -92.7253 -92.6712 -92.5791 -92.5313 -92.4733 -92.4317 -92.4143 -92.2927
   -56.0788 -56.0578 -55.9365 -55.9260 -55.9184 -55.9128 -55.8757 -55.8483
   -55.8329 -55.8312 -55.8220 -55.7811 -55.7629 -55.7243 -55.7055 -55.6733
   -55.6663 -55.6200 -55.6188 -55.6169 -55.6085 -55.5673 -55.5447 -55.4593
   -31.2997 -31.2833 -31.1854 -31.1403 -31.0617 -31.0532 -30.9297 -30.5371
   -29.8719 -29.8297 -29.8048 -29.6960 -15.0022 -14.9584 -14.8861 -14.7775
   -14.7427 -14.6254 -14.5322 -14.4077 -14.0982 -14.0475 -14.0200 -13.9972
   -13.9824 -13.9670 -13.9309 -13.9162 -13.8837 -13.8444 -13.8279 -13.7850
   -13.6902 -13.6420 -13.5968 -13.5621 -13.5001 -13.4887 -13.3951 -13.3599
   -13.2305 -13.1660 -13.1530 -13.0994 -13.0541 -13.0344 -13.0094 -12.9880
   -12.9656 -12.9351 -12.9120 -12.8750 -12.8487 -12.7704 -12.7476 -12.6795
   -12.6481 -12.5449 -12.4908 -12.3941 -12.3441 -12.3063 -12.1368 -12.1016
   -11.8001 -11.7878 -11.7767 -11.7497 -11.7186 -11.6896 -11.6492 -11.6203
   -11.5992 -11.5524 -11.5274 -11.5164  -2.4746  -2.4089  -2.2796  -2.2031
    -2.0739  -1.9892  -1.8657  -1.7161  -1.6622  -1.6402  -1.5775  -1.5644
    -1.4657  -1.4006  -1.3153  -1.2652  -1.2560  -1.1928  -1.1491  -1.1160
    -1.0690  -1.0321  -0.9969  -0.9564  -0.9442  -0.9003  -0.8710  -0.8298
    -0.7984  -0.7312  -0.6303  -0.5887  -0.5116  -0.4468  -0.3979  -0.3546
    -0.3342  -0.2816  -0.1192  -0.1101  -0.0082   0.0319   0.0378   0.0835
     0.1144   0.1550   0.1820   0.2505   0.5200   0.6156   0.6911   0.7462
     1.0078   1.0317   1.1188   1.1469   1.3117   1.3451   1.3881   1.4099
     1.4265   1.4463   1.5082   1.5542   1.5895   1.6700   1.7603   1.8025
     1.8204   1.8291   1.8675   1.8825   1.8855   1.9321   1.9435   1.9633
     1.9943   2.0127   2.0352   2.0688   2.1259   2.1642   2.2437   2.3829
     2.5299   2.5464   2.5635   2.5924   2.6160   2.6401   2.6673   2.6763
     2.7004   2.7913   2.8175   2.8498   2.8712   2.8814   2.8902   2.9095
     2.9230   2.9428   2.9501   2.9808   2.9926   3.0080   3.0163   3.0254
     3.0359   3.5622   3.5750   3.7183   3.7686   4.1120   4.1584   4.1780
     4.2882   4.7337   4.9002   5.0424   5.1043   5.2814   5.4132   5.5810
     5.6115   5.7436   5.7695   6.1013   6.3823   6.4764   6.6100   6.9806
     7.4763   7.5167   7.6854   7.7937   7.8594   7.9705   8.0240   8.1224
     8.3008   8.3859   8.4684   8.5154   8.5225   8.6480   8.6936   8.7475

     occupation numbers 
     1.0000   1.0000   1.0000   1.0000   1.0000   1.0000   1.0000   1.0000
     1.0000   1.0000   1.0000   1.0000   1.0000   1.0000   1.0000   1.0000
     1.0000   1.0000   1.0000   1.0000   1.0000   1.0000   1.0000   1.0000
     1.0000   1.0000   1.0000   1.0000   1.0000   1.0000   1.0000   1.0000
     1.0000   1.0000   1.0000   1.0000   1.0000   1.0000   1.0000   1.0000
     1.0000   1.0000   1.0000   1.0000   1.0000   1.0000   1.0000   1.0000
     1.0000   1.0000   1.0000   1.0000   1.0000   1.0000   1.0000   1.0000
     1.0000   1.0000   1.0000   1.0000   1.0000   1.0000   1.0000   1.0000
     1.0000   1.0000   1.0000   1.0000   1.0000   1.0000   1.0000   1.0000
     1.0000   1.0000   1.0000   1.0000   1.0000   1.0000   1.0000   1.0000
     1.0000   1.0000   1.0000   1.0000   1.0000   1.0000   1.0000   1.0000
     1.0000   1.0000   1.0000   1.0000   1.0000   1.0000   1.0000   1.0000
     1.0000   1.0000   1.0000   1.0000   1.0000   1.0000   1.0000   1.0000
     1.0000   1.0000   1.0000   1.0000   1.0000   1.0000   1.0000   1.0000
     1.0000   1.0000   1.0000   1.0000   1.0000   1.0000   1.0000   1.0000
     1.0000   1.0000   1.0000   1.0000   1.0000   1.0000   1.0000   1.0000
     1.0000   1.0000   1.0000   1.0000   1.0000   1.0000   1.0000   1.0000
     1.0000   1.0000   1.0000   1.0000   1.0000   1.0000   1.0000   1.0000
     1.0000   1.0000   1.0000   1.0000   1.0000   1.0000   1.0000   1.0000
     1.0000   1.0000   1.0000   1.0000   1.0000   1.0000   0.9999   0.9999
     0.9997   0.9996   0.9994   0.9993   0.9984   0.9982   0.9978   0.9975
     0.9973   0.9971   0.9961   0.9953   0.9945   0.9923   0.9890   0.9870
     0.9861   0.9857   0.9834   0.9825   0.9823   0.9791   0.9782   0.9766
     0.9740   0.9723   0.9701   0.9665   0.9597   0.9545   0.9420   0.9139
     0.8744   0.8692   0.8637   0.8541   0.8460   0.8373   0.8272   0.8237
     0.8143   0.7761   0.7643   0.7492   0.7390   0.7341   0.7298   0.7202
     0.7134   0.7034   0.6996   0.6836   0.6773   0.6690   0.6645   0.6596
     0.6539   0.3498   0.3429   0.2684   0.2444   0.1147   0.1019   0.0968
     0.0716   0.0168   0.0088   0.0049   0.0037   0.0016   0.0009   0.0004
     0.0003   0.0001   0.0001   0.0000   0.0000   0.0000   0.0000   0.0000
     0.0000   0.0000   0.0000   0.0000   0.0000   0.0000   0.0000   0.0000
     0.0000   0.0000   0.0000   0.0000   0.0000   0.0000   0.0000   0.0000

          k =-0.5000-0.5000 0.0000 ( 65132 PWs)   bands (ev):

   -92.7253 -92.6712 -92.5791 -92.5313 -92.4733 -92.4317 -92.4143 -92.2927
   -56.0788 -56.0578 -55.9365 -55.9260 -55.9184 -55.9128 -55.8757 -55.8483
   -55.8329 -55.8312 -55.8219 -55.7811 -55.7629 -55.7243 -55.7055 -55.6733
   -55.6663 -55.6200 -55.6188 -55.6169 -55.6085 -55.5673 -55.5447 -55.4593
   -31.2976 -31.2854 -31.1853 -31.1399 -31.0617 -31.0536 -30.9298 -30.5371
   -29.8709 -29.8307 -29.8044 -29.6964 -14.9543 -14.9311 -14.8146 -14.7988
   -14.7074 -14.6705 -14.6411 -14.5063 -14.0099 -13.9985 -13.9619 -13.9466
   -13.9264 -13.9100 -13.8855 -13.8738 -13.8598 -13.8545 -13.8390 -13.7589
   -13.7507 -13.7292 -13.6878 -13.6841 -13.5826 -13.5670 -13.4337 -13.4058
   -13.1815 -13.1501 -13.0752 -13.0736 -13.0494 -13.0212 -13.0074 -12.9984
   -12.9854 -12.9761 -12.8809 -12.8714 -12.8379 -12.8081 -12.7867 -12.6295
   -12.6217 -12.5612 -12.4945 -12.3682 -12.3404 -12.2773 -12.1276 -12.1071
   -11.7959 -11.7845 -11.7668 -11.7494 -11.7152 -11.6965 -11.6619 -11.5997
   -11.5814 -11.5750 -11.5255 -11.5223  -2.2506  -2.1753  -2.1647  -2.0920
    -2.0537  -1.9757  -1.9075  -1.7827  -1.6663  -1.6362  -1.5970  -1.5392
    -1.4683  -1.4526  -1.3829  -1.3401  -1.2236  -1.1933  -1.1472  -1.1168
    -1.0525  -1.0061  -0.9880  -0.9754  -0.9227  -0.8773  -0.8634  -0.7495
    -0.6917  -0.6428  -0.5958  -0.5697  -0.5584  -0.5221  -0.4789  -0.4447
    -0.4342  -0.3471  -0.2813  -0.2347  -0.2093  -0.1360  -0.0806  -0.0631
    -0.0087   0.0132   0.0273   0.0418   0.4897   0.5367   0.6381   0.6602
     1.0401   1.0515   1.0843   1.1235   1.3963   1.4150   1.4233   1.4612
     1.5925   1.6875   1.7140   1.7504   1.7698   1.7939   1.8034   1.8328
     1.8446   1.8626   1.8713   1.9217   1.9244   1.9519   1.9782   1.9875
     2.0028   2.0405   2.0678   2.0788   2.1120   2.1379   2.2067   2.2732
[...]
     0.7446   0.7298   0.7182   0.7149   0.7044   0.6989   0.6917   0.6803
     0.6762   0.6638   0.6573   0.6537   0.6468   0.6361   0.6216   0.6192
     0.6145   0.6109   0.6051   0.5997   0.5245   0.3519   0.3223   0.2049
     0.0794   0.0455   0.0220   0.0057   0.0049   0.0003   0.0001   0.0001
     0.0000   0.0000   0.0000   0.0000   0.0000   0.0000   0.0000   0.0000
     0.0000   0.0000   0.0000   0.0000   0.0000   0.0000   0.0000   0.0000
     0.0000   0.0000   0.0000   0.0000   0.0000   0.0000   0.0000   0.0000

          k =-0.5000 0.0000 0.0000 ( 65180 PWs)   bands (ev):

   -92.7253 -92.6712 -92.5791 -92.5313 -92.4733 -92.4317 -92.4143 -92.2927
   -56.0788 -56.0578 -55.9365 -55.9260 -55.9184 -55.9128 -55.8757 -55.8483
   -55.8329 -55.8312 -55.8219 -55.7811 -55.7629 -55.7243 -55.7055 -55.6733
   -55.6663 -55.6200 -55.6188 -55.6169 -55.6085 -55.5673 -55.5447 -55.4593
   -31.2980 -31.2857 -31.1858 -31.1395 -31.0612 -31.0533 -30.9299 -30.5370
   -29.8721 -29.8313 -29.8031 -29.6957 -15.0388 -14.9853 -14.9243 -14.8204
   -14.7120 -14.5699 -14.4198 -14.2899 -14.1569 -14.1489 -14.1325 -14.0751
   -14.0159 -13.9822 -13.9348 -13.9336 -13.9148 -13.8630 -13.8559 -13.7449
   -13.5789 -13.5558 -13.5192 -13.5121 -13.4612 -13.3885 -13.3362 -13.2915
   -13.2677 -13.2613 -13.1553 -13.0782 -13.0675 -13.0464 -13.0380 -13.0337
   -12.9712 -12.9639 -12.9555 -12.9346 -12.8428 -12.6732 -12.6639 -12.6548
   -12.6392 -12.5642 -12.4929 -12.4627 -12.3809 -12.3504 -12.1317 -12.0898
   -11.8040 -11.7818 -11.7756 -11.7596 -11.7418 -11.7009 -11.6381 -11.6210
   -11.5889 -11.5416 -11.5327 -11.5174  -2.6062  -2.5681  -2.4036  -2.3649
    -2.0514  -1.9770  -1.8270  -1.7107  -1.6718  -1.6263  -1.5775  -1.5530
    -1.4298  -1.3854  -1.3699  -1.2872  -1.2529  -1.2362  -1.2055  -1.1480
    -1.0793  -1.0499  -1.0213  -0.9274  -0.8789  -0.8297  -0.7976  -0.7758
    -0.7471  -0.6984  -0.6738  -0.6337  -0.5382  -0.4635  -0.4006  -0.3384
    -0.1714  -0.1371  -0.0806  -0.0509   0.0162   0.0292   0.1672   0.1986
     0.2439   0.4159   0.5147   0.5615   0.6419   0.7159   0.8366   0.8463
     0.9822   1.0055   1.0592   1.0866   1.1241   1.1385   1.1802   1.2074
     1.2738   1.3212   1.3691   1.3761   1.6764   1.6807   1.7043   1.7186
     1.8309   1.8453   1.8556   1.8680   1.8970   1.9081   1.9484   1.9727
     1.9957   2.0530   2.0650   2.1181   2.1384   2.1963   2.3048   2.4059
     2.4771   2.4915   2.5668   2.6022   2.6252   2.6965   2.7064   2.7139
     2.7431   2.7776   2.8329   2.8598   2.9044   2.9349   2.9766   2.9796
     2.9800   2.9924   3.0072   3.0186   3.0333   3.0413   3.0607   3.0677
     3.0844   3.1049   3.1103   3.2392   3.2484   4.0477   4.1007   4.1597
     4.3109   4.7676   4.8410   5.0131   5.0305   5.4728   5.4943   5.5747
     5.6268   5.9484   6.0097   6.0409   6.7398   6.7864   6.9923   7.2659
     7.3011   7.3429   7.3873   7.4989   7.7197   7.7567   7.8435   7.8690
     8.1038   8.2710   8.4849   8.5725   8.6287   8.7189   8.7422   8.8441

     occupation numbers 
     1.0000   1.0000   1.0000   1.0000   1.0000   1.0000   1.0000   1.0000
     1.0000   1.0000   1.0000   1.0000   1.0000   1.0000   1.0000   1.0000
     1.0000   1.0000   1.0000   1.0000   1.0000   1.0000   1.0000   1.0000
     1.0000   1.0000   1.0000   1.0000   1.0000   1.0000   1.0000   1.0000
     1.0000   1.0000   1.0000   1.0000   1.0000   1.0000   1.0000   1.0000
     1.0000   1.0000   1.0000   1.0000   1.0000   1.0000   1.0000   1.0000
     1.0000   1.0000   1.0000   1.0000   1.0000   1.0000   1.0000   1.0000
     1.0000   1.0000   1.0000   1.0000   1.0000   1.0000   1.0000   1.0000
     1.0000   1.0000   1.0000   1.0000   1.0000   1.0000   1.0000   1.0000
     1.0000   1.0000   1.0000   1.0000   1.0000   1.0000   1.0000   1.0000
     1.0000   1.0000   1.0000   1.0000   1.0000   1.0000   1.0000   1.0000
     1.0000   1.0000   1.0000   1.0000   1.0000   1.0000   1.0000   1.0000
     1.0000   1.0000   1.0000   1.0000   1.0000   1.0000   1.0000   1.0000
     1.0000   1.0000   1.0000   1.0000   1.0000   1.0000   1.0000   1.0000
     1.0000   1.0000   1.0000   1.0000   1.0000   1.0000   1.0000   1.0000
     1.0000   1.0000   1.0000   1.0000   1.0000   1.0000   1.0000   1.0000
     1.0000   1.0000   1.0000   1.0000   1.0000   1.0000   1.0000   1.0000
     1.0000   1.0000   1.0000   1.0000   1.0000   1.0000   1.0000   1.0000
     1.0000   1.0000   1.0000   1.0000   1.0000   1.0000   1.0000   1.0000
     1.0000   1.0000   1.0000   1.0000   1.0000   0.9999   0.9999   0.9999
     0.9997   0.9997   0.9996   0.9995   0.9994   0.9993   0.9992   0.9991
     0.9987   0.9984   0.9980   0.9979   0.9921   0.9920   0.9912   0.9907
     0.9856   0.9848   0.9842   0.9834   0.9816   0.9808   0.9778   0.9758
     0.9738   0.9682   0.9669   0.9607   0.9580   0.9498   0.9307   0.9085
     0.8898   0.8857   0.8627   0.8508   0.8427   0.8159   0.8120   0.8089
     0.7969   0.7821   0.7572   0.7445   0.7228   0.7074   0.6858   0.6842
     0.6840   0.6774   0.6694   0.6633   0.6553   0.6509   0.6402   0.6363
     0.6269   0.6154   0.6123   0.5374   0.5320   0.1342   0.1179   0.1015
     0.0671   0.0148   0.0112   0.0055   0.0051   0.0006   0.0006   0.0004
     0.0003   0.0000   0.0000   0.0000   0.0000   0.0000   0.0000   0.0000
     0.0000   0.0000   0.0000   0.0000   0.0000   0.0000   0.0000   0.0000
     0.0000   0.0000   0.0000   0.0000   0.0000   0.0000   0.0000   0.0000

          k =-0.2500 0.2500 0.0000 ( 65198 PWs)   bands (ev):

   -92.7253 -92.6712 -92.5791 -92.5313 -92.4733 -92.4317 -92.4143 -92.2927
   -56.0788 -56.0578 -55.9365 -55.9260 -55.9184 -55.9128 -55.8757 -55.8483
   -55.8329 -55.8312 -55.8220 -55.7811 -55.7629 -55.7243 -55.7055 -55.6733
   -55.6663 -55.6200 -55.6188 -55.6169 -55.6085 -55.5673 -55.5447 -55.4593
   -31.2999 -31.2834 -31.1856 -31.1401 -31.0615 -31.0531 -30.9297 -30.5370
   -29.8725 -29.8300 -29.8041 -29.6956 -15.0414 -14.9976 -14.9274 -14.8098
   -14.6996 -14.5722 -14.4872 -14.2823 -14.1410 -14.1109 -14.0982 -14.0511
   -14.0258 -14.0068 -13.9919 -13.9575 -13.8621 -13.8512 -13.6968 -13.6721
   -13.6431 -13.6214 -13.5817 -13.5214 -13.4709 -13.4594 -13.3438 -13.3118
   -13.2473 -13.1716 -13.1348 -13.1086 -13.0644 -13.0377 -13.0170 -12.9895
   -12.9685 -12.9506 -12.9453 -12.8891 -12.8633 -12.7969 -12.7931 -12.7156
   -12.6514 -12.4912 -12.4795 -12.4654 -12.4203 -12.3063 -12.1018 -12.0332
   -11.8234 -11.8023 -11.7743 -11.7627 -11.7216 -11.6864 -11.6638 -11.6426
   -11.6200 -11.5340 -11.4894 -11.4801  -2.6912  -2.4825  -2.3619  -2.2736
    -2.1548  -2.0883  -1.8864  -1.7400  -1.7218  -1.6933  -1.6011  -1.5651
    -1.4718  -1.4385  -1.4116  -1.2690  -1.2135  -1.1454  -1.1160  -1.0572
    -1.0358  -0.9957  -0.9668  -0.9265  -0.8638  -0.8162  -0.7539  -0.6848
    -0.6588  -0.6066  -0.5785  -0.5332  -0.4769  -0.4337  -0.3903  -0.2916
    -0.2575  -0.2469  -0.2028  -0.1365  -0.0625  -0.0201   0.0085   0.0809
     0.1119   0.3651   0.5318   0.5746   0.6124   0.6722   0.7280   0.7807
     0.8456   0.8719   1.1547   1.2657   1.3046   1.3379   1.3433   1.3875
     1.4037   1.4483   1.4785   1.4936   1.5195   1.5631   1.5789   1.6213
     1.6380   1.6831   1.7716   1.7903   1.8061   1.8469   1.8719   1.9124
     1.9661   2.0713   2.1776   2.2075   2.2547   2.2748   2.3404   2.3832
     2.4084   2.4324   2.4547   2.5550   2.5909   2.6809   2.7873   2.8582
     2.8683   2.8818   2.8913   2.9017   2.9174   2.9215   2.9392   2.9500
     2.9633   2.9738   2.9860   2.9952   3.0032   3.0338   3.0444   3.0538
     3.0877   3.3801   3.4630   3.5235   3.6086   3.6281   3.8165   3.9380
     4.2772   4.4904   4.6931   4.9611   5.1584   5.6237   5.6646   5.7249
     5.8097   5.8717   5.9844   6.1561   6.1950   6.7697   6.8837   7.0524
     7.1911   7.5491   7.5927   7.6523   7.8563   7.8720   7.9142   8.1294
     8.1495   8.2048   8.2895   8.3264   8.4291   8.4689   8.6005   8.7967

     occupation numbers 
     1.0000   1.0000   1.0000   1.0000   1.0000   1.0000   1.0000   1.0000
     1.0000   1.0000   1.0000   1.0000   1.0000   1.0000   1.0000   1.0000
     1.0000   1.0000   1.0000   1.0000   1.0000   1.0000   1.0000   1.0000
     1.0000   1.0000   1.0000   1.0000   1.0000   1.0000   1.0000   1.0000
     1.0000   1.0000   1.0000   1.0000   1.0000   1.0000   1.0000   1.0000
     1.0000   1.0000   1.0000   1.0000   1.0000   1.0000   1.0000   1.0000
     1.0000   1.0000   1.0000   1.0000   1.0000   1.0000   1.0000   1.0000
     1.0000   1.0000   1.0000   1.0000   1.0000   1.0000   1.0000   1.0000
     1.0000   1.0000   1.0000   1.0000   1.0000   1.0000   1.0000   1.0000
     1.0000   1.0000   1.0000   1.0000   1.0000   1.0000   1.0000   1.0000
     1.0000   1.0000   1.0000   1.0000   1.0000   1.0000   1.0000   1.0000
     1.0000   1.0000   1.0000   1.0000   1.0000   1.0000   1.0000   1.0000
     1.0000   1.0000   1.0000   1.0000   1.0000   1.0000   1.0000   1.0000
     1.0000   1.0000   1.0000   1.0000   1.0000   1.0000   1.0000   1.0000
     1.0000   1.0000   1.0000   1.0000   1.0000   1.0000   1.0000   1.0000
     1.0000   1.0000   1.0000   1.0000   1.0000   1.0000   1.0000   1.0000
     1.0000   1.0000   1.0000   1.0000   1.0000   1.0000   1.0000   1.0000
     1.0000   1.0000   1.0000   1.0000   1.0000   1.0000   1.0000   1.0000
     1.0000   1.0000   1.0000   1.0000   1.0000   1.0000   1.0000   1.0000
     1.0000   1.0000   1.0000   1.0000   1.0000   1.0000   0.9999   0.9999
     0.9999   0.9998   0.9993   0.9988   0.9985   0.9982   0.9982   0.9978
     0.9976   0.9970   0.9966   0.9964   0.9959   0.9951   0.9948   0.9937
     0.9933   0.9919   0.9885   0.9876   0.9869   0.9847   0.9832   0.9805
     0.9764   0.9662   0.9526   0.9480   0.9401   0.9365   0.9234   0.9139
     0.9078   0.9018   0.8960   0.8665   0.8546   0.8220   0.7778   0.7452
     0.7404   0.7339   0.7292   0.7241   0.7163   0.7142   0.7052   0.6996
     0.6927   0.6872   0.6808   0.6759   0.6716   0.6550   0.6492   0.6440
     0.6251   0.4541   0.4058   0.3713   0.3247   0.3143   0.2226   0.1726
     0.0739   0.0389   0.0195   0.0069   0.0029   0.0003   0.0002   0.0002
     0.0001   0.0001   0.0000   0.0000   0.0000   0.0000   0.0000   0.0000
     0.0000   0.0000   0.0000   0.0000   0.0000   0.0000   0.0000   0.0000
     0.0000   0.0000   0.0000   0.0000   0.0000   0.0000   0.0000   0.0000

          k =-0.5000 0.2500 0.0000 ( 65138 PWs)   bands (ev):

   -92.7253 -92.6712 -92.5791 -92.5313 -92.4733 -92.4317 -92.4143 -92.2927
   -56.0788 -56.0578 -55.9365 -55.9260 -55.9184 -55.9128 -55.8757 -55.8483
   -55.8329 -55.8312 -55.8219 -55.7811 -55.7629 -55.7243 -55.7055 -55.6733
   -55.6663 -55.6200 -55.6188 -55.6169 -55.6085 -55.5673 -55.5447 -55.4593
   -31.2978 -31.2855 -31.1855 -31.1397 -31.0614 -31.0534 -30.9299 -30.5371
   -29.8715 -29.8310 -29.8037 -29.6960 -15.0056 -14.9592 -14.8811 -14.7860
   -14.7421 -14.6165 -14.5262 -14.4034 -14.0913 -14.0610 -14.0492 -14.0018
   -13.9839 -13.9555 -13.9218 -13.9197 -13.8916 -13.8575 -13.8437 -13.7376
   -13.6617 -13.6144 -13.6117 -13.5992 -13.5148 -13.4926 -13.3821 -13.3431
   -13.2237 -13.1897 -13.1164 -13.0881 -13.0507 -13.0396 -13.0212 -12.9932
   -12.9735 -12.9631 -12.9508 -12.8957 -12.8507 -12.7332 -12.7118 -12.6462
   -12.6388 -12.5625 -12.4908 -12.4107 -12.3459 -12.3244 -12.1286 -12.0983
   -11.7964 -11.7832 -11.7694 -11.7578 -11.7355 -11.7057 -11.6255 -11.6159
   -11.5940 -11.5561 -11.5288 -11.5201  -2.4640  -2.4223  -2.2732  -2.2315
    -2.0707  -1.9956  -1.8513  -1.7171  -1.6603  -1.6334  -1.5939  -1.5552
    -1.4746  -1.3597  -1.3023  -1.2795  -1.2543  -1.1756  -1.1492  -1.1104
    -1.0929  -1.0319  -1.0030  -0.9644  -0.9289  -0.9000  -0.8422  -0.8157
    -0.7741  -0.7395  -0.6354  -0.6073  -0.5209  -0.4584  -0.4252  -0.3714
    -0.2844  -0.2512  -0.1511  -0.1120  -0.0551  -0.0039   0.0172   0.0945
     0.1220   0.1547   0.2073   0.2455   0.5537   0.6157   0.6866   0.7055
     0.9907   1.0463   1.1200   1.1472   1.3245   1.3614   1.3985   1.4110
     1.4287   1.4466   1.5171   1.5585   1.6007   1.6268   1.7517   1.7858
     1.8180   1.8290   1.8705   1.8932   1.9067   1.9212   1.9424   1.9639
     2.0107   2.0269   2.0608   2.0839   2.1149   2.1744   2.2945   2.3952
     2.4224   2.4909   2.5289   2.5825   2.6258   2.6324   2.6705   2.7049
     2.7268   2.7784   2.8319   2.8541   2.8721   2.8780   2.8952   2.9169
     2.9307   2.9468   2.9574   2.9774   2.9901   3.0010   3.0083   3.0193
     3.0313   3.5582   3.6117   3.7501   3.7725   4.0536   4.1191   4.1722
     4.3892   4.7619   4.8572   5.0154   5.0540   5.3796   5.4092   5.5755
     5.6073   5.7270   5.7553   6.0889   6.3805   6.4829   6.6490   6.9734
     7.4764   7.5196   7.6983   7.7783   7.8686   7.9413   8.0060   8.0788
     8.2936   8.4136   8.4546   8.5236   8.5509   8.6376   8.6815   8.7479

     occupation numbers 
     1.0000   1.0000   1.0000   1.0000   1.0000   1.0000   1.0000   1.0000
     1.0000   1.0000   1.0000   1.0000   1.0000   1.0000   1.0000   1.0000
     1.0000   1.0000   1.0000   1.0000   1.0000   1.0000   1.0000   1.0000
     1.0000   1.0000   1.0000   1.0000   1.0000   1.0000   1.0000   1.0000
     1.0000   1.0000   1.0000   1.0000   1.0000   1.0000   1.0000   1.0000
     1.0000   1.0000   1.0000   1.0000   1.0000   1.0000   1.0000   1.0000
     1.0000   1.0000   1.0000   1.0000   1.0000   1.0000   1.0000   1.0000
     1.0000   1.0000   1.0000   1.0000   1.0000   1.0000   1.0000   1.0000
     1.0000   1.0000   1.0000   1.0000   1.0000   1.0000   1.0000   1.0000
     1.0000   1.0000   1.0000   1.0000   1.0000   1.0000   1.0000   1.0000
     1.0000   1.0000   1.0000   1.0000   1.0000   1.0000   1.0000   1.0000
     1.0000   1.0000   1.0000   1.0000   1.0000   1.0000   1.0000   1.0000
     1.0000   1.0000   1.0000   1.0000   1.0000   1.0000   1.0000   1.0000
     1.0000   1.0000   1.0000   1.0000   1.0000   1.0000   1.0000   1.0000
     1.0000   1.0000   1.0000   1.0000   1.0000   1.0000   1.0000   1.0000
     1.0000   1.0000   1.0000   1.0000   1.0000   1.0000   1.0000   1.0000
     1.0000   1.0000   1.0000   1.0000   1.0000   1.0000   1.0000   1.0000
     1.0000   1.0000   1.0000   1.0000   1.0000   1.0000   1.0000   1.0000
     1.0000   1.0000   1.0000   1.0000   1.0000   1.0000   1.0000   1.0000
     1.0000   1.0000   1.0000   1.0000   1.0000   1.0000   0.9999   0.9999
     0.9997   0.9996   0.9994   0.9993   0.9983   0.9980   0.9977   0.9975
     0.9973   0.9971   0.9960   0.9952   0.9942   0.9936   0.9894   0.9878
     0.9862   0.9857   0.9833   0.9818   0.9809   0.9799   0.9783   0.9766
     0.9725   0.9709   0.9674   0.9648   0.9611   0.9530   0.9328   0.9110
     0.9044   0.8859   0.8747   0.8575   0.8425   0.8401   0.8260   0.8125
     0.8037   0.7817   0.7576   0.7472   0.7386   0.7357   0.7273   0.7165
     0.7095   0.7013   0.6958   0.6853   0.6786   0.6728   0.6689   0.6629
     0.6564   0.3520   0.3231   0.2531   0.2426   0.1323   0.1126   0.0983
     0.0533   0.0151   0.0105   0.0055   0.0046   0.0010   0.0009   0.0004
     0.0003   0.0002   0.0001   0.0000   0.0000   0.0000   0.0000   0.0000
     0.0000   0.0000   0.0000   0.0000   0.0000   0.0000   0.0000   0.0000
     0.0000   0.0000   0.0000   0.0000   0.0000   0.0000   0.0000   0.0000

     the Fermi energy is     3.3024 ev

!    total energy              =   -4399.91948432 Ry
     estimated scf accuracy    <          9.2E-09 Ry
     smearing contrib. (-TS)   =      -1.14677908 Ry
     internal energy E=F+TS    =   -4398.77270524 Ry

     The total energy is F=E-TS. E is the sum of the following terms:
     one-electron contribution =  -21252.82150072 Ry
     hartree contribution      =   10754.19296643 Ry
     xc contribution           =    -686.73249934 Ry
     ewald contribution        =    7053.23351188 Ry
     one-center paw contrib.   =    -266.64518348 Ry
      -> PAW hartree energy AE =      25.16499407 Ry
      -> PAW hartree energy PS =     -25.04887943 Ry
      -> PAW xc energy AE      =     -16.51776452 Ry
      -> PAW xc energy PS      =       6.87725066 Ry
      -> total E_H with PAW    =   10754.30908107 Ry
      -> total E_XC with PAW   =    -696.37301319 Ry

     convergence has been achieved in  54 iterations

     Writing all to output data dir /bsuhome/zayahcortright/scratch/pwscf.save/
 
     init_run     :      7.66s CPU      8.03s WALL (       1 calls)
     electrons    :    765.49s CPU    778.99s WALL (       1 calls)

     Called by init_run:
     wfcinit      :      5.97s CPU      6.11s WALL (       1 calls)
     wfcinit:atom :      0.07s CPU      0.08s WALL (       5 calls)
     wfcinit:wfcr :      5.61s CPU      5.70s WALL (       5 calls)
     potinit      :      0.16s CPU      0.19s WALL (       1 calls)
     hinit0       :      0.64s CPU      0.77s WALL (       1 calls)

     Called by electrons:
     c_bands      :    603.23s CPU    608.40s WALL (      54 calls)
     sum_band     :    121.26s CPU    126.03s WALL (      54 calls)
     v_of_rho     :      5.87s CPU      6.19s WALL (      55 calls)
     v_h          :      0.49s CPU      0.50s WALL (      55 calls)
     v_xc         :      5.38s CPU      5.69s WALL (      55 calls)
     newd         :     18.43s CPU     21.17s WALL (      55 calls)
     PAW_pot      :      1.72s CPU      1.75s WALL (      55 calls)
     mix_rho      :     14.59s CPU     14.90s WALL (      54 calls)

     Called by c_bands:
     init_us_2    :      7.46s CPU      7.53s WALL (     545 calls)
     init_us_2:cp :      7.46s CPU      7.52s WALL (     545 calls)
     cegterg      :    570.77s CPU    575.73s WALL (     270 calls)

     Called by sum_band:
     sum_band:wei :      0.39s CPU      0.39s WALL (      54 calls)
     sum_band:loo :     99.74s CPU    100.46s WALL (      54 calls)
     sum_band:buf :      1.71s CPU      1.73s WALL (     270 calls)
     sum_band:ini :      3.46s CPU      3.47s WALL (     270 calls)
     sum_band:cal :     20.41s CPU     20.47s WALL (     270 calls)
     sum_band:bec :      0.62s CPU      0.63s WALL (     270 calls)
     addusdens    :     20.13s CPU     24.14s WALL (      54 calls)
                                        0.00s GPU  (      54 calls)
     addusd:skk   :      0.37s CPU      0.74s WALL (     216 calls)
                                        0.00s GPU  (     216 calls)

     Called by *egterg:
     cdiaghg      :     59.67s CPU     59.89s WALL (    1394 calls)
     cegterg:over :     41.23s CPU     41.35s WALL (    1124 calls)
     cegterg:upda :     30.13s CPU     30.48s WALL (    1124 calls)
     cegterg:last :     61.97s CPU     62.15s WALL (     485 calls)
     cdiaghg:chol :      3.31s CPU      3.33s WALL (    1394 calls)
     cdiaghg:inve :      3.42s CPU      3.43s WALL (    1394 calls)
     cdiaghg:para :      7.45s CPU      7.49s WALL (    2788 calls)
     h_psi        :    318.55s CPU    321.46s WALL (    1399 calls)
     s_psi        :     41.49s CPU     41.61s WALL (    1399 calls)
     g_psi        :      1.27s CPU      1.27s WALL (    1124 calls)

     Called by h_psi:
     h_psi:calbec :     46.64s CPU     46.78s WALL (    1399 calls)
     vloc_psi     :    226.80s CPU    229.00s WALL (    1399 calls)
     add_vuspsi   :     41.58s CPU     41.71s WALL (    1399 calls)

     General routines
     calbec       :     67.04s CPU     67.24s WALL (    1669 calls)
     fft          :      3.94s CPU      4.00s WALL (     713 calls)
     ffts         :      5.26s CPU      5.30s WALL (    5854 calls)
     fftw         :    193.15s CPU    194.62s WALL (  360332 calls)
     interpolate  :      0.45s CPU      0.46s WALL (      55 calls)
 
     Parallel routines

     PAW routines
     PAW_pot      :      1.72s CPU      1.75s WALL (      55 calls)
 
     PWSCF        :  12m54.86s CPU  13m11.87s WALL

 
   This run was terminated on:  15:36:53  21Jun2024            

=------------------------------------------------------------------------------=
   JOB DONE.
=------------------------------------------------------------------------------=
