
     Program PWSCF v.7.2 starts on 21Jun2024 at 20:26:30 

     This program is part of the open-source Quantum ESPRESSO suite
     for quantum simulation of materials; please cite
         "P. Giannozzi et al., J. Phys.:Condens. Matter 21 395502 (2009);
         "P. Giannozzi et al., J. Phys.:Condens. Matter 29 465901 (2017);
         "P. Giannozzi et al., J. Chem. Phys. 152 154105 (2020);
          URL http://www.quantum-espresso.org", 
     in publications or presentations arising from this work. More details at
     http://www.quantum-espresso.org/quote

     Parallel version (MPI & OpenMP), running on      48 processor cores
     Number of MPI processes:                48
     Threads/MPI process:                     1

     MPI processes distributed on     1 nodes
     180159 MiB available memory on the printing compute node when the environment starts
 
     Reading input from espresso.pwi
Warning: card &CELL ignored
Warning: card / ignored
Warning: card &FCP ignored
Warning: card / ignored
Warning: card &RISM ignored
Warning: card / ignored

     Current dimensions of program PWSCF are:
     Max number of different atomic species (ntypx) = 10
     Max number of k-points (npk) =  40000
     Max angular momentum in pseudopotentials (lmaxx) =  4
     file O.pbe-n-kjpaw_psl.0.1.UPF: wavefunction(s)  2P renormalized
     signal trapping enabled: kill the code with -SIGUSR1 to stop cleanly the simulation 
 
     K-points division:     npool     =       2
     R & G space division:  proc/nbgrp/npool/nimage =      24
     Subspace diagonalization in iterative solution of the eigenvalue problem:
     one sub-group per band group will be used
     scalapack distributed-memory algorithm (size of sub-group:  3*  3 procs)

 
     Parallelization info
     --------------------
     sticks:   dense  smooth     PW     G-vecs:    dense   smooth      PW
     Min         350     175     47                61430    21716    3036
     Max         351     177     48                61449    21727    3041
     Sum        8421    4205   1137              1474595   521381   72913
 
     Using Slab Decomposition
 


     bravais-lattice index     =            0
     lattice parameter (alat)  =      14.8599  a.u.
     unit-cell volume          =    8305.1283 (a.u.)^3
     number of atoms/cell      =           49
     number of atomic types    =            4
     number of electrons       =       425.00
     number of Kohn-Sham states=          256
     kinetic-energy cutoff     =      60.0000  Ry
     charge density cutoff     =     480.0000  Ry
     scf convergence threshold =      1.0E-08
     mixing beta               =       0.1500
     number of iterations used =            8  local-TF  mixing
     Exchange-correlation= PBE
                           (   1   4   3   4   0   0   0)

     celldm(1)=  14.859904  celldm(2)=   0.000000  celldm(3)=   0.000000
     celldm(4)=   0.000000  celldm(5)=   0.000000  celldm(6)=   0.000000

     crystal axes: (cart. coord. in units of alat)
               a(1) = (   1.000000   0.000000   0.000000 )  
               a(2) = (   0.000000   1.000000   0.000000 )  
               a(3) = (   0.000000   0.000000   2.531036 )  

     reciprocal axes: (cart. coord. in units 2 pi/alat)
               b(1) = (  1.000000  0.000000  0.000000 )  
               b(2) = (  0.000000  1.000000  0.000000 )  
               b(3) = (  0.000000  0.000000  0.395095 )  


     PseudoPot. # 1 for Sr read from file:
     /bsuhome/zayahcortright/q-e/pseudo/Sr_pbe_v1.uspp.F.UPF
     MD5 check sum: 6b418c05fbe9db5448babca5e47b7a5b
     Pseudo is Ultrasoft + core correction, Zval = 10.0
     Generated by new atomic code, or converted to UPF format
     Using radial grid of  883 points,  6 beta functions with: 
                l(1) =   0
                l(2) =   0
                l(3) =   1
                l(4) =   1
                l(5) =   2
                l(6) =   2
     Q(r) pseudized with  6 coefficients,  rinner =    1.400   1.400   1.400
                                                       1.400   1.400

     PseudoPot. # 2 for O  read from file:
     /bsuhome/zayahcortright/q-e/pseudo/O.pbe-n-kjpaw_psl.0.1.UPF
     MD5 check sum: 0234752ac141de4415c5fc33072bef88
     Pseudo is Projector augmented-wave + core cor, Zval =  6.0
     Generated using "atomic" code by A. Dal Corso  v.5.0.99 svn rev. 10869
     Shape of augmentation charge: BESSEL
     Using radial grid of 1095 points,  4 beta functions with: 
                l(1) =   0
                l(2) =   0
                l(3) =   1
                l(4) =   1
     Q(r) pseudized with 0 coefficients 


     PseudoPot. # 3 for Co read from file:
     /bsuhome/zayahcortright/q-e/pseudo/Co_pbe_v1.2.uspp.F.UPF
     MD5 check sum: 5f91765df6ddd3222702df6e7b74a16d
     Pseudo is Ultrasoft + core correction, Zval = 17.0
     Generated by new atomic code, or converted to UPF format
     Using radial grid of  863 points,  6 beta functions with: 
                l(1) =   0
                l(2) =   0
                l(3) =   1
                l(4) =   1
                l(5) =   2
                l(6) =   2
     Q(r) pseudized with  8 coefficients,  rinner =    1.200   1.200   1.200
                                                       1.200   1.200

     PseudoPot. # 4 for H  read from file:
     /bsuhome/zayahcortright/q-e/pseudo/H.pbe-rrkjus_psl.1.0.0.UPF
     MD5 check sum: f52b6d4d1c606e5624b1dc7b2218f220
     Pseudo is Ultrasoft, Zval =  1.0
     Generated using "atomic" code by A. Dal Corso  v.5.1
     Using radial grid of  929 points,  2 beta functions with: 
                l(1) =   0
                l(2) =   0
     Q(r) pseudized with 0 coefficients 


     atomic species   valence    mass     pseudopotential
        Sr            10.00    87.62000     Sr( 1.00)
        O              6.00    15.99900     O ( 1.00)
        Co            17.00    58.93319     Co( 1.00)
        H              1.00     1.00800     H ( 1.00)

     No symmetry found


                                    s                        frac. trans.

      isym =  1     identity                                     

 cryst.   s( 1) = (     1          0          0      )
                  (     0          1          0      )
                  (     0          0          1      )

 cart.    s( 1) = (  1.0000000  0.0000000  0.0000000 )
                  (  0.0000000  1.0000000  0.0000000 )
                  (  0.0000000  0.0000000  1.0000000 )


   Cartesian axes

     site n.     atom                  positions (alat units)
         1           Sr  tau(   1) = (   0.2508693   0.7491307   1.7574407  )
         2           O   tau(   2) = (   0.4985141   0.5014859   1.7715967  )
         3           Sr  tau(   3) = (   0.7482398   0.7454518   1.7648669  )
         4           Sr  tau(   4) = (   0.7441748   0.2558252   1.7667843  )
         5           Sr  tau(   5) = (   0.2508693   0.7491307   1.2696799  )
         6           Sr  tau(   6) = (   0.2508693   0.7491307   0.7632319  )
         7           Co  tau(   7) = (   0.4998914   0.5001086   1.0164559  )
         8           Co  tau(   8) = (   0.4936915   0.5063085   1.5135603  )
         9           O   tau(   9) = (   0.4988895   0.7610401   1.0164559  )
        10           O   tau(  10) = (   0.2389599   0.5011105   1.0164559  )
        11           O   tau(  11) = (   0.0070918   0.7374880   1.0164559  )
        12           O   tau(  12) = (   0.0088340   0.7405089   1.5135603  )
        13           O   tau(  13) = (   0.5066944   0.7415376   1.5135603  )
        14           O   tau(  14) = (   0.2584624   0.4933056   1.5135603  )
        15           O   tau(  15) = (   0.4985141   0.5014859   0.7773880  )
        16           O   tau(  16) = (   0.4985141   0.5014859   1.2555238  )
        17           Sr  tau(  17) = (   0.7482398   0.7454518   0.7706582  )
        18           Sr  tau(  18) = (   0.7482398   0.7454518   1.2622536  )
        19           Sr  tau(  19) = (   0.7441748   0.2558252   0.7725755  )
        20           Sr  tau(  20) = (   0.7441748   0.2558252   1.2603363  )
        21           O   tau(  21) = (   0.7322655   0.0078049   1.5135603  )
        22           O   tau(  22) = (   0.7558175   0.4996027   1.5135603  )
        23           O   tau(  23) = (   0.5003973   0.2441825   1.5135603  )
        24           O   tau(  24) = (   0.7527966   0.4978604   1.0164559  )
        25           O   tau(  25) = (   0.5021396   0.2472034   1.0164559  )
        26           O   tau(  26) = (   0.7517679   0.0000000   1.0164559  )
        27           O   tau(  27) = (   0.0114961   0.4948124   1.7455321  )
        28           O   tau(  28) = (   0.0048226   0.0077944   1.7715967  )
        29           Sr  tau(  29) = (   0.2545482   0.2517602   1.7648669  )
        30           O   tau(  30) = (   0.5048017   0.0015068   1.7786929  )
        31           Co  tau(  31) = (   0.0056869   0.5006215   1.0164559  )
        32           Co  tau(  32) = (   0.0065315   0.4997770   1.5135603  )
        33           Co  tau(  33) = (   0.0061999   0.0064171   1.0164559  )
        34           Co  tau(  34) = (   0.0000000   0.0126169   1.5135603  )
        35           O   tau(  35) = (   0.0114961   0.4948124   1.2815885  )
        36           O   tau(  36) = (   0.0114961   0.4948124   0.7513233  )
        37           O   tau(  37) = (   0.0051979   0.2673486   1.0164559  )
        38           O   tau(  38) = (   0.0130029   0.2478461   1.5135603  )
        39           O   tau(  39) = (   0.0048226   0.0077944   0.7773880  )
        40           O   tau(  40) = (   0.0048226   0.0077944   1.2555238  )
        41           Sr  tau(  41) = (   0.2545482   0.2517602   0.7706582  )
        42           Sr  tau(  42) = (   0.2545482   0.2517602   1.2622536  )
        43           Co  tau(  43) = (   0.4989925   0.0073160   1.5135603  )
        44           Co  tau(  44) = (   0.4998370   0.0064714   1.0164559  )
        45           O   tau(  45) = (   0.5048017   0.0015068   0.7844841  )
        46           O   tau(  46) = (   0.5048017   0.0015068   1.2484277  )
        47           O   tau(  47) = (   0.2621260   0.0059111   1.5135603  )
        48           O   tau(  48) = (   0.2591051   0.0041689   1.0164559  )
        49           H   tau(  49) = (   0.7108228   0.2843291   2.1602013  )

   Crystallographic axes

     site n.     atom                  positions (cryst. coord.)
         1           Sr  tau(   1) = (  0.2508693  0.7491307  0.6943562  )
         2           O   tau(   2) = (  0.4985141  0.5014859  0.6999492  )
         3           Sr  tau(   3) = (  0.7482398  0.7454518  0.6972903  )
         4           Sr  tau(   4) = (  0.7441748  0.2558252  0.6980478  )
         5           Sr  tau(   5) = (  0.2508693  0.7491307  0.5016443  )
         6           Sr  tau(   6) = (  0.2508693  0.7491307  0.3015492  )
         7           Co  tau(   7) = (  0.4998914  0.5001086  0.4015968  )
         8           Co  tau(   8) = (  0.4936915  0.5063085  0.5980003  )
         9           O   tau(   9) = (  0.4988895  0.7610401  0.4015968  )
        10           O   tau(  10) = (  0.2389599  0.5011105  0.4015968  )
        11           O   tau(  11) = (  0.0070918  0.7374880  0.4015968  )
        12           O   tau(  12) = (  0.0088340  0.7405089  0.5980003  )
        13           O   tau(  13) = (  0.5066944  0.7415376  0.5980003  )
        14           O   tau(  14) = (  0.2584624  0.4933056  0.5980003  )
        15           O   tau(  15) = (  0.4985141  0.5014859  0.3071422  )
        16           O   tau(  16) = (  0.4985141  0.5014859  0.4960513  )
        17           Sr  tau(  17) = (  0.7482398  0.7454518  0.3044833  )
        18           Sr  tau(  18) = (  0.7482398  0.7454518  0.4987103  )
        19           Sr  tau(  19) = (  0.7441748  0.2558252  0.3052408  )
        20           Sr  tau(  20) = (  0.7441748  0.2558252  0.4979527  )
        21           O   tau(  21) = (  0.7322655  0.0078049  0.5980003  )
        22           O   tau(  22) = (  0.7558175  0.4996027  0.5980003  )
        23           O   tau(  23) = (  0.5003973  0.2441825  0.5980003  )
        24           O   tau(  24) = (  0.7527966  0.4978604  0.4015968  )
        25           O   tau(  25) = (  0.5021396  0.2472034  0.4015968  )
        26           O   tau(  26) = (  0.7517679  0.0000000  0.4015968  )
        27           O   tau(  27) = (  0.0114961  0.4948124  0.6896512  )
        28           O   tau(  28) = (  0.0048226  0.0077944  0.6999492  )
        29           Sr  tau(  29) = (  0.2545482  0.2517602  0.6972903  )
        30           O   tau(  30) = (  0.5048017  0.0015068  0.7027529  )
        31           Co  tau(  31) = (  0.0056869  0.5006215  0.4015968  )
        32           Co  tau(  32) = (  0.0065315  0.4997770  0.5980003  )
        33           Co  tau(  33) = (  0.0061999  0.0064171  0.4015968  )
        34           Co  tau(  34) = (  0.0000000  0.0126169  0.5980003  )
        35           O   tau(  35) = (  0.0114961  0.4948124  0.5063494  )
        36           O   tau(  36) = (  0.0114961  0.4948124  0.2968442  )
        37           O   tau(  37) = (  0.0051979  0.2673486  0.4015968  )
        38           O   tau(  38) = (  0.0130029  0.2478461  0.5980003  )
        39           O   tau(  39) = (  0.0048226  0.0077944  0.3071422  )
        40           O   tau(  40) = (  0.0048226  0.0077944  0.4960513  )
        41           Sr  tau(  41) = (  0.2545482  0.2517602  0.3044833  )
        42           Sr  tau(  42) = (  0.2545482  0.2517602  0.4987103  )
        43           Co  tau(  43) = (  0.4989925  0.0073160  0.5980003  )
        44           Co  tau(  44) = (  0.4998370  0.0064714  0.4015968  )
        45           O   tau(  45) = (  0.5048017  0.0015068  0.3099459  )
        46           O   tau(  46) = (  0.5048017  0.0015068  0.4932477  )
        47           O   tau(  47) = (  0.2621260  0.0059111  0.5980003  )
        48           O   tau(  48) = (  0.2591051  0.0041689  0.4015968  )
        49           H   tau(  49) = (  0.7108228  0.2843291  0.8534850  )

     number of k points=    10  Gaussian smearing, width (Ry)=  0.0700
                       cart. coord. in units 2pi/alat
        k(    1) = (   0.0000000   0.0000000   0.0000000), wk =   0.1250000
        k(    2) = (   0.0000000   0.2500000   0.0000000), wk =   0.2500000
        k(    3) = (   0.0000000  -0.5000000   0.0000000), wk =   0.1250000
        k(    4) = (   0.2500000   0.2500000   0.0000000), wk =   0.2500000
        k(    5) = (   0.2500000  -0.5000000   0.0000000), wk =   0.2500000
        k(    6) = (  -0.5000000  -0.5000000   0.0000000), wk =   0.1250000
        k(    7) = (   0.2500000   0.0000000   0.0000000), wk =   0.2500000
        k(    8) = (  -0.5000000   0.0000000   0.0000000), wk =   0.1250000
        k(    9) = (  -0.2500000   0.2500000   0.0000000), wk =   0.2500000
        k(   10) = (  -0.5000000   0.2500000   0.0000000), wk =   0.2500000

                       cryst. coord.
        k(    1) = (   0.0000000   0.0000000   0.0000000), wk =   0.1250000
        k(    2) = (   0.0000000   0.2500000   0.0000000), wk =   0.2500000
        k(    3) = (   0.0000000  -0.5000000   0.0000000), wk =   0.1250000
        k(    4) = (   0.2500000   0.2500000   0.0000000), wk =   0.2500000
        k(    5) = (   0.2500000  -0.5000000   0.0000000), wk =   0.2500000
        k(    6) = (  -0.5000000  -0.5000000   0.0000000), wk =   0.1250000
        k(    7) = (   0.2500000   0.0000000   0.0000000), wk =   0.2500000
        k(    8) = (  -0.5000000   0.0000000   0.0000000), wk =   0.1250000
        k(    9) = (  -0.2500000   0.2500000   0.0000000), wk =   0.2500000
        k(   10) = (  -0.5000000   0.2500000   0.0000000), wk =   0.2500000

     Dense  grid:  1474595 G-vectors     FFT dimensions: ( 108, 108, 270)

     Smooth grid:   521381 G-vectors     FFT dimensions: (  75,  75, 192)

     Dynamical RAM for                 wfc:      10.61 MB

     Dynamical RAM for     wfc (w. buffer):      63.63 MB

     Dynamical RAM for           str. fact:       3.75 MB

     Dynamical RAM for           local pot:       0.00 MB

     Dynamical RAM for          nlocal pot:      24.28 MB

     Dynamical RAM for                qrad:       7.03 MB

     Dynamical RAM for          rho,v,vnew:       6.02 MB

     Dynamical RAM for               rhoin:       2.01 MB

     Dynamical RAM for            rho*nmix:      15.00 MB

     Dynamical RAM for           G-vectors:       3.68 MB

     Dynamical RAM for          h,s,v(r/c):       1.32 MB

     Dynamical RAM for          <psi|beta>:       2.29 MB

     Dynamical RAM for                 psi:      21.21 MB

     Dynamical RAM for                hpsi:      21.21 MB

     Dynamical RAM for                spsi:      21.21 MB

     Dynamical RAM for      wfcinit/wfcrot:      34.09 MB

     Dynamical RAM for           addusdens:     100.79 MB

     Estimated static dynamical RAM per process >     120.42 MB

     Estimated max dynamical RAM per process >     236.21 MB

     Estimated total dynamical RAM >      10.72 GB

     Check: negative core charge=   -0.000004

     Initial potential from superposition of free atoms

     starting charge     416.5961, renormalised to     425.0000

     negative rho (up, down):  7.826E-01 0.000E+00
     Starting wfcs are  373 randomized atomic wfcs
     Checking if some PAW data can be deallocated... 
       PAW data deallocated on   20 nodes for type:  2

     total cpu time spent up to now is        8.7 secs

     Self-consistent Calculation

     iteration #  1     ecut=    60.00 Ry     beta= 0.15
     Davidson diagonalization with overlap

---- Real-time Memory Report at c_bands before calling an iterative solver
             0 MiB given to the printing process from OS
             0 MiB allocation reported by mallinfo(arena+hblkhd)
        170478 MiB available memory on the node where the printing process lives
------------------
     ethr =  1.00E-02,  avg # of iterations =  2.0

     negative rho (up, down):  7.719E-01 0.000E+00

     total cpu time spent up to now is       23.0 secs

     total energy              =   -4404.76346792 Ry
     estimated scf accuracy    <      42.21185910 Ry

     iteration #  2     ecut=    60.00 Ry     beta= 0.15
     Davidson diagonalization with overlap

---- Real-time Memory Report at c_bands before calling an iterative solver
             0 MiB given to the printing process from OS
             0 MiB allocation reported by mallinfo(arena+hblkhd)
        170718 MiB available memory on the node where the printing process lives
------------------
     ethr =  9.93E-03,  avg # of iterations =  1.0

     negative rho (up, down):  7.533E-01 0.000E+00

     total cpu time spent up to now is       35.1 secs

     total energy              =   -4400.02378121 Ry
     estimated scf accuracy    <      26.72893537 Ry

     iteration #  3     ecut=    60.00 Ry     beta= 0.15
     Davidson diagonalization with overlap

---- Real-time Memory Report at c_bands before calling an iterative solver
             0 MiB given to the printing process from OS
             0 MiB allocation reported by mallinfo(arena+hblkhd)
        169964 MiB available memory on the node where the printing process lives
------------------
     ethr =  6.29E-03,  avg # of iterations =  2.0

     negative rho (up, down):  7.545E-01 0.000E+00

     total cpu time spent up to now is       48.7 secs

     total energy              =   -4402.37543327 Ry
     estimated scf accuracy    <      49.14435548 Ry

     iteration #  4     ecut=    60.00 Ry     beta= 0.15
     Davidson diagonalization with overlap

---- Real-time Memory Report at c_bands before calling an iterative solver
             0 MiB given to the printing process from OS
             0 MiB allocation reported by mallinfo(arena+hblkhd)
        169838 MiB available memory on the node where the printing process lives
------------------
     ethr =  6.29E-03,  avg # of iterations =  1.0

     negative rho (up, down):  7.411E-01 0.000E+00

     total cpu time spent up to now is       60.7 secs

     total energy              =   -4401.62817096 Ry
     estimated scf accuracy    <      29.15545588 Ry

     iteration #  5     ecut=    60.00 Ry     beta= 0.15
     Davidson diagonalization with overlap

---- Real-time Memory Report at c_bands before calling an iterative solver
             0 MiB given to the printing process from OS
             0 MiB allocation reported by mallinfo(arena+hblkhd)
        169818 MiB available memory on the node where the printing process lives
------------------
     ethr =  6.29E-03,  avg # of iterations =  1.0

     negative rho (up, down):  7.475E-01 0.000E+00

     total cpu time spent up to now is       72.8 secs

     total energy              =   -4399.66222896 Ry
     estimated scf accuracy    <      43.83755095 Ry

     iteration #  6     ecut=    60.00 Ry     beta= 0.15
     Davidson diagonalization with overlap

---- Real-time Memory Report at c_bands before calling an iterative solver
             0 MiB given to the printing process from OS
             0 MiB allocation reported by mallinfo(arena+hblkhd)
        169795 MiB available memory on the node where the printing process lives
------------------
     ethr =  6.29E-03,  avg # of iterations =  1.0

     negative rho (up, down):  7.423E-01 0.000E+00

     total cpu time spent up to now is       84.7 secs

     total energy              =   -4400.65470686 Ry
     estimated scf accuracy    <      12.69619694 Ry

     iteration #  7     ecut=    60.00 Ry     beta= 0.15
     Davidson diagonalization with overlap

---- Real-time Memory Report at c_bands before calling an iterative solver
             0 MiB given to the printing process from OS
             0 MiB allocation reported by mallinfo(arena+hblkhd)
        169776 MiB available memory on the node where the printing process lives
------------------
     ethr =  2.99E-03,  avg # of iterations =  1.1

     negative rho (up, down):  7.444E-01 0.000E+00

     total cpu time spent up to now is       97.2 secs

     total energy              =   -4400.83701233 Ry
     estimated scf accuracy    <       3.89738028 Ry

     iteration #  8     ecut=    60.00 Ry     beta= 0.15
     Davidson diagonalization with overlap

---- Real-time Memory Report at c_bands before calling an iterative solver
             0 MiB given to the printing process from OS
             0 MiB allocation reported by mallinfo(arena+hblkhd)
        169754 MiB available memory on the node where the printing process lives
------------------
     ethr =  9.17E-04,  avg # of iterations =  1.8

     negative rho (up, down):  7.536E-01 0.000E+00

     total cpu time spent up to now is      109.9 secs

     total energy              =   -4400.27300033 Ry
     estimated scf accuracy    <       3.05537643 Ry

     iteration #  9     ecut=    60.00 Ry     beta= 0.15
     Davidson diagonalization with overlap

---- Real-time Memory Report at c_bands before calling an iterative solver
             0 MiB given to the printing process from OS
             0 MiB allocation reported by mallinfo(arena+hblkhd)
        169730 MiB available memory on the node where the printing process lives
------------------
     ethr =  7.19E-04,  avg # of iterations =  6.5

     negative rho (up, down):  7.747E-01 0.000E+00

     total cpu time spent up to now is      126.4 secs

     total energy              =   -4399.66827318 Ry
     estimated scf accuracy    <      42.64970049 Ry

     iteration # 10     ecut=    60.00 Ry     beta= 0.15
     Davidson diagonalization with overlap

---- Real-time Memory Report at c_bands before calling an iterative solver
             0 MiB given to the printing process from OS
             0 MiB allocation reported by mallinfo(arena+hblkhd)
        169549 MiB available memory on the node where the printing process lives
------------------
     ethr =  7.19E-04,  avg # of iterations =  9.2

     negative rho (up, down):  7.765E-01 0.000E+00

     total cpu time spent up to now is      144.2 secs

     total energy              =   -4399.94831443 Ry
     estimated scf accuracy    <      11.62700298 Ry

     iteration # 11     ecut=    60.00 Ry     beta= 0.15
     Davidson diagonalization with overlap

---- Real-time Memory Report at c_bands before calling an iterative solver
             0 MiB given to the printing process from OS
             0 MiB allocation reported by mallinfo(arena+hblkhd)
        169201 MiB available memory on the node where the printing process lives
------------------
     ethr =  7.19E-04,  avg # of iterations =  1.2

     negative rho (up, down):  7.804E-01 0.000E+00

     total cpu time spent up to now is      156.4 secs

     total energy              =   -4400.12338263 Ry
     estimated scf accuracy    <       2.09802005 Ry

     iteration # 12     ecut=    60.00 Ry     beta= 0.15
     Davidson diagonalization with overlap

---- Real-time Memory Report at c_bands before calling an iterative solver
             0 MiB given to the printing process from OS
             0 MiB allocation reported by mallinfo(arena+hblkhd)
        169193 MiB available memory on the node where the printing process lives
------------------
     ethr =  4.94E-04,  avg # of iterations =  2.7

     negative rho (up, down):  7.864E-01 0.000E+00

     total cpu time spent up to now is      169.7 secs

     total energy              =   -4400.12042484 Ry
     estimated scf accuracy    <       0.77446773 Ry

     iteration # 13     ecut=    60.00 Ry     beta= 0.15
     Davidson diagonalization with overlap

---- Real-time Memory Report at c_bands before calling an iterative solver
             0 MiB given to the printing process from OS
             0 MiB allocation reported by mallinfo(arena+hblkhd)
        169219 MiB available memory on the node where the printing process lives
------------------
     ethr =  1.82E-04,  avg # of iterations =  5.1

     negative rho (up, down):  7.981E-01 0.000E+00

     total cpu time spent up to now is      184.7 secs

     total energy              =   -4400.11892393 Ry
     estimated scf accuracy    <       1.10288023 Ry

     iteration # 14     ecut=    60.00 Ry     beta= 0.15
     Davidson diagonalization with overlap

---- Real-time Memory Report at c_bands before calling an iterative solver
             0 MiB given to the printing process from OS
             0 MiB allocation reported by mallinfo(arena+hblkhd)
        169185 MiB available memory on the node where the printing process lives
------------------
     ethr =  1.82E-04,  avg # of iterations =  2.2

     negative rho (up, down):  8.030E-01 0.000E+00

     total cpu time spent up to now is      197.9 secs

     total energy              =   -4400.02493076 Ry
     estimated scf accuracy    <       1.96211798 Ry

     iteration # 15     ecut=    60.00 Ry     beta= 0.15
     Davidson diagonalization with overlap

---- Real-time Memory Report at c_bands before calling an iterative solver
             0 MiB given to the printing process from OS
             0 MiB allocation reported by mallinfo(arena+hblkhd)
        169184 MiB available memory on the node where the printing process lives
------------------
     ethr =  1.82E-04,  avg # of iterations =  2.9

     negative rho (up, down):  8.077E-01 0.000E+00

     total cpu time spent up to now is      212.3 secs

     total energy              =   -4400.05898865 Ry
     estimated scf accuracy    <       0.43983390 Ry

     iteration # 16     ecut=    60.00 Ry     beta= 0.15
     Davidson diagonalization with overlap

---- Real-time Memory Report at c_bands before calling an iterative solver
             0 MiB given to the printing process from OS
             0 MiB allocation reported by mallinfo(arena+hblkhd)
        169179 MiB available memory on the node where the printing process lives
------------------
     c_bands:  1 eigenvalues not converged
     ethr =  1.03E-04,  avg # of iterations =  9.8

     negative rho (up, down):  8.104E-01 0.000E+00

     total cpu time spent up to now is      229.2 secs

     total energy              =   -4400.04513171 Ry
     estimated scf accuracy    <       0.31980249 Ry

     iteration # 17     ecut=    60.00 Ry     beta= 0.15
     Davidson diagonalization with overlap

---- Real-time Memory Report at c_bands before calling an iterative solver
             0 MiB given to the printing process from OS
             0 MiB allocation reported by mallinfo(arena+hblkhd)
        169163 MiB available memory on the node where the printing process lives
------------------
     ethr =  7.52E-05,  avg # of iterations =  3.9

     negative rho (up, down):  8.159E-01 0.000E+00

     total cpu time spent up to now is      243.3 secs

     total energy              =   -4399.97270533 Ry
     estimated scf accuracy    <       0.28148210 Ry

     iteration # 18     ecut=    60.00 Ry     beta= 0.15
     Davidson diagonalization with overlap

---- Real-time Memory Report at c_bands before calling an iterative solver
             0 MiB given to the printing process from OS
             0 MiB allocation reported by mallinfo(arena+hblkhd)
        169158 MiB available memory on the node where the printing process lives
------------------
     ethr =  6.62E-05,  avg # of iterations = 12.5

     negative rho (up, down):  8.283E-01 0.000E+00

     total cpu time spent up to now is      261.7 secs

     total energy              =   -4399.94070425 Ry
     estimated scf accuracy    <       0.79313813 Ry

     iteration # 19     ecut=    60.00 Ry     beta= 0.15
     Davidson diagonalization with overlap

---- Real-time Memory Report at c_bands before calling an iterative solver
             0 MiB given to the printing process from OS
             0 MiB allocation reported by mallinfo(arena+hblkhd)
        169142 MiB available memory on the node where the printing process lives
------------------
     ethr =  6.62E-05,  avg # of iterations =  4.5

     negative rho (up, down):  8.296E-01 0.000E+00

     total cpu time spent up to now is      276.1 secs

     total energy              =   -4399.95544640 Ry
     estimated scf accuracy    <       0.11637139 Ry

     iteration # 20     ecut=    60.00 Ry     beta= 0.15
     Davidson diagonalization with overlap

---- Real-time Memory Report at c_bands before calling an iterative solver
             0 MiB given to the printing process from OS
             0 MiB allocation reported by mallinfo(arena+hblkhd)
        169076 MiB available memory on the node where the printing process lives
------------------
     c_bands:  1 eigenvalues not converged
     ethr =  2.74E-05,  avg # of iterations =  7.6

     negative rho (up, down):  8.261E-01 0.000E+00

     total cpu time spent up to now is      292.4 secs

     total energy              =   -4399.94940458 Ry
     estimated scf accuracy    <       0.08868778 Ry

     iteration # 21     ecut=    60.00 Ry     beta= 0.15
     Davidson diagonalization with overlap

---- Real-time Memory Report at c_bands before calling an iterative solver
             0 MiB given to the printing process from OS
             0 MiB allocation reported by mallinfo(arena+hblkhd)
        169058 MiB available memory on the node where the printing process lives
------------------
     ethr =  2.09E-05,  avg # of iterations =  5.0

     negative rho (up, down):  8.126E-01 0.000E+00

     total cpu time spent up to now is      307.4 secs

     total energy              =   -4399.92995606 Ry
     estimated scf accuracy    <       0.07413446 Ry

     iteration # 22     ecut=    60.00 Ry     beta= 0.15
     Davidson diagonalization with overlap

---- Real-time Memory Report at c_bands before calling an iterative solver
             0 MiB given to the printing process from OS
             0 MiB allocation reported by mallinfo(arena+hblkhd)
        169148 MiB available memory on the node where the printing process lives
------------------
     ethr =  1.74E-05,  avg # of iterations = 11.9

     negative rho (up, down):  8.180E-01 0.000E+00

     total cpu time spent up to now is      326.2 secs

     total energy              =   -4399.93034555 Ry
     estimated scf accuracy    <       0.02697072 Ry

     iteration # 23     ecut=    60.00 Ry     beta= 0.15
     Davidson diagonalization with overlap

---- Real-time Memory Report at c_bands before calling an iterative solver
             0 MiB given to the printing process from OS
             0 MiB allocation reported by mallinfo(arena+hblkhd)
        168991 MiB available memory on the node where the printing process lives
------------------
     ethr =  6.35E-06,  avg # of iterations =  9.6

     negative rho (up, down):  8.135E-01 0.000E+00

     total cpu time spent up to now is      343.4 secs

     total energy              =   -4399.92981255 Ry
     estimated scf accuracy    <       0.01990899 Ry

     iteration # 24     ecut=    60.00 Ry     beta= 0.15
     Davidson diagonalization with overlap

---- Real-time Memory Report at c_bands before calling an iterative solver
             0 MiB given to the printing process from OS
             0 MiB allocation reported by mallinfo(arena+hblkhd)
        168972 MiB available memory on the node where the printing process lives
------------------
     ethr =  4.68E-06,  avg # of iterations =  2.0

     negative rho (up, down):  7.956E-01 0.000E+00

     total cpu time spent up to now is      356.8 secs

     total energy              =   -4399.92844264 Ry
     estimated scf accuracy    <       0.01356893 Ry

     iteration # 25     ecut=    60.00 Ry     beta= 0.15
     Davidson diagonalization with overlap

---- Real-time Memory Report at c_bands before calling an iterative solver
             0 MiB given to the printing process from OS
             0 MiB allocation reported by mallinfo(arena+hblkhd)
        168993 MiB available memory on the node where the printing process lives
------------------
     ethr =  3.19E-06,  avg # of iterations =  3.7

     negative rho (up, down):  7.919E-01 0.000E+00

     total cpu time spent up to now is      371.0 secs

     total energy              =   -4399.92811437 Ry
     estimated scf accuracy    <       0.00930077 Ry

     iteration # 26     ecut=    60.00 Ry     beta= 0.15
     Davidson diagonalization with overlap

---- Real-time Memory Report at c_bands before calling an iterative solver
             0 MiB given to the printing process from OS
             0 MiB allocation reported by mallinfo(arena+hblkhd)
        169015 MiB available memory on the node where the printing process lives
------------------
     ethr =  2.19E-06,  avg # of iterations =  4.8

     negative rho (up, down):  7.884E-01 0.000E+00

     total cpu time spent up to now is      386.1 secs

     total energy              =   -4399.92730719 Ry
     estimated scf accuracy    <       0.00650474 Ry

     iteration # 27     ecut=    60.00 Ry     beta= 0.15
     Davidson diagonalization with overlap

---- Real-time Memory Report at c_bands before calling an iterative solver
             0 MiB given to the printing process from OS
             0 MiB allocation reported by mallinfo(arena+hblkhd)
        169003 MiB available memory on the node where the printing process lives
------------------
     ethr =  1.53E-06,  avg # of iterations =  9.0

     negative rho (up, down):  7.936E-01 0.000E+00

     total cpu time spent up to now is      404.2 secs

     total energy              =   -4399.92747287 Ry
     estimated scf accuracy    <       0.00297968 Ry

     iteration # 28     ecut=    60.00 Ry     beta= 0.15
     Davidson diagonalization with overlap

---- Real-time Memory Report at c_bands before calling an iterative solver
             0 MiB given to the printing process from OS
             0 MiB allocation reported by mallinfo(arena+hblkhd)
        168987 MiB available memory on the node where the printing process lives
------------------
     c_bands:  1 eigenvalues not converged
     ethr =  7.01E-07,  avg # of iterations =  8.5

     negative rho (up, down):  7.953E-01 0.000E+00

     total cpu time spent up to now is      421.2 secs

     total energy              =   -4399.92767117 Ry
     estimated scf accuracy    <       0.00151713 Ry

     iteration # 29     ecut=    60.00 Ry     beta= 0.15
     Davidson diagonalization with overlap

---- Real-time Memory Report at c_bands before calling an iterative solver
             0 MiB given to the printing process from OS
             0 MiB allocation reported by mallinfo(arena+hblkhd)
        168944 MiB available memory on the node where the printing process lives
------------------
     ethr =  3.57E-07,  avg # of iterations =  4.7

     negative rho (up, down):  7.949E-01 0.000E+00

     total cpu time spent up to now is      436.1 secs

     total energy              =   -4399.92766805 Ry
     estimated scf accuracy    <       0.00120885 Ry

     iteration # 30     ecut=    60.00 Ry     beta= 0.15
     Davidson diagonalization with overlap

---- Real-time Memory Report at c_bands before calling an iterative solver
             0 MiB given to the printing process from OS
             0 MiB allocation reported by mallinfo(arena+hblkhd)
        169016 MiB available memory on the node where the printing process lives
------------------
     ethr =  2.84E-07,  avg # of iterations =  2.0

     negative rho (up, down):  7.912E-01 0.000E+00

     total cpu time spent up to now is      450.2 secs

     total energy              =   -4399.92743310 Ry
     estimated scf accuracy    <       0.00099587 Ry

     iteration # 31     ecut=    60.00 Ry     beta= 0.15
     Davidson diagonalization with overlap

---- Real-time Memory Report at c_bands before calling an iterative solver
             0 MiB given to the printing process from OS
             0 MiB allocation reported by mallinfo(arena+hblkhd)
        169024 MiB available memory on the node where the printing process lives
------------------
     ethr =  2.34E-07,  avg # of iterations =  8.7

     negative rho (up, down):  7.925E-01 0.000E+00

     total cpu time spent up to now is      466.9 secs

     total energy              =   -4399.92739845 Ry
     estimated scf accuracy    <       0.00044020 Ry

     iteration # 32     ecut=    60.00 Ry     beta= 0.15
     Davidson diagonalization with overlap

---- Real-time Memory Report at c_bands before calling an iterative solver
             0 MiB given to the printing process from OS
             0 MiB allocation reported by mallinfo(arena+hblkhd)
        169075 MiB available memory on the node where the printing process lives
------------------
     ethr =  1.04E-07,  avg # of iterations =  5.8

     negative rho (up, down):  7.920E-01 0.000E+00

     total cpu time spent up to now is      484.7 secs

     total energy              =   -4399.92740835 Ry
     estimated scf accuracy    <       0.00011622 Ry

     iteration # 33     ecut=    60.00 Ry     beta= 0.15
     Davidson diagonalization with overlap

---- Real-time Memory Report at c_bands before calling an iterative solver
             0 MiB given to the printing process from OS
             0 MiB allocation reported by mallinfo(arena+hblkhd)
        168997 MiB available memory on the node where the printing process lives
------------------
     ethr =  2.73E-08,  avg # of iterations =  5.7

     negative rho (up, down):  7.918E-01 0.000E+00

     total cpu time spent up to now is      500.5 secs

     total energy              =   -4399.92741398 Ry
     estimated scf accuracy    <       0.00002674 Ry

     iteration # 34     ecut=    60.00 Ry     beta= 0.15
     Davidson diagonalization with overlap

---- Real-time Memory Report at c_bands before calling an iterative solver
             0 MiB given to the printing process from OS
             0 MiB allocation reported by mallinfo(arena+hblkhd)
        168973 MiB available memory on the node where the printing process lives
------------------
     ethr =  6.29E-09,  avg # of iterations =  2.5

     negative rho (up, down):  7.918E-01 0.000E+00

     total cpu time spent up to now is      514.5 secs

     total energy              =   -4399.92741463 Ry
     estimated scf accuracy    <       0.00002180 Ry

     iteration # 35     ecut=    60.00 Ry     beta= 0.15
     Davidson diagonalization with overlap

---- Real-time Memory Report at c_bands before calling an iterative solver
             0 MiB given to the printing process from OS
             0 MiB allocation reported by mallinfo(arena+hblkhd)
        168989 MiB available memory on the node where the printing process lives
------------------
     ethr =  5.13E-09,  avg # of iterations =  2.0

     negative rho (up, down):  7.920E-01 0.000E+00

     total cpu time spent up to now is      528.0 secs

     total energy              =   -4399.92742188 Ry
     estimated scf accuracy    <       0.00001618 Ry

     iteration # 36     ecut=    60.00 Ry     beta= 0.15
     Davidson diagonalization with overlap

---- Real-time Memory Report at c_bands before calling an iterative solver
             0 MiB given to the printing process from OS
             0 MiB allocation reported by mallinfo(arena+hblkhd)
        168984 MiB available memory on the node where the printing process lives
------------------
     ethr =  3.81E-09,  avg # of iterations =  2.2

     negative rho (up, down):  7.922E-01 0.000E+00

     total cpu time spent up to now is      541.6 secs

     total energy              =   -4399.92743200 Ry
     estimated scf accuracy    <       0.00001146 Ry

     iteration # 37     ecut=    60.00 Ry     beta= 0.15
     Davidson diagonalization with overlap

---- Real-time Memory Report at c_bands before calling an iterative solver
             0 MiB given to the printing process from OS
             0 MiB allocation reported by mallinfo(arena+hblkhd)
        168979 MiB available memory on the node where the printing process lives
------------------
     ethr =  2.70E-09,  avg # of iterations =  3.6

     negative rho (up, down):  7.924E-01 0.000E+00

     total cpu time spent up to now is      555.8 secs

     total energy              =   -4399.92743473 Ry
     estimated scf accuracy    <       0.00000599 Ry

     iteration # 38     ecut=    60.00 Ry     beta= 0.15
     Davidson diagonalization with overlap

---- Real-time Memory Report at c_bands before calling an iterative solver
             0 MiB given to the printing process from OS
             0 MiB allocation reported by mallinfo(arena+hblkhd)
        168988 MiB available memory on the node where the printing process lives
------------------
     ethr =  1.41E-09,  avg # of iterations =  3.9

     negative rho (up, down):  7.925E-01 0.000E+00

     total cpu time spent up to now is      570.7 secs

     total energy              =   -4399.92743426 Ry
     estimated scf accuracy    <       0.00000382 Ry

     iteration # 39     ecut=    60.00 Ry     beta= 0.15
     Davidson diagonalization with overlap

---- Real-time Memory Report at c_bands before calling an iterative solver
             0 MiB given to the printing process from OS
             0 MiB allocation reported by mallinfo(arena+hblkhd)
        169000 MiB available memory on the node where the printing process lives
------------------
     ethr =  8.98E-10,  avg # of iterations =  2.9

     negative rho (up, down):  7.925E-01 0.000E+00

     total cpu time spent up to now is      585.1 secs

     total energy              =   -4399.92743426 Ry
     estimated scf accuracy    <       0.00000250 Ry

     iteration # 40     ecut=    60.00 Ry     beta= 0.15
     Davidson diagonalization with overlap

---- Real-time Memory Report at c_bands before calling an iterative solver
             0 MiB given to the printing process from OS
             0 MiB allocation reported by mallinfo(arena+hblkhd)
        169012 MiB available memory on the node where the printing process lives
------------------
     ethr =  5.89E-10,  avg # of iterations =  2.0

     negative rho (up, down):  7.927E-01 0.000E+00

     total cpu time spent up to now is      599.1 secs

     total energy              =   -4399.92743410 Ry
     estimated scf accuracy    <       0.00000172 Ry

     iteration # 41     ecut=    60.00 Ry     beta= 0.15
     Davidson diagonalization with overlap

---- Real-time Memory Report at c_bands before calling an iterative solver
             0 MiB given to the printing process from OS
             0 MiB allocation reported by mallinfo(arena+hblkhd)
        169022 MiB available memory on the node where the printing process lives
------------------
     ethr =  4.05E-10,  avg # of iterations =  2.0

     negative rho (up, down):  7.926E-01 0.000E+00

     total cpu time spent up to now is      612.5 secs

     total energy              =   -4399.92743441 Ry
     estimated scf accuracy    <       0.00000048 Ry

     iteration # 42     ecut=    60.00 Ry     beta= 0.15
     Davidson diagonalization with overlap

---- Real-time Memory Report at c_bands before calling an iterative solver
             0 MiB given to the printing process from OS
             0 MiB allocation reported by mallinfo(arena+hblkhd)
        169028 MiB available memory on the node where the printing process lives
------------------
     ethr =  1.13E-10,  avg # of iterations =  2.9

     negative rho (up, down):  7.925E-01 0.000E+00

     total cpu time spent up to now is      626.7 secs

     total energy              =   -4399.92743451 Ry
     estimated scf accuracy    <       0.00000016 Ry

     iteration # 43     ecut=    60.00 Ry     beta= 0.15
     Davidson diagonalization with overlap

---- Real-time Memory Report at c_bands before calling an iterative solver
             0 MiB given to the printing process from OS
             0 MiB allocation reported by mallinfo(arena+hblkhd)
        169026 MiB available memory on the node where the printing process lives
------------------
     ethr =  3.71E-11,  avg # of iterations =  2.2

     negative rho (up, down):  7.925E-01 0.000E+00

     total cpu time spent up to now is      640.3 secs

     total energy              =   -4399.92743462 Ry
     estimated scf accuracy    <       0.00000009 Ry

     iteration # 44     ecut=    60.00 Ry     beta= 0.15
     Davidson diagonalization with overlap

---- Real-time Memory Report at c_bands before calling an iterative solver
             0 MiB given to the printing process from OS
             0 MiB allocation reported by mallinfo(arena+hblkhd)
        169034 MiB available memory on the node where the printing process lives
------------------
     ethr =  2.02E-11,  avg # of iterations =  3.7

     negative rho (up, down):  7.925E-01 0.000E+00

     total cpu time spent up to now is      655.0 secs

     total energy              =   -4399.92743468 Ry
     estimated scf accuracy    <       0.00000006 Ry

     iteration # 45     ecut=    60.00 Ry     beta= 0.15
     Davidson diagonalization with overlap

---- Real-time Memory Report at c_bands before calling an iterative solver
             0 MiB given to the printing process from OS
             0 MiB allocation reported by mallinfo(arena+hblkhd)
        169030 MiB available memory on the node where the printing process lives
------------------
     ethr =  1.36E-11,  avg # of iterations =  3.1

     negative rho (up, down):  7.925E-01 0.000E+00

     total cpu time spent up to now is      669.3 secs

     total energy              =   -4399.92743472 Ry
     estimated scf accuracy    <       0.00000003 Ry

     iteration # 46     ecut=    60.00 Ry     beta= 0.15
     Davidson diagonalization with overlap

---- Real-time Memory Report at c_bands before calling an iterative solver
             0 MiB given to the printing process from OS
             0 MiB allocation reported by mallinfo(arena+hblkhd)
        169029 MiB available memory on the node where the printing process lives
------------------
     ethr =  7.99E-12,  avg # of iterations =  3.8

     negative rho (up, down):  7.925E-01 0.000E+00

     total cpu time spent up to now is      683.4 secs

     total energy              =   -4399.92743474 Ry
     estimated scf accuracy    <       0.00000002 Ry

     iteration # 47     ecut=    60.00 Ry     beta= 0.15
     Davidson diagonalization with overlap

---- Real-time Memory Report at c_bands before calling an iterative solver
             0 MiB given to the printing process from OS
             0 MiB allocation reported by mallinfo(arena+hblkhd)
        169029 MiB available memory on the node where the printing process lives
------------------
     ethr =  5.39E-12,  avg # of iterations =  2.2

     negative rho (up, down):  7.925E-01 0.000E+00

     total cpu time spent up to now is      697.2 secs

     total energy              =   -4399.92743476 Ry
     estimated scf accuracy    <       0.00000002 Ry

     iteration # 48     ecut=    60.00 Ry     beta= 0.15
     Davidson diagonalization with overlap

---- Real-time Memory Report at c_bands before calling an iterative solver
             0 MiB given to the printing process from OS
             0 MiB allocation reported by mallinfo(arena+hblkhd)
        169034 MiB available memory on the node where the printing process lives
------------------
     ethr =  4.22E-12,  avg # of iterations =  3.4

     negative rho (up, down):  7.925E-01 0.000E+00

     total cpu time spent up to now is      710.9 secs

     End of self-consistent calculation

          k = 0.0000 0.0000 0.0000 ( 65197 PWs)   bands (ev):

   -92.7479 -92.6957 -92.6019 -92.5557 -92.4963 -92.4547 -92.4368 -92.3152
   -56.1014 -56.0825 -55.9592 -55.9486 -55.9423 -55.9354 -55.8989 -55.8711
   -55.8553 -55.8543 -55.8470 -55.8032 -55.7871 -55.7475 -55.7284 -55.6962
   -55.6910 -55.6425 -55.6418 -55.6398 -55.6313 -55.5899 -55.5672 -55.4813
   -31.3232 -31.3042 -31.1611 -31.1518 -31.0751 -31.0022 -30.8422 -30.6864
   -29.8944 -29.8527 -29.8250 -29.7169 -15.1279 -15.0852 -15.0025 -14.8731
   -14.6790 -14.5579 -14.2644 -14.2484 -14.2173 -14.1690 -14.1250 -14.1111
   -14.1019 -14.0843 -14.0687 -14.0124 -13.9777 -13.8248 -13.6458 -13.6127
   -13.5818 -13.5500 -13.5348 -13.4769 -13.4440 -13.3675 -13.2960 -13.1720
   -13.1558 -13.1524 -13.1279 -13.1204 -13.1014 -13.0536 -13.0400 -13.0342
   -12.9968 -12.9693 -12.9521 -12.9426 -12.9187 -12.9012 -12.8027 -12.7934
   -12.7863 -12.6415 -12.6166 -12.5903 -12.3878 -12.2421 -12.0529 -11.9825
   -11.9080 -11.8342 -11.8227 -11.8004 -11.7828 -11.7189 -11.7011 -11.6674
   -11.6372 -11.5256 -11.4463 -11.4428  -2.9883  -2.7560  -2.5265  -2.3796
    -2.3165  -2.1745  -1.8672  -1.8529  -1.8335  -1.7490  -1.7293  -1.6612
    -1.6453  -1.6036  -1.5607  -1.3780  -1.1543  -1.1235  -0.9775  -0.9629
    -0.9176  -0.8956  -0.8523  -0.8365  -0.7812  -0.7534  -0.6790  -0.6692
    -0.5933  -0.4612  -0.4488  -0.4200  -0.3384  -0.3161  -0.3121  -0.2479
    -0.1751  -0.1238  -0.0787  -0.0507   0.0151   0.0827   0.1340   0.1549
     0.1661   0.4238   0.4410   0.6121   0.6784   0.7448   0.7861   0.8790
     0.8903   0.9065   0.9767   1.0031   1.0379   1.0956   1.2271   1.2841
     1.3055   1.3270   1.3420   1.4045   1.4746   1.5817   1.5957   1.6583
     1.6696   1.7135   1.7299   1.7386   1.7965   1.8510   1.8631   1.8975
     1.9291   1.9809   2.1109   2.1992   2.2392   2.2553   2.4063   2.4203
     2.4655   2.4681   2.5758   2.6117   2.6346   2.6544   2.6705   2.7200
     2.7596   2.8604   2.8939   2.9057   2.9109   2.9785   2.9832   3.0072
     3.0144   3.0230   3.0339   3.0425   3.0555   3.0622   3.0738   3.0822
     3.0903   3.1100   3.1314   3.1363   3.1485   3.1791   3.2896   3.3844
     4.0634   4.3818   4.7252   4.8433   4.9948   5.8608   5.9054   5.9369
     5.9586   6.2679   6.3144   6.4579   6.4666   6.7518   6.9790   7.0703
     7.2203   7.2738   7.5849   7.6117   7.6292   7.6613   7.6978   7.8849
     7.9380   8.0823   8.1323   8.1926   8.2794   8.5903   8.8392   8.8644

     occupation numbers 
     1.0000   1.0000   1.0000   1.0000   1.0000   1.0000   1.0000   1.0000
     1.0000   1.0000   1.0000   1.0000   1.0000   1.0000   1.0000   1.0000
     1.0000   1.0000   1.0000   1.0000   1.0000   1.0000   1.0000   1.0000
     1.0000   1.0000   1.0000   1.0000   1.0000   1.0000   1.0000   1.0000
     1.0000   1.0000   1.0000   1.0000   1.0000   1.0000   1.0000   1.0000
     1.0000   1.0000   1.0000   1.0000   1.0000   1.0000   1.0000   1.0000
     1.0000   1.0000   1.0000   1.0000   1.0000   1.0000   1.0000   1.0000
     1.0000   1.0000   1.0000   1.0000   1.0000   1.0000   1.0000   1.0000
     1.0000   1.0000   1.0000   1.0000   1.0000   1.0000   1.0000   1.0000
     1.0000   1.0000   1.0000   1.0000   1.0000   1.0000   1.0000   1.0000
     1.0000   1.0000   1.0000   1.0000   1.0000   1.0000   1.0000   1.0000
     1.0000   1.0000   1.0000   1.0000   1.0000   1.0000   1.0000   1.0000
     1.0000   1.0000   1.0000   1.0000   1.0000   1.0000   1.0000   1.0000
     1.0000   1.0000   1.0000   1.0000   1.0000   1.0000   1.0000   1.0000
     1.0000   1.0000   1.0000   1.0000   1.0000   1.0000   1.0000   1.0000
     1.0000   1.0000   1.0000   1.0000   1.0000   1.0000   1.0000   1.0000
     1.0000   1.0000   1.0000   1.0000   1.0000   1.0000   1.0000   1.0000
     1.0000   1.0000   1.0000   1.0000   1.0000   1.0000   1.0000   1.0000
     1.0000   1.0000   1.0000   1.0000   1.0000   1.0000   1.0000   1.0000
     1.0000   1.0000   1.0000   1.0000   0.9999   0.9999   0.9999   0.9998
     0.9998   0.9998   0.9997   0.9996   0.9996   0.9994   0.9988   0.9985
     0.9983   0.9981   0.9980   0.9973   0.9963   0.9942   0.9938   0.9920
     0.9916   0.9900   0.9893   0.9890   0.9862   0.9831   0.9823   0.9800
     0.9776   0.9731   0.9587   0.9457   0.9389   0.9359   0.9027   0.8991
     0.8867   0.8860   0.8521   0.8394   0.8310   0.8235   0.8172   0.7971
     0.7801   0.7333   0.7167   0.7108   0.7081   0.6728   0.6702   0.6572
     0.6533   0.6485   0.6425   0.6378   0.6305   0.6268   0.6202   0.6155
     0.6109   0.5995   0.5873   0.5844   0.5773   0.5595   0.4942   0.4384
     0.1223   0.0509   0.0159   0.0101   0.0054   0.0001   0.0000   0.0000
     0.0000   0.0000   0.0000   0.0000   0.0000   0.0000   0.0000   0.0000
     0.0000   0.0000   0.0000   0.0000   0.0000   0.0000   0.0000   0.0000
     0.0000   0.0000   0.0000   0.0000   0.0000   0.0000   0.0000   0.0000

          k = 0.0000 0.2500 0.0000 ( 65257 PWs)   bands (ev):

   -92.7479 -92.6957 -92.6019 -92.5557 -92.4963 -92.4547 -92.4368 -92.3152
   -56.1014 -56.0825 -55.9592 -55.9486 -55.9423 -55.9354 -55.8989 -55.8711
   -55.8553 -55.8543 -55.8470 -55.8032 -55.7871 -55.7475 -55.7284 -55.6962
   -55.6910 -55.6425 -55.6418 -55.6398 -55.6313 -55.5899 -55.5672 -55.4813
   -31.3231 -31.3040 -31.1614 -31.1517 -31.0752 -31.0020 -30.8424 -30.6865
   -29.8938 -29.8524 -29.8257 -29.7173 -15.0913 -15.0591 -14.9774 -14.8437
   -14.7213 -14.5470 -14.4107 -14.2311 -14.1981 -14.1768 -14.1438 -14.0913
   -14.0775 -14.0661 -14.0499 -13.9869 -13.8965 -13.8567 -13.6935 -13.6692
   -13.6242 -13.5871 -13.5422 -13.4976 -13.4444 -13.3886 -13.3529 -13.2758
   -13.2206 -13.1930 -13.1553 -13.1448 -13.1146 -13.0297 -13.0054 -12.9792
   -12.9586 -12.9406 -12.9280 -12.9157 -12.9052 -12.8434 -12.7910 -12.6754
   -12.6489 -12.6157 -12.5923 -12.5536 -12.4491 -12.2933 -12.1059 -12.0445
   -11.8735 -11.8311 -11.8023 -11.7746 -11.7583 -11.7109 -11.6993 -11.6764
   -11.6432 -11.5397 -11.4878 -11.4774  -2.8530  -2.6317  -2.4941  -2.3121
    -2.2685  -2.1047  -1.8855  -1.8009  -1.7879  -1.7301  -1.6270  -1.6114
    -1.5787  -1.5509  -1.5071  -1.3091  -1.1804  -1.1691  -1.0925  -1.0830
    -0.9787  -0.9481  -0.8886  -0.8637  -0.8243  -0.7609  -0.7342  -0.7016
    -0.6692  -0.6522  -0.6200  -0.5460  -0.4958  -0.4291  -0.3154  -0.2972
    -0.2547  -0.1351  -0.0976  -0.0411   0.0116   0.0669   0.0833   0.1141
     0.1734   0.4723   0.5604   0.5939   0.6786   0.7252   0.7453   0.8621
     0.8809   0.9795   1.0031   1.0299   1.1436   1.2373   1.2613   1.2854
     1.3024   1.3276   1.3883   1.4156   1.4448   1.4909   1.5263   1.5573
     1.6428   1.6750   1.7105   1.7622   1.8185   1.8653   1.8849   1.9061
     1.9273   2.0189   2.1507   2.2211   2.2376   2.3133   2.3595   2.4025
     2.4077   2.4699   2.5081   2.5917   2.6288   2.6478   2.7278   2.8182
     2.8457   2.8750   2.8963   2.9121   2.9203   2.9280   2.9372   2.9661
     2.9686   2.9876   2.9924   3.0025   3.0194   3.0297   3.0405   3.0619
     3.0725   3.0771   3.1129   3.1290   3.1884   3.5629   3.5995   3.8321
     4.2518   4.3776   4.6659   4.9981   5.0199   5.6041   5.7525   5.9223
     5.9588   6.0481   6.0702   6.1451   6.5731   6.9058   6.9804   7.0837
     7.2997   7.4462   7.4644   7.5835   7.6120   7.7322   7.7969   8.0190
     8.0633   8.1126   8.1878   8.2953   8.3731   8.5437   8.7098   8.9186

     occupation numbers 
     1.0000   1.0000   1.0000   1.0000   1.0000   1.0000   1.0000   1.0000
     1.0000   1.0000   1.0000   1.0000   1.0000   1.0000   1.0000   1.0000
     1.0000   1.0000   1.0000   1.0000   1.0000   1.0000   1.0000   1.0000
     1.0000   1.0000   1.0000   1.0000   1.0000   1.0000   1.0000   1.0000
     1.0000   1.0000   1.0000   1.0000   1.0000   1.0000   1.0000   1.0000
     1.0000   1.0000   1.0000   1.0000   1.0000   1.0000   1.0000   1.0000
     1.0000   1.0000   1.0000   1.0000   1.0000   1.0000   1.0000   1.0000
     1.0000   1.0000   1.0000   1.0000   1.0000   1.0000   1.0000   1.0000
     1.0000   1.0000   1.0000   1.0000   1.0000   1.0000   1.0000   1.0000
     1.0000   1.0000   1.0000   1.0000   1.0000   1.0000   1.0000   1.0000
     1.0000   1.0000   1.0000   1.0000   1.0000   1.0000   1.0000   1.0000
     1.0000   1.0000   1.0000   1.0000   1.0000   1.0000   1.0000   1.0000
     1.0000   1.0000   1.0000   1.0000   1.0000   1.0000   1.0000   1.0000
     1.0000   1.0000   1.0000   1.0000   1.0000   1.0000   1.0000   1.0000
     1.0000   1.0000   1.0000   1.0000   1.0000   1.0000   1.0000   1.0000
     1.0000   1.0000   1.0000   1.0000   1.0000   1.0000   1.0000   1.0000
     1.0000   1.0000   1.0000   1.0000   1.0000   1.0000   1.0000   1.0000
     1.0000   1.0000   1.0000   1.0000   1.0000   1.0000   1.0000   1.0000
     1.0000   1.0000   1.0000   1.0000   1.0000   1.0000   1.0000   1.0000
     1.0000   1.0000   1.0000   1.0000   0.9999   0.9999   0.9999   0.9998
     0.9998   0.9997   0.9996   0.9996   0.9992   0.9988   0.9986   0.9985
     0.9983   0.9981   0.9975   0.9972   0.9968   0.9961   0.9954   0.9947
     0.9925   0.9914   0.9901   0.9879   0.9850   0.9822   0.9808   0.9793
     0.9777   0.9694   0.9532   0.9421   0.9391   0.9244   0.9141   0.9037
     0.9024   0.8854   0.8741   0.8466   0.8332   0.8260   0.7938   0.7535
     0.7404   0.7261   0.7155   0.7075   0.7033   0.6993   0.6946   0.6794
     0.6780   0.6679   0.6652   0.6598   0.6505   0.6449   0.6389   0.6269
     0.6209   0.6183   0.5979   0.5886   0.5540   0.3371   0.3175   0.2061
     0.0745   0.0516   0.0198   0.0054   0.0049   0.0003   0.0001   0.0000
     0.0000   0.0000   0.0000   0.0000   0.0000   0.0000   0.0000   0.0000
     0.0000   0.0000   0.0000   0.0000   0.0000   0.0000   0.0000   0.0000
     0.0000   0.0000   0.0000   0.0000   0.0000   0.0000   0.0000   0.0000

          k = 0.0000-0.5000 0.0000 ( 65180 PWs)   bands (ev):

   -92.7479 -92.6957 -92.6019 -92.5557 -92.4963 -92.4547 -92.4368 -92.3152
   -56.1014 -56.0825 -55.9592 -55.9486 -55.9423 -55.9354 -55.8989 -55.8711
   -55.8553 -55.8543 -55.8470 -55.8032 -55.7871 -55.7475 -55.7284 -55.6962
   -55.6910 -55.6425 -55.6418 -55.6398 -55.6313 -55.5899 -55.5672 -55.4813
   -31.3229 -31.3039 -31.1616 -31.1517 -31.0754 -31.0018 -30.8426 -30.6866
   -29.8932 -29.8521 -29.8263 -29.7176 -15.0564 -15.0086 -14.9529 -14.8273
   -14.7396 -14.6080 -14.4438 -14.3342 -14.2037 -14.1265 -14.0870 -14.0817
   -14.0333 -14.0176 -13.9635 -13.9467 -13.9214 -13.8908 -13.8559 -13.7941
   -13.6293 -13.5711 -13.5478 -13.5028 -13.4261 -13.4046 -13.3514 -13.3287
   -13.3136 -13.2628 -13.1567 -13.1461 -13.1119 -13.0143 -13.0015 -12.9758
   -12.9737 -12.9350 -12.9259 -12.9052 -12.7877 -12.7512 -12.6976 -12.6520
   -12.6252 -12.5936 -12.5598 -12.5104 -12.3698 -12.3680 -12.1963 -12.1444
   -11.8281 -11.8250 -11.7971 -11.7601 -11.7256 -11.7144 -11.6736 -11.6693
   -11.6255 -11.5609 -11.5481 -11.5343  -2.6381  -2.5793  -2.4286  -2.3567
    -2.0746  -1.9916  -1.8631  -1.7272  -1.6885  -1.6698  -1.5920  -1.5609
    -1.4767  -1.4425  -1.3643  -1.3254  -1.2877  -1.2604  -1.2020  -1.1634
    -1.1187  -1.0820  -1.0477  -1.0161  -0.9040  -0.8604  -0.8246  -0.8206
    -0.7363  -0.7064  -0.6832  -0.6343  -0.5487  -0.4749  -0.3892  -0.3618
    -0.2513  -0.2176  -0.0764  -0.0386  -0.0070   0.0391   0.1638   0.2257
     0.3452   0.4151   0.4232   0.5495   0.6023   0.6972   0.8297   0.9345
     0.9665   1.0080   1.0145   1.0485   1.0674   1.1032   1.1193   1.1344
     1.2414   1.3031   1.3309   1.3524   1.6233   1.6508   1.6748   1.7686
     1.7867   1.8261   1.8405   1.8652   1.8859   1.8935   1.9179   1.9563
     1.9859   2.0124   2.0220   2.0514   2.1048   2.1923   2.2271   2.3972
     2.5540   2.5614   2.5835   2.6149   2.6237   2.6341   2.6835   2.6982
     2.7513   2.7534   2.7737   2.8493   2.8676   2.9344   2.9422   2.9654
     2.9666   2.9835   2.9888   2.9924   2.9976   3.0001   3.0115   3.0307
     3.0400   3.0994   3.1016   3.1183   3.1741   4.0784   4.1045   4.1466
     4.2108   4.6873   4.8640   4.9887   5.1202   5.3814   5.4295   5.5497
     5.6836   5.9746   6.0017   6.0592   6.7862   6.8237   6.9305   7.1901
     7.3104   7.3856   7.4347   7.5233   7.7131   7.8080   7.8689   7.9409
     8.1405   8.2647   8.4411   8.4903   8.6266   8.7648   8.7833   8.8257

     occupation numbers 
     1.0000   1.0000   1.0000   1.0000   1.0000   1.0000   1.0000   1.0000
     1.0000   1.0000   1.0000   1.0000   1.0000   1.0000   1.0000   1.0000
     1.0000   1.0000   1.0000   1.0000   1.0000   1.0000   1.0000   1.0000
     1.0000   1.0000   1.0000   1.0000   1.0000   1.0000   1.0000   1.0000
     1.0000   1.0000   1.0000   1.0000   1.0000   1.0000   1.0000   1.0000
     1.0000   1.0000   1.0000   1.0000   1.0000   1.0000   1.0000   1.0000
     1.0000   1.0000   1.0000   1.0000   1.0000   1.0000   1.0000   1.0000
     1.0000   1.0000   1.0000   1.0000   1.0000   1.0000   1.0000   1.0000
     1.0000   1.0000   1.0000   1.0000   1.0000   1.0000   1.0000   1.0000
     1.0000   1.0000   1.0000   1.0000   1.0000   1.0000   1.0000   1.0000
     1.0000   1.0000   1.0000   1.0000   1.0000   1.0000   1.0000   1.0000
     1.0000   1.0000   1.0000   1.0000   1.0000   1.0000   1.0000   1.0000
     1.0000   1.0000   1.0000   1.0000   1.0000   1.0000   1.0000   1.0000
     1.0000   1.0000   1.0000   1.0000   1.0000   1.0000   1.0000   1.0000
     1.0000   1.0000   1.0000   1.0000   1.0000   1.0000   1.0000   1.0000
     1.0000   1.0000   1.0000   1.0000   1.0000   1.0000   1.0000   1.0000
     1.0000   1.0000   1.0000   1.0000   1.0000   1.0000   1.0000   1.0000
     1.0000   1.0000   1.0000   1.0000   1.0000   1.0000   1.0000   1.0000
     1.0000   1.0000   1.0000   1.0000   1.0000   1.0000   1.0000   1.0000
     1.0000   1.0000   1.0000   1.0000   1.0000   0.9999   0.9999   0.9998
     0.9997   0.9996   0.9996   0.9995   0.9995   0.9994   0.9993   0.9993
     0.9988   0.9983   0.9981   0.9979   0.9930   0.9922   0.9914   0.9876
     0.9867   0.9846   0.9837   0.9822   0.9808   0.9802   0.9784   0.9753
     0.9727   0.9701   0.9691   0.9659   0.9595   0.9468   0.9410   0.9050
     0.8594   0.8570   0.8495   0.8383   0.8351   0.8312   0.8121   0.8061
     0.7837   0.7828   0.7739   0.7387   0.7298   0.6960   0.6919   0.6798
     0.6791   0.6700   0.6672   0.6653   0.6624   0.6611   0.6548   0.6443
     0.6392   0.6056   0.6044   0.5948   0.5624   0.1179   0.1104   0.0990
     0.0834   0.0183   0.0093   0.0056   0.0031   0.0009   0.0007   0.0004
     0.0002   0.0000   0.0000   0.0000   0.0000   0.0000   0.0000   0.0000
     0.0000   0.0000   0.0000   0.0000   0.0000   0.0000   0.0000   0.0000
     0.0000   0.0000   0.0000   0.0000   0.0000   0.0000   0.0000   0.0000

          k = 0.2500 0.2500 0.0000 ( 65198 PWs)   bands (ev):

   -92.7479 -92.6957 -92.6019 -92.5557 -92.4963 -92.4547 -92.4368 -92.3152
   -56.1014 -56.0825 -55.9592 -55.9486 -55.9423 -55.9354 -55.8989 -55.8711
   -55.8553 -55.8543 -55.8470 -55.8032 -55.7871 -55.7475 -55.7284 -55.6962
   -55.6910 -55.6425 -55.6418 -55.6398 -55.6313 -55.5899 -55.5672 -55.4813
   -31.3213 -31.3058 -31.1610 -31.1515 -31.0756 -31.0022 -30.8422 -30.6867
   -29.8928 -29.8534 -29.8253 -29.7177 -15.0626 -15.0248 -14.9492 -14.8333
   -14.7126 -14.5885 -14.5160 -14.3086 -14.1546 -14.1426 -14.1040 -14.0784
   -14.0503 -14.0269 -13.9958 -13.9492 -13.8859 -13.8699 -13.7079 -13.6939
   -13.6641 -13.6459 -13.5952 -13.5558 -13.4736 -13.4659 -13.3477 -13.3069
   -13.2730 -13.1885 -13.1478 -13.1055 -13.0807 -13.0641 -13.0169 -12.9925
   -12.9647 -12.9473 -12.9067 -12.8695 -12.7976 -12.7842 -12.7591 -12.7355
   -12.7006 -12.5947 -12.4976 -12.4964 -12.4426 -12.3224 -12.1478 -12.0818
   -11.8458 -11.8148 -11.8031 -11.7956 -11.7345 -11.6988 -11.6926 -11.6570
   -11.6481 -11.5566 -11.5162 -11.4987  -2.7147  -2.5060  -2.3880  -2.2937
    -2.1729  -2.1082  -1.9103  -1.7656  -1.7465  -1.7170  -1.6220  -1.5889
    -1.4940  -1.4670  -1.4160  -1.2854  -1.2371  -1.1637  -1.1193  -1.0750
    -1.0514  -1.0272  -0.9831  -0.9694  -0.8787  -0.8282  -0.7618  -0.7142
    -0.6834  -0.6336  -0.6195  -0.5571  -0.5076  -0.4492  -0.4171  -0.3303
    -0.2763  -0.2490  -0.2096  -0.1548  -0.0727  -0.0438  -0.0197   0.0586
     0.0900   0.3637   0.5126   0.5462   0.6044   0.6472   0.7025   0.7526
     0.8223   0.8546   1.1273   1.1941   1.2667   1.2932   1.3419   1.3720
     1.4078   1.4459   1.4624   1.4906   1.5370   1.5447   1.5587   1.6020
     1.6406   1.6826   1.7429   1.7818   1.7888   1.8269   1.8561   1.9117
     1.9356   2.0603   2.1300   2.1656   2.1880   2.2535   2.3211   2.3502
     2.3858   2.4134   2.4212   2.5342   2.5712   2.6597   2.7342   2.8305
     2.8476   2.8537   2.8720   2.8852   2.8980   2.9101   2.9159   2.9272
     2.9412   2.9536   2.9709   2.9795   2.9888   3.0107   3.0228   3.0334
     3.0636   3.3643   3.4582   3.5011   3.5696   3.6024   3.8118   3.9073
     4.2600   4.4657   4.6729   4.9334   5.1466   5.6060   5.6587   5.7114
     5.7916   5.8507   6.0481   6.1355   6.1916   6.8158   6.8724   7.0747
     7.2577   7.5190   7.5673   7.6739   7.8291   7.8856   7.9765   8.1146
     8.1894   8.2418   8.2971   8.3572   8.4072   8.4286   8.6063   8.8034

     occupation numbers 
     1.0000   1.0000   1.0000   1.0000   1.0000   1.0000   1.0000   1.0000
     1.0000   1.0000   1.0000   1.0000   1.0000   1.0000   1.0000   1.0000
     1.0000   1.0000   1.0000   1.0000   1.0000   1.0000   1.0000   1.0000
     1.0000   1.0000   1.0000   1.0000   1.0000   1.0000   1.0000   1.0000
     1.0000   1.0000   1.0000   1.0000   1.0000   1.0000   1.0000   1.0000
     1.0000   1.0000   1.0000   1.0000   1.0000   1.0000   1.0000   1.0000
     1.0000   1.0000   1.0000   1.0000   1.0000   1.0000   1.0000   1.0000
     1.0000   1.0000   1.0000   1.0000   1.0000   1.0000   1.0000   1.0000
     1.0000   1.0000   1.0000   1.0000   1.0000   1.0000   1.0000   1.0000
     1.0000   1.0000   1.0000   1.0000   1.0000   1.0000   1.0000   1.0000
     1.0000   1.0000   1.0000   1.0000   1.0000   1.0000   1.0000   1.0000
     1.0000   1.0000   1.0000   1.0000   1.0000   1.0000   1.0000   1.0000
     1.0000   1.0000   1.0000   1.0000   1.0000   1.0000   1.0000   1.0000
     1.0000   1.0000   1.0000   1.0000   1.0000   1.0000   1.0000   1.0000
     1.0000   1.0000   1.0000   1.0000   1.0000   1.0000   1.0000   1.0000
     1.0000   1.0000   1.0000   1.0000   1.0000   1.0000   1.0000   1.0000
     1.0000   1.0000   1.0000   1.0000   1.0000   1.0000   1.0000   1.0000
     1.0000   1.0000   1.0000   1.0000   1.0000   1.0000   1.0000   1.0000
     1.0000   1.0000   1.0000   1.0000   1.0000   1.0000   1.0000   1.0000
     1.0000   1.0000   1.0000   1.0000   1.0000   1.0000   0.9999   0.9999
     0.9999   0.9998   0.9993   0.9990   0.9986   0.9984   0.9980   0.9977
     0.9973   0.9968   0.9965   0.9961   0.9952   0.9950   0.9947   0.9936
     0.9925   0.9912   0.9888   0.9869   0.9866   0.9845   0.9827   0.9789
     0.9770   0.9649   0.9561   0.9510   0.9475   0.9363   0.9227   0.9163
     0.9079   0.9009   0.8988   0.8659   0.8537   0.8214   0.7911   0.7477
     0.7395   0.7366   0.7276   0.7211   0.7147   0.7085   0.7055   0.6997
     0.6925   0.6860   0.6768   0.6722   0.6672   0.6553   0.6487   0.6428
     0.6260   0.4501   0.3956   0.3713   0.3335   0.3160   0.2148   0.1758
     0.0728   0.0391   0.0193   0.0070   0.0028   0.0003   0.0002   0.0002
     0.0001   0.0001   0.0000   0.0000   0.0000   0.0000   0.0000   0.0000
     0.0000   0.0000   0.0000   0.0000   0.0000   0.0000   0.0000   0.0000
     0.0000   0.0000   0.0000   0.0000   0.0000   0.0000   0.0000   0.0000

          k = 0.2500-0.5000 0.0000 ( 65138 PWs)   bands (ev):

   -92.7479 -92.6957 -92.6019 -92.5557 -92.4963 -92.4547 -92.4368 -92.3152
   -56.1014 -56.0825 -55.9592 -55.9486 -55.9423 -55.9354 -55.8989 -55.8711
   -55.8553 -55.8543 -55.8470 -55.8032 -55.7871 -55.7475 -55.7284 -55.6962
   -55.6910 -55.6425 -55.6418 -55.6398 -55.6313 -55.5899 -55.5672 -55.4813
   -31.3211 -31.3056 -31.1612 -31.1515 -31.0757 -31.0020 -30.8424 -30.6868
   -29.8922 -29.8531 -29.8259 -29.7180 -15.0260 -14.9818 -14.9104 -14.7984
   -14.7614 -14.6475 -14.5480 -14.4281 -14.1186 -14.0644 -14.0407 -14.0154
   -14.0026 -13.9885 -13.9471 -13.9342 -13.9051 -13.8662 -13.8453 -13.7844
   -13.7117 -13.6636 -13.6091 -13.5842 -13.5146 -13.4783 -13.3919 -13.3618
   -13.2527 -13.1874 -13.1689 -13.0898 -13.0714 -13.0348 -13.0179 -12.9889
   -12.9581 -12.9444 -12.9257 -12.8861 -12.7955 -12.7016 -12.6998 -12.6882
   -12.6703 -12.5967 -12.5660 -12.4512 -12.3658 -12.3150 -12.1898 -12.1562
   -11.8215 -11.8095 -11.7983 -11.7707 -11.7402 -11.7107 -11.6709 -11.6433
   -11.6214 -11.5743 -11.5490 -11.5386  -2.4962  -2.4310  -2.3024  -2.2254
    -2.0951  -2.0116  -1.8876  -1.7384  -1.6837  -1.6622  -1.6000  -1.5866
    -1.4872  -1.4224  -1.3375  -1.2866  -1.2781  -1.2153  -1.1723  -1.1379
    -1.0899  -1.0531  -1.0178  -0.9785  -0.9637  -0.9216  -0.8926  -0.8500
    -0.8191  -0.7527  -0.6504  -0.6109  -0.5324  -0.4665  -0.4163  -0.3750
    -0.3560  -0.2967  -0.1381  -0.1291  -0.0264   0.0075   0.0172   0.0599
     0.0971   0.1323   0.1635   0.2290   0.5090   0.6002   0.6645   0.7203
     0.9924   1.0111   1.0987   1.1278   1.2919   1.3248   1.3668   1.3916
     1.4043   1.4255   1.4880   1.5364   1.5704   1.6467   1.7476   1.7838
     1.8005   1.8096   1.8487   1.8604   1.8702   1.9129   1.9234   1.9444
     1.9709   1.9914   2.0149   2.0460   2.1048   2.1463   2.2262   2.3621
     2.5082   2.5240   2.5419   2.5694   2.5917   2.6197   2.6447   2.6589
     2.6758   2.7573   2.7801   2.8281   2.8496   2.8565   2.8675   2.8871
     2.9011   2.9218   2.9266   2.9619   2.9711   2.9875   2.9938   3.0031
     3.0137   3.5314   3.5552   3.6958   3.7504   4.0853   4.1391   4.1537
     4.2703   4.7074   4.8846   5.0215   5.0912   5.2594   5.3969   5.5672
     5.6045   5.7241   5.7531   6.1626   6.3677   6.4669   6.6964   7.0371
     7.4933   7.5228   7.6677   7.7752   7.8393   7.9941   8.0193   8.2017
     8.2801   8.4358   8.4605   8.4986   8.5253   8.6340   8.6799   8.7335

     occupation numbers 
     1.0000   1.0000   1.0000   1.0000   1.0000   1.0000   1.0000   1.0000
     1.0000   1.0000   1.0000   1.0000   1.0000   1.0000   1.0000   1.0000
     1.0000   1.0000   1.0000   1.0000   1.0000   1.0000   1.0000   1.0000
     1.0000   1.0000   1.0000   1.0000   1.0000   1.0000   1.0000   1.0000
     1.0000   1.0000   1.0000   1.0000   1.0000   1.0000   1.0000   1.0000
     1.0000   1.0000   1.0000   1.0000   1.0000   1.0000   1.0000   1.0000
     1.0000   1.0000   1.0000   1.0000   1.0000   1.0000   1.0000   1.0000
     1.0000   1.0000   1.0000   1.0000   1.0000   1.0000   1.0000   1.0000
     1.0000   1.0000   1.0000   1.0000   1.0000   1.0000   1.0000   1.0000
     1.0000   1.0000   1.0000   1.0000   1.0000   1.0000   1.0000   1.0000
     1.0000   1.0000   1.0000   1.0000   1.0000   1.0000   1.0000   1.0000
     1.0000   1.0000   1.0000   1.0000   1.0000   1.0000   1.0000   1.0000
     1.0000   1.0000   1.0000   1.0000   1.0000   1.0000   1.0000   1.0000
     1.0000   1.0000   1.0000   1.0000   1.0000   1.0000   1.0000   1.0000
     1.0000   1.0000   1.0000   1.0000   1.0000   1.0000   1.0000   1.0000
     1.0000   1.0000   1.0000   1.0000   1.0000   1.0000   1.0000   1.0000
     1.0000   1.0000   1.0000   1.0000   1.0000   1.0000   1.0000   1.0000
     1.0000   1.0000   1.0000   1.0000   1.0000   1.0000   1.0000   1.0000
     1.0000   1.0000   1.0000   1.0000   1.0000   1.0000   1.0000   1.0000
     1.0000   1.0000   1.0000   1.0000   1.0000   1.0000   0.9999   0.9999
     0.9997   0.9996   0.9994   0.9993   0.9984   0.9982   0.9977   0.9975
     0.9973   0.9971   0.9961   0.9952   0.9944   0.9923   0.9886   0.9868
     0.9860   0.9855   0.9832   0.9825   0.9818   0.9788   0.9780   0.9763
     0.9740   0.9721   0.9698   0.9665   0.9595   0.9538   0.9412   0.9135
     0.8741   0.8692   0.8634   0.8543   0.8466   0.8365   0.8272   0.8218
     0.8151   0.7811   0.7710   0.7488   0.7386   0.7352   0.7298   0.7201
     0.7131   0.7025   0.7001   0.6816   0.6767   0.6679   0.6645   0.6594
     0.6537   0.3544   0.3413   0.2684   0.2424   0.1159   0.1010   0.0972
     0.0707   0.0170   0.0086   0.0049   0.0036   0.0016   0.0008   0.0003
     0.0003   0.0001   0.0001   0.0000   0.0000   0.0000   0.0000   0.0000
     0.0000   0.0000   0.0000   0.0000   0.0000   0.0000   0.0000   0.0000
     0.0000   0.0000   0.0000   0.0000   0.0000   0.0000   0.0000   0.0000

          k =-0.5000-0.5000 0.0000 ( 65132 PWs)   bands (ev):

   -92.7479 -92.6957 -92.6019 -92.5557 -92.4963 -92.4547 -92.4368 -92.3152
   -56.1014 -56.0825 -55.9592 -55.9486 -55.9423 -55.9354 -55.8989 -55.8711
   -55.8553 -55.8543 -55.8470 -55.8032 -55.7871 -55.7475 -55.7284 -55.6962
   -55.6910 -55.6425 -55.6418 -55.6398 -55.6313 -55.5899 -55.5672 -55.4813
   -31.3189 -31.3079 -31.1608 -31.1513 -31.0761 -31.0022 -30.8422 -30.6870
   -29.8911 -29.8542 -29.8255 -29.7184 -14.9802 -14.9543 -14.8377 -14.8237
   -14.7229 -14.6949 -14.6537 -14.5253 -14.0302 -14.0190 -13.9868 -13.9651
   -13.9476 -13.9293 -13.9073 -13.8962 -13.8750 -13.8703 -13.8567 -13.7780
   -13.7727 -13.7294 -13.7090 -13.7016 -13.6043 -13.5467 -13.4281 -13.4027
   -13.2045 -13.1657 -13.0939 -13.0708 -13.0490 -13.0327 -13.0299 -13.0200
   -13.0012 -12.9427 -12.8824 -12.8708 -12.8062 -12.7543 -12.7225 -12.6522
   -12.6427 -12.6055 -12.5806 -12.4096 -12.3622 -12.2627 -12.1860 -12.1727
   -11.8182 -11.8054 -11.7877 -11.7708 -11.7359 -11.7200 -11.6823 -11.6235
   -11.6033 -11.5972 -11.5469 -11.5443  -2.2717  -2.1966  -2.1867  -2.1150
    -2.0765  -1.9978  -1.9297  -1.8040  -1.6885  -1.6588  -1.6191  -1.5620
    -1.4901  -1.4737  -1.4050  -1.3617  -1.2444  -1.2161  -1.1665  -1.1390
    -1.0746  -1.0281  -1.0093  -0.9980  -0.9429  -0.8996  -0.8828  -0.7705
    -0.7148  -0.6676  -0.6172  -0.5892  -0.5775  -0.5419  -0.4995  -0.4646
    -0.4525  -0.3687  -0.2998  -0.2567  -0.2292  -0.1569  -0.0960  -0.0860
    -0.0269  -0.0031   0.0079   0.0160   0.4782   0.5264   0.6144   0.6297
     1.0199   1.0353   1.0688   1.1022   1.3768   1.3963   1.4022   1.4392
     1.5719   1.6636   1.6925   1.7284   1.7575   1.7741   1.7827   1.8143
     1.8280   1.8462   1.8519   1.8991   1.9048   1.9332   1.9552   1.9675
     1.9832   2.0220   2.0459   2.0574   2.0910   2.1192   2.1860   2.2525
     2.5192   2.5519   2.5686   2.5895   2.5977   2.6207   2.6326   2.6544
     2.6625   2.6819   2.7014   2.7145   2.7582   2.7832   2.7901   2.8073
     2.8178   2.8322   2.8547   2.8564   2.8769   2.9674   2.9733   2.9986
     3.0091   3.9544   3.9874   4.0157   4.0539   4.2723   4.3445   4.3715
     4.6128   4.7344   4.8170   4.9471   5.0370   5.0492   5.1606   5.2617
     5.3620   5.8335   5.8569   5.9332   6.0146   6.4373   6.5625   6.6287
     7.8107   7.8896   7.9083   7.9318   7.9441   7.9908   8.0527   8.1021
     8.2335   8.4171   8.4758   8.5477   8.5781   8.6165   8.6320   8.6700

     occupation numbers 
     1.0000   1.0000   1.0000   1.0000   1.0000   1.0000   1.0000   1.0000
     1.0000   1.0000   1.0000   1.0000   1.0000   1.0000   1.0000   1.0000
     1.0000   1.0000   1.0000   1.0000   1.0000   1.0000   1.0000   1.0000
     1.0000   1.0000   1.0000   1.0000   1.0000   1.0000   1.0000   1.0000
     1.0000   1.0000   1.0000   1.0000   1.0000   1.0000   1.0000   1.0000
     1.0000   1.0000   1.0000   1.0000   1.0000   1.0000   1.0000   1.0000
     1.0000   1.0000   1.0000   1.0000   1.0000   1.0000   1.0000   1.0000
     1.0000   1.0000   1.0000   1.0000   1.0000   1.0000   1.0000   1.0000
     1.0000   1.0000   1.0000   1.0000   1.0000   1.0000   1.0000   1.0000
     1.0000   1.0000   1.0000   1.0000   1.0000   1.0000   1.0000   1.0000
     1.0000   1.0000   1.0000   1.0000   1.0000   1.0000   1.0000   1.0000
     1.0000   1.0000   1.0000   1.0000   1.0000   1.0000   1.0000   1.0000
     1.0000   1.0000   1.0000   1.0000   1.0000   1.0000   1.0000   1.0000
     1.0000   1.0000   1.0000   1.0000   1.0000   1.0000   1.0000   1.0000
     1.0000   1.0000   1.0000   1.0000   1.0000   1.0000   1.0000   1.0000
     1.0000   1.0000   1.0000   1.0000   1.0000   1.0000   1.0000   1.0000
     1.0000   1.0000   1.0000   1.0000   1.0000   1.0000   1.0000   1.0000
     1.0000   1.0000   1.0000   1.0000   1.0000   1.0000   1.0000   1.0000
     1.0000   1.0000   1.0000   1.0000   1.0000   1.0000   1.0000   1.0000
     1.0000   1.0000   1.0000   1.0000   1.0000   1.0000   1.0000   1.0000
     0.9996   0.9996   0.9995   0.9994   0.9976   0.9974   0.9973   0.9969
     0.9944   0.9918   0.9908   0.9894   0.9881   0.9873   0.9869   0.9852
     0.9845   0.9834   0.9830   0.9798   0.9794   0.9772   0.9754   0.9743
     0.9729   0.9691   0.9665   0.9653   0.9613   0.9576   0.9478   0.9364
     0.8706   0.8601   0.8546   0.8474   0.8445   0.8362   0.8318   0.8235
     0.8203   0.8127   0.8048   0.7994   0.7807   0.7696   0.7665   0.7586
     0.7537   0.7469   0.7361   0.7353   0.7252   0.6787   0.6755   0.6619
     0.6562   0.1583   0.1467   0.1373   0.1252   0.0703   0.0570   0.0525
     0.0239   0.0154   0.0112   0.0067   0.0045   0.0043   0.0026   0.0016
     0.0010   0.0001   0.0001   0.0000   0.0000   0.0000   0.0000   0.0000
     0.0000   0.0000   0.0000   0.0000   0.0000   0.0000   0.0000   0.0000
     0.0000   0.0000   0.0000   0.0000   0.0000   0.0000   0.0000   0.0000

          k = 0.2500 0.0000 0.0000 ( 65257 PWs)   bands (ev):

   -92.7479 -92.6957 -92.6019 -92.5557 -92.4963 -92.4547 -92.4368 -92.3152
   -56.1014 -56.0825 -55.9592 -55.9486 -55.9423 -55.9354 -55.8989 -55.8711
   -55.8553 -55.8543 -55.8470 -55.8032 -55.7871 -55.7475 -55.7284 -55.6962
   -55.6910 -55.6425 -55.6418 -55.6398 -55.6313 -55.5899 -55.5672 -55.4813
   -31.3215 -31.3059 -31.1608 -31.1516 -31.0755 -31.0024 -30.8420 -30.6866
   -29.8934 -29.8537 -29.8246 -29.7173 -15.0949 -15.0552 -14.9828 -14.8365
   -14.7282 -14.5379 -14.3997 -14.2236 -14.2048 -14.1741 -14.1428 -14.1201
   -14.0846 -14.0686 -14.0495 -13.9936 -13.8852 -13.8537 -13.7053 -13.6338
   -13.6270 -13.5648 -13.5383 -13.5262 -13.4587 -13.3910 -13.3579 -13.2753
   -13.2148 -13.2041 -13.1217 -13.1055 -13.0878 -13.0702 -13.0494 -13.0152
   -12.9808 -12.9529 -12.8684 -12.8639 -12.8444 -12.8166 -12.7907 -12.7854
   -12.7759 -12.5979 -12.5513 -12.4869 -12.4513 -12.2943 -12.1085 -12.0511
[...]
     0.7451   0.7306   0.7168   0.7147   0.7039   0.6986   0.6915   0.6803
     0.6769   0.6632   0.6570   0.6536   0.6460   0.6348   0.6217   0.6193
     0.6144   0.6107   0.6052   0.5994   0.5249   0.3549   0.3224   0.2037
     0.0784   0.0459   0.0219   0.0055   0.0047   0.0003   0.0001   0.0000
     0.0000   0.0000   0.0000   0.0000   0.0000   0.0000   0.0000   0.0000
     0.0000   0.0000   0.0000   0.0000   0.0000   0.0000   0.0000   0.0000
     0.0000   0.0000   0.0000   0.0000   0.0000   0.0000   0.0000   0.0000

          k =-0.5000 0.0000 0.0000 ( 65180 PWs)   bands (ev):

   -92.7479 -92.6957 -92.6019 -92.5557 -92.4963 -92.4547 -92.4368 -92.3152
   -56.1014 -56.0825 -55.9592 -55.9486 -55.9423 -55.9354 -55.8989 -55.8711
   -55.8553 -55.8543 -55.8470 -55.8032 -55.7871 -55.7475 -55.7284 -55.6962
   -55.6910 -55.6425 -55.6418 -55.6398 -55.6313 -55.5899 -55.5672 -55.4813
   -31.3193 -31.3082 -31.1604 -31.1514 -31.0759 -31.0026 -30.8418 -30.6868
   -29.8924 -29.8548 -29.8242 -29.7178 -15.0617 -15.0112 -14.9489 -14.8333
   -14.7358 -14.5905 -14.4500 -14.2912 -14.1791 -14.1671 -14.1547 -14.0981
   -14.0383 -14.0069 -13.9586 -13.9440 -13.9272 -13.8830 -13.8516 -13.7560
   -13.6013 -13.5745 -13.5414 -13.5335 -13.4550 -13.4107 -13.3658 -13.3129
   -13.2897 -13.2732 -13.1092 -13.0993 -13.0834 -13.0597 -13.0410 -13.0119
   -12.9865 -12.9647 -12.8542 -12.8218 -12.7882 -12.7779 -12.7663 -12.6855
   -12.6764 -12.5946 -12.5863 -12.4235 -12.3723 -12.2680 -12.2237 -12.1914
   -11.8246 -11.8034 -11.7962 -11.7832 -11.7649 -11.7235 -11.6595 -11.6410
   -11.6076 -11.5649 -11.5559 -11.5399  -2.6284  -2.5897  -2.4263  -2.3867
    -2.0734  -1.9985  -1.8512  -1.7322  -1.6937  -1.6481  -1.6006  -1.5752
    -1.4512  -1.4075  -1.3920  -1.3101  -1.2739  -1.2594  -1.2272  -1.1680
    -1.1008  -1.0725  -1.0406  -0.9449  -0.9007  -0.8524  -0.8189  -0.7979
    -0.7669  -0.7189  -0.6942  -0.6543  -0.5573  -0.4861  -0.4187  -0.3575
    -0.1892  -0.1589  -0.1023  -0.0660   0.0017   0.0067   0.1501   0.1792
     0.2176   0.3939   0.4930   0.5432   0.6215   0.6964   0.8127   0.8266
     0.9618   0.9854   1.0385   1.0668   1.1021   1.1177   1.1627   1.1849
     1.2538   1.3018   1.3471   1.3580   1.6543   1.6653   1.6856   1.7055
     1.8131   1.8241   1.8424   1.8477   1.8786   1.8878   1.9264   1.9497
     1.9756   2.0309   2.0449   2.0991   2.1187   2.1743   2.2806   2.3881
     2.4566   2.4717   2.5450   2.5796   2.6080   2.6766   2.6833   2.6921
     2.7213   2.7362   2.7908   2.8394   2.8885   2.9116   2.9531   2.9581
     2.9598   2.9724   2.9846   2.9977   3.0109   3.0143   3.0397   3.0449
     3.0638   3.0828   3.0888   3.2188   3.2220   4.0154   4.0785   4.1498
     4.2866   4.7457   4.8217   4.9971   5.0169   5.4548   5.4806   5.5547
     5.6154   5.9799   5.9916   6.0908   6.6988   6.7727   6.9778   7.2527
     7.2946   7.3336   7.4175   7.5810   7.7365   7.8453   7.8739   7.9349
     8.1862   8.2506   8.4396   8.4746   8.5826   8.7245   8.8187   8.8935

     occupation numbers 
     1.0000   1.0000   1.0000   1.0000   1.0000   1.0000   1.0000   1.0000
     1.0000   1.0000   1.0000   1.0000   1.0000   1.0000   1.0000   1.0000
     1.0000   1.0000   1.0000   1.0000   1.0000   1.0000   1.0000   1.0000
     1.0000   1.0000   1.0000   1.0000   1.0000   1.0000   1.0000   1.0000
     1.0000   1.0000   1.0000   1.0000   1.0000   1.0000   1.0000   1.0000
     1.0000   1.0000   1.0000   1.0000   1.0000   1.0000   1.0000   1.0000
     1.0000   1.0000   1.0000   1.0000   1.0000   1.0000   1.0000   1.0000
     1.0000   1.0000   1.0000   1.0000   1.0000   1.0000   1.0000   1.0000
     1.0000   1.0000   1.0000   1.0000   1.0000   1.0000   1.0000   1.0000
     1.0000   1.0000   1.0000   1.0000   1.0000   1.0000   1.0000   1.0000
     1.0000   1.0000   1.0000   1.0000   1.0000   1.0000   1.0000   1.0000
     1.0000   1.0000   1.0000   1.0000   1.0000   1.0000   1.0000   1.0000
     1.0000   1.0000   1.0000   1.0000   1.0000   1.0000   1.0000   1.0000
     1.0000   1.0000   1.0000   1.0000   1.0000   1.0000   1.0000   1.0000
     1.0000   1.0000   1.0000   1.0000   1.0000   1.0000   1.0000   1.0000
     1.0000   1.0000   1.0000   1.0000   1.0000   1.0000   1.0000   1.0000
     1.0000   1.0000   1.0000   1.0000   1.0000   1.0000   1.0000   1.0000
     1.0000   1.0000   1.0000   1.0000   1.0000   1.0000   1.0000   1.0000
     1.0000   1.0000   1.0000   1.0000   1.0000   1.0000   1.0000   1.0000
     1.0000   1.0000   1.0000   1.0000   1.0000   0.9999   0.9999   0.9999
     0.9997   0.9997   0.9996   0.9995   0.9994   0.9993   0.9992   0.9991
     0.9987   0.9983   0.9979   0.9978   0.9921   0.9917   0.9910   0.9903
     0.9853   0.9847   0.9836   0.9833   0.9813   0.9806   0.9778   0.9759
     0.9736   0.9682   0.9667   0.9602   0.9577   0.9497   0.9311   0.9073
     0.8892   0.8849   0.8624   0.8508   0.8408   0.8148   0.8121   0.8086
     0.7966   0.7903   0.7662   0.7434   0.7194   0.7078   0.6862   0.6836
     0.6827   0.6760   0.6694   0.6624   0.6552   0.6534   0.6393   0.6364
     0.6258   0.6151   0.6117   0.5361   0.5342   0.1374   0.1178   0.0982
     0.0675   0.0148   0.0110   0.0054   0.0050   0.0006   0.0005   0.0004
     0.0003   0.0000   0.0000   0.0000   0.0000   0.0000   0.0000   0.0000
     0.0000   0.0000   0.0000   0.0000   0.0000   0.0000   0.0000   0.0000
     0.0000   0.0000   0.0000   0.0000   0.0000   0.0000   0.0000   0.0000

          k =-0.2500 0.2500 0.0000 ( 65198 PWs)   bands (ev):

   -92.7479 -92.6957 -92.6019 -92.5557 -92.4963 -92.4547 -92.4368 -92.3152
   -56.1014 -56.0825 -55.9592 -55.9486 -55.9423 -55.9354 -55.8989 -55.8711
   -55.8553 -55.8543 -55.8470 -55.8032 -55.7871 -55.7475 -55.7284 -55.6962
   -55.6910 -55.6425 -55.6418 -55.6398 -55.6313 -55.5899 -55.5672 -55.4813
   -31.3213 -31.3058 -31.1610 -31.1515 -31.0756 -31.0022 -30.8422 -30.6867
   -29.8928 -29.8534 -29.8253 -29.7177 -15.0640 -15.0235 -14.9482 -14.8314
   -14.7185 -14.5934 -14.5075 -14.3001 -14.1609 -14.1333 -14.1191 -14.0719
   -14.0483 -14.0243 -14.0077 -13.9555 -13.8813 -13.8705 -13.7180 -13.6901
   -13.6618 -13.6409 -13.5953 -13.5431 -13.4817 -13.4707 -13.3454 -13.2991
   -13.2676 -13.1926 -13.1498 -13.0898 -13.0814 -13.0477 -13.0283 -12.9904
   -12.9725 -12.9552 -12.9103 -12.8732 -12.8167 -12.7918 -12.7374 -12.7265
   -12.7168 -12.5971 -12.5351 -12.4873 -12.3906 -12.3281 -12.1297 -12.1063
   -11.8450 -11.8235 -11.7966 -11.7840 -11.7438 -11.7086 -11.6862 -11.6632
   -11.6412 -11.5563 -11.5117 -11.5019  -2.7130  -2.5048  -2.3838  -2.2956
    -2.1771  -2.1109  -1.9079  -1.7625  -1.7442  -1.7151  -1.6226  -1.5878
    -1.4935  -1.4598  -1.4340  -1.2909  -1.2348  -1.1674  -1.1391  -1.0780
    -1.0567  -1.0165  -0.9881  -0.9478  -0.8854  -0.8361  -0.7743  -0.7049
    -0.6791  -0.6291  -0.6010  -0.5538  -0.4973  -0.4521  -0.4115  -0.3101
    -0.2785  -0.2669  -0.2224  -0.1562  -0.0764  -0.0419  -0.0110   0.0625
     0.0876   0.3443   0.5140   0.5546   0.5941   0.6546   0.7009   0.7583
     0.8240   0.8555   1.1352   1.2437   1.2847   1.3185   1.3224   1.3665
     1.3826   1.4268   1.4596   1.4732   1.4985   1.5440   1.5592   1.6004
     1.6187   1.6653   1.7608   1.7684   1.7892   1.8252   1.8552   1.8943
     1.9436   2.0493   2.1624   2.1865   2.2336   2.2527   2.3184   2.3615
     2.3877   2.4132   2.4342   2.5343   2.5696   2.6605   2.7345   2.8374
     2.8450   2.8613   2.8682   2.8805   2.8950   2.9009   2.9183   2.9276
     2.9413   2.9498   2.9629   2.9720   2.9808   3.0129   3.0229   3.0334
     3.0651   3.3575   3.4394   3.5029   3.5797   3.6068   3.7965   3.9161
     4.2572   4.4653   4.6716   4.9463   5.1465   5.6067   5.6558   5.7203
     5.7873   5.8520   6.0448   6.1523   6.1728   6.7854   6.8727   7.0839
     7.2795   7.5321   7.5756   7.6355   7.8485   7.9277   7.9811   8.1193
     8.1535   8.2106   8.2970   8.3451   8.4124   8.4655   8.5903   8.8062

     occupation numbers 
     1.0000   1.0000   1.0000   1.0000   1.0000   1.0000   1.0000   1.0000
     1.0000   1.0000   1.0000   1.0000   1.0000   1.0000   1.0000   1.0000
     1.0000   1.0000   1.0000   1.0000   1.0000   1.0000   1.0000   1.0000
     1.0000   1.0000   1.0000   1.0000   1.0000   1.0000   1.0000   1.0000
     1.0000   1.0000   1.0000   1.0000   1.0000   1.0000   1.0000   1.0000
     1.0000   1.0000   1.0000   1.0000   1.0000   1.0000   1.0000   1.0000
     1.0000   1.0000   1.0000   1.0000   1.0000   1.0000   1.0000   1.0000
     1.0000   1.0000   1.0000   1.0000   1.0000   1.0000   1.0000   1.0000
     1.0000   1.0000   1.0000   1.0000   1.0000   1.0000   1.0000   1.0000
     1.0000   1.0000   1.0000   1.0000   1.0000   1.0000   1.0000   1.0000
     1.0000   1.0000   1.0000   1.0000   1.0000   1.0000   1.0000   1.0000
     1.0000   1.0000   1.0000   1.0000   1.0000   1.0000   1.0000   1.0000
     1.0000   1.0000   1.0000   1.0000   1.0000   1.0000   1.0000   1.0000
     1.0000   1.0000   1.0000   1.0000   1.0000   1.0000   1.0000   1.0000
     1.0000   1.0000   1.0000   1.0000   1.0000   1.0000   1.0000   1.0000
     1.0000   1.0000   1.0000   1.0000   1.0000   1.0000   1.0000   1.0000
     1.0000   1.0000   1.0000   1.0000   1.0000   1.0000   1.0000   1.0000
     1.0000   1.0000   1.0000   1.0000   1.0000   1.0000   1.0000   1.0000
     1.0000   1.0000   1.0000   1.0000   1.0000   1.0000   1.0000   1.0000
     1.0000   1.0000   1.0000   1.0000   1.0000   1.0000   0.9999   0.9999
     0.9999   0.9998   0.9993   0.9988   0.9985   0.9982   0.9982   0.9978
     0.9976   0.9970   0.9966   0.9963   0.9959   0.9950   0.9947   0.9937
     0.9932   0.9917   0.9880   0.9876   0.9866   0.9846   0.9828   0.9802
     0.9764   0.9662   0.9515   0.9478   0.9399   0.9364   0.9233   0.9137
     0.9074   0.9009   0.8954   0.8659   0.8542   0.8212   0.7910   0.7444
     0.7408   0.7329   0.7295   0.7234   0.7162   0.7132   0.7043   0.6995
     0.6924   0.6880   0.6811   0.6762   0.6715   0.6541   0.6486   0.6428
     0.6251   0.4541   0.4064   0.3702   0.3281   0.3137   0.2215   0.1724
     0.0734   0.0392   0.0194   0.0067   0.0028   0.0003   0.0002   0.0001
     0.0001   0.0001   0.0000   0.0000   0.0000   0.0000   0.0000   0.0000
     0.0000   0.0000   0.0000   0.0000   0.0000   0.0000   0.0000   0.0000
     0.0000   0.0000   0.0000   0.0000   0.0000   0.0000   0.0000   0.0000

          k =-0.5000 0.2500 0.0000 ( 65138 PWs)   bands (ev):

   -92.7479 -92.6957 -92.6019 -92.5557 -92.4963 -92.4547 -92.4368 -92.3152
   -56.1014 -56.0825 -55.9592 -55.9486 -55.9423 -55.9354 -55.8989 -55.8711
   -55.8553 -55.8543 -55.8470 -55.8032 -55.7871 -55.7475 -55.7284 -55.6962
   -55.6910 -55.6425 -55.6418 -55.6398 -55.6313 -55.5899 -55.5672 -55.4813
   -31.3191 -31.3080 -31.1606 -31.1513 -31.0760 -31.0024 -30.8420 -30.6869
   -29.8917 -29.8545 -29.8249 -29.7181 -15.0290 -14.9845 -14.9062 -14.8023
   -14.7608 -14.6381 -14.5520 -14.4144 -14.1118 -14.0824 -14.0707 -14.0266
   -14.0037 -13.9779 -13.9440 -13.9295 -13.9079 -13.8688 -13.8521 -13.7488
   -13.6832 -13.6341 -13.6315 -13.6191 -13.5150 -13.5016 -13.3971 -13.3380
   -13.2463 -13.2099 -13.1148 -13.0797 -13.0659 -13.0598 -13.0242 -12.9927
   -12.9846 -12.9719 -12.8783 -12.8467 -12.7883 -12.7659 -12.7444 -12.6680
   -12.6599 -12.5975 -12.5831 -12.4170 -12.3676 -12.2673 -12.2039 -12.1818
   -11.8174 -11.8051 -11.7912 -11.7784 -11.7584 -11.7283 -11.6457 -11.6383
   -11.6143 -11.5790 -11.5514 -11.5420  -2.4858  -2.4440  -2.2959  -2.2533
    -2.0926  -2.0172  -1.8752  -1.7381  -1.6825  -1.6552  -1.6167  -1.5777
    -1.4968  -1.3812  -1.3243  -1.3007  -1.2756  -1.1997  -1.1696  -1.1319
    -1.1141  -1.0540  -1.0234  -0.9858  -0.9509  -0.9219  -0.8639  -0.8354
    -0.7931  -0.7594  -0.6558  -0.6282  -0.5396  -0.4778  -0.4487  -0.3908
    -0.3064  -0.2705  -0.1724  -0.1293  -0.0751  -0.0216   0.0000   0.0758
     0.0999   0.1321   0.1847   0.2256   0.5366   0.6049   0.6639   0.6768
     0.9720   1.0275   1.1039   1.1263   1.3046   1.3401   1.3777   1.3886
     1.4073   1.4255   1.4939   1.5402   1.5817   1.6079   1.7368   1.7719
     1.7974   1.8088   1.8509   1.8744   1.8887   1.9010   1.9217   1.9452
     1.9890   2.0053   2.0395   2.0661   2.0946   2.1518   2.2725   2.3728
     2.4030   2.4715   2.5063   2.5639   2.6035   2.6115   2.6502   2.6808
     2.7024   2.7437   2.7908   2.8359   2.8466   2.8576   2.8730   2.8959
     2.9071   2.9211   2.9417   2.9562   2.9689   2.9785   2.9862   2.9964
     3.0088   3.5369   3.5894   3.7267   3.7498   4.0230   4.1006   4.1555
     4.3655   4.7397   4.8391   4.9924   5.0423   5.3592   5.3888   5.5560
     5.6076   5.7067   5.7416   6.1930   6.3678   6.4722   6.6130   7.0816
     7.4669   7.5577   7.6834   7.7602   7.8510   7.9772   7.9998   8.2588
     8.3235   8.3863   8.4417   8.5253   8.5435   8.6037   8.6377   8.7141

     occupation numbers 
     1.0000   1.0000   1.0000   1.0000   1.0000   1.0000   1.0000   1.0000
     1.0000   1.0000   1.0000   1.0000   1.0000   1.0000   1.0000   1.0000
     1.0000   1.0000   1.0000   1.0000   1.0000   1.0000   1.0000   1.0000
     1.0000   1.0000   1.0000   1.0000   1.0000   1.0000   1.0000   1.0000
     1.0000   1.0000   1.0000   1.0000   1.0000   1.0000   1.0000   1.0000
     1.0000   1.0000   1.0000   1.0000   1.0000   1.0000   1.0000   1.0000
     1.0000   1.0000   1.0000   1.0000   1.0000   1.0000   1.0000   1.0000
     1.0000   1.0000   1.0000   1.0000   1.0000   1.0000   1.0000   1.0000
     1.0000   1.0000   1.0000   1.0000   1.0000   1.0000   1.0000   1.0000
     1.0000   1.0000   1.0000   1.0000   1.0000   1.0000   1.0000   1.0000
     1.0000   1.0000   1.0000   1.0000   1.0000   1.0000   1.0000   1.0000
     1.0000   1.0000   1.0000   1.0000   1.0000   1.0000   1.0000   1.0000
     1.0000   1.0000   1.0000   1.0000   1.0000   1.0000   1.0000   1.0000
     1.0000   1.0000   1.0000   1.0000   1.0000   1.0000   1.0000   1.0000
     1.0000   1.0000   1.0000   1.0000   1.0000   1.0000   1.0000   1.0000
     1.0000   1.0000   1.0000   1.0000   1.0000   1.0000   1.0000   1.0000
     1.0000   1.0000   1.0000   1.0000   1.0000   1.0000   1.0000   1.0000
     1.0000   1.0000   1.0000   1.0000   1.0000   1.0000   1.0000   1.0000
     1.0000   1.0000   1.0000   1.0000   1.0000   1.0000   1.0000   1.0000
     1.0000   1.0000   1.0000   1.0000   1.0000   1.0000   0.9999   0.9999
     0.9997   0.9996   0.9994   0.9993   0.9983   0.9980   0.9976   0.9975
     0.9973   0.9971   0.9960   0.9951   0.9942   0.9935   0.9890   0.9874
     0.9861   0.9855   0.9831   0.9816   0.9806   0.9797   0.9781   0.9763
     0.9724   0.9708   0.9673   0.9642   0.9608   0.9530   0.9327   0.9110
     0.9035   0.8850   0.8746   0.8562   0.8424   0.8395   0.8251   0.8131
     0.8044   0.7870   0.7662   0.7451   0.7400   0.7347   0.7272   0.7157
     0.7100   0.7029   0.6922   0.6846   0.6779   0.6727   0.6686   0.6631
     0.6564   0.3513   0.3229   0.2535   0.2426   0.1349   0.1115   0.0968
     0.0535   0.0151   0.0103   0.0055   0.0044   0.0010   0.0009   0.0004
     0.0003   0.0002   0.0001   0.0000   0.0000   0.0000   0.0000   0.0000
     0.0000   0.0000   0.0000   0.0000   0.0000   0.0000   0.0000   0.0000
     0.0000   0.0000   0.0000   0.0000   0.0000   0.0000   0.0000   0.0000

     the Fermi energy is     3.2799 ev

!    total energy              =   -4399.92743475 Ry
     estimated scf accuracy    <          9.6E-09 Ry
     smearing contrib. (-TS)   =      -1.14714295 Ry
     internal energy E=F+TS    =   -4398.78029179 Ry

     The total energy is F=E-TS. E is the sum of the following terms:
     one-electron contribution =  -21252.21229392 Ry
     hartree contribution      =   10753.57897187 Ry
     xc contribution           =    -686.73513105 Ry
     ewald contribution        =    7053.23330813 Ry
     one-center paw contrib.   =    -266.64514683 Ry
      -> PAW hartree energy AE =      25.13716909 Ry
      -> PAW hartree energy PS =     -25.02136728 Ry
      -> PAW xc energy AE      =     -16.51379654 Ry
      -> PAW xc energy PS      =       6.87309306 Ry
      -> total E_H with PAW    =   10753.69477368 Ry
      -> total E_XC with PAW   =    -696.37583453 Ry

     convergence has been achieved in  48 iterations

     Writing all to output data dir /bsuhome/zayahcortright/scratch/pwscf.save/
 
     init_run     :      7.32s CPU      7.96s WALL (       1 calls)
     electrons    :    690.46s CPU    702.42s WALL (       1 calls)

     Called by init_run:
     wfcinit      :      5.94s CPU      6.07s WALL (       1 calls)
     wfcinit:atom :      0.05s CPU      0.07s WALL (       5 calls)
     wfcinit:wfcr :      5.60s CPU      5.68s WALL (       5 calls)
     potinit      :      0.18s CPU      0.20s WALL (       1 calls)
     hinit0       :      0.33s CPU      0.75s WALL (       1 calls)

     Called by electrons:
     c_bands      :    545.04s CPU    549.61s WALL (      48 calls)
     sum_band     :    109.02s CPU    113.27s WALL (      48 calls)
     v_of_rho     :      5.46s CPU      5.79s WALL (      49 calls)
     v_h          :      0.53s CPU      0.54s WALL (      49 calls)
     v_xc         :      4.93s CPU      5.25s WALL (      49 calls)
     newd         :     16.49s CPU     18.92s WALL (      49 calls)
     PAW_pot      :      1.59s CPU      1.62s WALL (      49 calls)
     mix_rho      :     12.53s CPU     12.80s WALL (      48 calls)

     Called by c_bands:
     init_us_2    :      6.72s CPU      6.76s WALL (     485 calls)
     init_us_2:cp :      6.71s CPU      6.76s WALL (     485 calls)
     cegterg      :    514.35s CPU    518.75s WALL (     240 calls)

     Called by sum_band:
     sum_band:wei :      0.34s CPU      0.34s WALL (      48 calls)
     sum_band:loo :     89.75s CPU     90.44s WALL (      48 calls)
     sum_band:buf :      1.53s CPU      1.55s WALL (     240 calls)
     sum_band:ini :      3.19s CPU      3.20s WALL (     240 calls)
     sum_band:cal :     18.30s CPU     18.37s WALL (     240 calls)
     sum_band:bec :      0.58s CPU      0.58s WALL (     240 calls)
     addusdens    :     17.94s CPU     21.47s WALL (      48 calls)
                                        0.00s GPU  (      48 calls)
     addusd:skk   :      0.36s CPU      0.66s WALL (     192 calls)
                                        0.00s GPU  (     192 calls)

     Called by *egterg:
     cdiaghg      :     53.14s CPU     53.35s WALL (    1268 calls)
     cegterg:over :     37.03s CPU     37.16s WALL (    1028 calls)
     cegterg:upda :     27.31s CPU     27.63s WALL (    1028 calls)
     cegterg:last :     56.84s CPU     57.00s WALL (     439 calls)
     cdiaghg:chol :      3.03s CPU      3.05s WALL (    1268 calls)
     cdiaghg:inve :      3.23s CPU      3.24s WALL (    1268 calls)
     cdiaghg:para :      6.97s CPU      7.01s WALL (    2536 calls)
     h_psi        :    286.82s CPU    289.36s WALL (    1273 calls)
     s_psi        :     38.47s CPU     38.58s WALL (    1273 calls)
     g_psi        :      1.16s CPU      1.17s WALL (    1028 calls)

     Called by h_psi:
     h_psi:calbec :     41.99s CPU     42.12s WALL (    1273 calls)
     vloc_psi     :    203.17s CPU    205.08s WALL (    1273 calls)
     add_vuspsi   :     38.41s CPU     38.53s WALL (    1273 calls)

     General routines
     calbec       :     60.29s CPU     60.48s WALL (    1513 calls)
     fft          :      3.62s CPU      3.71s WALL (     635 calls)
     ffts         :      4.46s CPU      4.50s WALL (    5108 calls)
     fftw         :    174.34s CPU    175.69s WALL (  322114 calls)
     interpolate  :      0.40s CPU      0.40s WALL (      49 calls)
 
     Parallel routines

     PAW routines
     PAW_pot      :      1.59s CPU      1.62s WALL (      49 calls)
 
     PWSCF        :  11m39.53s CPU  11m55.02s WALL

 
   This run was terminated on:  20:38:25  21Jun2024            

=------------------------------------------------------------------------------=
   JOB DONE.
=------------------------------------------------------------------------------=
