
     Program PWSCF v.7.2 starts on 18Jun2024 at 18:24:52 

     This program is part of the open-source Quantum ESPRESSO suite
     for quantum simulation of materials; please cite
         "P. Giannozzi et al., J. Phys.:Condens. Matter 21 395502 (2009);
         "P. Giannozzi et al., J. Phys.:Condens. Matter 29 465901 (2017);
         "P. Giannozzi et al., J. Chem. Phys. 152 154105 (2020);
          URL http://www.quantum-espresso.org", 
     in publications or presentations arising from this work. More details at
     http://www.quantum-espresso.org/quote

     Parallel version (MPI & OpenMP), running on      48 processor cores
     Number of MPI processes:                48
     Threads/MPI process:                     1

     MPI processes distributed on     1 nodes
     15744 MiB available memory on the printing compute node when the environment starts
 
     Reading input from espresso.pwi
Warning: card &CELL ignored
Warning: card / ignored
Warning: card &FCP ignored
Warning: card / ignored
Warning: card &RISM ignored
Warning: card / ignored

     Current dimensions of program PWSCF are:
     Max number of different atomic species (ntypx) = 10
     Max number of k-points (npk) =  40000
     Max angular momentum in pseudopotentials (lmaxx) =  4
     file O.pbe-n-kjpaw_psl.0.1.UPF: wavefunction(s)  2P renormalized
     signal trapping enabled: kill the code with -SIGUSR1 to stop cleanly the simulation 
 
     K-points division:     npool     =       2
     R & G space division:  proc/nbgrp/npool/nimage =      24
     Subspace diagonalization in iterative solution of the eigenvalue problem:
     one sub-group per band group will be used
     scalapack distributed-memory algorithm (size of sub-group:  3*  3 procs)

 
     Parallelization info
     --------------------
     sticks:   dense  smooth     PW     G-vecs:    dense   smooth      PW
     Min         350     175     47                61430    21716    3036
     Max         351     177     48                61449    21727    3041
     Sum        8421    4205   1137              1474595   521381   72913
 
     Using Slab Decomposition
 


     bravais-lattice index     =            0
     lattice parameter (alat)  =      14.8599  a.u.
     unit-cell volume          =    8305.1283 (a.u.)^3
     number of atoms/cell      =           51
     number of atomic types    =            4
     number of electrons       =       437.00
     number of Kohn-Sham states=          263
     kinetic-energy cutoff     =      60.0000  Ry
     charge density cutoff     =     480.0000  Ry
     scf convergence threshold =      1.0E-08
     mixing beta               =       0.1500
     number of iterations used =            8  local-TF  mixing
     Exchange-correlation= PBE
                           (   1   4   3   4   0   0   0)

     celldm(1)=  14.859904  celldm(2)=   0.000000  celldm(3)=   0.000000
     celldm(4)=   0.000000  celldm(5)=   0.000000  celldm(6)=   0.000000

     crystal axes: (cart. coord. in units of alat)
               a(1) = (   1.000000   0.000000   0.000000 )  
               a(2) = (   0.000000   1.000000   0.000000 )  
               a(3) = (   0.000000   0.000000   2.531036 )  

     reciprocal axes: (cart. coord. in units 2 pi/alat)
               b(1) = (  1.000000  0.000000  0.000000 )  
               b(2) = (  0.000000  1.000000  0.000000 )  
               b(3) = (  0.000000  0.000000  0.395095 )  


     PseudoPot. # 1 for Sr read from file:
     /bsuhome/zayahcortright/q-e/pseudo/Sr_pbe_v1.uspp.F.UPF
     MD5 check sum: 6b418c05fbe9db5448babca5e47b7a5b
     Pseudo is Ultrasoft + core correction, Zval = 10.0
     Generated by new atomic code, or converted to UPF format
     Using radial grid of  883 points,  6 beta functions with: 
                l(1) =   0
                l(2) =   0
                l(3) =   1
                l(4) =   1
                l(5) =   2
                l(6) =   2
     Q(r) pseudized with  6 coefficients,  rinner =    1.400   1.400   1.400
                                                       1.400   1.400

     PseudoPot. # 2 for O  read from file:
     /bsuhome/zayahcortright/q-e/pseudo/O.pbe-n-kjpaw_psl.0.1.UPF
     MD5 check sum: 0234752ac141de4415c5fc33072bef88
     Pseudo is Projector augmented-wave + core cor, Zval =  6.0
     Generated using "atomic" code by A. Dal Corso  v.5.0.99 svn rev. 10869
     Shape of augmentation charge: BESSEL
     Using radial grid of 1095 points,  4 beta functions with: 
                l(1) =   0
                l(2) =   0
                l(3) =   1
                l(4) =   1
     Q(r) pseudized with 0 coefficients 


     PseudoPot. # 3 for Co read from file:
     /bsuhome/zayahcortright/q-e/pseudo/Co_pbe_v1.2.uspp.F.UPF
     MD5 check sum: 5f91765df6ddd3222702df6e7b74a16d
     Pseudo is Ultrasoft + core correction, Zval = 17.0
     Generated by new atomic code, or converted to UPF format
     Using radial grid of  863 points,  6 beta functions with: 
                l(1) =   0
                l(2) =   0
                l(3) =   1
                l(4) =   1
                l(5) =   2
                l(6) =   2
     Q(r) pseudized with  8 coefficients,  rinner =    1.200   1.200   1.200
                                                       1.200   1.200

     PseudoPot. # 4 for H  read from file:
     /bsuhome/zayahcortright/q-e/pseudo/H.pbe-rrkjus_psl.1.0.0.UPF
     MD5 check sum: f52b6d4d1c606e5624b1dc7b2218f220
     Pseudo is Ultrasoft, Zval =  1.0
     Generated using "atomic" code by A. Dal Corso  v.5.1
     Using radial grid of  929 points,  2 beta functions with: 
                l(1) =   0
                l(2) =   0
     Q(r) pseudized with 0 coefficients 


     atomic species   valence    mass     pseudopotential
        Sr            10.00    87.62000     Sr( 1.00)
        O              6.00    15.99900     O ( 1.00)
        Co            17.00    58.93319     Co( 1.00)
        H              1.00     1.00800     H ( 1.00)

     No symmetry found


                                    s                        frac. trans.

      isym =  1     identity                                     

 cryst.   s( 1) = (     1          0          0      )
                  (     0          1          0      )
                  (     0          0          1      )

 cart.    s( 1) = (  1.0000000  0.0000000  0.0000000 )
                  (  0.0000000  1.0000000  0.0000000 )
                  (  0.0000000  0.0000000  1.0000000 )


   Cartesian axes

     site n.     atom                  positions (alat units)
         1           Sr  tau(   1) = (   0.2508693   0.7491307   1.7574407  )
         2           O   tau(   2) = (   0.4985141   0.5014859   1.7715967  )
         3           Sr  tau(   3) = (   0.7482398   0.7454518   1.7648669  )
         4           Sr  tau(   4) = (   0.7441748   0.2558252   1.7667843  )
         5           Sr  tau(   5) = (   0.2508693   0.7491307   1.2696799  )
         6           Sr  tau(   6) = (   0.2508693   0.7491307   0.7632319  )
         7           Co  tau(   7) = (   0.4998914   0.5001086   1.0164559  )
         8           Co  tau(   8) = (   0.4936915   0.5063085   1.5135603  )
         9           O   tau(   9) = (   0.4988895   0.7610401   1.0164559  )
        10           O   tau(  10) = (   0.2389599   0.5011105   1.0164559  )
        11           O   tau(  11) = (   0.0070918   0.7374880   1.0164559  )
        12           O   tau(  12) = (   0.0088340   0.7405089   1.5135603  )
        13           O   tau(  13) = (   0.5066944   0.7415376   1.5135603  )
        14           O   tau(  14) = (   0.2584624   0.4933056   1.5135603  )
        15           O   tau(  15) = (   0.4985141   0.5014859   0.7773880  )
        16           O   tau(  16) = (   0.4985141   0.5014859   1.2555238  )
        17           Sr  tau(  17) = (   0.7482398   0.7454518   0.7706582  )
        18           Sr  tau(  18) = (   0.7482398   0.7454518   1.2622536  )
        19           Sr  tau(  19) = (   0.7441748   0.2558252   0.7725755  )
        20           Sr  tau(  20) = (   0.7441748   0.2558252   1.2603363  )
        21           O   tau(  21) = (   0.7322655   0.0078049   1.5135603  )
        22           O   tau(  22) = (   0.7558175   0.4996027   1.5135603  )
        23           O   tau(  23) = (   0.5003973   0.2441825   1.5135603  )
        24           O   tau(  24) = (   0.7527966   0.4978604   1.0164559  )
        25           O   tau(  25) = (   0.5021396   0.2472034   1.0164559  )
        26           O   tau(  26) = (   0.7517679   0.0000000   1.0164559  )
        27           O   tau(  27) = (   0.0114961   0.4948124   1.7455321  )
        28           O   tau(  28) = (   0.0048226   0.0077944   1.7715967  )
        29           Sr  tau(  29) = (   0.2545482   0.2517602   1.7648669  )
        30           O   tau(  30) = (   0.5048017   0.0015068   1.7786929  )
        31           Co  tau(  31) = (   0.0056869   0.5006215   1.0164559  )
        32           Co  tau(  32) = (   0.0065315   0.4997770   1.5135603  )
        33           Co  tau(  33) = (   0.0061999   0.0064171   1.0164559  )
        34           Co  tau(  34) = (   0.0000000   0.0126169   1.5135603  )
        35           O   tau(  35) = (   0.0114961   0.4948124   1.2815885  )
        36           O   tau(  36) = (   0.0114961   0.4948124   0.7513233  )
        37           O   tau(  37) = (   0.0051979   0.2673486   1.0164559  )
        38           O   tau(  38) = (   0.0130029   0.2478461   1.5135603  )
        39           O   tau(  39) = (   0.0048226   0.0077944   0.7773880  )
        40           O   tau(  40) = (   0.0048226   0.0077944   1.2555238  )
        41           Sr  tau(  41) = (   0.2545482   0.2517602   0.7706582  )
        42           Sr  tau(  42) = (   0.2545482   0.2517602   1.2622536  )
        43           Co  tau(  43) = (   0.4989925   0.0073160   1.5135603  )
        44           Co  tau(  44) = (   0.4998370   0.0064714   1.0164559  )
        45           O   tau(  45) = (   0.5048017   0.0015068   0.7844841  )
        46           O   tau(  46) = (   0.5048017   0.0015068   1.2484277  )
        47           O   tau(  47) = (   0.2621260   0.0059111   1.5135603  )
        48           O   tau(  48) = (   0.2591051   0.0041689   1.0164559  )
        49           O   tau(  49) = (   0.0000000   0.5686583   2.1602013  )
        50           O   tau(  50) = (   0.0000000   0.5686583   2.3186489  )
        51           H   tau(  51) = (   0.0000000   0.5686583   2.4431567  )

   Crystallographic axes

     site n.     atom                  positions (cryst. coord.)
         1           Sr  tau(   1) = (  0.2508693  0.7491307  0.6943562  )
         2           O   tau(   2) = (  0.4985141  0.5014859  0.6999492  )
         3           Sr  tau(   3) = (  0.7482398  0.7454518  0.6972903  )
         4           Sr  tau(   4) = (  0.7441748  0.2558252  0.6980478  )
         5           Sr  tau(   5) = (  0.2508693  0.7491307  0.5016443  )
         6           Sr  tau(   6) = (  0.2508693  0.7491307  0.3015492  )
         7           Co  tau(   7) = (  0.4998914  0.5001086  0.4015968  )
         8           Co  tau(   8) = (  0.4936915  0.5063085  0.5980003  )
         9           O   tau(   9) = (  0.4988895  0.7610401  0.4015968  )
        10           O   tau(  10) = (  0.2389599  0.5011105  0.4015968  )
        11           O   tau(  11) = (  0.0070918  0.7374880  0.4015968  )
        12           O   tau(  12) = (  0.0088340  0.7405089  0.5980003  )
        13           O   tau(  13) = (  0.5066944  0.7415376  0.5980003  )
        14           O   tau(  14) = (  0.2584624  0.4933056  0.5980003  )
        15           O   tau(  15) = (  0.4985141  0.5014859  0.3071422  )
        16           O   tau(  16) = (  0.4985141  0.5014859  0.4960513  )
        17           Sr  tau(  17) = (  0.7482398  0.7454518  0.3044833  )
        18           Sr  tau(  18) = (  0.7482398  0.7454518  0.4987103  )
        19           Sr  tau(  19) = (  0.7441748  0.2558252  0.3052408  )
        20           Sr  tau(  20) = (  0.7441748  0.2558252  0.4979527  )
        21           O   tau(  21) = (  0.7322655  0.0078049  0.5980003  )
        22           O   tau(  22) = (  0.7558175  0.4996027  0.5980003  )
        23           O   tau(  23) = (  0.5003973  0.2441825  0.5980003  )
        24           O   tau(  24) = (  0.7527966  0.4978604  0.4015968  )
        25           O   tau(  25) = (  0.5021396  0.2472034  0.4015968  )
        26           O   tau(  26) = (  0.7517679  0.0000000  0.4015968  )
        27           O   tau(  27) = (  0.0114961  0.4948124  0.6896512  )
        28           O   tau(  28) = (  0.0048226  0.0077944  0.6999492  )
        29           Sr  tau(  29) = (  0.2545482  0.2517602  0.6972903  )
        30           O   tau(  30) = (  0.5048017  0.0015068  0.7027529  )
        31           Co  tau(  31) = (  0.0056869  0.5006215  0.4015968  )
        32           Co  tau(  32) = (  0.0065315  0.4997770  0.5980003  )
        33           Co  tau(  33) = (  0.0061999  0.0064171  0.4015968  )
        34           Co  tau(  34) = (  0.0000000  0.0126169  0.5980003  )
        35           O   tau(  35) = (  0.0114961  0.4948124  0.5063494  )
        36           O   tau(  36) = (  0.0114961  0.4948124  0.2968442  )
        37           O   tau(  37) = (  0.0051979  0.2673486  0.4015968  )
        38           O   tau(  38) = (  0.0130029  0.2478461  0.5980003  )
        39           O   tau(  39) = (  0.0048226  0.0077944  0.3071422  )
        40           O   tau(  40) = (  0.0048226  0.0077944  0.4960513  )
        41           Sr  tau(  41) = (  0.2545482  0.2517602  0.3044833  )
        42           Sr  tau(  42) = (  0.2545482  0.2517602  0.4987103  )
        43           Co  tau(  43) = (  0.4989925  0.0073160  0.5980003  )
        44           Co  tau(  44) = (  0.4998370  0.0064714  0.4015968  )
        45           O   tau(  45) = (  0.5048017  0.0015068  0.3099459  )
        46           O   tau(  46) = (  0.5048017  0.0015068  0.4932477  )
        47           O   tau(  47) = (  0.2621260  0.0059111  0.5980003  )
        48           O   tau(  48) = (  0.2591051  0.0041689  0.4015968  )
        49           O   tau(  49) = (  0.0000000  0.5686583  0.8534850  )
        50           O   tau(  50) = (  0.0000000  0.5686583  0.9160869  )
        51           H   tau(  51) = (  0.0000000  0.5686583  0.9652793  )

     number of k points=    10  Gaussian smearing, width (Ry)=  0.0700
                       cart. coord. in units 2pi/alat
        k(    1) = (   0.0000000   0.0000000   0.0000000), wk =   0.1250000
        k(    2) = (   0.0000000   0.2500000   0.0000000), wk =   0.2500000
        k(    3) = (   0.0000000  -0.5000000   0.0000000), wk =   0.1250000
        k(    4) = (   0.2500000   0.2500000   0.0000000), wk =   0.2500000
        k(    5) = (   0.2500000  -0.5000000   0.0000000), wk =   0.2500000
        k(    6) = (  -0.5000000  -0.5000000   0.0000000), wk =   0.1250000
        k(    7) = (   0.2500000   0.0000000   0.0000000), wk =   0.2500000
        k(    8) = (  -0.5000000   0.0000000   0.0000000), wk =   0.1250000
        k(    9) = (  -0.2500000   0.2500000   0.0000000), wk =   0.2500000
        k(   10) = (  -0.5000000   0.2500000   0.0000000), wk =   0.2500000

                       cryst. coord.
        k(    1) = (   0.0000000   0.0000000   0.0000000), wk =   0.1250000
        k(    2) = (   0.0000000   0.2500000   0.0000000), wk =   0.2500000
        k(    3) = (   0.0000000  -0.5000000   0.0000000), wk =   0.1250000
        k(    4) = (   0.2500000   0.2500000   0.0000000), wk =   0.2500000
        k(    5) = (   0.2500000  -0.5000000   0.0000000), wk =   0.2500000
        k(    6) = (  -0.5000000  -0.5000000   0.0000000), wk =   0.1250000
        k(    7) = (   0.2500000   0.0000000   0.0000000), wk =   0.2500000
        k(    8) = (  -0.5000000   0.0000000   0.0000000), wk =   0.1250000
        k(    9) = (  -0.2500000   0.2500000   0.0000000), wk =   0.2500000
        k(   10) = (  -0.5000000   0.2500000   0.0000000), wk =   0.2500000

     Dense  grid:  1474595 G-vectors     FFT dimensions: ( 108, 108, 270)

     Smooth grid:   521381 G-vectors     FFT dimensions: (  75,  75, 192)

     Dynamical RAM for                 wfc:      10.90 MB

     Dynamical RAM for     wfc (w. buffer):      65.37 MB

     Dynamical RAM for           str. fact:       3.75 MB

     Dynamical RAM for           local pot:       0.00 MB

     Dynamical RAM for          nlocal pot:      24.94 MB

     Dynamical RAM for                qrad:       7.03 MB

     Dynamical RAM for          rho,v,vnew:       6.02 MB

     Dynamical RAM for               rhoin:       2.01 MB

     Dynamical RAM for            rho*nmix:      15.00 MB

     Dynamical RAM for           G-vectors:       3.68 MB

     Dynamical RAM for          h,s,v(r/c):       1.40 MB

     Dynamical RAM for          <psi|beta>:       2.42 MB

     Dynamical RAM for                 psi:      21.79 MB

     Dynamical RAM for                hpsi:      21.79 MB

     Dynamical RAM for                spsi:      21.79 MB

     Dynamical RAM for      wfcinit/wfcrot:      34.89 MB

     Dynamical RAM for           addusdens:     101.73 MB

     Estimated static dynamical RAM per process >     122.82 MB

     Estimated max dynamical RAM per process >     239.55 MB

     Estimated total dynamical RAM >      10.88 GB

     Check: negative core charge=   -0.000004

     Initial potential from superposition of free atoms

     starting charge     428.5961, renormalised to     437.0000

     negative rho (up, down):  7.814E-01 0.000E+00
     Starting wfcs are  381 randomized atomic wfcs
     Checking if some PAW data can be deallocated... 
       PAW data deallocated on   18 nodes for type:  2

     total cpu time spent up to now is        9.4 secs

     Self-consistent Calculation

     iteration #  1     ecut=    60.00 Ry     beta= 0.15
     Davidson diagonalization with overlap

---- Real-time Memory Report at c_bands before calling an iterative solver
             0 MiB given to the printing process from OS
             0 MiB allocation reported by mallinfo(arena+hblkhd)
          6206 MiB available memory on the node where the printing process lives
------------------
     ethr =  1.00E-02,  avg # of iterations =  2.0

     negative rho (up, down):  7.716E-01 0.000E+00

     total cpu time spent up to now is       25.4 secs

     total energy              =   -4489.30736591 Ry
     estimated scf accuracy    <      49.84101741 Ry

     iteration #  2     ecut=    60.00 Ry     beta= 0.15
     Davidson diagonalization with overlap

---- Real-time Memory Report at c_bands before calling an iterative solver
             0 MiB given to the printing process from OS
             0 MiB allocation reported by mallinfo(arena+hblkhd)
          6538 MiB available memory on the node where the printing process lives
------------------
     ethr =  1.00E-02,  avg # of iterations =  1.0

     negative rho (up, down):  7.614E-01 0.000E+00

     total cpu time spent up to now is       38.4 secs

     total energy              =   -4486.82612080 Ry
     estimated scf accuracy    <      35.39015383 Ry

     iteration #  3     ecut=    60.00 Ry     beta= 0.15
     Davidson diagonalization with overlap

---- Real-time Memory Report at c_bands before calling an iterative solver
             0 MiB given to the printing process from OS
             0 MiB allocation reported by mallinfo(arena+hblkhd)
          5732 MiB available memory on the node where the printing process lives
------------------
     ethr =  8.10E-03,  avg # of iterations =  1.0

     negative rho (up, down):  7.561E-01 0.000E+00

     total cpu time spent up to now is       51.6 secs

     total energy              =   -4486.74713311 Ry
     estimated scf accuracy    <      34.95082614 Ry

     iteration #  4     ecut=    60.00 Ry     beta= 0.15
     Davidson diagonalization with overlap

---- Real-time Memory Report at c_bands before calling an iterative solver
             0 MiB given to the printing process from OS
             0 MiB allocation reported by mallinfo(arena+hblkhd)
          5708 MiB available memory on the node where the printing process lives
------------------
     ethr =  8.00E-03,  avg # of iterations =  1.0

     negative rho (up, down):  7.569E-01 0.000E+00

     total cpu time spent up to now is       64.5 secs

     total energy              =   -4486.73132678 Ry
     estimated scf accuracy    <      34.36805368 Ry

     iteration #  5     ecut=    60.00 Ry     beta= 0.15
     Davidson diagonalization with overlap

---- Real-time Memory Report at c_bands before calling an iterative solver
             0 MiB given to the printing process from OS
             0 MiB allocation reported by mallinfo(arena+hblkhd)
          5687 MiB available memory on the node where the printing process lives
------------------
     ethr =  7.86E-03,  avg # of iterations =  1.0

     negative rho (up, down):  7.347E-01 0.000E+00

     total cpu time spent up to now is       77.8 secs

     total energy              =   -4483.33409135 Ry
     estimated scf accuracy    <      25.53905045 Ry

     iteration #  6     ecut=    60.00 Ry     beta= 0.15
     Davidson diagonalization with overlap

---- Real-time Memory Report at c_bands before calling an iterative solver
             0 MiB given to the printing process from OS
             0 MiB allocation reported by mallinfo(arena+hblkhd)
          5668 MiB available memory on the node where the printing process lives
------------------
     ethr =  5.84E-03,  avg # of iterations =  2.0

     negative rho (up, down):  7.467E-01 0.000E+00

     total cpu time spent up to now is       92.2 secs

     total energy              =   -4484.49867415 Ry
     estimated scf accuracy    <      47.95832548 Ry

     iteration #  7     ecut=    60.00 Ry     beta= 0.15
     Davidson diagonalization with overlap

---- Real-time Memory Report at c_bands before calling an iterative solver
             0 MiB given to the printing process from OS
             0 MiB allocation reported by mallinfo(arena+hblkhd)
          5651 MiB available memory on the node where the printing process lives
------------------
     ethr =  5.84E-03,  avg # of iterations =  1.0

     negative rho (up, down):  7.527E-01 0.000E+00

     total cpu time spent up to now is      105.1 secs

     total energy              =   -4483.39932234 Ry
     estimated scf accuracy    <      48.31138872 Ry

     iteration #  8     ecut=    60.00 Ry     beta= 0.15
     Davidson diagonalization with overlap

---- Real-time Memory Report at c_bands before calling an iterative solver
             0 MiB given to the printing process from OS
             0 MiB allocation reported by mallinfo(arena+hblkhd)
          5634 MiB available memory on the node where the printing process lives
------------------
     ethr =  5.84E-03,  avg # of iterations =  1.0

     negative rho (up, down):  7.507E-01 0.000E+00

     total cpu time spent up to now is      117.9 secs

     total energy              =   -4483.85826120 Ry
     estimated scf accuracy    <       6.15844455 Ry

     iteration #  9     ecut=    60.00 Ry     beta= 0.15
     Davidson diagonalization with overlap

---- Real-time Memory Report at c_bands before calling an iterative solver
             0 MiB given to the printing process from OS
             0 MiB allocation reported by mallinfo(arena+hblkhd)
          5614 MiB available memory on the node where the printing process lives
------------------
     ethr =  1.41E-03,  avg # of iterations =  4.8

     negative rho (up, down):  7.627E-01 0.000E+00

     total cpu time spent up to now is      133.2 secs

     total energy              =   -4483.66628893 Ry
     estimated scf accuracy    <       3.69282234 Ry

     iteration # 10     ecut=    60.00 Ry     beta= 0.15
     Davidson diagonalization with overlap

---- Real-time Memory Report at c_bands before calling an iterative solver
             0 MiB given to the printing process from OS
             0 MiB allocation reported by mallinfo(arena+hblkhd)
          5521 MiB available memory on the node where the printing process lives
------------------
     ethr =  8.45E-04,  avg # of iterations =  8.5

     negative rho (up, down):  7.726E-01 0.000E+00

     total cpu time spent up to now is      151.1 secs

     total energy              =   -4483.52618440 Ry
     estimated scf accuracy    <       3.71865421 Ry

     iteration # 11     ecut=    60.00 Ry     beta= 0.15
     Davidson diagonalization with overlap

---- Real-time Memory Report at c_bands before calling an iterative solver
             0 MiB given to the printing process from OS
             0 MiB allocation reported by mallinfo(arena+hblkhd)
          5264 MiB available memory on the node where the printing process lives
------------------
     ethr =  8.45E-04,  avg # of iterations =  6.5

     negative rho (up, down):  7.870E-01 0.000E+00

     total cpu time spent up to now is      168.2 secs

     total energy              =   -4483.39918247 Ry
     estimated scf accuracy    <       2.95347797 Ry

     iteration # 12     ecut=    60.00 Ry     beta= 0.15
     Davidson diagonalization with overlap

---- Real-time Memory Report at c_bands before calling an iterative solver
             0 MiB given to the printing process from OS
             0 MiB allocation reported by mallinfo(arena+hblkhd)
          5109 MiB available memory on the node where the printing process lives
------------------
     ethr =  6.76E-04,  avg # of iterations =  8.9

     negative rho (up, down):  7.992E-01 0.000E+00

     total cpu time spent up to now is      186.0 secs

     total energy              =   -4483.20045183 Ry
     estimated scf accuracy    <       1.96189841 Ry

     iteration # 13     ecut=    60.00 Ry     beta= 0.15
     Davidson diagonalization with overlap

---- Real-time Memory Report at c_bands before calling an iterative solver
             0 MiB given to the printing process from OS
             0 MiB allocation reported by mallinfo(arena+hblkhd)
          5051 MiB available memory on the node where the printing process lives
------------------
     ethr =  4.49E-04,  avg # of iterations =  2.4

     negative rho (up, down):  7.966E-01 0.000E+00

     total cpu time spent up to now is      201.0 secs

     total energy              =   -4483.35739949 Ry
     estimated scf accuracy    <       2.54655095 Ry

     iteration # 14     ecut=    60.00 Ry     beta= 0.15
     Davidson diagonalization with overlap

---- Real-time Memory Report at c_bands before calling an iterative solver
             0 MiB given to the printing process from OS
             0 MiB allocation reported by mallinfo(arena+hblkhd)
          5065 MiB available memory on the node where the printing process lives
------------------
     ethr =  4.49E-04,  avg # of iterations =  1.0

     negative rho (up, down):  7.972E-01 0.000E+00

     total cpu time spent up to now is      213.9 secs

     total energy              =   -4483.30028270 Ry
     estimated scf accuracy    <       1.74059839 Ry

     iteration # 15     ecut=    60.00 Ry     beta= 0.15
     Davidson diagonalization with overlap

---- Real-time Memory Report at c_bands before calling an iterative solver
             0 MiB given to the printing process from OS
             0 MiB allocation reported by mallinfo(arena+hblkhd)
          5088 MiB available memory on the node where the printing process lives
------------------
     ethr =  3.98E-04,  avg # of iterations =  2.9

     negative rho (up, down):  8.097E-01 0.000E+00

     total cpu time spent up to now is      228.2 secs

     total energy              =   -4483.12888867 Ry
     estimated scf accuracy    <       0.87287682 Ry

     iteration # 16     ecut=    60.00 Ry     beta= 0.15
     Davidson diagonalization with overlap

---- Real-time Memory Report at c_bands before calling an iterative solver
             0 MiB given to the printing process from OS
             0 MiB allocation reported by mallinfo(arena+hblkhd)
          5125 MiB available memory on the node where the printing process lives
------------------
     ethr =  2.00E-04,  avg # of iterations =  6.5

     negative rho (up, down):  8.061E-01 0.000E+00

     total cpu time spent up to now is      245.4 secs

     total energy              =   -4483.13148919 Ry
     estimated scf accuracy    <       2.95980163 Ry

     iteration # 17     ecut=    60.00 Ry     beta= 0.15
     Davidson diagonalization with overlap

---- Real-time Memory Report at c_bands before calling an iterative solver
             0 MiB given to the printing process from OS
             0 MiB allocation reported by mallinfo(arena+hblkhd)
          5077 MiB available memory on the node where the printing process lives
------------------
     ethr =  2.00E-04,  avg # of iterations =  1.6

     negative rho (up, down):  8.116E-01 0.000E+00

     total cpu time spent up to now is      259.2 secs

     total energy              =   -4483.15203863 Ry
     estimated scf accuracy    <       0.56549389 Ry

     iteration # 18     ecut=    60.00 Ry     beta= 0.15
     Davidson diagonalization with overlap

---- Real-time Memory Report at c_bands before calling an iterative solver
             0 MiB given to the printing process from OS
             0 MiB allocation reported by mallinfo(arena+hblkhd)
          5077 MiB available memory on the node where the printing process lives
------------------
     ethr =  1.29E-04,  avg # of iterations =  4.0

     negative rho (up, down):  8.196E-01 0.000E+00

     total cpu time spent up to now is      274.8 secs

     total energy              =   -4483.10021360 Ry
     estimated scf accuracy    <       1.24092718 Ry

     iteration # 19     ecut=    60.00 Ry     beta= 0.15
     Davidson diagonalization with overlap

---- Real-time Memory Report at c_bands before calling an iterative solver
             0 MiB given to the printing process from OS
             0 MiB allocation reported by mallinfo(arena+hblkhd)
          5065 MiB available memory on the node where the printing process lives
------------------
     c_bands:  1 eigenvalues not converged
     ethr =  1.29E-04,  avg # of iterations = 10.4

     negative rho (up, down):  8.210E-01 0.000E+00

     total cpu time spent up to now is      293.6 secs

     total energy              =   -4483.02917036 Ry
     estimated scf accuracy    <       1.27391140 Ry

     iteration # 20     ecut=    60.00 Ry     beta= 0.15
     Davidson diagonalization with overlap

---- Real-time Memory Report at c_bands before calling an iterative solver
             0 MiB given to the printing process from OS
             0 MiB allocation reported by mallinfo(arena+hblkhd)
          5042 MiB available memory on the node where the printing process lives
------------------
     ethr =  1.29E-04,  avg # of iterations =  8.2

     negative rho (up, down):  8.250E-01 0.000E+00

     total cpu time spent up to now is      311.4 secs

     total energy              =   -4483.03567300 Ry
     estimated scf accuracy    <       0.57034572 Ry

     iteration # 21     ecut=    60.00 Ry     beta= 0.15
     Davidson diagonalization with overlap

---- Real-time Memory Report at c_bands before calling an iterative solver
             0 MiB given to the printing process from OS
             0 MiB allocation reported by mallinfo(arena+hblkhd)
          5019 MiB available memory on the node where the printing process lives
------------------
     ethr =  1.29E-04,  avg # of iterations =  4.7

     negative rho (up, down):  8.248E-01 0.000E+00

     total cpu time spent up to now is      327.3 secs

     total energy              =   -4483.02494881 Ry
     estimated scf accuracy    <       0.30083469 Ry

     iteration # 22     ecut=    60.00 Ry     beta= 0.15
     Davidson diagonalization with overlap

---- Real-time Memory Report at c_bands before calling an iterative solver
             0 MiB given to the printing process from OS
             0 MiB allocation reported by mallinfo(arena+hblkhd)
          5036 MiB available memory on the node where the printing process lives
------------------
     ethr =  6.88E-05,  avg # of iterations =  6.2

     negative rho (up, down):  8.232E-01 0.000E+00

     total cpu time spent up to now is      344.0 secs

     total energy              =   -4483.00104235 Ry
     estimated scf accuracy    <       0.23275161 Ry

     iteration # 23     ecut=    60.00 Ry     beta= 0.15
     Davidson diagonalization with overlap

---- Real-time Memory Report at c_bands before calling an iterative solver
             0 MiB given to the printing process from OS
             0 MiB allocation reported by mallinfo(arena+hblkhd)
          5032 MiB available memory on the node where the printing process lives
------------------
     ethr =  5.33E-05,  avg # of iterations =  4.5

     negative rho (up, down):  8.229E-01 0.000E+00

     total cpu time spent up to now is      359.9 secs

     total energy              =   -4482.99335437 Ry
     estimated scf accuracy    <       0.12693931 Ry

     iteration # 24     ecut=    60.00 Ry     beta= 0.15
     Davidson diagonalization with overlap

---- Real-time Memory Report at c_bands before calling an iterative solver
             0 MiB given to the printing process from OS
             0 MiB allocation reported by mallinfo(arena+hblkhd)
          5025 MiB available memory on the node where the printing process lives
------------------
     ethr =  2.90E-05,  avg # of iterations =  7.3

     negative rho (up, down):  8.287E-01 0.000E+00

     total cpu time spent up to now is      376.7 secs

     total energy              =   -4482.98055565 Ry
     estimated scf accuracy    <       0.08728904 Ry

     iteration # 25     ecut=    60.00 Ry     beta= 0.15
     Davidson diagonalization with overlap

---- Real-time Memory Report at c_bands before calling an iterative solver
             0 MiB given to the printing process from OS
             0 MiB allocation reported by mallinfo(arena+hblkhd)
          5018 MiB available memory on the node where the printing process lives
------------------
     ethr =  2.00E-05,  avg # of iterations = 12.1

     negative rho (up, down):  8.375E-01 0.000E+00

     total cpu time spent up to now is      396.9 secs

     total energy              =   -4482.97942592 Ry
     estimated scf accuracy    <       0.05415652 Ry

     iteration # 26     ecut=    60.00 Ry     beta= 0.15
     Davidson diagonalization with overlap

---- Real-time Memory Report at c_bands before calling an iterative solver
             0 MiB given to the printing process from OS
             0 MiB allocation reported by mallinfo(arena+hblkhd)
          4907 MiB available memory on the node where the printing process lives
------------------
     ethr =  1.24E-05,  avg # of iterations =  6.9

     negative rho (up, down):  8.122E-01 0.000E+00

     total cpu time spent up to now is      413.7 secs

     total energy              =   -4482.97859613 Ry
     estimated scf accuracy    <       0.02717149 Ry

     iteration # 27     ecut=    60.00 Ry     beta= 0.15
     Davidson diagonalization with overlap

---- Real-time Memory Report at c_bands before calling an iterative solver
             0 MiB given to the printing process from OS
             0 MiB allocation reported by mallinfo(arena+hblkhd)
          4900 MiB available memory on the node where the printing process lives
------------------
     ethr =  6.22E-06,  avg # of iterations =  4.7

     negative rho (up, down):  7.974E-01 0.000E+00

     total cpu time spent up to now is      429.7 secs

     total energy              =   -4482.97769444 Ry
     estimated scf accuracy    <       0.02014255 Ry

     iteration # 28     ecut=    60.00 Ry     beta= 0.15
     Davidson diagonalization with overlap

---- Real-time Memory Report at c_bands before calling an iterative solver
             0 MiB given to the printing process from OS
             0 MiB allocation reported by mallinfo(arena+hblkhd)
          4917 MiB available memory on the node where the printing process lives
------------------
     c_bands:  1 eigenvalues not converged
     ethr =  4.61E-06,  avg # of iterations =  8.0

     negative rho (up, down):  7.927E-01 0.000E+00

     total cpu time spent up to now is      447.2 secs

     total energy              =   -4482.97391116 Ry
     estimated scf accuracy    <       0.01362994 Ry

     iteration # 29     ecut=    60.00 Ry     beta= 0.15
     Davidson diagonalization with overlap

---- Real-time Memory Report at c_bands before calling an iterative solver
             0 MiB given to the printing process from OS
             0 MiB allocation reported by mallinfo(arena+hblkhd)
          4890 MiB available memory on the node where the printing process lives
------------------
     ethr =  3.12E-06,  avg # of iterations = 10.8

     negative rho (up, down):  7.955E-01 0.000E+00

     total cpu time spent up to now is      466.9 secs

     total energy              =   -4482.97461903 Ry
     estimated scf accuracy    <       0.00783770 Ry

     iteration # 30     ecut=    60.00 Ry     beta= 0.15
     Davidson diagonalization with overlap

---- Real-time Memory Report at c_bands before calling an iterative solver
             0 MiB given to the printing process from OS
             0 MiB allocation reported by mallinfo(arena+hblkhd)
          4779 MiB available memory on the node where the printing process lives
------------------
     ethr =  1.79E-06,  avg # of iterations =  5.8

     negative rho (up, down):  7.960E-01 0.000E+00

     total cpu time spent up to now is      483.8 secs

     total energy              =   -4482.97513995 Ry
     estimated scf accuracy    <       0.00128070 Ry

     iteration # 31     ecut=    60.00 Ry     beta= 0.15
     Davidson diagonalization with overlap

---- Real-time Memory Report at c_bands before calling an iterative solver
             0 MiB given to the printing process from OS
             0 MiB allocation reported by mallinfo(arena+hblkhd)
          4758 MiB available memory on the node where the printing process lives
------------------
     ethr =  2.93E-07,  avg # of iterations =  3.6

     negative rho (up, down):  7.940E-01 0.000E+00

     total cpu time spent up to now is      499.2 secs

     total energy              =   -4482.97509606 Ry
     estimated scf accuracy    <       0.00067865 Ry

     iteration # 32     ecut=    60.00 Ry     beta= 0.15
     Davidson diagonalization with overlap

---- Real-time Memory Report at c_bands before calling an iterative solver
             0 MiB given to the printing process from OS
             0 MiB allocation reported by mallinfo(arena+hblkhd)
          4766 MiB available memory on the node where the printing process lives
------------------
     ethr =  1.55E-07,  avg # of iterations =  4.4

     negative rho (up, down):  7.928E-01 0.000E+00

     total cpu time spent up to now is      515.0 secs

     total energy              =   -4482.97507667 Ry
     estimated scf accuracy    <       0.00028948 Ry

     iteration # 33     ecut=    60.00 Ry     beta= 0.15
     Davidson diagonalization with overlap

---- Real-time Memory Report at c_bands before calling an iterative solver
             0 MiB given to the printing process from OS
             0 MiB allocation reported by mallinfo(arena+hblkhd)
          4752 MiB available memory on the node where the printing process lives
------------------
     ethr =  6.62E-08,  avg # of iterations =  4.0

     negative rho (up, down):  7.925E-01 0.000E+00

     total cpu time spent up to now is      530.4 secs

     total energy              =   -4482.97505652 Ry
     estimated scf accuracy    <       0.00017670 Ry

     iteration # 34     ecut=    60.00 Ry     beta= 0.15
     Davidson diagonalization with overlap

---- Real-time Memory Report at c_bands before calling an iterative solver
             0 MiB given to the printing process from OS
             0 MiB allocation reported by mallinfo(arena+hblkhd)
          4748 MiB available memory on the node where the printing process lives
------------------
     ethr =  4.04E-08,  avg # of iterations =  3.6

     negative rho (up, down):  7.922E-01 0.000E+00

     total cpu time spent up to now is      545.7 secs

     total energy              =   -4482.97504993 Ry
     estimated scf accuracy    <       0.00009492 Ry

     iteration # 35     ecut=    60.00 Ry     beta= 0.15
     Davidson diagonalization with overlap

---- Real-time Memory Report at c_bands before calling an iterative solver
             0 MiB given to the printing process from OS
             0 MiB allocation reported by mallinfo(arena+hblkhd)
          4797 MiB available memory on the node where the printing process lives
------------------
     ethr =  2.17E-08,  avg # of iterations =  8.1

     negative rho (up, down):  7.921E-01 0.000E+00

     total cpu time spent up to now is      564.0 secs

     total energy              =   -4482.97506216 Ry
     estimated scf accuracy    <       0.00002644 Ry

     iteration # 36     ecut=    60.00 Ry     beta= 0.15
     Davidson diagonalization with overlap

---- Real-time Memory Report at c_bands before calling an iterative solver
             0 MiB given to the printing process from OS
             0 MiB allocation reported by mallinfo(arena+hblkhd)
          4817 MiB available memory on the node where the printing process lives
------------------
     ethr =  6.05E-09,  avg # of iterations =  3.0

     negative rho (up, down):  7.921E-01 0.000E+00

     total cpu time spent up to now is      578.9 secs

     total energy              =   -4482.97506689 Ry
     estimated scf accuracy    <       0.00001775 Ry

     iteration # 37     ecut=    60.00 Ry     beta= 0.15
     Davidson diagonalization with overlap

---- Real-time Memory Report at c_bands before calling an iterative solver
             0 MiB given to the printing process from OS
             0 MiB allocation reported by mallinfo(arena+hblkhd)
          4875 MiB available memory on the node where the printing process lives
------------------
     ethr =  4.06E-09,  avg # of iterations =  2.5

     negative rho (up, down):  7.921E-01 0.000E+00

     total cpu time spent up to now is      593.4 secs

     total energy              =   -4482.97507142 Ry
     estimated scf accuracy    <       0.00001114 Ry

     iteration # 38     ecut=    60.00 Ry     beta= 0.15
     Davidson diagonalization with overlap

---- Real-time Memory Report at c_bands before calling an iterative solver
             0 MiB given to the printing process from OS
             0 MiB allocation reported by mallinfo(arena+hblkhd)
          4876 MiB available memory on the node where the printing process lives
------------------
     ethr =  2.55E-09,  avg # of iterations =  4.3

     negative rho (up, down):  7.922E-01 0.000E+00

     total cpu time spent up to now is      609.3 secs

     total energy              =   -4482.97507284 Ry
     estimated scf accuracy    <       0.00000393 Ry

     iteration # 39     ecut=    60.00 Ry     beta= 0.15
     Davidson diagonalization with overlap

---- Real-time Memory Report at c_bands before calling an iterative solver
             0 MiB given to the printing process from OS
             0 MiB allocation reported by mallinfo(arena+hblkhd)
          4882 MiB available memory on the node where the printing process lives
------------------
     ethr =  8.98E-10,  avg # of iterations =  4.7

     negative rho (up, down):  7.922E-01 0.000E+00

     total cpu time spent up to now is      626.4 secs

     total energy              =   -4482.97507313 Ry
     estimated scf accuracy    <       0.00000172 Ry

     iteration # 40     ecut=    60.00 Ry     beta= 0.15
     Davidson diagonalization with overlap

---- Real-time Memory Report at c_bands before calling an iterative solver
             0 MiB given to the printing process from OS
             0 MiB allocation reported by mallinfo(arena+hblkhd)
          4878 MiB available memory on the node where the printing process lives
------------------
     ethr =  3.95E-10,  avg # of iterations =  3.9

     negative rho (up, down):  7.922E-01 0.000E+00

     total cpu time spent up to now is      641.8 secs

     total energy              =   -4482.97507348 Ry
     estimated scf accuracy    <       0.00000118 Ry

     iteration # 41     ecut=    60.00 Ry     beta= 0.15
     Davidson diagonalization with overlap

---- Real-time Memory Report at c_bands before calling an iterative solver
             0 MiB given to the printing process from OS
             0 MiB allocation reported by mallinfo(arena+hblkhd)
          4873 MiB available memory on the node where the printing process lives
------------------
     ethr =  2.70E-10,  avg # of iterations =  3.7

     negative rho (up, down):  7.922E-01 0.000E+00

     total cpu time spent up to now is      656.9 secs

     total energy              =   -4482.97507418 Ry
     estimated scf accuracy    <       0.00000094 Ry

     iteration # 42     ecut=    60.00 Ry     beta= 0.15
     Davidson diagonalization with overlap

---- Real-time Memory Report at c_bands before calling an iterative solver
             0 MiB given to the printing process from OS
             0 MiB allocation reported by mallinfo(arena+hblkhd)
          4891 MiB available memory on the node where the printing process lives
------------------
     ethr =  2.16E-10,  avg # of iterations =  4.4

     negative rho (up, down):  7.923E-01 0.000E+00

     total cpu time spent up to now is      672.6 secs

     total energy              =   -4482.97507441 Ry
     estimated scf accuracy    <       0.00000064 Ry

     iteration # 43     ecut=    60.00 Ry     beta= 0.15
     Davidson diagonalization with overlap

---- Real-time Memory Report at c_bands before calling an iterative solver
             0 MiB given to the printing process from OS
             0 MiB allocation reported by mallinfo(arena+hblkhd)
          4915 MiB available memory on the node where the printing process lives
------------------
     ethr =  1.48E-10,  avg # of iterations =  4.3

     negative rho (up, down):  7.923E-01 0.000E+00

     total cpu time spent up to now is      688.0 secs

     total energy              =   -4482.97507444 Ry
     estimated scf accuracy    <       0.00000054 Ry

     iteration # 44     ecut=    60.00 Ry     beta= 0.15
     Davidson diagonalization with overlap

---- Real-time Memory Report at c_bands before calling an iterative solver
             0 MiB given to the printing process from OS
             0 MiB allocation reported by mallinfo(arena+hblkhd)
          4927 MiB available memory on the node where the printing process lives
------------------
     ethr =  1.25E-10,  avg # of iterations =  3.8

     negative rho (up, down):  7.923E-01 0.000E+00

     total cpu time spent up to now is      703.2 secs

     total energy              =   -4482.97507444 Ry
     estimated scf accuracy    <       0.00000042 Ry

     iteration # 45     ecut=    60.00 Ry     beta= 0.15
     Davidson diagonalization with overlap

---- Real-time Memory Report at c_bands before calling an iterative solver
             0 MiB given to the printing process from OS
             0 MiB allocation reported by mallinfo(arena+hblkhd)
          4935 MiB available memory on the node where the printing process lives
------------------
     ethr =  9.64E-11,  avg # of iterations =  2.3

     negative rho (up, down):  7.923E-01 0.000E+00

     total cpu time spent up to now is      717.8 secs

     total energy              =   -4482.97507445 Ry
     estimated scf accuracy    <       0.00000032 Ry

     iteration # 46     ecut=    60.00 Ry     beta= 0.15
     Davidson diagonalization with overlap

---- Real-time Memory Report at c_bands before calling an iterative solver
             0 MiB given to the printing process from OS
             0 MiB allocation reported by mallinfo(arena+hblkhd)
          4927 MiB available memory on the node where the printing process lives
------------------
     ethr =  7.44E-11,  avg # of iterations =  2.5

     negative rho (up, down):  7.923E-01 0.000E+00

     total cpu time spent up to now is      732.3 secs

     total energy              =   -4482.97507444 Ry
     estimated scf accuracy    <       0.00000021 Ry

     iteration # 47     ecut=    60.00 Ry     beta= 0.15
     Davidson diagonalization with overlap

---- Real-time Memory Report at c_bands before calling an iterative solver
             0 MiB given to the printing process from OS
             0 MiB allocation reported by mallinfo(arena+hblkhd)
          4931 MiB available memory on the node where the printing process lives
------------------
     ethr =  4.73E-11,  avg # of iterations =  3.4

     negative rho (up, down):  7.923E-01 0.000E+00

     total cpu time spent up to now is      747.4 secs

     total energy              =   -4482.97507444 Ry
     estimated scf accuracy    <       0.00000010 Ry

     iteration # 48     ecut=    60.00 Ry     beta= 0.15
     Davidson diagonalization with overlap

---- Real-time Memory Report at c_bands before calling an iterative solver
             0 MiB given to the printing process from OS
             0 MiB allocation reported by mallinfo(arena+hblkhd)
          4946 MiB available memory on the node where the printing process lives
------------------
     ethr =  2.34E-11,  avg # of iterations =  2.6

     negative rho (up, down):  7.923E-01 0.000E+00

     total cpu time spent up to now is      762.0 secs

     total energy              =   -4482.97507443 Ry
     estimated scf accuracy    <       0.00000007 Ry

     iteration # 49     ecut=    60.00 Ry     beta= 0.15
     Davidson diagonalization with overlap

---- Real-time Memory Report at c_bands before calling an iterative solver
             0 MiB given to the printing process from OS
             0 MiB allocation reported by mallinfo(arena+hblkhd)
          4937 MiB available memory on the node where the printing process lives
------------------
     ethr =  1.55E-11,  avg # of iterations =  4.7

     negative rho (up, down):  7.923E-01 0.000E+00

     total cpu time spent up to now is      777.6 secs

     total energy              =   -4482.97507443 Ry
     estimated scf accuracy    <       0.00000003 Ry

     iteration # 50     ecut=    60.00 Ry     beta= 0.15
     Davidson diagonalization with overlap

---- Real-time Memory Report at c_bands before calling an iterative solver
             0 MiB given to the printing process from OS
             0 MiB allocation reported by mallinfo(arena+hblkhd)
          4943 MiB available memory on the node where the printing process lives
------------------
     ethr =  7.32E-12,  avg # of iterations =  2.6

     negative rho (up, down):  7.923E-01 0.000E+00

     total cpu time spent up to now is      792.4 secs

     total energy              =   -4482.97507444 Ry
     estimated scf accuracy    <       0.00000002 Ry

     iteration # 51     ecut=    60.00 Ry     beta= 0.15
     Davidson diagonalization with overlap

---- Real-time Memory Report at c_bands before calling an iterative solver
             0 MiB given to the printing process from OS
             0 MiB allocation reported by mallinfo(arena+hblkhd)
          4951 MiB available memory on the node where the printing process lives
------------------
     ethr =  5.20E-12,  avg # of iterations =  2.8

     negative rho (up, down):  7.923E-01 0.000E+00

     total cpu time spent up to now is      807.2 secs

     total energy              =   -4482.97507445 Ry
     estimated scf accuracy    <       0.00000002 Ry

     iteration # 52     ecut=    60.00 Ry     beta= 0.15
     Davidson diagonalization with overlap

---- Real-time Memory Report at c_bands before calling an iterative solver
             0 MiB given to the printing process from OS
             0 MiB allocation reported by mallinfo(arena+hblkhd)
          4955 MiB available memory on the node where the printing process lives
------------------
     ethr =  4.64E-12,  avg # of iterations =  4.5

     negative rho (up, down):  7.923E-01 0.000E+00

     total cpu time spent up to now is      822.8 secs

     total energy              =   -4482.97507444 Ry
     estimated scf accuracy    <       0.00000001 Ry

     iteration # 53     ecut=    60.00 Ry     beta= 0.15
     Davidson diagonalization with overlap

---- Real-time Memory Report at c_bands before calling an iterative solver
             0 MiB given to the printing process from OS
             0 MiB allocation reported by mallinfo(arena+hblkhd)
          4949 MiB available memory on the node where the printing process lives
------------------
     ethr =  3.25E-12,  avg # of iterations =  4.2

     negative rho (up, down):  7.923E-01 0.000E+00

     total cpu time spent up to now is      837.9 secs

     End of self-consistent calculation

          k = 0.0000 0.0000 0.0000 ( 65197 PWs)   bands (ev):

   -92.3438 -92.2921 -92.1981 -92.1477 -92.0908 -92.0501 -92.0328 -91.9091
   -55.6969 -55.6787 -55.5558 -55.5449 -55.5369 -55.5316 -55.4961 -55.4676
   -55.4508 -55.4491 -55.4429 -55.3991 -55.3788 -55.3426 -55.3243 -55.2905
   -55.2828 -55.2391 -55.2369 -55.2359 -55.2274 -55.1836 -55.1635 -55.0755
   -30.9313 -30.9123 -30.7713 -30.7488 -30.7111 -30.6847 -30.5577 -30.4884
   -29.4952 -29.4517 -29.4262 -29.3178 -22.2575 -14.7290 -14.6912 -14.6065
   -14.4768 -14.2899 -14.1704 -13.8689 -13.8516 -13.8197 -13.7778 -13.7742
   -13.7377 -13.7250 -13.7110 -13.6951 -13.6740 -13.6405 -13.5785 -13.4300
   -13.2528 -13.2196 -13.1868 -13.1542 -13.1393 -13.0966 -13.0568 -12.9782
   -12.9054 -12.8127 -12.7797 -12.7641 -12.7518 -12.7288 -12.7115 -12.6914
   -12.6603 -12.6484 -12.6177 -12.5832 -12.5798 -12.5678 -12.5597 -12.5494
   -12.4969 -12.4853 -12.4623 -12.4152 -12.3724 -12.3614 -11.9963 -11.8518
   -11.7331 -11.6606 -11.5092 -11.4344 -11.4233 -11.4012 -11.3836 -11.3196
   -11.3024 -11.2676 -11.2387 -11.1277 -11.0468 -11.0434  -5.8512  -3.1642
    -3.1608  -2.5890  -2.3559  -2.1267  -1.9790  -1.9164  -1.7733  -1.4661
    -1.4516  -1.4314  -1.3464  -1.3304  -1.2626  -1.2467  -1.2048  -1.1598
    -0.9799  -0.7550  -0.7253  -0.5771  -0.5633  -0.5190  -0.5006  -0.4566
    -0.4413  -0.3808  -0.3541  -0.2861  -0.2748  -0.1934  -0.0677  -0.0528
    -0.0226   0.0591   0.0717   0.1022   0.1449   0.2234   0.2458   0.3176
     0.3360   0.3882   0.4719   0.5311   0.5504   0.5591   0.8156   0.8315
     1.0032   1.0712   1.1312   1.1700   1.2687   1.2821   1.2974   1.3702
     1.3988   1.4328   1.4915   1.6269   1.6777   1.7008   1.7202   1.7302
     1.7976   1.8763   1.9716   1.9879   2.0362   2.0611   2.0989   2.1223
     2.1309   2.1826   2.2388   2.2437   2.2755   2.2980   2.3738   2.5031
     2.5833   2.6327   2.6431   2.7918   2.8053   2.8578   2.8683   2.9665
     3.0076   3.0223   3.0396   3.0529   3.0660   3.0818   3.1526   3.2585
     3.2957   3.3056   3.3126   3.3793   3.3833   3.4073   3.4159   3.4236
     3.4324   3.4426   3.4556   3.4615   3.4733   3.4826   3.4900   3.5111
     3.5323   3.5374   3.5494   3.5648   3.6900   3.7433   4.4169   4.7491
     4.7968   5.1400   5.3807   5.4760   5.7417   6.2867   6.3276   6.3477
     6.6133   6.6196   6.6689   6.7174   7.0217   7.1483   7.2979   7.4472
     7.4587   7.6466   7.8417   7.8997   7.9199   7.9480   8.0396   8.1119
     8.3200   8.3701   8.3959   8.4047   8.4943   8.5466   8.6106

     occupation numbers 
     1.0000   1.0000   1.0000   1.0000   1.0000   1.0000   1.0000   1.0000
     1.0000   1.0000   1.0000   1.0000   1.0000   1.0000   1.0000   1.0000
     1.0000   1.0000   1.0000   1.0000   1.0000   1.0000   1.0000   1.0000
     1.0000   1.0000   1.0000   1.0000   1.0000   1.0000   1.0000   1.0000
     1.0000   1.0000   1.0000   1.0000   1.0000   1.0000   1.0000   1.0000
     1.0000   1.0000   1.0000   1.0000   1.0000   1.0000   1.0000   1.0000
     1.0000   1.0000   1.0000   1.0000   1.0000   1.0000   1.0000   1.0000
     1.0000   1.0000   1.0000   1.0000   1.0000   1.0000   1.0000   1.0000
     1.0000   1.0000   1.0000   1.0000   1.0000   1.0000   1.0000   1.0000
     1.0000   1.0000   1.0000   1.0000   1.0000   1.0000   1.0000   1.0000
     1.0000   1.0000   1.0000   1.0000   1.0000   1.0000   1.0000   1.0000
     1.0000   1.0000   1.0000   1.0000   1.0000   1.0000   1.0000   1.0000
     1.0000   1.0000   1.0000   1.0000   1.0000   1.0000   1.0000   1.0000
     1.0000   1.0000   1.0000   1.0000   1.0000   1.0000   1.0000   1.0000
     1.0000   1.0000   1.0000   1.0000   1.0000   1.0000   1.0000   1.0000
     1.0000   1.0000   1.0000   1.0000   1.0000   1.0000   1.0000   1.0000
     1.0000   1.0000   1.0000   1.0000   1.0000   1.0000   1.0000   1.0000
     1.0000   1.0000   1.0000   1.0000   1.0000   1.0000   1.0000   1.0000
     1.0000   1.0000   1.0000   1.0000   1.0000   1.0000   1.0000   1.0000
     1.0000   1.0000   1.0000   1.0000   1.0000   1.0000   1.0000   1.0000
     1.0000   0.9999   0.9999   0.9999   0.9998   0.9998   0.9998   0.9997
     0.9997   0.9996   0.9994   0.9989   0.9985   0.9984   0.9982   0.9981
     0.9974   0.9963   0.9945   0.9941   0.9927   0.9920   0.9906   0.9897
     0.9894   0.9870   0.9840   0.9837   0.9817   0.9801   0.9740   0.9601
     0.9487   0.9405   0.9386   0.9070   0.9036   0.8896   0.8867   0.8561
     0.8419   0.8365   0.8301   0.8251   0.8200   0.8138   0.7843   0.7355
     0.7171   0.7122   0.7086   0.6737   0.6716   0.6586   0.6539   0.6497
     0.6448   0.6392   0.6319   0.6286   0.6220   0.6167   0.6125   0.6004
     0.5882   0.5853   0.5783   0.5694   0.4955   0.4640   0.1378   0.0566
     0.0490   0.0152   0.0058   0.0039   0.0011   0.0001   0.0000   0.0000
     0.0000   0.0000   0.0000   0.0000   0.0000   0.0000   0.0000   0.0000
     0.0000   0.0000   0.0000   0.0000   0.0000   0.0000   0.0000   0.0000
     0.0000   0.0000   0.0000   0.0000   0.0000   0.0000   0.0000

          k = 0.0000 0.2500 0.0000 ( 65257 PWs)   bands (ev):

   -92.3438 -92.2921 -92.1981 -92.1477 -92.0908 -92.0501 -92.0328 -91.9091
   -55.6969 -55.6787 -55.5558 -55.5449 -55.5369 -55.5316 -55.4961 -55.4676
   -55.4508 -55.4491 -55.4429 -55.3991 -55.3788 -55.3426 -55.3243 -55.2905
   -55.2828 -55.2391 -55.2369 -55.2359 -55.2274 -55.1836 -55.1635 -55.0755
   -30.9311 -30.9121 -30.7715 -30.7480 -30.7119 -30.6848 -30.5572 -30.4889
   -29.4946 -29.4514 -29.4269 -29.3181 -22.2575 -14.6920 -14.6649 -14.5819
   -14.4472 -14.3298 -14.1588 -14.0149 -13.8350 -13.8041 -13.7826 -13.7739
   -13.7538 -13.6962 -13.6912 -13.6750 -13.6578 -13.6217 -13.4986 -13.4605
   -13.2988 -13.2790 -13.2288 -13.1930 -13.1440 -13.1112 -13.0746 -12.9970
   -12.9645 -12.9321 -12.8658 -12.8020 -12.7639 -12.7574 -12.7417 -12.6562
   -12.6319 -12.6079 -12.5879 -12.5583 -12.5314 -12.5213 -12.5115 -12.4858
   -12.4662 -12.4521 -12.4463 -12.4058 -12.2720 -12.1998 -12.0576 -11.9031
   -11.7913 -11.7285 -11.4747 -11.4312 -11.4039 -11.3754 -11.3587 -11.3115
   -11.3001 -11.2777 -11.2435 -11.1419 -11.0886 -11.0779  -5.8512  -3.1642
    -3.1610  -2.4537  -2.2316  -2.0944  -1.9114  -1.8683  -1.7043  -1.4845
    -1.3997  -1.3866  -1.3263  -1.2273  -1.2128  -1.1781  -1.1525  -1.1088
    -0.9112  -0.7816  -0.7702  -0.6931  -0.6831  -0.5787  -0.5482  -0.4931
    -0.4673  -0.4247  -0.3616  -0.3370  -0.3027  -0.2758  -0.2584  -0.2236
    -0.1523  -0.0981  -0.0284   0.0737   0.1039   0.1408   0.2516   0.2879
     0.3480   0.4005   0.4502   0.4743   0.5080   0.5634   0.8629   0.9524
     0.9849   1.0653   1.1085   1.1277   1.2571   1.2760   1.3693   1.3954
     1.4273   1.5420   1.6297   1.6545   1.6796   1.6969   1.7245   1.7862
     1.8122   1.8389   1.8877   1.9169   1.9489   2.0286   2.0614   2.0885
     2.1510   2.1985   2.2248   2.2556   2.2944   2.3152   2.4094   2.5420
     2.6105   2.6277   2.7112   2.7522   2.7898   2.7941   2.8643   2.9081
     2.9852   3.0133   3.0299   3.0632   3.0699   3.2205   3.2404   3.2730
     3.2962   3.3123   3.3216   3.3283   3.3360   3.3666   3.3687   3.3862
     3.3914   3.4016   3.4197   3.4291   3.4398   3.4620   3.4724   3.4778
     3.5132   3.5300   3.5890   3.9374   3.9723   4.2310   4.6024   4.7408
     4.9134   5.0898   5.4034   5.5090   5.8699   5.9362   6.1707   6.2950
     6.3388   6.4515   6.5227   6.7344   6.9191   7.1006   7.2738   7.5268
     7.5567   7.7149   7.7919   7.8827   7.9510   8.0290   8.0996   8.2102
     8.2669   8.4167   8.4792   8.5342   8.5935   8.6717   8.9438

     occupation numbers 
     1.0000   1.0000   1.0000   1.0000   1.0000   1.0000   1.0000   1.0000
     1.0000   1.0000   1.0000   1.0000   1.0000   1.0000   1.0000   1.0000
     1.0000   1.0000   1.0000   1.0000   1.0000   1.0000   1.0000   1.0000
     1.0000   1.0000   1.0000   1.0000   1.0000   1.0000   1.0000   1.0000
     1.0000   1.0000   1.0000   1.0000   1.0000   1.0000   1.0000   1.0000
     1.0000   1.0000   1.0000   1.0000   1.0000   1.0000   1.0000   1.0000
     1.0000   1.0000   1.0000   1.0000   1.0000   1.0000   1.0000   1.0000
     1.0000   1.0000   1.0000   1.0000   1.0000   1.0000   1.0000   1.0000
     1.0000   1.0000   1.0000   1.0000   1.0000   1.0000   1.0000   1.0000
     1.0000   1.0000   1.0000   1.0000   1.0000   1.0000   1.0000   1.0000
     1.0000   1.0000   1.0000   1.0000   1.0000   1.0000   1.0000   1.0000
     1.0000   1.0000   1.0000   1.0000   1.0000   1.0000   1.0000   1.0000
     1.0000   1.0000   1.0000   1.0000   1.0000   1.0000   1.0000   1.0000
     1.0000   1.0000   1.0000   1.0000   1.0000   1.0000   1.0000   1.0000
     1.0000   1.0000   1.0000   1.0000   1.0000   1.0000   1.0000   1.0000
     1.0000   1.0000   1.0000   1.0000   1.0000   1.0000   1.0000   1.0000
     1.0000   1.0000   1.0000   1.0000   1.0000   1.0000   1.0000   1.0000
     1.0000   1.0000   1.0000   1.0000   1.0000   1.0000   1.0000   1.0000
     1.0000   1.0000   1.0000   1.0000   1.0000   1.0000   1.0000   1.0000
     1.0000   1.0000   1.0000   1.0000   1.0000   1.0000   1.0000   1.0000
     1.0000   0.9999   0.9999   0.9999   0.9998   0.9998   0.9997   0.9997
     0.9996   0.9993   0.9988   0.9987   0.9985   0.9984   0.9982   0.9976
     0.9973   0.9969   0.9962   0.9956   0.9950   0.9930   0.9920   0.9910
     0.9885   0.9862   0.9848   0.9829   0.9804   0.9788   0.9707   0.9548
     0.9443   0.9414   0.9254   0.9164   0.9075   0.9064   0.8878   0.8749
     0.8498   0.8398   0.8337   0.8211   0.8185   0.7536   0.7442   0.7284
     0.7169   0.7087   0.7040   0.7005   0.6965   0.6805   0.6793   0.6700
     0.6672   0.6617   0.6518   0.6466   0.6407   0.6283   0.6225   0.6194
     0.5992   0.5896   0.5552   0.3525   0.3335   0.2077   0.0860   0.0580
     0.0338   0.0183   0.0053   0.0033   0.0006   0.0004   0.0001   0.0001
     0.0000   0.0000   0.0000   0.0000   0.0000   0.0000   0.0000   0.0000
     0.0000   0.0000   0.0000   0.0000   0.0000   0.0000   0.0000   0.0000
     0.0000   0.0000   0.0000   0.0000   0.0000   0.0000   0.0000

          k = 0.0000-0.5000 0.0000 ( 65180 PWs)   bands (ev):

   -92.3438 -92.2921 -92.1981 -92.1477 -92.0908 -92.0501 -92.0328 -91.9091
   -55.6969 -55.6787 -55.5558 -55.5449 -55.5369 -55.5316 -55.4961 -55.4676
   -55.4508 -55.4491 -55.4429 -55.3991 -55.3788 -55.3426 -55.3243 -55.2905
   -55.2828 -55.2391 -55.2369 -55.2359 -55.2274 -55.1836 -55.1635 -55.0755
   -30.9309 -30.9120 -30.7717 -30.7472 -30.7128 -30.6850 -30.5567 -30.4894
   -29.4939 -29.4511 -29.4275 -29.3184 -22.2575 -14.6590 -14.6105 -14.5594
   -14.4333 -14.3456 -14.2078 -14.0620 -13.9377 -13.8053 -13.7741 -13.7442
   -13.6971 -13.6862 -13.6395 -13.6213 -13.5760 -13.5512 -13.5313 -13.4940
   -13.4644 -13.4338 -13.2322 -13.1736 -13.1505 -13.1060 -13.0847 -13.0105
   -13.0013 -12.9476 -12.9381 -12.8730 -12.7641 -12.7526 -12.7135 -12.7070
   -12.6250 -12.6106 -12.5833 -12.5357 -12.5296 -12.5072 -12.4840 -12.4574
   -12.4275 -12.4120 -12.3587 -12.3053 -12.1688 -12.1212 -11.9788 -11.9767
   -11.9032 -11.8639 -11.4282 -11.4262 -11.3991 -11.3611 -11.3270 -11.3160
   -11.2731 -11.2693 -11.2251 -11.1635 -11.1495 -11.1351  -5.8512  -3.1642
    -3.1612  -2.2383  -2.1803  -2.0284  -1.9559  -1.6733  -1.5927  -1.4635
    -1.3260  -1.2849  -1.2697  -1.1913  -1.1600  -1.0789  -1.0435  -0.9660
    -0.9258  -0.8864  -0.8597  -0.8030  -0.7663  -0.7190  -0.6826  -0.6500
    -0.6163  -0.5053  -0.4604  -0.4275  -0.4244  -0.3391  -0.3072  -0.2856
    -0.2406  -0.1489  -0.0857   0.0028   0.0422   0.1295   0.1659   0.3226
     0.3652   0.3849   0.4235   0.5341   0.6026   0.7449   0.8111   0.8191
     0.9474   0.9936   1.0682   1.2247   1.3278   1.3613   1.3986   1.4064
     1.4380   1.4613   1.4972   1.5127   1.5259   1.6333   1.6918   1.7252
     1.7511   2.0153   2.0380   2.0550   2.1358   2.1710   2.2083   2.2207
     2.2584   2.2661   2.2718   2.3017   2.3543   2.3741   2.4018   2.4181
     2.4460   2.5005   2.5837   2.6109   2.7804   2.9559   2.9669   2.9778
     3.0072   3.0162   3.0350   3.0548   3.0631   3.0851   3.0984   3.1530
     3.1726   3.2509   3.2666   3.3351   3.3361   3.3656   3.3678   3.3835
     3.3868   3.3904   3.3975   3.3997   3.4116   3.4323   3.4330   3.4985
     3.5037   3.5195   3.5739   4.4634   4.4680   4.5189   4.5901   5.0281
     5.0822   5.2417   5.2930   5.5568   5.7200   5.8145   5.8671   6.0628
     6.2530   6.3899   6.3924   6.4034   7.0171   7.1056   7.1246   7.4240
     7.5958   7.7214   7.7779   7.8836   8.0667   8.1482   8.2075   8.3304
     8.4649   8.5434   8.6904   8.7365   8.7630   8.8502   8.9711

     occupation numbers 
     1.0000   1.0000   1.0000   1.0000   1.0000   1.0000   1.0000   1.0000
     1.0000   1.0000   1.0000   1.0000   1.0000   1.0000   1.0000   1.0000
     1.0000   1.0000   1.0000   1.0000   1.0000   1.0000   1.0000   1.0000
     1.0000   1.0000   1.0000   1.0000   1.0000   1.0000   1.0000   1.0000
     1.0000   1.0000   1.0000   1.0000   1.0000   1.0000   1.0000   1.0000
     1.0000   1.0000   1.0000   1.0000   1.0000   1.0000   1.0000   1.0000
     1.0000   1.0000   1.0000   1.0000   1.0000   1.0000   1.0000   1.0000
     1.0000   1.0000   1.0000   1.0000   1.0000   1.0000   1.0000   1.0000
     1.0000   1.0000   1.0000   1.0000   1.0000   1.0000   1.0000   1.0000
     1.0000   1.0000   1.0000   1.0000   1.0000   1.0000   1.0000   1.0000
     1.0000   1.0000   1.0000   1.0000   1.0000   1.0000   1.0000   1.0000
     1.0000   1.0000   1.0000   1.0000   1.0000   1.0000   1.0000   1.0000
     1.0000   1.0000   1.0000   1.0000   1.0000   1.0000   1.0000   1.0000
     1.0000   1.0000   1.0000   1.0000   1.0000   1.0000   1.0000   1.0000
     1.0000   1.0000   1.0000   1.0000   1.0000   1.0000   1.0000   1.0000
     1.0000   1.0000   1.0000   1.0000   1.0000   1.0000   1.0000   1.0000
     1.0000   1.0000   1.0000   1.0000   1.0000   1.0000   1.0000   1.0000
     1.0000   1.0000   1.0000   1.0000   1.0000   1.0000   1.0000   1.0000
     1.0000   1.0000   1.0000   1.0000   1.0000   1.0000   1.0000   1.0000
     1.0000   1.0000   1.0000   1.0000   1.0000   1.0000   1.0000   1.0000
     1.0000   1.0000   0.9999   0.9999   0.9998   0.9997   0.9997   0.9996
     0.9996   0.9995   0.9994   0.9994   0.9993   0.9988   0.9984   0.9982
     0.9979   0.9933   0.9927   0.9922   0.9892   0.9876   0.9857   0.9850
     0.9828   0.9823   0.9819   0.9798   0.9757   0.9740   0.9714   0.9698
     0.9668   0.9604   0.9486   0.9442   0.9098   0.8597   0.8560   0.8523
     0.8420   0.8388   0.8318   0.8244   0.8211   0.8125   0.8071   0.7841
     0.7755   0.7392   0.7316   0.6970   0.6965   0.6810   0.6798   0.6715
     0.6697   0.6677   0.6639   0.6627   0.6562   0.6449   0.6445   0.6076
     0.6047   0.5956   0.5641   0.1231   0.1217   0.1071   0.0889   0.0229
     0.0188   0.0103   0.0084   0.0027   0.0012   0.0008   0.0006   0.0002
     0.0001   0.0000   0.0000   0.0000   0.0000   0.0000   0.0000   0.0000
     0.0000   0.0000   0.0000   0.0000   0.0000   0.0000   0.0000   0.0000
     0.0000   0.0000   0.0000   0.0000   0.0000   0.0000   0.0000

          k = 0.2500 0.2500 0.0000 ( 65198 PWs)   bands (ev):

   -92.3438 -92.2921 -92.1981 -92.1477 -92.0908 -92.0501 -92.0328 -91.9091
   -55.6969 -55.6787 -55.5558 -55.5449 -55.5369 -55.5316 -55.4961 -55.4676
   -55.4508 -55.4491 -55.4429 -55.3991 -55.3788 -55.3426 -55.3243 -55.2905
   -55.2828 -55.2391 -55.2369 -55.2359 -55.2274 -55.1836 -55.1635 -55.0755
   -30.9293 -30.9139 -30.7711 -30.7479 -30.7118 -30.6852 -30.5574 -30.4890
   -29.4936 -29.4524 -29.4265 -29.3185 -22.2575 -14.6639 -14.6292 -14.5541
   -14.4369 -14.3212 -14.1988 -14.1199 -13.9185 -13.7747 -13.7577 -13.7472
   -13.7125 -13.6817 -13.6608 -13.6351 -13.6044 -13.5816 -13.4908 -13.4748
   -13.3152 -13.3014 -13.2698 -13.2512 -13.1960 -13.1627 -13.1200 -13.0793
   -12.9942 -12.9563 -12.8848 -12.7966 -12.7565 -12.7134 -12.7020 -12.6737
   -12.6506 -12.6117 -12.6016 -12.5804 -12.5534 -12.5195 -12.4918 -12.4567
   -12.4152 -12.4006 -12.3950 -12.3675 -12.2109 -12.1062 -12.1016 -11.9323
   -11.8232 -11.7770 -11.4468 -11.4148 -11.4043 -11.3970 -11.3345 -11.2996
   -11.2931 -11.2578 -11.2500 -11.1585 -11.1169 -11.0993  -5.8512  -3.1644
    -3.1610  -2.3155  -2.1059  -1.9888  -1.8934  -1.7729  -1.7076  -1.5094
    -1.3649  -1.3447  -1.3138  -1.2215  -1.1881  -1.0953  -1.0682  -1.0181
    -0.8862  -0.8388  -0.7651  -0.7206  -0.6754  -0.6517  -0.6269  -0.5858
    -0.5694  -0.4796  -0.4303  -0.3646  -0.3170  -0.2891  -0.2364  -0.2263
    -0.1620  -0.1096  -0.0493  -0.0204   0.0686   0.1160   0.1475   0.1862
     0.2403   0.3012   0.3501   0.3748   0.4361   0.4760   0.7579   0.9061
     0.9424   0.9943   1.0340   1.0790   1.1358   1.2039   1.2448   1.5191
     1.5896   1.6638   1.6892   1.7361   1.7687   1.8050   1.8415   1.8589
     1.8879   1.9252   1.9377   1.9550   1.9978   2.0334   2.0753   2.1185
     2.1522   2.1741   2.1942   2.2373   2.2865   2.3144   2.4491   2.5189
     2.5602   2.5882   2.6443   2.7104   2.7444   2.7829   2.8036   2.8160
     2.9291   2.9655   3.0376   3.0470   3.0758   3.2305   3.2490   3.2540
     3.2697   3.2843   3.2977   3.3099   3.3167   3.3277   3.3416   3.3544
     3.3718   3.3777   3.3894   3.4109   3.4238   3.4335   3.4640   3.7659
     3.8553   3.8977   3.9571   3.9659   4.2049   4.3074   4.6363   4.7958
     4.9857   5.1409   5.3216   5.5461   5.9081   6.0173   6.0323   6.1362
     6.1949   6.2378   6.3540   6.4003   6.9832   7.0390   7.0640   7.2048
     7.7359   7.8209   7.8409   7.8694   8.0169   8.1376   8.2508   8.2901
     8.3999   8.4719   8.5728   8.6758   8.6947   8.7395   8.8411

     occupation numbers 
     1.0000   1.0000   1.0000   1.0000   1.0000   1.0000   1.0000   1.0000
     1.0000   1.0000   1.0000   1.0000   1.0000   1.0000   1.0000   1.0000
     1.0000   1.0000   1.0000   1.0000   1.0000   1.0000   1.0000   1.0000
     1.0000   1.0000   1.0000   1.0000   1.0000   1.0000   1.0000   1.0000
     1.0000   1.0000   1.0000   1.0000   1.0000   1.0000   1.0000   1.0000
     1.0000   1.0000   1.0000   1.0000   1.0000   1.0000   1.0000   1.0000
     1.0000   1.0000   1.0000   1.0000   1.0000   1.0000   1.0000   1.0000
     1.0000   1.0000   1.0000   1.0000   1.0000   1.0000   1.0000   1.0000
     1.0000   1.0000   1.0000   1.0000   1.0000   1.0000   1.0000   1.0000
     1.0000   1.0000   1.0000   1.0000   1.0000   1.0000   1.0000   1.0000
     1.0000   1.0000   1.0000   1.0000   1.0000   1.0000   1.0000   1.0000
     1.0000   1.0000   1.0000   1.0000   1.0000   1.0000   1.0000   1.0000
     1.0000   1.0000   1.0000   1.0000   1.0000   1.0000   1.0000   1.0000
     1.0000   1.0000   1.0000   1.0000   1.0000   1.0000   1.0000   1.0000
     1.0000   1.0000   1.0000   1.0000   1.0000   1.0000   1.0000   1.0000
     1.0000   1.0000   1.0000   1.0000   1.0000   1.0000   1.0000   1.0000
     1.0000   1.0000   1.0000   1.0000   1.0000   1.0000   1.0000   1.0000
     1.0000   1.0000   1.0000   1.0000   1.0000   1.0000   1.0000   1.0000
     1.0000   1.0000   1.0000   1.0000   1.0000   1.0000   1.0000   1.0000
     1.0000   1.0000   1.0000   1.0000   1.0000   1.0000   1.0000   1.0000
     1.0000   1.0000   1.0000   0.9999   0.9999   0.9999   0.9999   0.9993
     0.9991   0.9986   0.9985   0.9981   0.9978   0.9973   0.9969   0.9966
     0.9961   0.9955   0.9952   0.9948   0.9938   0.9928   0.9915   0.9899
     0.9885   0.9874   0.9864   0.9841   0.9809   0.9789   0.9665   0.9580
     0.9522   0.9479   0.9384   0.9256   0.9182   0.9092   0.9041   0.9009
     0.8684   0.8565   0.8309   0.8273   0.8162   0.7490   0.7401   0.7377
     0.7300   0.7229   0.7161   0.7100   0.7065   0.7009   0.6936   0.6869
     0.6777   0.6746   0.6683   0.6566   0.6496   0.6442   0.6272   0.4507
     0.3988   0.3747   0.3417   0.3370   0.2190   0.1767   0.0783   0.0491
     0.0265   0.0152   0.0075   0.0028   0.0005   0.0003   0.0002   0.0001
     0.0001   0.0001   0.0000   0.0000   0.0000   0.0000   0.0000   0.0000
     0.0000   0.0000   0.0000   0.0000   0.0000   0.0000   0.0000   0.0000
     0.0000   0.0000   0.0000   0.0000   0.0000   0.0000   0.0000

          k = 0.2500-0.5000 0.0000 ( 65138 PWs)   bands (ev):

   -92.3438 -92.2921 -92.1981 -92.1477 -92.0908 -92.0501 -92.0328 -91.9091
   -55.6969 -55.6787 -55.5558 -55.5449 -55.5369 -55.5316 -55.4961 -55.4676
   -55.4508 -55.4491 -55.4429 -55.3991 -55.3788 -55.3426 -55.3243 -55.2905
   -55.2828 -55.2391 -55.2369 -55.2359 -55.2274 -55.1836 -55.1635 -55.0755
   -30.9291 -30.9138 -30.7713 -30.7470 -30.7127 -30.6854 -30.5569 -30.4895
   -29.4930 -29.4521 -29.4271 -29.3189 -22.2575 -14.6286 -14.5835 -14.5163
   -14.4021 -14.3697 -14.2483 -14.1636 -14.0342 -13.7742 -13.7223 -13.6746
   -13.6441 -13.6249 -13.6077 -13.5930 -13.5603 -13.5393 -13.5098 -13.4706
   -13.4496 -13.4224 -13.3157 -13.2676 -13.2144 -13.1887 -13.1406 -13.1193
   -13.0490 -13.0143 -12.8606 -12.7965 -12.7755 -12.6918 -12.6792 -12.6683
   -12.6424 -12.6233 -12.5975 -12.5661 -12.5347 -12.5106 -12.4857 -12.4669
   -12.4329 -12.4213 -12.3092 -12.2778 -12.1754 -12.1021 -11.9761 -11.9541
   -11.8932 -11.8658 -11.4222 -11.4103 -11.3994 -11.3723 -11.3407 -11.3124
   -11.2710 -11.2435 -11.2212 -11.1766 -11.1505 -11.1391  -5.8512  -3.1643
    -3.1612  -2.0964  -2.0327  -1.9024  -1.8249  -1.6942  -1.6128  -1.4881
    -1.3371  -1.2816  -1.2606  -1.1993  -1.1859  -1.0896  -1.0223  -0.9366
    -0.8881  -0.8788  -0.8145  -0.7733  -0.7383  -0.6906  -0.6534  -0.6191
    -0.5790  -0.5679  -0.5226  -0.4944  -0.4510  -0.4222  -0.3537  -0.2506
    -0.2178  -0.1360  -0.0711  -0.0210   0.0201   0.0389   0.0946   0.2499
     0.2568   0.3763   0.3971   0.4095   0.4546   0.4843   0.5182   0.5539
     0.6278   0.8958   0.9856   1.0332   1.0977   1.3802   1.3964   1.4917
     1.5162   1.6870   1.7217   1.7604   1.7861   1.8018   1.8232   1.8844
     1.9332   1.9673   2.0358   2.1249   2.1580   2.1805   2.1993   2.2281
     2.2475   2.2538   2.2929   2.3094   2.3296   2.3587   2.3772   2.4095
     2.4376   2.4984   2.5397   2.6149   2.7520   2.9087   2.9238   2.9424
     2.9672   2.9948   3.0167   3.0411   3.0492   3.0528   3.0607   3.0807
     3.1790   3.2300   3.2491   3.2553   3.2673   3.2873   3.3013   3.3198
     3.3279   3.3639   3.3726   3.3861   3.3935   3.4022   3.4136   3.9188
     3.9427   4.0973   4.1468   4.4657   4.5230   4.5300   4.6550   5.0841
     5.1192   5.2771   5.3347   5.5116   5.6437   5.7854   5.8149   5.9444
     6.0649   6.1533   6.3697   6.4905   6.5681   6.6329   7.2153   7.3166
     7.4495   7.6340   7.9543   8.0685   8.1786   8.2114   8.3486   8.4801
     8.5741   8.6269   8.6951   8.7360   8.8090   8.8797   8.9323

     occupation numbers 
     1.0000   1.0000   1.0000   1.0000   1.0000   1.0000   1.0000   1.0000
     1.0000   1.0000   1.0000   1.0000   1.0000   1.0000   1.0000   1.0000
     1.0000   1.0000   1.0000   1.0000   1.0000   1.0000   1.0000   1.0000
     1.0000   1.0000   1.0000   1.0000   1.0000   1.0000   1.0000   1.0000
     1.0000   1.0000   1.0000   1.0000   1.0000   1.0000   1.0000   1.0000
     1.0000   1.0000   1.0000   1.0000   1.0000   1.0000   1.0000   1.0000
     1.0000   1.0000   1.0000   1.0000   1.0000   1.0000   1.0000   1.0000
     1.0000   1.0000   1.0000   1.0000   1.0000   1.0000   1.0000   1.0000
     1.0000   1.0000   1.0000   1.0000   1.0000   1.0000   1.0000   1.0000
     1.0000   1.0000   1.0000   1.0000   1.0000   1.0000   1.0000   1.0000
     1.0000   1.0000   1.0000   1.0000   1.0000   1.0000   1.0000   1.0000
     1.0000   1.0000   1.0000   1.0000   1.0000   1.0000   1.0000   1.0000
     1.0000   1.0000   1.0000   1.0000   1.0000   1.0000   1.0000   1.0000
     1.0000   1.0000   1.0000   1.0000   1.0000   1.0000   1.0000   1.0000
     1.0000   1.0000   1.0000   1.0000   1.0000   1.0000   1.0000   1.0000
     1.0000   1.0000   1.0000   1.0000   1.0000   1.0000   1.0000   1.0000
     1.0000   1.0000   1.0000   1.0000   1.0000   1.0000   1.0000   1.0000
     1.0000   1.0000   1.0000   1.0000   1.0000   1.0000   1.0000   1.0000
     1.0000   1.0000   1.0000   1.0000   1.0000   1.0000   1.0000   1.0000
     1.0000   1.0000   1.0000   1.0000   1.0000   1.0000   1.0000   1.0000
     1.0000   1.0000   1.0000   1.0000   0.9999   0.9997   0.9997   0.9994
     0.9994   0.9985   0.9982   0.9978   0.9976   0.9974   0.9971   0.9962
     0.9953   0.9946   0.9928   0.9896   0.9882   0.9871   0.9862   0.9846
     0.9834   0.9831   0.9805   0.9793   0.9777   0.9753   0.9737   0.9706
     0.9677   0.9607   0.9551   0.9436   0.9165   0.8747   0.8700   0.8641
     0.8559   0.8464   0.8386   0.8295   0.8265   0.8251   0.8221   0.8142
     0.7727   0.7492   0.7400   0.7371   0.7312   0.7213   0.7143   0.7049
     0.7007   0.6819   0.6773   0.6701   0.6661   0.6613   0.6552   0.3628
     0.3496   0.2690   0.2452   0.1224   0.1060   0.1041   0.0744   0.0187
     0.0164   0.0089   0.0071   0.0033   0.0018   0.0009   0.0008   0.0004
     0.0002   0.0001   0.0000   0.0000   0.0000   0.0000   0.0000   0.0000
     0.0000   0.0000   0.0000   0.0000   0.0000   0.0000   0.0000   0.0000
     0.0000   0.0000   0.0000   0.0000   0.0000   0.0000   0.0000

          k =-0.5000-0.5000 0.0000 ( 65132 PWs)   bands (ev):

   -92.3438 -92.2921 -92.1981 -92.1477 -92.0908 -92.0501 -92.0328 -91.9091
   -55.6969 -55.6787 -55.5558 -55.5449 -55.5369 -55.5316 -55.4961 -55.4676
   -55.4508 -55.4491 -55.4429 -55.3991 -55.3788 -55.3426 -55.3243 -55.2905
   -55.2828 -55.2390 -55.2369 -55.2359 -55.2274 -55.1836 -55.1635 -55.0755
   -30.9269 -30.9160 -30.7709 -30.7469 -30.7125 -30.6857 -30.5571 -30.4897
   -29.4920 -29.4531 -29.4267 -29.3193 -22.2575 -14.5826 -14.5560 -14.4393
   -14.4278 -14.3358 -14.2960 -14.2664 -14.1335 -13.7742 -13.6340 -13.6247
   -13.5875 -13.5703 -13.5521 -13.5370 -13.5079 -13.5007 -13.4877 -13.4771
   -13.4612 -13.3844 -13.3785 -13.3513 -13.3157 -13.3099 -13.2163 -13.2058
   -13.0988 -13.0676 -12.8119 -12.7723 -12.7055 -12.6794 -12.6601 -12.6469
   -12.6385 -12.6291 -12.6210 -12.6065 -12.5253 -12.5016 -12.4896 -12.4814
   -12.4462 -12.4378 -12.2590 -12.2513 -12.1918 -12.0841 -11.9726 -11.9287
   -11.8846 -11.8688 -11.4187 -11.4064 -11.3886 -11.3719 -11.3371 -11.3192
   -11.2849 -11.2240 -11.2036 -11.1986 -11.1482 -11.1450  -5.8512  -3.1645
    -3.1611  -1.8715  -1.7971  -1.7898  -1.7163  -1.6764  -1.5982  -1.5304
    -1.4040  -1.2871  -1.2581  -1.2153  -1.1614  -1.0892  -1.0758  -1.0040
    -0.9618  -0.8454  -0.8169  -0.7683  -0.7376  -0.6735  -0.6296  -0.6108
    -0.5995  -0.5450  -0.4985  -0.4843  -0.3715  -0.3145  -0.2685  -0.2195
    -0.1932  -0.1768  -0.1456  -0.1084  -0.0679  -0.0589   0.0274   0.0934
     0.1428   0.1637   0.2401   0.2922   0.2972   0.3598   0.3923   0.3981
     0.4103   0.8657   0.9015   0.9805   0.9971   1.4072   1.4202   1.4567
[...]
     0.0000   0.0000   0.0000   0.0000   0.0000   0.0000   0.0000   0.0000
     0.0000   0.0000   0.0000   0.0000   0.0000   0.0000   0.0000

          k =-0.5000 0.0000 0.0000 ( 65180 PWs)   bands (ev):

   -92.3438 -92.2921 -92.1981 -92.1477 -92.0908 -92.0501 -92.0328 -91.9091
   -55.6969 -55.6787 -55.5558 -55.5449 -55.5369 -55.5316 -55.4961 -55.4676
   -55.4508 -55.4491 -55.4429 -55.3991 -55.3788 -55.3426 -55.3243 -55.2905
   -55.2828 -55.2391 -55.2369 -55.2359 -55.2274 -55.1836 -55.1635 -55.0755
   -30.9272 -30.9163 -30.7705 -30.7485 -30.7109 -30.6855 -30.5580 -30.4887
   -29.4932 -29.4538 -29.4255 -29.3186 -22.2575 -14.6635 -14.6135 -14.5523
   -14.4454 -14.3387 -14.1944 -14.0560 -13.9130 -13.7821 -13.7768 -13.7727
   -13.7557 -13.7028 -13.6446 -13.6112 -13.5618 -13.5557 -13.5423 -13.4892
   -13.4785 -13.3873 -13.2039 -13.1721 -13.1436 -13.1353 -13.0959 -13.0153
   -12.9998 -12.9232 -12.9086 -12.8998 -12.7584 -12.7080 -12.6985 -12.6767
   -12.6710 -12.6649 -12.6022 -12.5845 -12.5709 -12.5547 -12.4662 -12.4310
   -12.3796 -12.3651 -12.2937 -12.2846 -12.1948 -12.1583 -12.0206 -11.9824
   -11.8867 -11.8479 -11.4256 -11.4045 -11.3975 -11.3827 -11.3648 -11.3235
   -11.2605 -11.2430 -11.2106 -11.1657 -11.1564 -11.1404  -5.8512  -3.1646
    -3.1608  -2.2289  -2.1901  -2.0257  -1.9868  -1.6740  -1.5970  -1.4506
    -1.3324  -1.2923  -1.2460  -1.1991  -1.1738  -1.0525  -1.0071  -0.9928
    -0.9097  -0.8745  -0.8604  -0.8273  -0.7709  -0.7017  -0.6720  -0.6439
    -0.5514  -0.5018  -0.4524  -0.4210  -0.3999  -0.3680  -0.3213  -0.2971
    -0.2607  -0.1571  -0.0953  -0.0206   0.0391   0.1837   0.2313   0.2947
     0.3323   0.3749   0.4065   0.5315   0.5714   0.6085   0.7926   0.8912
     0.9373   1.0123   1.0645   1.2034   1.2150   1.3463   1.3799   1.4345
     1.4611   1.4979   1.5102   1.5586   1.5824   1.6464   1.6931   1.7397
     1.7519   2.0395   2.0513   2.0570   2.0904   2.2017   2.2103   2.2164
     2.2315   2.2653   2.2774   2.3099   2.3418   2.3605   2.4304   2.4340
     2.4929   2.5040   2.5718   2.6697   2.7672   2.8523   2.8673   2.9475
     2.9815   3.0076   3.0357   3.0452   3.0800   3.0899   3.0981   3.1259
     3.1882   3.2335   3.2871   3.3064   3.3539   3.3585   3.3596   3.3711
     3.3860   3.3989   3.4122   3.4158   3.4352   3.4412   3.4637   3.4842
     3.4885   3.6143   3.6216   4.4036   4.4659   4.5277   4.6358   5.0230
     5.1389   5.1905   5.3105   5.4589   5.7198   5.8784   5.9417   5.9825
     6.2659   6.3763   6.3914   6.4137   6.9823   7.1108   7.1373   7.4757
     7.5212   7.7348   7.7554   7.9730   8.0840   8.1097   8.1893   8.3055
     8.4278   8.6102   8.7022   8.7444   8.7692   8.8558   8.9227

     occupation numbers 
     1.0000   1.0000   1.0000   1.0000   1.0000   1.0000   1.0000   1.0000
     1.0000   1.0000   1.0000   1.0000   1.0000   1.0000   1.0000   1.0000
     1.0000   1.0000   1.0000   1.0000   1.0000   1.0000   1.0000   1.0000
     1.0000   1.0000   1.0000   1.0000   1.0000   1.0000   1.0000   1.0000
     1.0000   1.0000   1.0000   1.0000   1.0000   1.0000   1.0000   1.0000
     1.0000   1.0000   1.0000   1.0000   1.0000   1.0000   1.0000   1.0000
     1.0000   1.0000   1.0000   1.0000   1.0000   1.0000   1.0000   1.0000
     1.0000   1.0000   1.0000   1.0000   1.0000   1.0000   1.0000   1.0000
     1.0000   1.0000   1.0000   1.0000   1.0000   1.0000   1.0000   1.0000
     1.0000   1.0000   1.0000   1.0000   1.0000   1.0000   1.0000   1.0000
     1.0000   1.0000   1.0000   1.0000   1.0000   1.0000   1.0000   1.0000
     1.0000   1.0000   1.0000   1.0000   1.0000   1.0000   1.0000   1.0000
     1.0000   1.0000   1.0000   1.0000   1.0000   1.0000   1.0000   1.0000
     1.0000   1.0000   1.0000   1.0000   1.0000   1.0000   1.0000   1.0000
     1.0000   1.0000   1.0000   1.0000   1.0000   1.0000   1.0000   1.0000
     1.0000   1.0000   1.0000   1.0000   1.0000   1.0000   1.0000   1.0000
     1.0000   1.0000   1.0000   1.0000   1.0000   1.0000   1.0000   1.0000
     1.0000   1.0000   1.0000   1.0000   1.0000   1.0000   1.0000   1.0000
     1.0000   1.0000   1.0000   1.0000   1.0000   1.0000   1.0000   1.0000
     1.0000   1.0000   1.0000   1.0000   1.0000   1.0000   1.0000   1.0000
     1.0000   1.0000   0.9999   0.9999   0.9999   0.9997   0.9997   0.9996
     0.9995   0.9994   0.9994   0.9992   0.9991   0.9988   0.9984   0.9980
     0.9979   0.9926   0.9923   0.9921   0.9910   0.9861   0.9856   0.9853
     0.9844   0.9823   0.9815   0.9792   0.9767   0.9752   0.9685   0.9681
     0.9613   0.9599   0.9505   0.9337   0.9130   0.8912   0.8869   0.8624
     0.8510   0.8419   0.8316   0.8280   0.8145   0.8106   0.8072   0.7957
     0.7685   0.7475   0.7214   0.7117   0.6872   0.6848   0.6842   0.6781
     0.6701   0.6632   0.6559   0.6539   0.6432   0.6399   0.6273   0.6158
     0.6133   0.5403   0.5360   0.1421   0.1223   0.1047   0.0784   0.0233
     0.0153   0.0126   0.0078   0.0042   0.0012   0.0006   0.0004   0.0003
     0.0001   0.0000   0.0000   0.0000   0.0000   0.0000   0.0000   0.0000
     0.0000   0.0000   0.0000   0.0000   0.0000   0.0000   0.0000   0.0000
     0.0000   0.0000   0.0000   0.0000   0.0000   0.0000   0.0000

          k =-0.2500 0.2500 0.0000 ( 65198 PWs)   bands (ev):

   -92.3438 -92.2921 -92.1981 -92.1477 -92.0908 -92.0501 -92.0328 -91.9091
   -55.6969 -55.6787 -55.5558 -55.5449 -55.5369 -55.5316 -55.4961 -55.4676
   -55.4508 -55.4491 -55.4429 -55.3991 -55.3788 -55.3426 -55.3243 -55.2905
   -55.2828 -55.2391 -55.2369 -55.2359 -55.2274 -55.1836 -55.1635 -55.0755
   -30.9293 -30.9139 -30.7711 -30.7479 -30.7118 -30.6852 -30.5574 -30.4890
   -29.4936 -29.4524 -29.4265 -29.3185 -22.2575 -14.6653 -14.6281 -14.5525
   -14.4350 -14.3276 -14.2035 -14.1118 -13.9097 -13.7745 -13.7658 -13.7362
   -13.7252 -13.6778 -13.6529 -13.6367 -13.6213 -13.5831 -13.4873 -13.4751
   -13.3244 -13.2965 -13.2673 -13.2477 -13.2006 -13.1484 -13.1100 -13.0890
   -13.0004 -12.9589 -12.8781 -12.8006 -12.7584 -12.7094 -12.6947 -12.6682
   -12.6458 -12.6201 -12.5948 -12.5842 -12.5713 -12.5201 -12.4943 -12.4531
   -12.4246 -12.4154 -12.3948 -12.3456 -12.1977 -12.1148 -12.0959 -11.9381
   -11.8256 -11.7738 -11.4460 -11.4242 -11.3973 -11.3849 -11.3442 -11.3094
   -11.2863 -11.2649 -11.2423 -11.1582 -11.1122 -11.1027  -5.8512  -3.1644
    -3.1610  -2.3139  -2.1049  -1.9846  -1.8951  -1.7772  -1.7102  -1.5070
    -1.3618  -1.3423  -1.3117  -1.2222  -1.1870  -1.0953  -1.0615  -1.0354
    -0.8921  -0.8368  -0.7679  -0.7401  -0.6794  -0.6579  -0.6171  -0.5883
    -0.5483  -0.4861  -0.4394  -0.3745  -0.3093  -0.2857  -0.2326  -0.2041
    -0.1595  -0.0994  -0.0523  -0.0149   0.0861   0.1173   0.1276   0.1756
     0.2366   0.3009   0.3485   0.3824   0.4399   0.4743   0.7384   0.9094
     0.9501   0.9865   1.0395   1.0771   1.1389   1.2109   1.2421   1.5263
     1.6412   1.6794   1.7138   1.7195   1.7612   1.7786   1.8237   1.8546
     1.8696   1.8965   1.9369   1.9502   1.9947   2.0146   2.0572   2.1270
     2.1472   2.1724   2.1975   2.2359   2.2712   2.3167   2.4369   2.5512
     2.5843   2.6262   2.6473   2.7092   2.7561   2.7842   2.8048   2.8274
     2.9298   2.9647   3.0358   3.0475   3.0766   3.2382   3.2453   3.2601
     3.2691   3.2801   3.2935   3.3008   3.3183   3.3270   3.3416   3.3518
     3.3638   3.3730   3.3792   3.4128   3.4237   3.4325   3.4659   3.7590
     3.8388   3.8999   3.9530   3.9824   4.1891   4.3158   4.6355   4.7955
     4.9819   5.1444   5.3307   5.5473   5.9083   6.0155   6.0327   6.1390
     6.1911   6.2385   6.3475   6.4069   6.9669   7.0357   7.0866   7.2088
     7.7411   7.8132   7.8417   7.8688   7.9748   8.1749   8.2365   8.3165
     8.4003   8.4571   8.5489   8.6901   8.7032   8.7519   8.8405

     occupation numbers 
     1.0000   1.0000   1.0000   1.0000   1.0000   1.0000   1.0000   1.0000
     1.0000   1.0000   1.0000   1.0000   1.0000   1.0000   1.0000   1.0000
     1.0000   1.0000   1.0000   1.0000   1.0000   1.0000   1.0000   1.0000
     1.0000   1.0000   1.0000   1.0000   1.0000   1.0000   1.0000   1.0000
     1.0000   1.0000   1.0000   1.0000   1.0000   1.0000   1.0000   1.0000
     1.0000   1.0000   1.0000   1.0000   1.0000   1.0000   1.0000   1.0000
     1.0000   1.0000   1.0000   1.0000   1.0000   1.0000   1.0000   1.0000
     1.0000   1.0000   1.0000   1.0000   1.0000   1.0000   1.0000   1.0000
     1.0000   1.0000   1.0000   1.0000   1.0000   1.0000   1.0000   1.0000
     1.0000   1.0000   1.0000   1.0000   1.0000   1.0000   1.0000   1.0000
     1.0000   1.0000   1.0000   1.0000   1.0000   1.0000   1.0000   1.0000
     1.0000   1.0000   1.0000   1.0000   1.0000   1.0000   1.0000   1.0000
     1.0000   1.0000   1.0000   1.0000   1.0000   1.0000   1.0000   1.0000
     1.0000   1.0000   1.0000   1.0000   1.0000   1.0000   1.0000   1.0000
     1.0000   1.0000   1.0000   1.0000   1.0000   1.0000   1.0000   1.0000
     1.0000   1.0000   1.0000   1.0000   1.0000   1.0000   1.0000   1.0000
     1.0000   1.0000   1.0000   1.0000   1.0000   1.0000   1.0000   1.0000
     1.0000   1.0000   1.0000   1.0000   1.0000   1.0000   1.0000   1.0000
     1.0000   1.0000   1.0000   1.0000   1.0000   1.0000   1.0000   1.0000
     1.0000   1.0000   1.0000   1.0000   1.0000   1.0000   1.0000   1.0000
     1.0000   1.0000   1.0000   0.9999   0.9999   0.9999   0.9999   0.9993
     0.9988   0.9985   0.9983   0.9982   0.9978   0.9977   0.9971   0.9967
     0.9964   0.9960   0.9952   0.9949   0.9939   0.9934   0.9921   0.9895
     0.9887   0.9875   0.9863   0.9841   0.9819   0.9787   0.9678   0.9535
     0.9485   0.9416   0.9379   0.9258   0.9155   0.9089   0.9038   0.8979
     0.8681   0.8568   0.8315   0.8271   0.8158   0.7453   0.7419   0.7347
     0.7303   0.7249   0.7182   0.7146   0.7057   0.7012   0.6936   0.6883
     0.6820   0.6771   0.6737   0.6556   0.6496   0.6448   0.6261   0.4548
     0.4082   0.3734   0.3440   0.3280   0.2259   0.1735   0.0785   0.0492
     0.0268   0.0150   0.0072   0.0028   0.0005   0.0003   0.0002   0.0001
     0.0001   0.0001   0.0000   0.0000   0.0000   0.0000   0.0000   0.0000
     0.0000   0.0000   0.0000   0.0000   0.0000   0.0000   0.0000   0.0000
     0.0000   0.0000   0.0000   0.0000   0.0000   0.0000   0.0000

          k =-0.5000 0.2500 0.0000 ( 65138 PWs)   bands (ev):

   -92.3438 -92.2921 -92.1981 -92.1477 -92.0908 -92.0501 -92.0328 -91.9091
   -55.6969 -55.6787 -55.5558 -55.5449 -55.5369 -55.5316 -55.4961 -55.4676
   -55.4508 -55.4491 -55.4429 -55.3991 -55.3788 -55.3426 -55.3243 -55.2905
   -55.2828 -55.2391 -55.2369 -55.2359 -55.2274 -55.1836 -55.1635 -55.0755
   -30.9271 -30.9162 -30.7707 -30.7477 -30.7117 -30.6856 -30.5575 -30.4892
   -29.4926 -29.4535 -29.4261 -29.3189 -22.2575 -14.6309 -14.5868 -14.5095
   -14.4111 -14.3681 -14.2410 -14.1588 -14.0285 -13.7743 -13.7159 -13.6862
   -13.6742 -13.6311 -13.6106 -13.5838 -13.5468 -13.5413 -13.5200 -13.4805
   -13.4687 -13.3736 -13.2881 -13.2384 -13.2346 -13.2215 -13.1534 -13.1218
   -13.0460 -12.9946 -12.8546 -12.8179 -12.7233 -12.7030 -12.6815 -12.6696
   -12.6498 -12.6214 -12.6090 -12.5941 -12.5826 -12.5174 -12.4759 -12.4577
   -12.4074 -12.3999 -12.2760 -12.2684 -12.1931 -12.1179 -11.9788 -11.9770
   -11.8819 -11.8570 -11.4185 -11.4058 -11.3916 -11.3799 -11.3585 -11.3283
   -11.2478 -11.2392 -11.2158 -11.1802 -11.1519 -11.1428  -5.8512  -3.1645
    -3.1610  -2.0867  -2.0445  -1.8956  -1.8539  -1.6939  -1.6159  -1.4749
    -1.3385  -1.2802  -1.2537  -1.2150  -1.1767  -1.0967  -0.9818  -0.9251
    -0.9018  -0.8755  -0.8006  -0.7707  -0.7338  -0.7149  -0.6544  -0.6255
    -0.5859  -0.5512  -0.5225  -0.4649  -0.4389  -0.3976  -0.3622  -0.2574
    -0.2340  -0.1400  -0.0869  -0.0503   0.0098   0.0874   0.1179   0.2254
     0.2508   0.3166   0.3564   0.4012   0.4662   0.4925   0.5236   0.5837
     0.6211   0.9341   0.9793   1.0334   1.0492   1.3560   1.4180   1.4932
     1.5209   1.6994   1.7343   1.7722   1.7870   1.8045   1.8221   1.8913
     1.9357   1.9709   2.0051   2.1042   2.1526   2.1853   2.1957   2.2232
     2.2591   2.2741   2.2849   2.3064   2.3325   2.3737   2.4019   2.4309
     2.4554   2.4819   2.5476   2.6652   2.7659   2.7967   2.8659   2.9084
     2.9646   3.0042   3.0123   3.0340   3.0391   3.0656   3.0868   3.1075
     3.1885   3.2318   3.2472   3.2527   3.2744   3.2954   3.3078   3.3227
     3.3354   3.3572   3.3702   3.3802   3.3880   3.3962   3.4083   3.9323
     3.9636   4.1284   4.1483   4.4146   4.4844   4.5399   4.7342   5.0876
     5.1483   5.2157   5.3360   5.4519   5.7250   5.7782   5.8340   5.9166
     6.0377   6.1709   6.3669   6.5006   6.5627   6.6386   7.1880   7.3014
     7.4620   7.6742   7.9643   8.0539   8.1841   8.2201   8.3148   8.4582
     8.5653   8.6198   8.7113   8.7734   8.8263   8.8725   8.9244

     occupation numbers 
     1.0000   1.0000   1.0000   1.0000   1.0000   1.0000   1.0000   1.0000
     1.0000   1.0000   1.0000   1.0000   1.0000   1.0000   1.0000   1.0000
     1.0000   1.0000   1.0000   1.0000   1.0000   1.0000   1.0000   1.0000
     1.0000   1.0000   1.0000   1.0000   1.0000   1.0000   1.0000   1.0000
     1.0000   1.0000   1.0000   1.0000   1.0000   1.0000   1.0000   1.0000
     1.0000   1.0000   1.0000   1.0000   1.0000   1.0000   1.0000   1.0000
     1.0000   1.0000   1.0000   1.0000   1.0000   1.0000   1.0000   1.0000
     1.0000   1.0000   1.0000   1.0000   1.0000   1.0000   1.0000   1.0000
     1.0000   1.0000   1.0000   1.0000   1.0000   1.0000   1.0000   1.0000
     1.0000   1.0000   1.0000   1.0000   1.0000   1.0000   1.0000   1.0000
     1.0000   1.0000   1.0000   1.0000   1.0000   1.0000   1.0000   1.0000
     1.0000   1.0000   1.0000   1.0000   1.0000   1.0000   1.0000   1.0000
     1.0000   1.0000   1.0000   1.0000   1.0000   1.0000   1.0000   1.0000
     1.0000   1.0000   1.0000   1.0000   1.0000   1.0000   1.0000   1.0000
     1.0000   1.0000   1.0000   1.0000   1.0000   1.0000   1.0000   1.0000
     1.0000   1.0000   1.0000   1.0000   1.0000   1.0000   1.0000   1.0000
     1.0000   1.0000   1.0000   1.0000   1.0000   1.0000   1.0000   1.0000
     1.0000   1.0000   1.0000   1.0000   1.0000   1.0000   1.0000   1.0000
     1.0000   1.0000   1.0000   1.0000   1.0000   1.0000   1.0000   1.0000
     1.0000   1.0000   1.0000   1.0000   1.0000   1.0000   1.0000   1.0000
     1.0000   1.0000   1.0000   1.0000   1.0000   0.9997   0.9996   0.9994
     0.9993   0.9984   0.9981   0.9977   0.9976   0.9974   0.9971   0.9961
     0.9953   0.9945   0.9936   0.9905   0.9884   0.9869   0.9864   0.9849
     0.9827   0.9817   0.9810   0.9795   0.9775   0.9740   0.9714   0.9685
     0.9658   0.9627   0.9540   0.9345   0.9132   0.9058   0.8873   0.8748
     0.8568   0.8431   0.8402   0.8322   0.8303   0.8202   0.8118   0.8034
     0.7684   0.7483   0.7410   0.7383   0.7277   0.7173   0.7110   0.7034
     0.6969   0.6855   0.6786   0.6733   0.6691   0.6646   0.6580   0.3554
     0.3382   0.2539   0.2446   0.1385   0.1169   0.1015   0.0592   0.0185
     0.0148   0.0114   0.0070   0.0043   0.0012   0.0009   0.0007   0.0005
     0.0002   0.0001   0.0000   0.0000   0.0000   0.0000   0.0000   0.0000
     0.0000   0.0000   0.0000   0.0000   0.0000   0.0000   0.0000   0.0000
     0.0000   0.0000   0.0000   0.0000   0.0000   0.0000   0.0000

     the Fermi energy is     3.6825 ev

!    total energy              =   -4482.97507445 Ry
     estimated scf accuracy    <          8.5E-09 Ry
     smearing contrib. (-TS)   =      -1.17190391 Ry
     internal energy E=F+TS    =   -4481.80317054 Ry

     The total energy is F=E-TS. E is the sum of the following terms:
     one-electron contribution =  -20251.06335540 Ry
     hartree contribution      =   10265.11341444 Ry
     xc contribution           =    -701.58172795 Ry
     ewald contribution        =    6491.38497022 Ry
     one-center paw contrib.   =    -285.65647185 Ry
      -> PAW hartree energy AE =      25.18071281 Ry
      -> PAW hartree energy PS =     -25.06444836 Ry
      -> PAW xc energy AE      =     -16.51997546 Ry
      -> PAW xc energy PS      =       6.87957584 Ry
      -> total E_H with PAW    =   10265.22967889 Ry
      -> total E_XC with PAW   =    -711.22212758 Ry

     convergence has been achieved in  53 iterations

     Writing all to output data dir /bsuhome/zayahcortright/scratch/pwscf.save/
 
     init_run     :      8.03s CPU      8.97s WALL (       1 calls)
     electrons    :    794.19s CPU    828.71s WALL (       1 calls)

     Called by init_run:
     wfcinit      :      6.45s CPU      6.67s WALL (       1 calls)
     wfcinit:atom :      0.05s CPU      0.07s WALL (       5 calls)
     wfcinit:wfcr :      6.13s CPU      6.26s WALL (       5 calls)
     potinit      :      0.24s CPU      0.27s WALL (       1 calls)
     hinit0       :      0.43s CPU      0.91s WALL (       1 calls)

     Called by electrons:
     c_bands      :    633.53s CPU    641.01s WALL (      53 calls)
     sum_band     :    120.86s CPU    136.25s WALL (      53 calls)
     v_of_rho     :      5.75s CPU      6.17s WALL (      54 calls)
     v_h          :      0.51s CPU      0.51s WALL (      54 calls)
     v_xc         :      5.24s CPU      5.66s WALL (      54 calls)
     newd         :     18.59s CPU     29.38s WALL (      54 calls)
     PAW_pot      :      1.82s CPU      1.85s WALL (      54 calls)
     mix_rho      :     13.37s CPU     13.75s WALL (      53 calls)

     Called by c_bands:
     init_us_2    :      7.33s CPU      7.43s WALL (     535 calls)
     init_us_2:cp :      7.33s CPU      7.42s WALL (     535 calls)
     cegterg      :    598.84s CPU    605.98s WALL (     265 calls)

     Called by sum_band:
     sum_band:wei :      0.37s CPU      0.38s WALL (      53 calls)
     sum_band:loo :    100.59s CPU    101.44s WALL (      53 calls)
     sum_band:buf :      1.58s CPU      1.64s WALL (     265 calls)
     sum_band:ini :      3.43s CPU      3.44s WALL (     265 calls)
     sum_band:cal :     22.42s CPU     22.50s WALL (     265 calls)
     sum_band:bec :      0.63s CPU      0.64s WALL (     265 calls)
     addusdens    :     16.92s CPU     31.37s WALL (      53 calls)
                                        0.00s GPU  (      53 calls)
     addusd:skk   :      0.33s CPU      1.01s WALL (     212 calls)
                                        0.00s GPU  (     212 calls)

     Called by *egterg:
     cdiaghg      :     65.44s CPU     65.72s WALL (    1484 calls)
     cegterg:over :     44.52s CPU     44.70s WALL (    1219 calls)
     cegterg:upda :     32.86s CPU     33.42s WALL (    1219 calls)
     cegterg:last :     68.38s CPU     68.65s WALL (     489 calls)
     cdiaghg:chol :      3.83s CPU      3.85s WALL (    1484 calls)
     cdiaghg:inve :      3.88s CPU      3.90s WALL (    1484 calls)
     cdiaghg:para :      8.41s CPU      8.46s WALL (    2968 calls)
     h_psi        :    324.60s CPU    328.13s WALL (    1489 calls)
     s_psi        :     44.93s CPU     45.11s WALL (    1489 calls)
     g_psi        :      1.22s CPU      1.23s WALL (    1219 calls)

     Called by h_psi:
     h_psi:calbec :     51.12s CPU     51.36s WALL (    1489 calls)
     vloc_psi     :    225.54s CPU    227.85s WALL (    1489 calls)
     add_vuspsi   :     44.68s CPU     44.90s WALL (    1489 calls)

     General routines
     calbec       :     73.53s CPU     73.85s WALL (    1754 calls)
     fft          :      5.56s CPU      5.62s WALL (     700 calls)
     ffts         :      4.92s CPU      4.96s WALL (    5593 calls)
     fftw         :    192.45s CPU    194.10s WALL (  364445 calls)
     interpolate  :      0.47s CPU      0.48s WALL (      54 calls)
 
     Parallel routines

     PAW routines
     PAW_pot      :      1.82s CPU      1.85s WALL (      54 calls)
 
     PWSCF        :  13m24.66s CPU  14m 3.80s WALL

 
   This run was terminated on:  18:38:55  18Jun2024            

=------------------------------------------------------------------------------=
   JOB DONE.
=------------------------------------------------------------------------------=
