
     Program PWSCF v.7.2 starts on 21Jun2024 at 22:56:10 

     This program is part of the open-source Quantum ESPRESSO suite
     for quantum simulation of materials; please cite
         "P. Giannozzi et al., J. Phys.:Condens. Matter 21 395502 (2009);
         "P. Giannozzi et al., J. Phys.:Condens. Matter 29 465901 (2017);
         "P. Giannozzi et al., J. Chem. Phys. 152 154105 (2020);
          URL http://www.quantum-espresso.org", 
     in publications or presentations arising from this work. More details at
     http://www.quantum-espresso.org/quote

     Parallel version (MPI & OpenMP), running on      48 processor cores
     Number of MPI processes:                48
     Threads/MPI process:                     1

     MPI processes distributed on     1 nodes
     60573 MiB available memory on the printing compute node when the environment starts
 
     Reading input from espresso.pwi
Warning: card &CELL ignored
Warning: card / ignored
Warning: card &FCP ignored
Warning: card / ignored
Warning: card &RISM ignored
Warning: card / ignored

     Current dimensions of program PWSCF are:
     Max number of different atomic species (ntypx) = 10
     Max number of k-points (npk) =  40000
     Max angular momentum in pseudopotentials (lmaxx) =  4
     file O.pbe-n-kjpaw_psl.0.1.UPF: wavefunction(s)  2P renormalized
     signal trapping enabled: kill the code with -SIGUSR1 to stop cleanly the simulation 
 
     K-points division:     npool     =       2
     R & G space division:  proc/nbgrp/npool/nimage =      24
     Subspace diagonalization in iterative solution of the eigenvalue problem:
     one sub-group per band group will be used
     scalapack distributed-memory algorithm (size of sub-group:  3*  3 procs)

 
     Parallelization info
     --------------------
     sticks:   dense  smooth     PW     G-vecs:    dense   smooth      PW
     Min         350     175     47                61430    21716    3036
     Max         351     177     48                61449    21727    3041
     Sum        8421    4205   1137              1474595   521381   72913
 
     Using Slab Decomposition
 


     bravais-lattice index     =            0
     lattice parameter (alat)  =      14.8599  a.u.
     unit-cell volume          =    8305.1283 (a.u.)^3
     number of atoms/cell      =           49
     number of atomic types    =            3
     number of electrons       =       430.00
     number of Kohn-Sham states=          258
     kinetic-energy cutoff     =      60.0000  Ry
     charge density cutoff     =     480.0000  Ry
     scf convergence threshold =      1.0E-08
     mixing beta               =       0.1500
     number of iterations used =            8  local-TF  mixing
     Exchange-correlation= SLA  PW   PBE  PBE
                           (   1   4   3   4   0   0   0)

     celldm(1)=  14.859904  celldm(2)=   0.000000  celldm(3)=   0.000000
     celldm(4)=   0.000000  celldm(5)=   0.000000  celldm(6)=   0.000000

     crystal axes: (cart. coord. in units of alat)
               a(1) = (   1.000000   0.000000   0.000000 )  
               a(2) = (   0.000000   1.000000   0.000000 )  
               a(3) = (   0.000000   0.000000   2.531036 )  

     reciprocal axes: (cart. coord. in units 2 pi/alat)
               b(1) = (  1.000000  0.000000  0.000000 )  
               b(2) = (  0.000000  1.000000  0.000000 )  
               b(3) = (  0.000000  0.000000  0.395095 )  


     PseudoPot. # 1 for Sr read from file:
     /bsuhome/zayahcortright/q-e/pseudo/Sr_pbe_v1.uspp.F.UPF
     MD5 check sum: 6b418c05fbe9db5448babca5e47b7a5b
     Pseudo is Ultrasoft + core correction, Zval = 10.0
     Generated by new atomic code, or converted to UPF format
     Using radial grid of  883 points,  6 beta functions with: 
                l(1) =   0
                l(2) =   0
                l(3) =   1
                l(4) =   1
                l(5) =   2
                l(6) =   2
     Q(r) pseudized with  6 coefficients,  rinner =    1.400   1.400   1.400
                                                       1.400   1.400

     PseudoPot. # 2 for O  read from file:
     /bsuhome/zayahcortright/q-e/pseudo/O.pbe-n-kjpaw_psl.0.1.UPF
     MD5 check sum: 0234752ac141de4415c5fc33072bef88
     Pseudo is Projector augmented-wave + core cor, Zval =  6.0
     Generated using "atomic" code by A. Dal Corso  v.5.0.99 svn rev. 10869
     Shape of augmentation charge: BESSEL
     Using radial grid of 1095 points,  4 beta functions with: 
                l(1) =   0
                l(2) =   0
                l(3) =   1
                l(4) =   1
     Q(r) pseudized with 0 coefficients 


     PseudoPot. # 3 for Co read from file:
     /bsuhome/zayahcortright/q-e/pseudo/Co_pbe_v1.2.uspp.F.UPF
     MD5 check sum: 5f91765df6ddd3222702df6e7b74a16d
     Pseudo is Ultrasoft + core correction, Zval = 17.0
     Generated by new atomic code, or converted to UPF format
     Using radial grid of  863 points,  6 beta functions with: 
                l(1) =   0
                l(2) =   0
                l(3) =   1
                l(4) =   1
                l(5) =   2
                l(6) =   2
     Q(r) pseudized with  8 coefficients,  rinner =    1.200   1.200   1.200
                                                       1.200   1.200

     atomic species   valence    mass     pseudopotential
        Sr            10.00    87.62000     Sr( 1.00)
        O              6.00    15.99900     O ( 1.00)
        Co            17.00    58.93319     Co( 1.00)

     No symmetry found


                                    s                        frac. trans.

      isym =  1     identity                                     

 cryst.   s( 1) = (     1          0          0      )
                  (     0          1          0      )
                  (     0          0          1      )

 cart.    s( 1) = (  1.0000000  0.0000000  0.0000000 )
                  (  0.0000000  1.0000000  0.0000000 )
                  (  0.0000000  0.0000000  1.0000000 )


   Cartesian axes

     site n.     atom                  positions (alat units)
         1           Sr  tau(   1) = (   0.2508693   0.7491307   1.7574407  )
         2           O   tau(   2) = (   0.4985141   0.5014859   1.7715967  )
         3           Sr  tau(   3) = (   0.7482398   0.7454518   1.7648669  )
         4           Sr  tau(   4) = (   0.7441748   0.2558252   1.7667843  )
         5           Sr  tau(   5) = (   0.2508693   0.7491307   1.2696799  )
         6           Sr  tau(   6) = (   0.2508693   0.7491307   0.7632319  )
         7           Co  tau(   7) = (   0.4998914   0.5001086   1.0164559  )
         8           Co  tau(   8) = (   0.4936915   0.5063085   1.5135603  )
         9           O   tau(   9) = (   0.4988895   0.7610401   1.0164559  )
        10           O   tau(  10) = (   0.2389599   0.5011105   1.0164559  )
        11           O   tau(  11) = (   0.0070918   0.7374880   1.0164559  )
        12           O   tau(  12) = (   0.0088340   0.7405089   1.5135603  )
        13           O   tau(  13) = (   0.5066944   0.7415376   1.5135603  )
        14           O   tau(  14) = (   0.2584624   0.4933056   1.5135603  )
        15           O   tau(  15) = (   0.4985141   0.5014859   0.7773880  )
        16           O   tau(  16) = (   0.4985141   0.5014859   1.2555238  )
        17           Sr  tau(  17) = (   0.7482398   0.7454518   0.7706582  )
        18           Sr  tau(  18) = (   0.7482398   0.7454518   1.2622536  )
        19           Sr  tau(  19) = (   0.7441748   0.2558252   0.7725755  )
        20           Sr  tau(  20) = (   0.7441748   0.2558252   1.2603363  )
        21           O   tau(  21) = (   0.7322655   0.0078049   1.5135603  )
        22           O   tau(  22) = (   0.7558175   0.4996027   1.5135603  )
        23           O   tau(  23) = (   0.5003973   0.2441825   1.5135603  )
        24           O   tau(  24) = (   0.7527966   0.4978604   1.0164559  )
        25           O   tau(  25) = (   0.5021396   0.2472034   1.0164559  )
        26           O   tau(  26) = (   0.7517679   0.0000000   1.0164559  )
        27           O   tau(  27) = (   0.0114961   0.4948124   1.7455321  )
        28           O   tau(  28) = (   0.0048226   0.0077944   1.7715967  )
        29           Sr  tau(  29) = (   0.2545482   0.2517602   1.7648669  )
        30           O   tau(  30) = (   0.5048017   0.0015068   1.7786929  )
        31           Co  tau(  31) = (   0.0056869   0.5006215   1.0164559  )
        32           Co  tau(  32) = (   0.0065315   0.4997770   1.5135603  )
        33           Co  tau(  33) = (   0.0061999   0.0064171   1.0164559  )
        34           Co  tau(  34) = (   0.0000000   0.0126169   1.5135603  )
        35           O   tau(  35) = (   0.0114961   0.4948124   1.2815885  )
        36           O   tau(  36) = (   0.0114961   0.4948124   0.7513233  )
        37           O   tau(  37) = (   0.0051979   0.2673486   1.0164559  )
        38           O   tau(  38) = (   0.0130029   0.2478461   1.5135603  )
        39           O   tau(  39) = (   0.0048226   0.0077944   0.7773880  )
        40           O   tau(  40) = (   0.0048226   0.0077944   1.2555238  )
        41           Sr  tau(  41) = (   0.2545482   0.2517602   0.7706582  )
        42           Sr  tau(  42) = (   0.2545482   0.2517602   1.2622536  )
        43           Co  tau(  43) = (   0.4989925   0.0073160   1.5135603  )
        44           Co  tau(  44) = (   0.4998370   0.0064714   1.0164559  )
        45           O   tau(  45) = (   0.5048017   0.0015068   0.7844841  )
        46           O   tau(  46) = (   0.5048017   0.0015068   1.2484277  )
        47           O   tau(  47) = (   0.2621260   0.0059111   1.5135603  )
        48           O   tau(  48) = (   0.2591051   0.0041689   1.0164559  )
        49           O   tau(  49) = (   0.7108228   0.1421646   2.1602013  )

   Crystallographic axes

     site n.     atom                  positions (cryst. coord.)
         1           Sr  tau(   1) = (  0.2508693  0.7491307  0.6943562  )
         2           O   tau(   2) = (  0.4985141  0.5014859  0.6999492  )
         3           Sr  tau(   3) = (  0.7482398  0.7454518  0.6972903  )
         4           Sr  tau(   4) = (  0.7441748  0.2558252  0.6980478  )
         5           Sr  tau(   5) = (  0.2508693  0.7491307  0.5016443  )
         6           Sr  tau(   6) = (  0.2508693  0.7491307  0.3015492  )
         7           Co  tau(   7) = (  0.4998914  0.5001086  0.4015968  )
         8           Co  tau(   8) = (  0.4936915  0.5063085  0.5980003  )
         9           O   tau(   9) = (  0.4988895  0.7610401  0.4015968  )
        10           O   tau(  10) = (  0.2389599  0.5011105  0.4015968  )
        11           O   tau(  11) = (  0.0070918  0.7374880  0.4015968  )
        12           O   tau(  12) = (  0.0088340  0.7405089  0.5980003  )
        13           O   tau(  13) = (  0.5066944  0.7415376  0.5980003  )
        14           O   tau(  14) = (  0.2584624  0.4933056  0.5980003  )
        15           O   tau(  15) = (  0.4985141  0.5014859  0.3071422  )
        16           O   tau(  16) = (  0.4985141  0.5014859  0.4960513  )
        17           Sr  tau(  17) = (  0.7482398  0.7454518  0.3044833  )
        18           Sr  tau(  18) = (  0.7482398  0.7454518  0.4987103  )
        19           Sr  tau(  19) = (  0.7441748  0.2558252  0.3052408  )
        20           Sr  tau(  20) = (  0.7441748  0.2558252  0.4979527  )
        21           O   tau(  21) = (  0.7322655  0.0078049  0.5980003  )
        22           O   tau(  22) = (  0.7558175  0.4996027  0.5980003  )
        23           O   tau(  23) = (  0.5003973  0.2441825  0.5980003  )
        24           O   tau(  24) = (  0.7527966  0.4978604  0.4015968  )
        25           O   tau(  25) = (  0.5021396  0.2472034  0.4015968  )
        26           O   tau(  26) = (  0.7517679  0.0000000  0.4015968  )
        27           O   tau(  27) = (  0.0114961  0.4948124  0.6896512  )
        28           O   tau(  28) = (  0.0048226  0.0077944  0.6999492  )
        29           Sr  tau(  29) = (  0.2545482  0.2517602  0.6972903  )
        30           O   tau(  30) = (  0.5048017  0.0015068  0.7027529  )
        31           Co  tau(  31) = (  0.0056869  0.5006215  0.4015968  )
        32           Co  tau(  32) = (  0.0065315  0.4997770  0.5980003  )
        33           Co  tau(  33) = (  0.0061999  0.0064171  0.4015968  )
        34           Co  tau(  34) = (  0.0000000  0.0126169  0.5980003  )
        35           O   tau(  35) = (  0.0114961  0.4948124  0.5063494  )
        36           O   tau(  36) = (  0.0114961  0.4948124  0.2968442  )
        37           O   tau(  37) = (  0.0051979  0.2673486  0.4015968  )
        38           O   tau(  38) = (  0.0130029  0.2478461  0.5980003  )
        39           O   tau(  39) = (  0.0048226  0.0077944  0.3071422  )
        40           O   tau(  40) = (  0.0048226  0.0077944  0.4960513  )
        41           Sr  tau(  41) = (  0.2545482  0.2517602  0.3044833  )
        42           Sr  tau(  42) = (  0.2545482  0.2517602  0.4987103  )
        43           Co  tau(  43) = (  0.4989925  0.0073160  0.5980003  )
        44           Co  tau(  44) = (  0.4998370  0.0064714  0.4015968  )
        45           O   tau(  45) = (  0.5048017  0.0015068  0.3099459  )
        46           O   tau(  46) = (  0.5048017  0.0015068  0.4932477  )
        47           O   tau(  47) = (  0.2621260  0.0059111  0.5980003  )
        48           O   tau(  48) = (  0.2591051  0.0041689  0.4015968  )
        49           O   tau(  49) = (  0.7108228  0.1421646  0.8534850  )

     number of k points=    10  Gaussian smearing, width (Ry)=  0.0700
                       cart. coord. in units 2pi/alat
        k(    1) = (   0.0000000   0.0000000   0.0000000), wk =   0.1250000
        k(    2) = (   0.0000000   0.2500000   0.0000000), wk =   0.2500000
        k(    3) = (   0.0000000  -0.5000000   0.0000000), wk =   0.1250000
        k(    4) = (   0.2500000   0.2500000   0.0000000), wk =   0.2500000
        k(    5) = (   0.2500000  -0.5000000   0.0000000), wk =   0.2500000
        k(    6) = (  -0.5000000  -0.5000000   0.0000000), wk =   0.1250000
        k(    7) = (   0.2500000   0.0000000   0.0000000), wk =   0.2500000
        k(    8) = (  -0.5000000   0.0000000   0.0000000), wk =   0.1250000
        k(    9) = (  -0.2500000   0.2500000   0.0000000), wk =   0.2500000
        k(   10) = (  -0.5000000   0.2500000   0.0000000), wk =   0.2500000

                       cryst. coord.
        k(    1) = (   0.0000000   0.0000000   0.0000000), wk =   0.1250000
        k(    2) = (   0.0000000   0.2500000   0.0000000), wk =   0.2500000
        k(    3) = (   0.0000000  -0.5000000   0.0000000), wk =   0.1250000
        k(    4) = (   0.2500000   0.2500000   0.0000000), wk =   0.2500000
        k(    5) = (   0.2500000  -0.5000000   0.0000000), wk =   0.2500000
        k(    6) = (  -0.5000000  -0.5000000   0.0000000), wk =   0.1250000
        k(    7) = (   0.2500000   0.0000000   0.0000000), wk =   0.2500000
        k(    8) = (  -0.5000000   0.0000000   0.0000000), wk =   0.1250000
        k(    9) = (  -0.2500000   0.2500000   0.0000000), wk =   0.2500000
        k(   10) = (  -0.5000000   0.2500000   0.0000000), wk =   0.2500000

     Dense  grid:  1474595 G-vectors     FFT dimensions: ( 108, 108, 270)

     Smooth grid:   521381 G-vectors     FFT dimensions: (  75,  75, 192)

     Dynamical RAM for                 wfc:      10.69 MB

     Dynamical RAM for     wfc (w. buffer):      64.13 MB

     Dynamical RAM for           str. fact:       2.81 MB

     Dynamical RAM for           local pot:       0.00 MB

     Dynamical RAM for          nlocal pot:      24.53 MB

     Dynamical RAM for                qrad:       5.27 MB

     Dynamical RAM for          rho,v,vnew:       6.02 MB

     Dynamical RAM for               rhoin:       2.01 MB

     Dynamical RAM for            rho*nmix:      15.00 MB

     Dynamical RAM for           G-vectors:       3.68 MB

     Dynamical RAM for          h,s,v(r/c):       1.35 MB

     Dynamical RAM for          <psi|beta>:       2.33 MB

     Dynamical RAM for                 psi:      21.38 MB

     Dynamical RAM for                hpsi:      21.38 MB

     Dynamical RAM for                spsi:      21.38 MB

     Dynamical RAM for      wfcinit/wfcrot:      34.39 MB

     Dynamical RAM for           addusdens:     101.26 MB

     Estimated static dynamical RAM per process >     117.53 MB

     Estimated max dynamical RAM per process >     233.79 MB

     Estimated total dynamical RAM >      10.61 GB

     Check: negative core charge=   -0.000004

     Initial potential from superposition of free atoms

     starting charge     421.5961, renormalised to     430.0000

     negative rho (up, down):  7.826E-01 0.000E+00
     Starting wfcs are  376 randomized atomic wfcs
     Checking if some PAW data can be deallocated... 
       PAW data deallocated on   19 nodes for type:  2

     total cpu time spent up to now is        9.0 secs

     Self-consistent Calculation

     iteration #  1     ecut=    60.00 Ry     beta= 0.15
     Davidson diagonalization with overlap

---- Real-time Memory Report at c_bands before calling an iterative solver
             0 MiB given to the printing process from OS
             0 MiB allocation reported by mallinfo(arena+hblkhd)
         51482 MiB available memory on the node where the printing process lives
------------------
     ethr =  1.00E-02,  avg # of iterations =  2.0

     negative rho (up, down):  7.718E-01 0.000E+00

     total cpu time spent up to now is       24.7 secs

     total energy              =   -4445.25283452 Ry
     estimated scf accuracy    <      53.77924067 Ry

     iteration #  2     ecut=    60.00 Ry     beta= 0.15
     Davidson diagonalization with overlap

---- Real-time Memory Report at c_bands before calling an iterative solver
             0 MiB given to the printing process from OS
             0 MiB allocation reported by mallinfo(arena+hblkhd)
         51834 MiB available memory on the node where the printing process lives
------------------
     ethr =  1.00E-02,  avg # of iterations =  1.0

     negative rho (up, down):  7.593E-01 0.000E+00

     total cpu time spent up to now is       37.5 secs

     total energy              =   -4441.95253920 Ry
     estimated scf accuracy    <      28.35927904 Ry

     iteration #  3     ecut=    60.00 Ry     beta= 0.15
     Davidson diagonalization with overlap

---- Real-time Memory Report at c_bands before calling an iterative solver
             0 MiB given to the printing process from OS
             0 MiB allocation reported by mallinfo(arena+hblkhd)
         51077 MiB available memory on the node where the printing process lives
------------------
     ethr =  6.60E-03,  avg # of iterations =  1.0

     negative rho (up, down):  7.530E-01 0.000E+00

     total cpu time spent up to now is       50.6 secs

     total energy              =   -4442.59567386 Ry
     estimated scf accuracy    <      30.17683580 Ry

     iteration #  4     ecut=    60.00 Ry     beta= 0.15
     Davidson diagonalization with overlap

---- Real-time Memory Report at c_bands before calling an iterative solver
             0 MiB given to the printing process from OS
             0 MiB allocation reported by mallinfo(arena+hblkhd)
         51024 MiB available memory on the node where the printing process lives
------------------
     ethr =  6.60E-03,  avg # of iterations =  1.0

     negative rho (up, down):  7.536E-01 0.000E+00

     total cpu time spent up to now is       63.6 secs

     total energy              =   -4442.68370697 Ry
     estimated scf accuracy    <      28.24967447 Ry

     iteration #  5     ecut=    60.00 Ry     beta= 0.15
     Davidson diagonalization with overlap

---- Real-time Memory Report at c_bands before calling an iterative solver
             0 MiB given to the printing process from OS
             0 MiB allocation reported by mallinfo(arena+hblkhd)
         51004 MiB available memory on the node where the printing process lives
------------------
     ethr =  6.57E-03,  avg # of iterations =  1.0

     negative rho (up, down):  7.398E-01 0.000E+00

     total cpu time spent up to now is       76.5 secs

     total energy              =   -4441.98584520 Ry
     estimated scf accuracy    <      23.07551185 Ry

     iteration #  6     ecut=    60.00 Ry     beta= 0.15
     Davidson diagonalization with overlap

---- Real-time Memory Report at c_bands before calling an iterative solver
             0 MiB given to the printing process from OS
             0 MiB allocation reported by mallinfo(arena+hblkhd)
         50990 MiB available memory on the node where the printing process lives
------------------
     ethr =  5.37E-03,  avg # of iterations =  1.0

     negative rho (up, down):  7.474E-01 0.000E+00

     total cpu time spent up to now is       89.4 secs

     total energy              =   -4441.75829599 Ry
     estimated scf accuracy    <      50.09725815 Ry

     iteration #  7     ecut=    60.00 Ry     beta= 0.15
     Davidson diagonalization with overlap

---- Real-time Memory Report at c_bands before calling an iterative solver
             0 MiB given to the printing process from OS
             0 MiB allocation reported by mallinfo(arena+hblkhd)
         50975 MiB available memory on the node where the printing process lives
------------------
     ethr =  5.37E-03,  avg # of iterations =  1.0

     negative rho (up, down):  7.473E-01 0.000E+00

     total cpu time spent up to now is      102.2 secs

     total energy              =   -4440.88457133 Ry
     estimated scf accuracy    <      23.18725418 Ry

     iteration #  8     ecut=    60.00 Ry     beta= 0.15
     Davidson diagonalization with overlap

---- Real-time Memory Report at c_bands before calling an iterative solver
             0 MiB given to the printing process from OS
             0 MiB allocation reported by mallinfo(arena+hblkhd)
         50956 MiB available memory on the node where the printing process lives
------------------
     ethr =  5.37E-03,  avg # of iterations =  1.0

     negative rho (up, down):  7.449E-01 0.000E+00

     total cpu time spent up to now is      115.3 secs

     total energy              =   -4440.86134711 Ry
     estimated scf accuracy    <       4.90275017 Ry

     iteration #  9     ecut=    60.00 Ry     beta= 0.15
     Davidson diagonalization with overlap

---- Real-time Memory Report at c_bands before calling an iterative solver
             0 MiB given to the printing process from OS
             0 MiB allocation reported by mallinfo(arena+hblkhd)
         50929 MiB available memory on the node where the printing process lives
------------------
     ethr =  1.14E-03,  avg # of iterations =  2.4

     negative rho (up, down):  7.612E-01 0.000E+00

     total cpu time spent up to now is      129.6 secs

     total energy              =   -4440.80369489 Ry
     estimated scf accuracy    <      20.14191930 Ry

     iteration # 10     ecut=    60.00 Ry     beta= 0.15
     Davidson diagonalization with overlap

---- Real-time Memory Report at c_bands before calling an iterative solver
             0 MiB given to the printing process from OS
             0 MiB allocation reported by mallinfo(arena+hblkhd)
         50905 MiB available memory on the node where the printing process lives
------------------
     ethr =  1.14E-03,  avg # of iterations =  2.0

     negative rho (up, down):  7.671E-01 0.000E+00

     total cpu time spent up to now is      144.0 secs

     total energy              =   -4440.08494898 Ry
     estimated scf accuracy    <      42.97180883 Ry

     iteration # 11     ecut=    60.00 Ry     beta= 0.15
     Davidson diagonalization with overlap

---- Real-time Memory Report at c_bands before calling an iterative solver
             0 MiB given to the printing process from OS
             0 MiB allocation reported by mallinfo(arena+hblkhd)
         50900 MiB available memory on the node where the printing process lives
------------------
     ethr =  1.14E-03,  avg # of iterations =  7.9

     negative rho (up, down):  7.733E-01 0.000E+00

     total cpu time spent up to now is      161.1 secs

     total energy              =   -4440.34853362 Ry
     estimated scf accuracy    <       6.72535410 Ry

     iteration # 12     ecut=    60.00 Ry     beta= 0.15
     Davidson diagonalization with overlap

---- Real-time Memory Report at c_bands before calling an iterative solver
             0 MiB given to the printing process from OS
             0 MiB allocation reported by mallinfo(arena+hblkhd)
         50700 MiB available memory on the node where the printing process lives
------------------
     ethr =  1.14E-03,  avg # of iterations =  2.0

     negative rho (up, down):  7.784E-01 0.000E+00

     total cpu time spent up to now is      175.0 secs

     total energy              =   -4440.51865179 Ry
     estimated scf accuracy    <       2.22229116 Ry

     iteration # 13     ecut=    60.00 Ry     beta= 0.15
     Davidson diagonalization with overlap

---- Real-time Memory Report at c_bands before calling an iterative solver
             0 MiB given to the printing process from OS
             0 MiB allocation reported by mallinfo(arena+hblkhd)
         50725 MiB available memory on the node where the printing process lives
------------------
     ethr =  5.17E-04,  avg # of iterations =  9.9

     negative rho (up, down):  7.968E-01 0.000E+00

     total cpu time spent up to now is      193.6 secs

     total energy              =   -4440.43645524 Ry
     estimated scf accuracy    <       0.69654509 Ry

     iteration # 14     ecut=    60.00 Ry     beta= 0.15
     Davidson diagonalization with overlap

---- Real-time Memory Report at c_bands before calling an iterative solver
             0 MiB given to the printing process from OS
             0 MiB allocation reported by mallinfo(arena+hblkhd)
         50524 MiB available memory on the node where the printing process lives
------------------
     ethr =  1.62E-04,  avg # of iterations =  6.7

     negative rho (up, down):  8.060E-01 0.000E+00

     total cpu time spent up to now is      210.4 secs

     total energy              =   -4440.25238674 Ry
     estimated scf accuracy    <      10.53484211 Ry

     iteration # 15     ecut=    60.00 Ry     beta= 0.15
     Davidson diagonalization with overlap

---- Real-time Memory Report at c_bands before calling an iterative solver
             0 MiB given to the printing process from OS
             0 MiB allocation reported by mallinfo(arena+hblkhd)
         50458 MiB available memory on the node where the printing process lives
------------------
     ethr =  1.62E-04,  avg # of iterations =  5.5

     negative rho (up, down):  8.153E-01 0.000E+00

     total cpu time spent up to now is      226.3 secs

     total energy              =   -4440.41249554 Ry
     estimated scf accuracy    <       0.50461150 Ry

     iteration # 16     ecut=    60.00 Ry     beta= 0.15
     Davidson diagonalization with overlap

---- Real-time Memory Report at c_bands before calling an iterative solver
             0 MiB given to the printing process from OS
             0 MiB allocation reported by mallinfo(arena+hblkhd)
         50486 MiB available memory on the node where the printing process lives
------------------
     ethr =  1.17E-04,  avg # of iterations =  5.1

     negative rho (up, down):  8.236E-01 0.000E+00

     total cpu time spent up to now is      242.1 secs

     total energy              =   -4440.38640509 Ry
     estimated scf accuracy    <       0.32150311 Ry

     iteration # 17     ecut=    60.00 Ry     beta= 0.15
     Davidson diagonalization with overlap

---- Real-time Memory Report at c_bands before calling an iterative solver
             0 MiB given to the printing process from OS
             0 MiB allocation reported by mallinfo(arena+hblkhd)
         50473 MiB available memory on the node where the printing process lives
------------------
     c_bands:  1 eigenvalues not converged
     ethr =  7.48E-05,  avg # of iterations = 13.7

     negative rho (up, down):  8.225E-01 0.000E+00

     total cpu time spent up to now is      261.0 secs

     total energy              =   -4440.37063730 Ry
     estimated scf accuracy    <       0.32861772 Ry

     iteration # 18     ecut=    60.00 Ry     beta= 0.15
     Davidson diagonalization with overlap

---- Real-time Memory Report at c_bands before calling an iterative solver
             0 MiB given to the printing process from OS
             0 MiB allocation reported by mallinfo(arena+hblkhd)
         50490 MiB available memory on the node where the printing process lives
------------------
     ethr =  7.48E-05,  avg # of iterations =  1.5

     negative rho (up, down):  8.144E-01 0.000E+00

     total cpu time spent up to now is      274.7 secs

     total energy              =   -4440.35122990 Ry
     estimated scf accuracy    <       0.17253127 Ry

     iteration # 19     ecut=    60.00 Ry     beta= 0.15
     Davidson diagonalization with overlap

---- Real-time Memory Report at c_bands before calling an iterative solver
             0 MiB given to the printing process from OS
             0 MiB allocation reported by mallinfo(arena+hblkhd)
         50492 MiB available memory on the node where the printing process lives
------------------
     ethr =  4.01E-05,  avg # of iterations = 12.2

     negative rho (up, down):  8.165E-01 0.000E+00

     total cpu time spent up to now is      293.4 secs

     total energy              =   -4440.35270176 Ry
     estimated scf accuracy    <       0.26018778 Ry

     iteration # 20     ecut=    60.00 Ry     beta= 0.15
     Davidson diagonalization with overlap

---- Real-time Memory Report at c_bands before calling an iterative solver
             0 MiB given to the printing process from OS
             0 MiB allocation reported by mallinfo(arena+hblkhd)
         50498 MiB available memory on the node where the printing process lives
------------------
     ethr =  4.01E-05,  avg # of iterations =  1.1

     negative rho (up, down):  8.084E-01 0.000E+00

     total cpu time spent up to now is      306.3 secs

     total energy              =   -4440.33856864 Ry
     estimated scf accuracy    <       0.18386450 Ry

     iteration # 21     ecut=    60.00 Ry     beta= 0.15
     Davidson diagonalization with overlap

---- Real-time Memory Report at c_bands before calling an iterative solver
             0 MiB given to the printing process from OS
             0 MiB allocation reported by mallinfo(arena+hblkhd)
         50509 MiB available memory on the node where the printing process lives
------------------
     ethr =  4.01E-05,  avg # of iterations =  2.5

     negative rho (up, down):  8.066E-01 0.000E+00

     total cpu time spent up to now is      320.4 secs

     total energy              =   -4440.32616831 Ry
     estimated scf accuracy    <       0.10042536 Ry

     iteration # 22     ecut=    60.00 Ry     beta= 0.15
     Davidson diagonalization with overlap

---- Real-time Memory Report at c_bands before calling an iterative solver
             0 MiB given to the printing process from OS
             0 MiB allocation reported by mallinfo(arena+hblkhd)
         50543 MiB available memory on the node where the printing process lives
------------------
     ethr =  2.34E-05,  avg # of iterations = 10.4

     negative rho (up, down):  8.195E-01 0.000E+00

     total cpu time spent up to now is      338.5 secs

     total energy              =   -4440.31506194 Ry
     estimated scf accuracy    <       0.06561796 Ry

     iteration # 23     ecut=    60.00 Ry     beta= 0.15
     Davidson diagonalization with overlap

---- Real-time Memory Report at c_bands before calling an iterative solver
             0 MiB given to the printing process from OS
             0 MiB allocation reported by mallinfo(arena+hblkhd)
         50443 MiB available memory on the node where the printing process lives
------------------
     ethr =  1.53E-05,  avg # of iterations = 10.0

     negative rho (up, down):  8.247E-01 0.000E+00

     total cpu time spent up to now is      356.9 secs

     total energy              =   -4440.31238993 Ry
     estimated scf accuracy    <       0.03163271 Ry

     iteration # 24     ecut=    60.00 Ry     beta= 0.15
     Davidson diagonalization with overlap

---- Real-time Memory Report at c_bands before calling an iterative solver
             0 MiB given to the printing process from OS
             0 MiB allocation reported by mallinfo(arena+hblkhd)
         50415 MiB available memory on the node where the printing process lives
------------------
     ethr =  7.36E-06,  avg # of iterations =  8.3

     negative rho (up, down):  8.290E-01 0.000E+00

     total cpu time spent up to now is      374.2 secs

     total energy              =   -4440.31181401 Ry
     estimated scf accuracy    <       0.01852817 Ry

     iteration # 25     ecut=    60.00 Ry     beta= 0.15
     Davidson diagonalization with overlap

---- Real-time Memory Report at c_bands before calling an iterative solver
             0 MiB given to the printing process from OS
             0 MiB allocation reported by mallinfo(arena+hblkhd)
         50381 MiB available memory on the node where the printing process lives
------------------
     c_bands:  1 eigenvalues not converged
     ethr =  4.31E-06,  avg # of iterations = 13.0

     negative rho (up, down):  8.062E-01 0.000E+00

     total cpu time spent up to now is      393.2 secs

     total energy              =   -4440.30981745 Ry
     estimated scf accuracy    <       0.01231122 Ry

     iteration # 26     ecut=    60.00 Ry     beta= 0.15
     Davidson diagonalization with overlap

---- Real-time Memory Report at c_bands before calling an iterative solver
             0 MiB given to the printing process from OS
             0 MiB allocation reported by mallinfo(arena+hblkhd)
         50363 MiB available memory on the node where the printing process lives
------------------
     ethr =  2.86E-06,  avg # of iterations =  2.4

     negative rho (up, down):  7.999E-01 0.000E+00

     total cpu time spent up to now is      407.9 secs

     total energy              =   -4440.30861976 Ry
     estimated scf accuracy    <       0.00816769 Ry

     iteration # 27     ecut=    60.00 Ry     beta= 0.15
     Davidson diagonalization with overlap

---- Real-time Memory Report at c_bands before calling an iterative solver
             0 MiB given to the printing process from OS
             0 MiB allocation reported by mallinfo(arena+hblkhd)
         50384 MiB available memory on the node where the printing process lives
------------------
     c_bands:  1 eigenvalues not converged
     c_bands:  1 eigenvalues not converged
     ethr =  1.90E-06,  avg # of iterations = 12.3

     negative rho (up, down):  7.978E-01 0.000E+00

     total cpu time spent up to now is      427.6 secs

     total energy              =   -4440.30882082 Ry
     estimated scf accuracy    <       0.00284905 Ry

     iteration # 28     ecut=    60.00 Ry     beta= 0.15
     Davidson diagonalization with overlap

---- Real-time Memory Report at c_bands before calling an iterative solver
             0 MiB given to the printing process from OS
             0 MiB allocation reported by mallinfo(arena+hblkhd)
         50362 MiB available memory on the node where the printing process lives
------------------
     ethr =  6.63E-07,  avg # of iterations =  4.2

     negative rho (up, down):  7.983E-01 0.000E+00

     total cpu time spent up to now is      442.8 secs

     total energy              =   -4440.30870179 Ry
     estimated scf accuracy    <       0.00195405 Ry

     iteration # 29     ecut=    60.00 Ry     beta= 0.15
     Davidson diagonalization with overlap

---- Real-time Memory Report at c_bands before calling an iterative solver
             0 MiB given to the printing process from OS
             0 MiB allocation reported by mallinfo(arena+hblkhd)
         50398 MiB available memory on the node where the printing process lives
------------------
     c_bands:  1 eigenvalues not converged
     c_bands:  1 eigenvalues not converged
     ethr =  4.54E-07,  avg # of iterations = 11.4

     negative rho (up, down):  7.977E-01 0.000E+00

     total cpu time spent up to now is      461.2 secs

     total energy              =   -4440.30875470 Ry
     estimated scf accuracy    <       0.00086228 Ry

     iteration # 30     ecut=    60.00 Ry     beta= 0.15
     Davidson diagonalization with overlap

---- Real-time Memory Report at c_bands before calling an iterative solver
             0 MiB given to the printing process from OS
             0 MiB allocation reported by mallinfo(arena+hblkhd)
         50406 MiB available memory on the node where the printing process lives
------------------
     c_bands:  1 eigenvalues not converged
     c_bands:  1 eigenvalues not converged
     ethr =  2.01E-07,  avg # of iterations =  9.6

     negative rho (up, down):  7.975E-01 0.000E+00

     total cpu time spent up to now is      479.3 secs

     total energy              =   -4440.30874220 Ry
     estimated scf accuracy    <       0.00060030 Ry

     iteration # 31     ecut=    60.00 Ry     beta= 0.15
     Davidson diagonalization with overlap

---- Real-time Memory Report at c_bands before calling an iterative solver
             0 MiB given to the printing process from OS
             0 MiB allocation reported by mallinfo(arena+hblkhd)
         50425 MiB available memory on the node where the printing process lives
------------------
     ethr =  1.40E-07,  avg # of iterations =  2.4

     negative rho (up, down):  7.947E-01 0.000E+00

     total cpu time spent up to now is      494.1 secs

     total energy              =   -4440.30863375 Ry
     estimated scf accuracy    <       0.00043217 Ry

     iteration # 32     ecut=    60.00 Ry     beta= 0.15
     Davidson diagonalization with overlap

---- Real-time Memory Report at c_bands before calling an iterative solver
             0 MiB given to the printing process from OS
             0 MiB allocation reported by mallinfo(arena+hblkhd)
         50501 MiB available memory on the node where the printing process lives
------------------
     ethr =  1.01E-07,  avg # of iterations =  6.8

     negative rho (up, down):  7.938E-01 0.000E+00

     total cpu time spent up to now is      510.5 secs

     total energy              =   -4440.30865350 Ry
     estimated scf accuracy    <       0.00015054 Ry

     iteration # 33     ecut=    60.00 Ry     beta= 0.15
     Davidson diagonalization with overlap

---- Real-time Memory Report at c_bands before calling an iterative solver
             0 MiB given to the printing process from OS
             0 MiB allocation reported by mallinfo(arena+hblkhd)
         50477 MiB available memory on the node where the printing process lives
------------------
     ethr =  3.50E-08,  avg # of iterations =  2.0

     negative rho (up, down):  7.934E-01 0.000E+00

     total cpu time spent up to now is      524.7 secs

     total energy              =   -4440.30865993 Ry
     estimated scf accuracy    <       0.00009452 Ry

     iteration # 34     ecut=    60.00 Ry     beta= 0.15
     Davidson diagonalization with overlap

---- Real-time Memory Report at c_bands before calling an iterative solver
             0 MiB given to the printing process from OS
             0 MiB allocation reported by mallinfo(arena+hblkhd)
         50474 MiB available memory on the node where the printing process lives
------------------
     ethr =  2.20E-08,  avg # of iterations =  2.0

     negative rho (up, down):  7.927E-01 0.000E+00

     total cpu time spent up to now is      538.9 secs

     total energy              =   -4440.30866595 Ry
     estimated scf accuracy    <       0.00006188 Ry

     iteration # 35     ecut=    60.00 Ry     beta= 0.15
     Davidson diagonalization with overlap

---- Real-time Memory Report at c_bands before calling an iterative solver
             0 MiB given to the printing process from OS
             0 MiB allocation reported by mallinfo(arena+hblkhd)
         50492 MiB available memory on the node where the printing process lives
------------------
     ethr =  1.44E-08,  avg # of iterations =  2.0

     negative rho (up, down):  7.931E-01 0.000E+00

     total cpu time spent up to now is      553.2 secs

     total energy              =   -4440.30866509 Ry
     estimated scf accuracy    <       0.00003619 Ry

     iteration # 36     ecut=    60.00 Ry     beta= 0.15
     Davidson diagonalization with overlap

---- Real-time Memory Report at c_bands before calling an iterative solver
             0 MiB given to the printing process from OS
             0 MiB allocation reported by mallinfo(arena+hblkhd)
         50497 MiB available memory on the node where the printing process lives
------------------
     ethr =  8.42E-09,  avg # of iterations =  2.0

     negative rho (up, down):  7.935E-01 0.000E+00

     total cpu time spent up to now is      567.5 secs

     total energy              =   -4440.30866696 Ry
     estimated scf accuracy    <       0.00002235 Ry

     iteration # 37     ecut=    60.00 Ry     beta= 0.15
     Davidson diagonalization with overlap

---- Real-time Memory Report at c_bands before calling an iterative solver
             0 MiB given to the printing process from OS
             0 MiB allocation reported by mallinfo(arena+hblkhd)
         50500 MiB available memory on the node where the printing process lives
------------------
     ethr =  5.20E-09,  avg # of iterations =  2.0

     negative rho (up, down):  7.932E-01 0.000E+00

     total cpu time spent up to now is      581.7 secs

     total energy              =   -4440.30866761 Ry
     estimated scf accuracy    <       0.00001098 Ry

     iteration # 38     ecut=    60.00 Ry     beta= 0.15
     Davidson diagonalization with overlap

---- Real-time Memory Report at c_bands before calling an iterative solver
             0 MiB given to the printing process from OS
             0 MiB allocation reported by mallinfo(arena+hblkhd)
         50512 MiB available memory on the node where the printing process lives
------------------
     ethr =  2.55E-09,  avg # of iterations =  2.0

     negative rho (up, down):  7.933E-01 0.000E+00

     total cpu time spent up to now is      596.0 secs

     total energy              =   -4440.30866812 Ry
     estimated scf accuracy    <       0.00000834 Ry

     iteration # 39     ecut=    60.00 Ry     beta= 0.15
     Davidson diagonalization with overlap

---- Real-time Memory Report at c_bands before calling an iterative solver
             0 MiB given to the printing process from OS
             0 MiB allocation reported by mallinfo(arena+hblkhd)
         50516 MiB available memory on the node where the printing process lives
------------------
     ethr =  1.94E-09,  avg # of iterations =  1.2

     negative rho (up, down):  7.926E-01 0.000E+00

     total cpu time spent up to now is      609.0 secs

     total energy              =   -4440.30867002 Ry
     estimated scf accuracy    <       0.00000543 Ry

     iteration # 40     ecut=    60.00 Ry     beta= 0.15
     Davidson diagonalization with overlap

---- Real-time Memory Report at c_bands before calling an iterative solver
             0 MiB given to the printing process from OS
             0 MiB allocation reported by mallinfo(arena+hblkhd)
         50516 MiB available memory on the node where the printing process lives
------------------
     ethr =  1.26E-09,  avg # of iterations =  3.0

     negative rho (up, down):  7.925E-01 0.000E+00

     total cpu time spent up to now is      623.6 secs

     total energy              =   -4440.30866968 Ry
     estimated scf accuracy    <       0.00000236 Ry

     iteration # 41     ecut=    60.00 Ry     beta= 0.15
     Davidson diagonalization with overlap

---- Real-time Memory Report at c_bands before calling an iterative solver
             0 MiB given to the printing process from OS
             0 MiB allocation reported by mallinfo(arena+hblkhd)
         50519 MiB available memory on the node where the printing process lives
------------------
     ethr =  5.49E-10,  avg # of iterations =  2.9

     negative rho (up, down):  7.926E-01 0.000E+00

     total cpu time spent up to now is      638.2 secs

     total energy              =   -4440.30866963 Ry
     estimated scf accuracy    <       0.00000137 Ry

     iteration # 42     ecut=    60.00 Ry     beta= 0.15
     Davidson diagonalization with overlap

---- Real-time Memory Report at c_bands before calling an iterative solver
             0 MiB given to the printing process from OS
             0 MiB allocation reported by mallinfo(arena+hblkhd)
         50515 MiB available memory on the node where the printing process lives
------------------
     ethr =  3.20E-10,  avg # of iterations =  1.8

     negative rho (up, down):  7.926E-01 0.000E+00

     total cpu time spent up to now is      652.2 secs

     total energy              =   -4440.30866916 Ry
     estimated scf accuracy    <       0.00000112 Ry

     iteration # 43     ecut=    60.00 Ry     beta= 0.15
     Davidson diagonalization with overlap

---- Real-time Memory Report at c_bands before calling an iterative solver
             0 MiB given to the printing process from OS
             0 MiB allocation reported by mallinfo(arena+hblkhd)
         50517 MiB available memory on the node where the printing process lives
------------------
     ethr =  2.61E-10,  avg # of iterations =  2.0

     negative rho (up, down):  7.926E-01 0.000E+00

     total cpu time spent up to now is      666.4 secs

     total energy              =   -4440.30866982 Ry
     estimated scf accuracy    <       0.00000058 Ry

     iteration # 44     ecut=    60.00 Ry     beta= 0.15
     Davidson diagonalization with overlap

---- Real-time Memory Report at c_bands before calling an iterative solver
             0 MiB given to the printing process from OS
             0 MiB allocation reported by mallinfo(arena+hblkhd)
         50519 MiB available memory on the node where the printing process lives
------------------
     ethr =  1.35E-10,  avg # of iterations =  2.2

     negative rho (up, down):  7.926E-01 0.000E+00

     total cpu time spent up to now is      680.5 secs

     total energy              =   -4440.30867004 Ry
     estimated scf accuracy    <       0.00000040 Ry

     iteration # 45     ecut=    60.00 Ry     beta= 0.15
     Davidson diagonalization with overlap

---- Real-time Memory Report at c_bands before calling an iterative solver
             0 MiB given to the printing process from OS
             0 MiB allocation reported by mallinfo(arena+hblkhd)
         50518 MiB available memory on the node where the printing process lives
------------------
     ethr =  9.41E-11,  avg # of iterations =  2.0

     negative rho (up, down):  7.926E-01 0.000E+00

     total cpu time spent up to now is      694.5 secs

     total energy              =   -4440.30867016 Ry
     estimated scf accuracy    <       0.00000027 Ry

     iteration # 46     ecut=    60.00 Ry     beta= 0.15
     Davidson diagonalization with overlap

---- Real-time Memory Report at c_bands before calling an iterative solver
             0 MiB given to the printing process from OS
             0 MiB allocation reported by mallinfo(arena+hblkhd)
         50520 MiB available memory on the node where the printing process lives
------------------
     ethr =  6.26E-11,  avg # of iterations =  2.0

     negative rho (up, down):  7.926E-01 0.000E+00

     total cpu time spent up to now is      708.6 secs

     total energy              =   -4440.30867017 Ry
     estimated scf accuracy    <       0.00000016 Ry

     iteration # 47     ecut=    60.00 Ry     beta= 0.15
     Davidson diagonalization with overlap

---- Real-time Memory Report at c_bands before calling an iterative solver
             0 MiB given to the printing process from OS
             0 MiB allocation reported by mallinfo(arena+hblkhd)
         50520 MiB available memory on the node where the printing process lives
------------------
     ethr =  3.81E-11,  avg # of iterations =  2.7

     negative rho (up, down):  7.926E-01 0.000E+00

     total cpu time spent up to now is      723.7 secs

     total energy              =   -4440.30867017 Ry
     estimated scf accuracy    <       0.00000008 Ry

     iteration # 48     ecut=    60.00 Ry     beta= 0.15
     Davidson diagonalization with overlap

---- Real-time Memory Report at c_bands before calling an iterative solver
             0 MiB given to the printing process from OS
             0 MiB allocation reported by mallinfo(arena+hblkhd)
         50515 MiB available memory on the node where the printing process lives
------------------
     ethr =  1.90E-11,  avg # of iterations =  1.9

     negative rho (up, down):  7.926E-01 0.000E+00

     total cpu time spent up to now is      738.1 secs

     total energy              =   -4440.30867017 Ry
     estimated scf accuracy    <       0.00000004 Ry

     iteration # 49     ecut=    60.00 Ry     beta= 0.15
     Davidson diagonalization with overlap

---- Real-time Memory Report at c_bands before calling an iterative solver
             0 MiB given to the printing process from OS
             0 MiB allocation reported by mallinfo(arena+hblkhd)
         50518 MiB available memory on the node where the printing process lives
------------------
     ethr =  1.05E-11,  avg # of iterations =  2.0

     negative rho (up, down):  7.926E-01 0.000E+00

     total cpu time spent up to now is      752.4 secs

     total energy              =   -4440.30867017 Ry
     estimated scf accuracy    <       0.00000002 Ry

     iteration # 50     ecut=    60.00 Ry     beta= 0.15
     Davidson diagonalization with overlap

---- Real-time Memory Report at c_bands before calling an iterative solver
             0 MiB given to the printing process from OS
             0 MiB allocation reported by mallinfo(arena+hblkhd)
         50522 MiB available memory on the node where the printing process lives
------------------
     ethr =  4.93E-12,  avg # of iterations =  2.0

     negative rho (up, down):  7.926E-01 0.000E+00

     total cpu time spent up to now is      766.6 secs

     End of self-consistent calculation

          k = 0.0000 0.0000 0.0000 ( 65197 PWs)   bands (ev):

   -92.8831 -92.8311 -92.7367 -92.6910 -92.6322 -92.5895 -92.5720 -92.4522
   -56.2367 -56.2179 -56.0937 -56.0834 -56.0767 -56.0703 -56.0346 -56.0057
   -55.9909 -55.9894 -55.9816 -55.9388 -55.9229 -55.8829 -55.8634 -55.8326
   -55.8255 -55.7772 -55.7771 -55.7743 -55.7659 -55.7273 -55.7020 -55.6185
   -31.4463 -31.4271 -31.2839 -31.2191 -31.1981 -31.0997 -30.9366 -30.7545
   -30.0266 -29.9852 -29.9573 -29.8495 -15.2591 -15.2134 -15.1325 -15.0033
   -14.8044 -14.6830 -14.3942 -14.3754 -14.3468 -14.2968 -14.2506 -14.2358
   -14.2292 -14.2106 -14.1944 -14.1330 -14.1083 -13.9537 -13.7725 -13.7418
   -13.7118 -13.6780 -13.6641 -13.6003 -13.5679 -13.4890 -13.4213 -13.2813
   -13.2721 -13.2646 -13.2441 -13.2257 -13.2081 -13.1712 -13.1586 -13.1483
   -13.1182 -13.0915 -13.0701 -13.0259 -13.0157 -12.9892 -12.8997 -12.8884
   -12.8837 -12.7322 -12.6993 -12.6576 -12.5125 -12.3667 -12.1452 -12.0801
   -12.0403 -11.9721 -11.9664 -11.9548 -11.9318 -11.9147 -11.8512 -11.8332
   -11.7995 -11.7688 -11.6572 -11.5787 -11.5751  -3.1201  -2.8884  -2.6589
    -2.5114  -2.4491  -2.3075  -1.9997  -1.9855  -1.9668  -1.8814  -1.8607
    -1.7928  -1.7763  -1.7357  -1.6923  -1.5094  -1.2849  -1.2548  -1.1099
    -1.0950  -1.0485  -1.0262  -0.9819  -0.9652  -0.9134  -0.8854  -0.8084
    -0.7968  -0.7257  -0.5901  -0.5767  -0.5503  -0.4694  -0.4434  -0.4390
    -0.3727  -0.3062  -0.2439  -0.2061  -0.1723  -0.1048  -0.0384   0.0028
     0.0309   0.0393   0.2978   0.3150   0.4886   0.5511   0.6212   0.6683
     0.7544   0.7653   0.7835   0.8486   0.8740   0.9088   0.9656   1.0946
     1.1569   1.1767   1.2006   1.2150   1.2760   1.3411   1.4550   1.4693
     1.5345   1.5466   1.5896   1.6041   1.6127   1.6717   1.7292   1.7486
     1.7863   1.8247   1.8525   1.9842   2.0728   2.1091   2.1358   2.2830
     2.3002   2.3320   2.3390   2.4436   2.4811   2.5058   2.5236   2.5377
     2.5447   2.6179   2.6464   2.6588   2.7311   2.7609   2.7718   2.7778
     2.8465   2.8528   2.8742   2.8813   2.8906   2.9056   2.9108   2.9247
     2.9298   2.9437   2.9504   2.9577   2.9769   2.9984   3.0032   3.0155
     3.0522   3.1561   3.2489   3.9383   4.2620   4.6130   4.8277   4.8703
     5.7517   5.7963   5.8291   5.8717   6.1351   6.1812   6.4349   6.4429
     6.9409   6.9759   7.0840   7.1608   7.3690   7.5026   7.5461   7.5667
     7.7153   7.8556   7.8845   7.9728   8.0316   8.1564   8.4350   8.4997
     8.7559   8.9299

     occupation numbers 
     1.0000   1.0000   1.0000   1.0000   1.0000   1.0000   1.0000   1.0000
     1.0000   1.0000   1.0000   1.0000   1.0000   1.0000   1.0000   1.0000
     1.0000   1.0000   1.0000   1.0000   1.0000   1.0000   1.0000   1.0000
     1.0000   1.0000   1.0000   1.0000   1.0000   1.0000   1.0000   1.0000
     1.0000   1.0000   1.0000   1.0000   1.0000   1.0000   1.0000   1.0000
     1.0000   1.0000   1.0000   1.0000   1.0000   1.0000   1.0000   1.0000
     1.0000   1.0000   1.0000   1.0000   1.0000   1.0000   1.0000   1.0000
     1.0000   1.0000   1.0000   1.0000   1.0000   1.0000   1.0000   1.0000
     1.0000   1.0000   1.0000   1.0000   1.0000   1.0000   1.0000   1.0000
     1.0000   1.0000   1.0000   1.0000   1.0000   1.0000   1.0000   1.0000
     1.0000   1.0000   1.0000   1.0000   1.0000   1.0000   1.0000   1.0000
     1.0000   1.0000   1.0000   1.0000   1.0000   1.0000   1.0000   1.0000
     1.0000   1.0000   1.0000   1.0000   1.0000   1.0000   1.0000   1.0000
     1.0000   1.0000   1.0000   1.0000   1.0000   1.0000   1.0000   1.0000
     1.0000   1.0000   1.0000   1.0000   1.0000   1.0000   1.0000   1.0000
     1.0000   1.0000   1.0000   1.0000   1.0000   1.0000   1.0000   1.0000
     1.0000   1.0000   1.0000   1.0000   1.0000   1.0000   1.0000   1.0000
     1.0000   1.0000   1.0000   1.0000   1.0000   1.0000   1.0000   1.0000
     1.0000   1.0000   1.0000   1.0000   1.0000   1.0000   1.0000   1.0000
     1.0000   1.0000   1.0000   1.0000   1.0000   0.9999   0.9999   0.9999
     0.9998   0.9998   0.9998   0.9997   0.9996   0.9996   0.9994   0.9988
     0.9984   0.9983   0.9981   0.9979   0.9973   0.9963   0.9940   0.9936
     0.9916   0.9912   0.9896   0.9890   0.9886   0.9857   0.9823   0.9810
     0.9782   0.9751   0.9726   0.9577   0.9445   0.9382   0.9332   0.9000
     0.8954   0.8866   0.8846   0.8515   0.8382   0.8291   0.8223   0.8168
     0.8140   0.7835   0.7709   0.7652   0.7310   0.7163   0.7107   0.7077
     0.6717   0.6683   0.6567   0.6528   0.6477   0.6394   0.6365   0.6287
     0.6259   0.6180   0.6142   0.6101   0.5991   0.5867   0.5839   0.5768
     0.5553   0.4940   0.4392   0.1197   0.0487   0.0147   0.0063   0.0052
     0.0001   0.0000   0.0000   0.0000   0.0000   0.0000   0.0000   0.0000
     0.0000   0.0000   0.0000   0.0000   0.0000   0.0000   0.0000   0.0000
     0.0000   0.0000   0.0000   0.0000   0.0000   0.0000   0.0000   0.0000
     0.0000   0.0000

          k = 0.0000 0.2500 0.0000 ( 65257 PWs)   bands (ev):

   -92.8831 -92.8311 -92.7367 -92.6910 -92.6322 -92.5895 -92.5720 -92.4522
   -56.2367 -56.2179 -56.0937 -56.0834 -56.0767 -56.0703 -56.0346 -56.0057
   -55.9909 -55.9894 -55.9816 -55.9388 -55.9229 -55.8829 -55.8634 -55.8326
   -55.8255 -55.7772 -55.7771 -55.7743 -55.7659 -55.7273 -55.7020 -55.6185
   -31.4462 -31.4270 -31.2841 -31.2191 -31.1982 -31.0995 -30.9368 -30.7546
   -30.0260 -29.9849 -29.9579 -29.8498 -15.2226 -15.1872 -15.1072 -14.9739
   -14.8480 -14.6725 -14.5404 -14.3607 -14.3244 -14.3035 -14.2711 -14.2187
   -14.2054 -14.1930 -14.1739 -14.1041 -14.0268 -13.9857 -13.8214 -13.7962
   -13.7532 -13.7160 -13.6701 -13.6252 -13.5638 -13.5146 -13.4748 -13.3697
   -13.3230 -13.3150 -13.2778 -13.2620 -13.1979 -13.1519 -13.1273 -13.1022
   -13.0722 -13.0425 -13.0322 -13.0138 -12.9994 -12.9674 -12.8858 -12.7713
   -12.7458 -12.6998 -12.6728 -12.6362 -12.5738 -12.4179 -12.1975 -12.1407
   -12.0059 -11.9733 -11.9632 -11.9326 -11.9067 -11.8906 -11.8431 -11.8314
   -11.8081 -11.7751 -11.6714 -11.6201 -11.6098  -2.9847  -2.7641  -2.6263
    -2.4444  -2.4007  -2.2374  -2.0170  -1.9341  -1.9211  -1.8627  -1.7598
    -1.7429  -1.7104  -1.6819  -1.6381  -1.4404  -1.3121  -1.3007  -1.2235
    -1.2147  -1.1105  -1.0803  -1.0191  -0.9942  -0.9565  -0.8920  -0.8641
    -0.8332  -0.7975  -0.7808  -0.7503  -0.6745  -0.6265  -0.5574  -0.4424
    -0.4250  -0.3804  -0.2645  -0.2227  -0.1602  -0.1164  -0.0478  -0.0403
    -0.0140   0.0488   0.3477   0.4342   0.4659   0.5552   0.6047   0.6314
     0.7345   0.7535   0.8543   0.8766   0.8994   1.0135   1.1107   1.1328
     1.1557   1.1755   1.1985   1.2575   1.2861   1.3149   1.3603   1.4003
     1.4313   1.5181   1.5504   1.5942   1.6386   1.6973   1.7542   1.7713
     1.7886   1.8076   1.9036   2.0194   2.0946   2.1162   2.1820   2.2331
     2.2757   2.2859   2.3415   2.3758   2.4600   2.5006   2.5171   2.5417
     2.6371   2.6561   2.6867   2.7106   2.7429   2.7641   2.7804   2.7878
     2.7948   2.8053   2.8346   2.8359   2.8553   2.8593   2.8700   2.8895
     2.9014   2.9080   2.9291   2.9390   2.9440   2.9795   2.9960   3.0567
     3.4380   3.4721   3.7020   4.1287   4.2631   4.5465   4.8883   4.9905
     5.5134   5.6292   5.8080   5.9126   5.9520   6.0084   6.0675   6.5476
     7.0233   7.0780   7.2195   7.2440   7.3472   7.4067   7.5451   7.5613
     7.7158   7.8777   8.0687   8.2510   8.2947   8.3238   8.3791   8.4229
     8.5690   8.8211

     occupation numbers 
     1.0000   1.0000   1.0000   1.0000   1.0000   1.0000   1.0000   1.0000
     1.0000   1.0000   1.0000   1.0000   1.0000   1.0000   1.0000   1.0000
     1.0000   1.0000   1.0000   1.0000   1.0000   1.0000   1.0000   1.0000
     1.0000   1.0000   1.0000   1.0000   1.0000   1.0000   1.0000   1.0000
     1.0000   1.0000   1.0000   1.0000   1.0000   1.0000   1.0000   1.0000
     1.0000   1.0000   1.0000   1.0000   1.0000   1.0000   1.0000   1.0000
     1.0000   1.0000   1.0000   1.0000   1.0000   1.0000   1.0000   1.0000
     1.0000   1.0000   1.0000   1.0000   1.0000   1.0000   1.0000   1.0000
     1.0000   1.0000   1.0000   1.0000   1.0000   1.0000   1.0000   1.0000
     1.0000   1.0000   1.0000   1.0000   1.0000   1.0000   1.0000   1.0000
     1.0000   1.0000   1.0000   1.0000   1.0000   1.0000   1.0000   1.0000
     1.0000   1.0000   1.0000   1.0000   1.0000   1.0000   1.0000   1.0000
     1.0000   1.0000   1.0000   1.0000   1.0000   1.0000   1.0000   1.0000
     1.0000   1.0000   1.0000   1.0000   1.0000   1.0000   1.0000   1.0000
     1.0000   1.0000   1.0000   1.0000   1.0000   1.0000   1.0000   1.0000
     1.0000   1.0000   1.0000   1.0000   1.0000   1.0000   1.0000   1.0000
     1.0000   1.0000   1.0000   1.0000   1.0000   1.0000   1.0000   1.0000
     1.0000   1.0000   1.0000   1.0000   1.0000   1.0000   1.0000   1.0000
     1.0000   1.0000   1.0000   1.0000   1.0000   1.0000   1.0000   1.0000
     1.0000   1.0000   1.0000   1.0000   1.0000   0.9999   0.9999   0.9999
     0.9998   0.9998   0.9997   0.9996   0.9996   0.9992   0.9987   0.9986
     0.9984   0.9983   0.9981   0.9975   0.9971   0.9967   0.9960   0.9952
     0.9946   0.9922   0.9911   0.9894   0.9874   0.9843   0.9806   0.9794
     0.9781   0.9766   0.9675   0.9528   0.9408   0.9369   0.9238   0.9124
     0.9018   0.8992   0.8839   0.8736   0.8458   0.8310   0.8248   0.8152
     0.7750   0.7665   0.7524   0.7410   0.7252   0.7146   0.7063   0.7025
     0.6989   0.6935   0.6781   0.6774   0.6669   0.6648   0.6590   0.6483
     0.6417   0.6380   0.6263   0.6206   0.6179   0.5976   0.5881   0.5527
     0.3322   0.3141   0.2045   0.0722   0.0486   0.0188   0.0048   0.0031
     0.0002   0.0001   0.0000   0.0000   0.0000   0.0000   0.0000   0.0000
     0.0000   0.0000   0.0000   0.0000   0.0000   0.0000   0.0000   0.0000
     0.0000   0.0000   0.0000   0.0000   0.0000   0.0000   0.0000   0.0000
     0.0000   0.0000

          k = 0.0000-0.5000 0.0000 ( 65180 PWs)   bands (ev):

   -92.8831 -92.8311 -92.7367 -92.6910 -92.6322 -92.5895 -92.5720 -92.4522
   -56.2367 -56.2179 -56.0937 -56.0834 -56.0767 -56.0703 -56.0346 -56.0057
   -55.9909 -55.9894 -55.9816 -55.9388 -55.9229 -55.8829 -55.8634 -55.8326
   -55.8255 -55.7772 -55.7771 -55.7743 -55.7659 -55.7273 -55.7020 -55.6185
   -31.4460 -31.4268 -31.2843 -31.2190 -31.1984 -31.0993 -30.9370 -30.7546
   -30.0254 -29.9846 -29.9586 -29.8502 -15.1869 -15.1386 -15.0822 -14.9547
   -14.8701 -14.7376 -14.5704 -14.4584 -14.3342 -14.2498 -14.2172 -14.2088
   -14.1607 -14.1462 -14.0916 -14.0730 -14.0487 -14.0171 -13.9758 -13.9147
   -13.7596 -13.7009 -13.6748 -13.6323 -13.5433 -13.5328 -13.4511 -13.4507
   -13.4121 -13.3851 -13.2788 -13.2632 -13.1937 -13.1374 -13.1242 -13.0971
   -13.0596 -13.0506 -13.0215 -12.9957 -12.8823 -12.8756 -12.8221 -12.7462
   -12.7103 -12.6848 -12.6643 -12.6074 -12.4930 -12.4687 -12.2886 -12.2347
   -11.9746 -11.9601 -11.9569 -11.9266 -11.8925 -11.8577 -11.8462 -11.8057
   -11.8014 -11.7574 -11.6928 -11.6804 -11.6667  -2.7703  -2.7106  -2.5612
    -2.4894  -2.2069  -2.1221  -1.9957  -1.8600  -1.8215  -1.8023  -1.7242
    -1.6930  -1.6087  -1.5742  -1.4960  -1.4573  -1.4204  -1.3927  -1.3329
    -1.2944  -1.2498  -1.2131  -1.1793  -1.1472  -1.0360  -0.9926  -0.9551
    -0.9516  -0.8672  -0.8369  -0.8138  -0.7612  -0.6787  -0.6018  -0.5170
    -0.4897  -0.3788  -0.3367  -0.2075  -0.1639  -0.1387  -0.0750   0.0579
     0.1027   0.2133   0.2856   0.2923   0.4182   0.4758   0.5957   0.6989
     0.8083   0.8388   0.8802   0.8867   0.9267   0.9389   0.9743   0.9937
     1.0052   1.1126   1.1779   1.2042   1.2263   1.4952   1.5283   1.5535
     1.6499   1.6775   1.6995   1.7149   1.7353   1.7648   1.7806   1.7995
     1.8261   1.8615   1.8917   1.8943   1.9254   1.9777   2.0642   2.0986
     2.2815   2.4226   2.4327   2.4523   2.4812   2.4936   2.4999   2.5426
     2.5636   2.5668   2.6191   2.6313   2.6428   2.6649   2.7206   2.7348
     2.8013   2.8140   2.8318   2.8331   2.8505   2.8594   2.8611   2.8647
     2.8678   2.8851   2.8977   2.9043   2.9652   2.9687   2.9854   3.0394
     3.9624   3.9987   4.0138   4.0875   4.5657   4.7355   4.9083   4.9970
     5.2863   5.3611   5.4951   5.5798   5.8529   5.8790   6.2522   6.7129
     6.7914   6.8926   7.1384   7.3110   7.5623   7.6159   7.6553   7.7265
     7.7804   7.8784   8.0408   8.2885   8.3454   8.3858   8.4955   8.5360
     8.6894   8.7377

     occupation numbers 
     1.0000   1.0000   1.0000   1.0000   1.0000   1.0000   1.0000   1.0000
     1.0000   1.0000   1.0000   1.0000   1.0000   1.0000   1.0000   1.0000
     1.0000   1.0000   1.0000   1.0000   1.0000   1.0000   1.0000   1.0000
     1.0000   1.0000   1.0000   1.0000   1.0000   1.0000   1.0000   1.0000
     1.0000   1.0000   1.0000   1.0000   1.0000   1.0000   1.0000   1.0000
     1.0000   1.0000   1.0000   1.0000   1.0000   1.0000   1.0000   1.0000
     1.0000   1.0000   1.0000   1.0000   1.0000   1.0000   1.0000   1.0000
     1.0000   1.0000   1.0000   1.0000   1.0000   1.0000   1.0000   1.0000
     1.0000   1.0000   1.0000   1.0000   1.0000   1.0000   1.0000   1.0000
     1.0000   1.0000   1.0000   1.0000   1.0000   1.0000   1.0000   1.0000
     1.0000   1.0000   1.0000   1.0000   1.0000   1.0000   1.0000   1.0000
     1.0000   1.0000   1.0000   1.0000   1.0000   1.0000   1.0000   1.0000
     1.0000   1.0000   1.0000   1.0000   1.0000   1.0000   1.0000   1.0000
     1.0000   1.0000   1.0000   1.0000   1.0000   1.0000   1.0000   1.0000
     1.0000   1.0000   1.0000   1.0000   1.0000   1.0000   1.0000   1.0000
     1.0000   1.0000   1.0000   1.0000   1.0000   1.0000   1.0000   1.0000
     1.0000   1.0000   1.0000   1.0000   1.0000   1.0000   1.0000   1.0000
     1.0000   1.0000   1.0000   1.0000   1.0000   1.0000   1.0000   1.0000
     1.0000   1.0000   1.0000   1.0000   1.0000   1.0000   1.0000   1.0000
     1.0000   1.0000   1.0000   1.0000   1.0000   1.0000   0.9999   0.9999
     0.9997   0.9997   0.9996   0.9996   0.9995   0.9995   0.9994   0.9993
     0.9993   0.9987   0.9983   0.9980   0.9978   0.9929   0.9918   0.9910
     0.9868   0.9854   0.9841   0.9832   0.9819   0.9799   0.9787   0.9772
     0.9750   0.9718   0.9687   0.9684   0.9650   0.9586   0.9459   0.9400
     0.9004   0.8586   0.8552   0.8485   0.8382   0.8336   0.8313   0.8148
     0.8064   0.8051   0.7830   0.7776   0.7725   0.7625   0.7362   0.7292
     0.6956   0.6890   0.6796   0.6789   0.6695   0.6647   0.6638   0.6619
     0.6602   0.6507   0.6438   0.6401   0.6058   0.6038   0.5942   0.5628
     0.1127   0.1027   0.0988   0.0810   0.0175   0.0091   0.0044   0.0030
     0.0007   0.0005   0.0002   0.0002   0.0000   0.0000   0.0000   0.0000
     0.0000   0.0000   0.0000   0.0000   0.0000   0.0000   0.0000   0.0000
     0.0000   0.0000   0.0000   0.0000   0.0000   0.0000   0.0000   0.0000
     0.0000   0.0000

          k = 0.2500 0.2500 0.0000 ( 65198 PWs)   bands (ev):

   -92.8831 -92.8311 -92.7367 -92.6910 -92.6322 -92.5895 -92.5720 -92.4522
   -56.2367 -56.2179 -56.0937 -56.0834 -56.0767 -56.0703 -56.0346 -56.0057
   -55.9909 -55.9894 -55.9816 -55.9388 -55.9229 -55.8829 -55.8634 -55.8326
   -55.8255 -55.7772 -55.7771 -55.7743 -55.7659 -55.7273 -55.7020 -55.6185
   -31.4444 -31.4287 -31.2837 -31.2188 -31.1986 -31.0997 -30.9366 -30.7547
   -30.0250 -29.9859 -29.9576 -29.8503 -15.1938 -15.1534 -15.0790 -14.9635
   -14.8397 -14.7147 -14.6460 -14.4346 -14.2840 -14.2700 -14.2314 -14.2061
   -14.1791 -14.1534 -14.1204 -14.0679 -14.0145 -13.9987 -13.8359 -13.8220
   -13.7928 -13.7735 -13.7194 -13.6845 -13.5990 -13.5836 -13.4417 -13.4088
   -13.3878 -13.3113 -13.2703 -13.2207 -13.1880 -13.1697 -13.1379 -13.1158
   -13.0848 -13.0433 -12.9918 -12.9588 -12.9150 -12.8880 -12.8817 -12.8306
   -12.7869 -12.6766 -12.6222 -12.5823 -12.5360 -12.4471 -12.2387 -12.1773
   -11.9793 -11.9719 -11.9470 -11.9344 -11.9270 -11.8665 -11.8309 -11.8248
   -11.7891 -11.7796 -11.6885 -11.6486 -11.6311  -2.8463  -2.6383  -2.5201
    -2.4253  -2.3053  -2.2408  -2.0417  -1.8985  -1.8800  -1.8496  -1.7550
    -1.7208  -1.6254  -1.5982  -1.5471  -1.4171  -1.3684  -1.2950  -1.2508
    -1.2065  -1.1832  -1.1595  -1.1145  -1.1014  -1.0102  -0.9593  -0.8925
    -0.8440  -0.8123  -0.7651  -0.7467  -0.6857  -0.6382  -0.5784  -0.5462
    -0.4587  -0.4056  -0.3762  -0.3395  -0.2836  -0.1955  -0.1700  -0.1428
    -0.0571  -0.0273   0.2348   0.3835   0.4162   0.4787   0.5212   0.5951
     0.6389   0.7024   0.7309   1.0015   1.0648   1.1375   1.1632   1.2142
     1.2428   1.2777   1.3157   1.3322   1.3595   1.4092   1.4163   1.4298
     1.4751   1.5165   1.5544   1.6204   1.6633   1.6664   1.7151   1.7371
     1.7963   1.8259   1.9436   2.0038   2.0352   2.0562   2.1308   2.1979
     2.2211   2.2546   2.2840   2.2958   2.4050   2.4414   2.5276   2.5412
     2.6389   2.6542   2.6998   2.7143   2.7202   2.7379   2.7517   2.7657
     2.7770   2.7839   2.7964   2.8078   2.8210   2.8388   2.8460   2.8573
     2.8802   2.8908   2.9000   2.9318   3.2310   3.3264   3.3708   3.4458
     3.4828   3.6818   3.7750   4.1353   4.3538   4.5544   4.8086   5.1297
     5.5002   5.5596   5.5948   5.6606   5.7223   6.0892   6.1240   6.1666
     6.8356   7.0638   7.2090   7.3728   7.4534   7.4837   7.5935   7.7596
     7.8661   8.0731   8.2033   8.2530   8.3272   8.4010   8.4412   8.4763
     8.5606   8.6532

     occupation numbers 
     1.0000   1.0000   1.0000   1.0000   1.0000   1.0000   1.0000   1.0000
     1.0000   1.0000   1.0000   1.0000   1.0000   1.0000   1.0000   1.0000
     1.0000   1.0000   1.0000   1.0000   1.0000   1.0000   1.0000   1.0000
     1.0000   1.0000   1.0000   1.0000   1.0000   1.0000   1.0000   1.0000
     1.0000   1.0000   1.0000   1.0000   1.0000   1.0000   1.0000   1.0000
     1.0000   1.0000   1.0000   1.0000   1.0000   1.0000   1.0000   1.0000
     1.0000   1.0000   1.0000   1.0000   1.0000   1.0000   1.0000   1.0000
     1.0000   1.0000   1.0000   1.0000   1.0000   1.0000   1.0000   1.0000
     1.0000   1.0000   1.0000   1.0000   1.0000   1.0000   1.0000   1.0000
     1.0000   1.0000   1.0000   1.0000   1.0000   1.0000   1.0000   1.0000
     1.0000   1.0000   1.0000   1.0000   1.0000   1.0000   1.0000   1.0000
     1.0000   1.0000   1.0000   1.0000   1.0000   1.0000   1.0000   1.0000
     1.0000   1.0000   1.0000   1.0000   1.0000   1.0000   1.0000   1.0000
     1.0000   1.0000   1.0000   1.0000   1.0000   1.0000   1.0000   1.0000
     1.0000   1.0000   1.0000   1.0000   1.0000   1.0000   1.0000   1.0000
     1.0000   1.0000   1.0000   1.0000   1.0000   1.0000   1.0000   1.0000
     1.0000   1.0000   1.0000   1.0000   1.0000   1.0000   1.0000   1.0000
     1.0000   1.0000   1.0000   1.0000   1.0000   1.0000   1.0000   1.0000
     1.0000   1.0000   1.0000   1.0000   1.0000   1.0000   1.0000   1.0000
     1.0000   1.0000   1.0000   1.0000   1.0000   1.0000   1.0000   0.9999
     0.9999   0.9999   0.9998   0.9993   0.9990   0.9986   0.9984   0.9979
     0.9976   0.9972   0.9967   0.9965   0.9960   0.9950   0.9949   0.9946
     0.9934   0.9922   0.9909   0.9882   0.9862   0.9860   0.9832   0.9818
     0.9775   0.9750   0.9629   0.9551   0.9505   0.9472   0.9341   0.9204
     0.9152   0.9072   0.8997   0.8966   0.8644   0.8522   0.8207   0.8154
     0.7742   0.7673   0.7461   0.7392   0.7364   0.7277   0.7208   0.7138
     0.7081   0.7046   0.6981   0.6922   0.6852   0.6758   0.6719   0.6659
     0.6534   0.6476   0.6425   0.6247   0.4497   0.3943   0.3692   0.3280
     0.3084   0.2131   0.1751   0.0709   0.0364   0.0182   0.0068   0.0016
     0.0002   0.0002   0.0001   0.0001   0.0001   0.0000   0.0000   0.0000
     0.0000   0.0000   0.0000   0.0000   0.0000   0.0000   0.0000   0.0000
     0.0000   0.0000   0.0000   0.0000   0.0000   0.0000   0.0000   0.0000
     0.0000   0.0000

          k = 0.2500-0.5000 0.0000 ( 65138 PWs)   bands (ev):

   -92.8831 -92.8311 -92.7367 -92.6910 -92.6322 -92.5895 -92.5720 -92.4522
   -56.2367 -56.2179 -56.0937 -56.0834 -56.0767 -56.0703 -56.0346 -56.0057
   -55.9909 -55.9894 -55.9816 -55.9388 -55.9229 -55.8829 -55.8634 -55.8326
   -55.8255 -55.7772 -55.7771 -55.7743 -55.7659 -55.7273 -55.7020 -55.6185
   -31.4442 -31.4286 -31.2839 -31.2188 -31.1988 -31.0996 -30.9368 -30.7548
   -30.0244 -29.9856 -29.9582 -29.8506 -15.1564 -15.1120 -15.0398 -14.9267
   -14.8908 -14.7773 -14.6748 -14.5537 -14.2484 -14.1907 -14.1696 -14.1435
   -14.1301 -14.1175 -14.0752 -14.0611 -14.0316 -13.9936 -13.9680 -13.9059
   -13.8409 -13.7918 -13.7330 -13.7127 -13.6404 -13.5938 -13.4862 -13.4524
   -13.3766 -13.3107 -13.2905 -13.2054 -13.1605 -13.1572 -13.1416 -13.1128
   -13.0816 -13.0396 -13.0101 -12.9736 -12.8897 -12.8257 -12.7955 -12.7914
   -12.7786 -12.6923 -12.6726 -12.5430 -12.4905 -12.4124 -12.2822 -12.2460
   -11.9740 -11.9532 -11.9414 -11.9296 -11.9021 -11.8722 -11.8426 -11.8027
   -11.7755 -11.7535 -11.7062 -11.6812 -11.6711  -2.6283  -2.5618  -2.4349
    -2.3579  -2.2272  -2.1421  -2.0200  -1.8711  -1.8164  -1.7949  -1.7321
    -1.7190  -1.6192  -1.5543  -1.4703  -1.4181  -1.4095  -1.3477  -1.3035
    -1.2697  -1.2217  -1.1847  -1.1494  -1.1107  -1.0949  -1.0529  -1.0234
    -0.9813  -0.9494  -0.8838  -0.7814  -0.7376  -0.6614  -0.5952  -0.5447
    -0.5029  -0.4844  -0.4259  -0.2645  -0.2543  -0.1522  -0.1183  -0.1055
    -0.0655  -0.0305   0.0123   0.0376   0.0975   0.3816   0.4759   0.5642
     0.6132   0.8653   0.8905   0.9734   1.0028   1.1626   1.1965   1.2388
     1.2611   1.2740   1.2948   1.3585   1.4072   1.4405   1.5258   1.6222
     1.6617   1.6742   1.6913   1.7253   1.7352   1.7483   1.7914   1.7982
     1.8285   1.8556   1.8718   1.8852   1.9228   1.9781   2.0181   2.0998
     2.2386   2.3755   2.3930   2.4119   2.4409   2.4602   2.4848   2.5106
     2.5234   2.5348   2.5677   2.6338   2.6478   2.6644   2.6986   2.7167
     2.7222   2.7333   2.7544   2.7679   2.7891   2.7940   2.8289   2.8410
     2.8539   2.8626   2.8722   2.8827   3.4154   3.4210   3.5628   3.6160
     3.9764   4.0158   4.0292   4.1433   4.5844   4.7560   4.9260   4.9632
     5.1368   5.3014   5.5017   5.5267   5.6289   5.6735   6.3330   6.3563
     6.4491   6.8128   7.1974   7.5841   7.6622   7.7152   7.7666   7.8158
     7.9063   7.9740   8.2494   8.2935   8.4010   8.4490   8.5534   8.5921
     8.6357   8.6785

     occupation numbers 
     1.0000   1.0000   1.0000   1.0000   1.0000   1.0000   1.0000   1.0000
     1.0000   1.0000   1.0000   1.0000   1.0000   1.0000   1.0000   1.0000
     1.0000   1.0000   1.0000   1.0000   1.0000   1.0000   1.0000   1.0000
     1.0000   1.0000   1.0000   1.0000   1.0000   1.0000   1.0000   1.0000
     1.0000   1.0000   1.0000   1.0000   1.0000   1.0000   1.0000   1.0000
     1.0000   1.0000   1.0000   1.0000   1.0000   1.0000   1.0000   1.0000
     1.0000   1.0000   1.0000   1.0000   1.0000   1.0000   1.0000   1.0000
     1.0000   1.0000   1.0000   1.0000   1.0000   1.0000   1.0000   1.0000
     1.0000   1.0000   1.0000   1.0000   1.0000   1.0000   1.0000   1.0000
     1.0000   1.0000   1.0000   1.0000   1.0000   1.0000   1.0000   1.0000
     1.0000   1.0000   1.0000   1.0000   1.0000   1.0000   1.0000   1.0000
     1.0000   1.0000   1.0000   1.0000   1.0000   1.0000   1.0000   1.0000
     1.0000   1.0000   1.0000   1.0000   1.0000   1.0000   1.0000   1.0000
     1.0000   1.0000   1.0000   1.0000   1.0000   1.0000   1.0000   1.0000
     1.0000   1.0000   1.0000   1.0000   1.0000   1.0000   1.0000   1.0000
     1.0000   1.0000   1.0000   1.0000   1.0000   1.0000   1.0000   1.0000
     1.0000   1.0000   1.0000   1.0000   1.0000   1.0000   1.0000   1.0000
     1.0000   1.0000   1.0000   1.0000   1.0000   1.0000   1.0000   1.0000
     1.0000   1.0000   1.0000   1.0000   1.0000   1.0000   1.0000   1.0000
     1.0000   1.0000   1.0000   1.0000   1.0000   1.0000   1.0000   0.9999
     0.9999   0.9996   0.9996   0.9994   0.9993   0.9984   0.9981   0.9977
     0.9974   0.9973   0.9970   0.9960   0.9951   0.9943   0.9919   0.9882
     0.9862   0.9856   0.9846   0.9825   0.9819   0.9810   0.9779   0.9773
     0.9748   0.9723   0.9708   0.9694   0.9653   0.9586   0.9530   0.9398
     0.9111   0.8737   0.8682   0.8621   0.8524   0.8457   0.8369   0.8272
     0.8223   0.8179   0.8047   0.7765   0.7702   0.7627   0.7467   0.7380
     0.7354   0.7300   0.7195   0.7127   0.7019   0.6994   0.6811   0.6746
     0.6677   0.6630   0.6578   0.6520   0.3445   0.3415   0.2679   0.2426
     0.1087   0.0982   0.0948   0.0693   0.0163   0.0084   0.0041   0.0035
     0.0016   0.0007   0.0002   0.0002   0.0001   0.0001   0.0000   0.0000
     0.0000   0.0000   0.0000   0.0000   0.0000   0.0000   0.0000   0.0000
     0.0000   0.0000   0.0000   0.0000   0.0000   0.0000   0.0000   0.0000
     0.0000   0.0000

          k =-0.5000-0.5000 0.0000 ( 65132 PWs)   bands (ev):

   -92.8831 -92.8311 -92.7367 -92.6910 -92.6322 -92.5895 -92.5720 -92.4522
   -56.2367 -56.2179 -56.0937 -56.0834 -56.0767 -56.0703 -56.0346 -56.0057
   -55.9909 -55.9894 -55.9816 -55.9388 -55.9229 -55.8829 -55.8634 -55.8326
   -55.8255 -55.7772 -55.7771 -55.7743 -55.7659 -55.7273 -55.7020 -55.6185
   -31.4420 -31.4308 -31.2835 -31.2185 -31.1991 -31.0998 -30.9367 -30.7550
   -30.0233 -29.9867 -29.9578 -29.8510 -15.1104 -15.0847 -14.9680 -14.9532
   -14.8505 -14.8251 -14.7796 -14.6517 -14.1601 -14.1470 -14.1165 -14.0936
   -14.0764 -14.0572 -14.0378 -14.0250 -14.0023 -13.9987 -13.9830 -13.9062
   -13.8992 -13.8537 -13.8348 -13.8216 -13.7281 -13.6569 -13.5196 -13.4868
   -13.3280 -13.2877 -13.2180 -13.1947 -13.1586 -13.1538 -13.1442 -13.1287
   -13.1251 -13.0415 -12.9700 -12.9531 -12.9005 -12.8465 -12.8194 -12.7756
   -12.7669 -12.7097 -12.6790 -12.5009 -12.4863 -12.3598 -12.2794 -12.2606
   -11.9732 -11.9503 -11.9374 -11.9194 -11.9025 -11.8675 -11.8522 -11.8137
   -11.7557 -11.7354 -11.7294 -11.6792 -11.6766  -2.4038  -2.3287  -2.3165
    -2.2457  -2.2086  -2.1297  -2.0618  -1.9357  -1.8214  -1.7910  -1.7522
    -1.6948  -1.6228  -1.6057  -1.5380  -1.4940  -1.3758  -1.3470  -1.2975
    -1.2721  -1.2076  -1.1598  -1.1410  -1.1290  -1.0736  -1.0323  -1.0138
    -0.9020  -0.8463  -0.7992  -0.7485  -0.7178  -0.7082  -0.6721  -0.6260
    -0.5925  -0.5813  -0.4979  -0.4308  -0.3887  -0.3580  -0.2879  -0.2255
    -0.2044  -0.1526  -0.1280  -0.1150  -0.1023   0.3533   0.4018   0.5169
     0.5341   0.8959   0.9106   0.9448   0.9778   1.2493   1.2696   1.2751
     1.3117   1.4409   1.5323   1.5618   1.5977   1.6294   1.6507   1.6559
     1.6865   1.7020   1.7252   1.7303   1.7726   1.7740   1.8054   1.8422
     1.8482   1.8649   1.9033   1.9210   1.9379   1.9669   1.9973   2.0558
     2.1232   2.3858   2.4195   2.4378   2.4569   2.4647   2.4876   2.4999
     2.5193   2.5280   2.5485   2.5621   2.5764   2.5822   2.6303   2.6453
     2.6523   2.6586   2.6769   2.6903   2.7033   2.7228   2.7245   2.7369
     2.8391   2.8424   2.8701   2.8786   3.8423   3.8622   3.9128   3.9273
     4.1397   4.2144   4.2379   4.4799   4.6012   4.6834   4.8174   4.9238
     4.9307   5.0278   5.1747   5.2410   5.8081   5.8409   5.9016   6.0081
     6.5536   6.8334   6.9559   7.6469   7.8388   7.8509   7.9301   8.0720
     8.1463   8.1645   8.2172   8.2727   8.4513   8.4634   8.4727   8.4925
     8.5484   8.6482

     occupation numbers 
     1.0000   1.0000   1.0000   1.0000   1.0000   1.0000   1.0000   1.0000
     1.0000   1.0000   1.0000   1.0000   1.0000   1.0000   1.0000   1.0000
     1.0000   1.0000   1.0000   1.0000   1.0000   1.0000   1.0000   1.0000
     1.0000   1.0000   1.0000   1.0000   1.0000   1.0000   1.0000   1.0000
     1.0000   1.0000   1.0000   1.0000   1.0000   1.0000   1.0000   1.0000
     1.0000   1.0000   1.0000   1.0000   1.0000   1.0000   1.0000   1.0000
     1.0000   1.0000   1.0000   1.0000   1.0000   1.0000   1.0000   1.0000
     1.0000   1.0000   1.0000   1.0000   1.0000   1.0000   1.0000   1.0000
     1.0000   1.0000   1.0000   1.0000   1.0000   1.0000   1.0000   1.0000
     1.0000   1.0000   1.0000   1.0000   1.0000   1.0000   1.0000   1.0000
     1.0000   1.0000   1.0000   1.0000   1.0000   1.0000   1.0000   1.0000
     1.0000   1.0000   1.0000   1.0000   1.0000   1.0000   1.0000   1.0000
     1.0000   1.0000   1.0000   1.0000   1.0000   1.0000   1.0000   1.0000
     1.0000   1.0000   1.0000   1.0000   1.0000   1.0000   1.0000   1.0000
     1.0000   1.0000   1.0000   1.0000   1.0000   1.0000   1.0000   1.0000
     1.0000   1.0000   1.0000   1.0000   1.0000   1.0000   1.0000   1.0000
     1.0000   1.0000   1.0000   1.0000   1.0000   1.0000   1.0000   1.0000
     1.0000   1.0000   1.0000   1.0000   1.0000   1.0000   1.0000   1.0000
     1.0000   1.0000   1.0000   1.0000   1.0000   1.0000   1.0000   1.0000
     1.0000   1.0000   1.0000   1.0000   1.0000   1.0000   1.0000   1.0000
     0.9999   0.9996   0.9995   0.9995   0.9994   0.9976   0.9973   0.9973
     0.9968   0.9943   0.9917   0.9907   0.9892   0.9878   0.9868   0.9865
     0.9849   0.9840   0.9826   0.9822   0.9793   0.9792   0.9767   0.9736
     0.9730   0.9714   0.9675   0.9655   0.9636   0.9600   0.9560   0.9472
     0.9356   0.8705   0.8596   0.8535   0.8469   0.8441   0.8358   0.8313
     0.8239   0.8206   0.8125   0.8070   0.8011   0.7987   0.7780   0.7714
     0.7682   0.7654   0.7569   0.7506   0.7445   0.7351   0.7343   0.7282
     0.6757   0.6739   0.6589   0.6543   0.1506   0.1437   0.1274   0.1230
[...]
     0.6337   0.6207   0.6185   0.6137   0.6103   0.6046   0.5990   0.5226
     0.3470   0.3195   0.2037   0.0764   0.0430   0.0204   0.0049   0.0030
     0.0002   0.0001   0.0000   0.0000   0.0000   0.0000   0.0000   0.0000
     0.0000   0.0000   0.0000   0.0000   0.0000   0.0000   0.0000   0.0000
     0.0000   0.0000   0.0000   0.0000   0.0000   0.0000   0.0000   0.0000
     0.0000   0.0000

          k =-0.5000 0.0000 0.0000 ( 65180 PWs)   bands (ev):

   -92.8831 -92.8311 -92.7367 -92.6910 -92.6322 -92.5895 -92.5720 -92.4522
   -56.2367 -56.2179 -56.0937 -56.0834 -56.0767 -56.0703 -56.0346 -56.0057
   -55.9909 -55.9894 -55.9816 -55.9388 -55.9229 -55.8829 -55.8634 -55.8326
   -55.8255 -55.7772 -55.7771 -55.7743 -55.7659 -55.7273 -55.7020 -55.6185
   -31.4424 -31.4310 -31.2831 -31.2186 -31.1989 -31.1002 -30.9363 -30.7549
   -30.0245 -29.9873 -29.9565 -29.8503 -15.1924 -15.1409 -15.0786 -14.9603
   -14.8660 -14.7204 -14.5768 -14.4152 -14.3092 -14.2922 -14.2853 -14.2234
   -14.1657 -14.1359 -14.0860 -14.0695 -14.0545 -14.0106 -13.9734 -13.8702
   -13.7312 -13.7032 -13.6710 -13.6635 -13.5725 -13.5391 -13.4631 -13.4350
   -13.4119 -13.3760 -13.2230 -13.2121 -13.1908 -13.1818 -13.1517 -13.1171
   -13.1012 -13.0813 -12.9413 -12.8968 -12.8857 -12.8734 -12.8567 -12.8102
   -12.8008 -12.7109 -12.6780 -12.5121 -12.4970 -12.3591 -12.3193 -12.2835
   -11.9729 -11.9567 -11.9353 -11.9279 -11.9156 -11.8971 -11.8553 -11.7918
   -11.7730 -11.7385 -11.6972 -11.6883 -11.6723  -2.7602  -2.7216  -2.5589
    -2.5190  -2.2049  -2.1303  -1.9834  -1.8646  -1.8259  -1.7804  -1.7333
    -1.7083  -1.5830  -1.5402  -1.5235  -1.4422  -1.4058  -1.3903  -1.3595
    -1.2990  -1.2326  -1.2048  -1.1715  -1.0744  -1.0324  -0.9839  -0.9501
    -0.9290  -0.8975  -0.8498  -0.8248  -0.7841  -0.6879  -0.6108  -0.5464
    -0.4842  -0.3076  -0.2791  -0.2326  -0.1941  -0.1236  -0.1198   0.0290
     0.0533   0.0991   0.2622   0.3617   0.4129   0.5041   0.5852   0.6896
     0.7039   0.8373   0.8563   0.9090   0.9414   0.9762   0.9887   1.0347
     1.0549   1.1248   1.1768   1.2222   1.2303   1.5327   1.5451   1.5620
     1.5887   1.6846   1.6989   1.7209   1.7288   1.7562   1.7626   1.8050
     1.8217   1.8591   1.8992   1.9234   1.9699   1.9997   2.0453   2.1624
     2.2657   2.3262   2.3411   2.4167   2.4461   2.4772   2.5413   2.5442
     2.5529   2.5601   2.5881   2.6366   2.6481   2.6680   2.7105   2.7529
     2.7798   2.8211   2.8267   2.8270   2.8400   2.8536   2.8648   2.8776
     2.8833   2.9071   2.9095   2.9309   2.9492   2.9549   3.0857   3.0931
     3.9011   3.9536   4.0215   4.1795   4.6177   4.6991   4.8812   4.9310
     5.3706   5.4083   5.4828   5.5178   5.8585   5.8667   6.2889   6.6064
     6.7366   6.9459   7.2031   7.2523   7.6137   7.6454   7.6575   7.7264
     7.7785   7.9914   8.0257   8.2259   8.3045   8.3785   8.4826   8.6146
     8.6368   8.7897

     occupation numbers 
     1.0000   1.0000   1.0000   1.0000   1.0000   1.0000   1.0000   1.0000
     1.0000   1.0000   1.0000   1.0000   1.0000   1.0000   1.0000   1.0000
     1.0000   1.0000   1.0000   1.0000   1.0000   1.0000   1.0000   1.0000
     1.0000   1.0000   1.0000   1.0000   1.0000   1.0000   1.0000   1.0000
     1.0000   1.0000   1.0000   1.0000   1.0000   1.0000   1.0000   1.0000
     1.0000   1.0000   1.0000   1.0000   1.0000   1.0000   1.0000   1.0000
     1.0000   1.0000   1.0000   1.0000   1.0000   1.0000   1.0000   1.0000
     1.0000   1.0000   1.0000   1.0000   1.0000   1.0000   1.0000   1.0000
     1.0000   1.0000   1.0000   1.0000   1.0000   1.0000   1.0000   1.0000
     1.0000   1.0000   1.0000   1.0000   1.0000   1.0000   1.0000   1.0000
     1.0000   1.0000   1.0000   1.0000   1.0000   1.0000   1.0000   1.0000
     1.0000   1.0000   1.0000   1.0000   1.0000   1.0000   1.0000   1.0000
     1.0000   1.0000   1.0000   1.0000   1.0000   1.0000   1.0000   1.0000
     1.0000   1.0000   1.0000   1.0000   1.0000   1.0000   1.0000   1.0000
     1.0000   1.0000   1.0000   1.0000   1.0000   1.0000   1.0000   1.0000
     1.0000   1.0000   1.0000   1.0000   1.0000   1.0000   1.0000   1.0000
     1.0000   1.0000   1.0000   1.0000   1.0000   1.0000   1.0000   1.0000
     1.0000   1.0000   1.0000   1.0000   1.0000   1.0000   1.0000   1.0000
     1.0000   1.0000   1.0000   1.0000   1.0000   1.0000   1.0000   1.0000
     1.0000   1.0000   1.0000   1.0000   1.0000   1.0000   0.9999   0.9999
     0.9999   0.9997   0.9997   0.9996   0.9995   0.9994   0.9993   0.9991
     0.9990   0.9987   0.9983   0.9979   0.9978   0.9917   0.9913   0.9907
     0.9896   0.9850   0.9842   0.9828   0.9823   0.9805   0.9800   0.9768
     0.9754   0.9720   0.9679   0.9653   0.9596   0.9556   0.9489   0.9279
     0.9044   0.8882   0.8840   0.8606   0.8506   0.8397   0.8153   0.8142
     0.8107   0.8078   0.7962   0.7753   0.7701   0.7610   0.7410   0.7203
     0.7067   0.6852   0.6823   0.6821   0.6752   0.6679   0.6618   0.6549
     0.6517   0.6386   0.6372   0.6252   0.6149   0.6116   0.5356   0.5313
     0.1311   0.1152   0.0968   0.0624   0.0144   0.0105   0.0050   0.0040
     0.0005   0.0004   0.0003   0.0002   0.0000   0.0000   0.0000   0.0000
     0.0000   0.0000   0.0000   0.0000   0.0000   0.0000   0.0000   0.0000
     0.0000   0.0000   0.0000   0.0000   0.0000   0.0000   0.0000   0.0000
     0.0000   0.0000

          k =-0.2500 0.2500 0.0000 ( 65198 PWs)   bands (ev):

   -92.8831 -92.8311 -92.7367 -92.6910 -92.6322 -92.5895 -92.5720 -92.4522
   -56.2367 -56.2179 -56.0937 -56.0834 -56.0767 -56.0703 -56.0346 -56.0057
   -55.9909 -55.9894 -55.9816 -55.9388 -55.9229 -55.8829 -55.8634 -55.8326
   -55.8255 -55.7772 -55.7771 -55.7743 -55.7659 -55.7273 -55.7020 -55.6185
   -31.4444 -31.4287 -31.2837 -31.2188 -31.1986 -31.0997 -30.9366 -30.7547
   -30.0250 -29.9859 -29.9576 -29.8503 -15.1951 -15.1521 -15.0780 -14.9618
   -14.8453 -14.7200 -14.6375 -14.4260 -14.2898 -14.2619 -14.2455 -14.2002
   -14.1764 -14.1511 -14.1311 -14.0761 -14.0093 -13.9990 -13.8454 -13.8189
   -13.7899 -13.7687 -13.7202 -13.6723 -13.6069 -13.5879 -13.4376 -13.4007
   -13.3840 -13.3155 -13.2719 -13.2099 -13.1821 -13.1594 -13.1473 -13.1130
   -13.0958 -13.0487 -12.9933 -12.9615 -12.9406 -12.8876 -12.8609 -12.8204
   -12.8049 -12.6833 -12.6209 -12.6115 -12.4806 -12.4527 -12.2205 -12.2024
   -11.9781 -11.9725 -11.9550 -11.9282 -11.9159 -11.8758 -11.8407 -11.8182
   -11.7951 -11.7730 -11.6882 -11.6440 -11.6342  -2.8447  -2.6371  -2.5159
    -2.4271  -2.3096  -2.2436  -2.0394  -1.8954  -1.8776  -1.8477  -1.7555
    -1.7196  -1.6250  -1.5909  -1.5651  -1.4227  -1.3661  -1.2986  -1.2705
    -1.2094  -1.1884  -1.1486  -1.1202  -1.0799  -1.0166  -0.9669  -0.9051
    -0.8349  -0.8076  -0.7594  -0.7296  -0.6826  -0.6276  -0.5815  -0.5408
    -0.4389  -0.4079  -0.3930  -0.3527  -0.2850  -0.2028  -0.1641  -0.1342
    -0.0537  -0.0293   0.2156   0.3853   0.4242   0.4663   0.5300   0.5929
     0.6465   0.7023   0.7325   1.0100   1.1138   1.1558   1.1880   1.1945
     1.2369   1.2530   1.2970   1.3293   1.3424   1.3672   1.4152   1.4327
     1.4733   1.4922   1.5390   1.6377   1.6544   1.6650   1.7159   1.7338
     1.7758   1.8369   1.9333   2.0328   2.0566   2.1063   2.1273   2.1966
     2.2327   2.2566   2.2839   2.3068   2.4062   2.4387   2.5256   2.5436
     2.6385   2.6548   2.7048   2.7134   2.7260   2.7360   2.7477   2.7619
     2.7675   2.7875   2.7952   2.8083   2.8175   2.8299   2.8394   2.8492
     2.8817   2.8920   2.8996   2.9330   3.2244   3.3071   3.3750   3.4632
     3.4771   3.6672   3.7837   4.1345   4.3518   4.5554   4.8183   5.1299
     5.5018   5.5562   5.5975   5.6569   5.7234   6.1030   6.1219   6.1546
     6.8365   7.0585   7.2179   7.3717   7.4640   7.4884   7.5686   7.7700
     7.8628   8.0912   8.2006   8.2311   8.3280   8.3742   8.4507   8.4872
     8.5467   8.7001

     occupation numbers 
     1.0000   1.0000   1.0000   1.0000   1.0000   1.0000   1.0000   1.0000
     1.0000   1.0000   1.0000   1.0000   1.0000   1.0000   1.0000   1.0000
     1.0000   1.0000   1.0000   1.0000   1.0000   1.0000   1.0000   1.0000
     1.0000   1.0000   1.0000   1.0000   1.0000   1.0000   1.0000   1.0000
     1.0000   1.0000   1.0000   1.0000   1.0000   1.0000   1.0000   1.0000
     1.0000   1.0000   1.0000   1.0000   1.0000   1.0000   1.0000   1.0000
     1.0000   1.0000   1.0000   1.0000   1.0000   1.0000   1.0000   1.0000
     1.0000   1.0000   1.0000   1.0000   1.0000   1.0000   1.0000   1.0000
     1.0000   1.0000   1.0000   1.0000   1.0000   1.0000   1.0000   1.0000
     1.0000   1.0000   1.0000   1.0000   1.0000   1.0000   1.0000   1.0000
     1.0000   1.0000   1.0000   1.0000   1.0000   1.0000   1.0000   1.0000
     1.0000   1.0000   1.0000   1.0000   1.0000   1.0000   1.0000   1.0000
     1.0000   1.0000   1.0000   1.0000   1.0000   1.0000   1.0000   1.0000
     1.0000   1.0000   1.0000   1.0000   1.0000   1.0000   1.0000   1.0000
     1.0000   1.0000   1.0000   1.0000   1.0000   1.0000   1.0000   1.0000
     1.0000   1.0000   1.0000   1.0000   1.0000   1.0000   1.0000   1.0000
     1.0000   1.0000   1.0000   1.0000   1.0000   1.0000   1.0000   1.0000
     1.0000   1.0000   1.0000   1.0000   1.0000   1.0000   1.0000   1.0000
     1.0000   1.0000   1.0000   1.0000   1.0000   1.0000   1.0000   1.0000
     1.0000   1.0000   1.0000   1.0000   1.0000   1.0000   0.9999   0.9999
     0.9999   0.9999   0.9998   0.9992   0.9987   0.9984   0.9982   0.9981
     0.9977   0.9975   0.9970   0.9965   0.9963   0.9959   0.9949   0.9945
     0.9935   0.9930   0.9915   0.9874   0.9866   0.9861   0.9831   0.9820
     0.9790   0.9740   0.9641   0.9508   0.9471   0.9387   0.9348   0.9207
     0.9125   0.9067   0.8997   0.8936   0.8640   0.8532   0.8215   0.8144
     0.7744   0.7671   0.7437   0.7397   0.7335   0.7286   0.7229   0.7157
     0.7129   0.7027   0.6987   0.6919   0.6871   0.6806   0.6755   0.6702
     0.6526   0.6469   0.6427   0.6241   0.4536   0.4054   0.3669   0.3188
     0.3114   0.2194   0.1718   0.0711   0.0367   0.0182   0.0065   0.0016
     0.0002   0.0002   0.0001   0.0001   0.0001   0.0000   0.0000   0.0000
     0.0000   0.0000   0.0000   0.0000   0.0000   0.0000   0.0000   0.0000
     0.0000   0.0000   0.0000   0.0000   0.0000   0.0000   0.0000   0.0000
     0.0000   0.0000

          k =-0.5000 0.2500 0.0000 ( 65138 PWs)   bands (ev):

   -92.8831 -92.8311 -92.7367 -92.6910 -92.6322 -92.5895 -92.5720 -92.4522
   -56.2367 -56.2179 -56.0937 -56.0834 -56.0767 -56.0703 -56.0346 -56.0057
   -55.9909 -55.9894 -55.9816 -55.9388 -55.9229 -55.8829 -55.8634 -55.8326
   -55.8255 -55.7772 -55.7771 -55.7743 -55.7659 -55.7273 -55.7020 -55.6185
   -31.4422 -31.4309 -31.2833 -31.2186 -31.1990 -31.1000 -30.9365 -30.7549
   -30.0239 -29.9870 -29.9572 -29.8507 -15.1596 -15.1144 -15.0358 -14.9303
   -14.8898 -14.7682 -14.6791 -14.5399 -14.2412 -14.2110 -14.1988 -14.1550
   -14.1300 -14.1067 -14.0720 -14.0546 -14.0356 -13.9973 -13.9756 -13.8667
   -13.8115 -13.7629 -13.7590 -13.7450 -13.6409 -13.6154 -13.4915 -13.4316
   -13.3696 -13.3336 -13.2357 -13.1971 -13.1855 -13.1627 -13.1380 -13.1137
   -13.1071 -13.0678 -12.9661 -12.9280 -12.8827 -12.8597 -12.8371 -12.7922
   -12.7842 -12.7096 -12.6765 -12.5069 -12.4921 -12.3623 -12.2975 -12.2719
   -11.9733 -11.9492 -11.9371 -11.9232 -11.9099 -11.8905 -11.8602 -11.7775
   -11.7704 -11.7459 -11.7112 -11.6838 -11.6744  -2.6175  -2.5757  -2.4284
    -2.3853  -2.2238  -2.1488  -2.0075  -1.8702  -1.8150  -1.7876  -1.7493
    -1.7107  -1.6293  -1.5133  -1.4561  -1.4326  -1.4075  -1.3305  -1.3015
    -1.2629  -1.2461  -1.1860  -1.1546  -1.1179  -1.0826  -1.0536  -0.9953
    -0.9661  -0.9234  -0.8899  -0.7862  -0.7579  -0.6694  -0.6037  -0.5774
    -0.5200  -0.4345  -0.3966  -0.3024  -0.2521  -0.2002  -0.1428  -0.1255
    -0.0531  -0.0242   0.0091   0.0538   0.0952   0.4116   0.4796   0.5590
     0.5768   0.8483   0.9034   0.9786   0.9997   1.1764   1.2121   1.2495
     1.2583   1.2775   1.2958   1.3640   1.4113   1.4551   1.4802   1.6171
     1.6466   1.6723   1.6869   1.7374   1.7486   1.7654   1.7804   1.7976
     1.8201   1.8712   1.8783   1.9161   1.9397   1.9760   2.0247   2.1494
     2.2469   2.2731   2.3405   2.3732   2.4331   2.4721   2.4788   2.5178
     2.5403   2.5523   2.5741   2.6342   2.6475   2.6674   2.7066   2.7138
     2.7205   2.7405   2.7624   2.7749   2.7888   2.8055   2.8250   2.8387
     2.8461   2.8548   2.8660   2.8778   3.4086   3.4636   3.5954   3.6185
     3.9061   3.9781   4.0288   4.2501   4.6104   4.7119   4.8762   4.9441
     5.2337   5.2671   5.4927   5.5667   5.6152   5.6404   6.3365   6.3806
     6.4570   6.6997   7.2958   7.6035   7.6716   7.7224   7.7449   7.7988
     7.9037   7.9652   8.2750   8.3056   8.4133   8.4288   8.5026   8.5628
     8.6981   8.7215

     occupation numbers 
     1.0000   1.0000   1.0000   1.0000   1.0000   1.0000   1.0000   1.0000
     1.0000   1.0000   1.0000   1.0000   1.0000   1.0000   1.0000   1.0000
     1.0000   1.0000   1.0000   1.0000   1.0000   1.0000   1.0000   1.0000
     1.0000   1.0000   1.0000   1.0000   1.0000   1.0000   1.0000   1.0000
     1.0000   1.0000   1.0000   1.0000   1.0000   1.0000   1.0000   1.0000
     1.0000   1.0000   1.0000   1.0000   1.0000   1.0000   1.0000   1.0000
     1.0000   1.0000   1.0000   1.0000   1.0000   1.0000   1.0000   1.0000
     1.0000   1.0000   1.0000   1.0000   1.0000   1.0000   1.0000   1.0000
     1.0000   1.0000   1.0000   1.0000   1.0000   1.0000   1.0000   1.0000
     1.0000   1.0000   1.0000   1.0000   1.0000   1.0000   1.0000   1.0000
     1.0000   1.0000   1.0000   1.0000   1.0000   1.0000   1.0000   1.0000
     1.0000   1.0000   1.0000   1.0000   1.0000   1.0000   1.0000   1.0000
     1.0000   1.0000   1.0000   1.0000   1.0000   1.0000   1.0000   1.0000
     1.0000   1.0000   1.0000   1.0000   1.0000   1.0000   1.0000   1.0000
     1.0000   1.0000   1.0000   1.0000   1.0000   1.0000   1.0000   1.0000
     1.0000   1.0000   1.0000   1.0000   1.0000   1.0000   1.0000   1.0000
     1.0000   1.0000   1.0000   1.0000   1.0000   1.0000   1.0000   1.0000
     1.0000   1.0000   1.0000   1.0000   1.0000   1.0000   1.0000   1.0000
     1.0000   1.0000   1.0000   1.0000   1.0000   1.0000   1.0000   1.0000
     1.0000   1.0000   1.0000   1.0000   1.0000   1.0000   1.0000   0.9999
     0.9999   0.9997   0.9996   0.9994   0.9993   0.9983   0.9980   0.9976
     0.9975   0.9972   0.9970   0.9959   0.9950   0.9940   0.9933   0.9884
     0.9870   0.9857   0.9849   0.9818   0.9810   0.9798   0.9787   0.9774
     0.9755   0.9708   0.9701   0.9661   0.9634   0.9588   0.9520   0.9305
     0.9091   0.9025   0.8841   0.8744   0.8551   0.8415   0.8390   0.8245
     0.8158   0.8110   0.8021   0.7763   0.7704   0.7613   0.7429   0.7394
     0.7362   0.7264   0.7155   0.7091   0.7020   0.6934   0.6831   0.6759
     0.6719   0.6672   0.6612   0.6547   0.3483   0.3186   0.2523   0.2414
     0.1295   0.1083   0.0949   0.0505   0.0148   0.0100   0.0051   0.0038
     0.0010   0.0008   0.0002   0.0002   0.0001   0.0001   0.0000   0.0000
     0.0000   0.0000   0.0000   0.0000   0.0000   0.0000   0.0000   0.0000
     0.0000   0.0000   0.0000   0.0000   0.0000   0.0000   0.0000   0.0000
     0.0000   0.0000

     the Fermi energy is     3.1459 ev

!    total energy              =   -4440.30867015 Ry
     estimated scf accuracy    <          9.8E-09 Ry
     smearing contrib. (-TS)   =      -1.20782945 Ry
     internal energy E=F+TS    =   -4439.10084070 Ry

     The total energy is F=E-TS. E is the sum of the following terms:
     one-electron contribution =  -20890.40550968 Ry
     hartree contribution      =   10574.24428398 Ry
     xc contribution           =    -693.25328446 Ry
     ewald contribution        =    6846.50460818 Ry
     one-center paw contrib.   =    -276.19093871 Ry
      -> PAW hartree energy AE =      25.14925104 Ry
      -> PAW hartree energy PS =     -25.03327484 Ry
      -> PAW xc energy AE      =     -16.51558200 Ry
      -> PAW xc energy PS      =       6.87494298 Ry
      -> total E_H with PAW    =   10574.36026018 Ry
      -> total E_XC with PAW   =    -702.89392348 Ry

     convergence has been achieved in  50 iterations

     Writing all to output data dir /bsuhome/zayahcortright/scratch/pwscf.save/
 
     init_run     :      7.46s CPU      8.41s WALL (       1 calls)
     electrons    :    723.63s CPU    757.79s WALL (       1 calls)

     Called by init_run:
     wfcinit      :      6.14s CPU      6.38s WALL (       1 calls)
     wfcinit:atom :      0.05s CPU      0.08s WALL (       5 calls)
     wfcinit:wfcr :      5.80s CPU      5.95s WALL (       5 calls)
     potinit      :      0.16s CPU      0.18s WALL (       1 calls)
     hinit0       :      0.29s CPU      0.71s WALL (       1 calls)

     Called by electrons:
     c_bands      :    574.57s CPU    581.53s WALL (      50 calls)
     sum_band     :    111.76s CPU    126.87s WALL (      50 calls)
     v_of_rho     :      5.44s CPU      5.83s WALL (      51 calls)
     v_h          :      0.47s CPU      0.47s WALL (      51 calls)
     v_xc         :      4.98s CPU      5.36s WALL (      51 calls)
     newd         :     16.85s CPU     28.16s WALL (      51 calls)
     PAW_pot      :      1.62s CPU      1.65s WALL (      51 calls)
     mix_rho      :     13.08s CPU     13.50s WALL (      50 calls)

     Called by c_bands:
     init_us_2    :      7.03s CPU      7.12s WALL (     505 calls)
     init_us_2:cp :      7.03s CPU      7.12s WALL (     505 calls)
     cegterg      :    541.91s CPU    548.55s WALL (     250 calls)

     Called by sum_band:
     sum_band:wei :      0.35s CPU      0.36s WALL (      50 calls)
     sum_band:loo :     93.55s CPU     94.36s WALL (      50 calls)
     sum_band:buf :      1.55s CPU      1.61s WALL (     250 calls)
     sum_band:ini :      3.26s CPU      3.28s WALL (     250 calls)
     sum_band:cal :     19.70s CPU     19.78s WALL (     250 calls)
     sum_band:bec :      0.55s CPU      0.55s WALL (     250 calls)
     addusdens    :     16.22s CPU     30.45s WALL (      50 calls)
                                        0.00s GPU  (      50 calls)
     addusd:skk   :      0.32s CPU      1.02s WALL (     150 calls)
                                        0.00s GPU  (     150 calls)

     Called by *egterg:
     cdiaghg      :     57.80s CPU     58.03s WALL (    1362 calls)
     cegterg:over :     39.14s CPU     39.30s WALL (    1112 calls)
     cegterg:upda :     28.52s CPU     29.06s WALL (    1112 calls)
     cegterg:last :     59.21s CPU     59.46s WALL (     446 calls)
     cdiaghg:chol :      3.30s CPU      3.32s WALL (    1362 calls)
     cdiaghg:inve :      3.01s CPU      3.02s WALL (    1362 calls)
     cdiaghg:para :      7.24s CPU      7.28s WALL (    2724 calls)
     h_psi        :    300.26s CPU    303.44s WALL (    1367 calls)
     s_psi        :     40.65s CPU     40.78s WALL (    1367 calls)
     g_psi        :      1.12s CPU      1.13s WALL (    1112 calls)

     Called by h_psi:
     h_psi:calbec :     45.69s CPU     45.92s WALL (    1367 calls)
     vloc_psi     :    211.09s CPU    213.10s WALL (    1367 calls)
     add_vuspsi   :     40.55s CPU     40.75s WALL (    1367 calls)

     General routines
     calbec       :     65.38s CPU     65.70s WALL (    1617 calls)
     fft          :      3.91s CPU      3.95s WALL (     661 calls)
     ffts         :      4.70s CPU      4.75s WALL (    5408 calls)
     fftw         :    179.50s CPU    180.93s WALL (  335100 calls)
     interpolate  :      0.42s CPU      0.42s WALL (      51 calls)
 
     Parallel routines

     PAW routines
     PAW_pot      :      1.62s CPU      1.65s WALL (      51 calls)
 
     PWSCF        :  12m13.54s CPU  12m51.71s WALL

 
   This run was terminated on:  23: 9: 2  21Jun2024            

=------------------------------------------------------------------------------=
   JOB DONE.
=------------------------------------------------------------------------------=
