
     Program PWSCF v.7.2 starts on 18Jun2024 at 18:38:57 

     This program is part of the open-source Quantum ESPRESSO suite
     for quantum simulation of materials; please cite
         "P. Giannozzi et al., J. Phys.:Condens. Matter 21 395502 (2009);
         "P. Giannozzi et al., J. Phys.:Condens. Matter 29 465901 (2017);
         "P. Giannozzi et al., J. Chem. Phys. 152 154105 (2020);
          URL http://www.quantum-espresso.org", 
     in publications or presentations arising from this work. More details at
     http://www.quantum-espresso.org/quote

     Parallel version (MPI & OpenMP), running on      48 processor cores
     Number of MPI processes:                48
     Threads/MPI process:                     1

     MPI processes distributed on     1 nodes
     15739 MiB available memory on the printing compute node when the environment starts
 
     Reading input from espresso.pwi
Warning: card &CELL ignored
Warning: card / ignored
Warning: card &FCP ignored
Warning: card / ignored
Warning: card &RISM ignored
Warning: card / ignored

     Current dimensions of program PWSCF are:
     Max number of different atomic species (ntypx) = 10
     Max number of k-points (npk) =  40000
     Max angular momentum in pseudopotentials (lmaxx) =  4
     file O.pbe-n-kjpaw_psl.0.1.UPF: wavefunction(s)  2P renormalized
     signal trapping enabled: kill the code with -SIGUSR1 to stop cleanly the simulation 
 
     K-points division:     npool     =       2
     R & G space division:  proc/nbgrp/npool/nimage =      24
     Subspace diagonalization in iterative solution of the eigenvalue problem:
     one sub-group per band group will be used
     scalapack distributed-memory algorithm (size of sub-group:  3*  3 procs)

 
     Parallelization info
     --------------------
     sticks:   dense  smooth     PW     G-vecs:    dense   smooth      PW
     Min         350     175     47                61430    21716    3036
     Max         351     177     48                61449    21727    3041
     Sum        8421    4205   1137              1474595   521381   72913
 
     Using Slab Decomposition
 


     bravais-lattice index     =            0
     lattice parameter (alat)  =      14.8599  a.u.
     unit-cell volume          =    8305.1283 (a.u.)^3
     number of atoms/cell      =           51
     number of atomic types    =            4
     number of electrons       =       437.00
     number of Kohn-Sham states=          263
     kinetic-energy cutoff     =      60.0000  Ry
     charge density cutoff     =     480.0000  Ry
     scf convergence threshold =      1.0E-08
     mixing beta               =       0.1500
     number of iterations used =            8  local-TF  mixing
     Exchange-correlation= PBE
                           (   1   4   3   4   0   0   0)

     celldm(1)=  14.859904  celldm(2)=   0.000000  celldm(3)=   0.000000
     celldm(4)=   0.000000  celldm(5)=   0.000000  celldm(6)=   0.000000

     crystal axes: (cart. coord. in units of alat)
               a(1) = (   1.000000   0.000000   0.000000 )  
               a(2) = (   0.000000   1.000000   0.000000 )  
               a(3) = (   0.000000   0.000000   2.531036 )  

     reciprocal axes: (cart. coord. in units 2 pi/alat)
               b(1) = (  1.000000  0.000000  0.000000 )  
               b(2) = (  0.000000  1.000000  0.000000 )  
               b(3) = (  0.000000  0.000000  0.395095 )  


     PseudoPot. # 1 for Sr read from file:
     /bsuhome/zayahcortright/q-e/pseudo/Sr_pbe_v1.uspp.F.UPF
     MD5 check sum: 6b418c05fbe9db5448babca5e47b7a5b
     Pseudo is Ultrasoft + core correction, Zval = 10.0
     Generated by new atomic code, or converted to UPF format
     Using radial grid of  883 points,  6 beta functions with: 
                l(1) =   0
                l(2) =   0
                l(3) =   1
                l(4) =   1
                l(5) =   2
                l(6) =   2
     Q(r) pseudized with  6 coefficients,  rinner =    1.400   1.400   1.400
                                                       1.400   1.400

     PseudoPot. # 2 for O  read from file:
     /bsuhome/zayahcortright/q-e/pseudo/O.pbe-n-kjpaw_psl.0.1.UPF
     MD5 check sum: 0234752ac141de4415c5fc33072bef88
     Pseudo is Projector augmented-wave + core cor, Zval =  6.0
     Generated using "atomic" code by A. Dal Corso  v.5.0.99 svn rev. 10869
     Shape of augmentation charge: BESSEL
     Using radial grid of 1095 points,  4 beta functions with: 
                l(1) =   0
                l(2) =   0
                l(3) =   1
                l(4) =   1
     Q(r) pseudized with 0 coefficients 


     PseudoPot. # 3 for Co read from file:
     /bsuhome/zayahcortright/q-e/pseudo/Co_pbe_v1.2.uspp.F.UPF
     MD5 check sum: 5f91765df6ddd3222702df6e7b74a16d
     Pseudo is Ultrasoft + core correction, Zval = 17.0
     Generated by new atomic code, or converted to UPF format
     Using radial grid of  863 points,  6 beta functions with: 
                l(1) =   0
                l(2) =   0
                l(3) =   1
                l(4) =   1
                l(5) =   2
                l(6) =   2
     Q(r) pseudized with  8 coefficients,  rinner =    1.200   1.200   1.200
                                                       1.200   1.200

     PseudoPot. # 4 for H  read from file:
     /bsuhome/zayahcortright/q-e/pseudo/H.pbe-rrkjus_psl.1.0.0.UPF
     MD5 check sum: f52b6d4d1c606e5624b1dc7b2218f220
     Pseudo is Ultrasoft, Zval =  1.0
     Generated using "atomic" code by A. Dal Corso  v.5.1
     Using radial grid of  929 points,  2 beta functions with: 
                l(1) =   0
                l(2) =   0
     Q(r) pseudized with 0 coefficients 


     atomic species   valence    mass     pseudopotential
        Sr            10.00    87.62000     Sr( 1.00)
        O              6.00    15.99900     O ( 1.00)
        Co            17.00    58.93319     Co( 1.00)
        H              1.00     1.00800     H ( 1.00)

     No symmetry found


                                    s                        frac. trans.

      isym =  1     identity                                     

 cryst.   s( 1) = (     1          0          0      )
                  (     0          1          0      )
                  (     0          0          1      )

 cart.    s( 1) = (  1.0000000  0.0000000  0.0000000 )
                  (  0.0000000  1.0000000  0.0000000 )
                  (  0.0000000  0.0000000  1.0000000 )


   Cartesian axes

     site n.     atom                  positions (alat units)
         1           Sr  tau(   1) = (   0.2508693   0.7491307   1.7574407  )
         2           O   tau(   2) = (   0.4985141   0.5014859   1.7715967  )
         3           Sr  tau(   3) = (   0.7482398   0.7454518   1.7648669  )
         4           Sr  tau(   4) = (   0.7441748   0.2558252   1.7667843  )
         5           Sr  tau(   5) = (   0.2508693   0.7491307   1.2696799  )
         6           Sr  tau(   6) = (   0.2508693   0.7491307   0.7632319  )
         7           Co  tau(   7) = (   0.4998914   0.5001086   1.0164559  )
         8           Co  tau(   8) = (   0.4936915   0.5063085   1.5135603  )
         9           O   tau(   9) = (   0.4988895   0.7610401   1.0164559  )
        10           O   tau(  10) = (   0.2389599   0.5011105   1.0164559  )
        11           O   tau(  11) = (   0.0070918   0.7374880   1.0164559  )
        12           O   tau(  12) = (   0.0088340   0.7405089   1.5135603  )
        13           O   tau(  13) = (   0.5066944   0.7415376   1.5135603  )
        14           O   tau(  14) = (   0.2584624   0.4933056   1.5135603  )
        15           O   tau(  15) = (   0.4985141   0.5014859   0.7773880  )
        16           O   tau(  16) = (   0.4985141   0.5014859   1.2555238  )
        17           Sr  tau(  17) = (   0.7482398   0.7454518   0.7706582  )
        18           Sr  tau(  18) = (   0.7482398   0.7454518   1.2622536  )
        19           Sr  tau(  19) = (   0.7441748   0.2558252   0.7725755  )
        20           Sr  tau(  20) = (   0.7441748   0.2558252   1.2603363  )
        21           O   tau(  21) = (   0.7322655   0.0078049   1.5135603  )
        22           O   tau(  22) = (   0.7558175   0.4996027   1.5135603  )
        23           O   tau(  23) = (   0.5003973   0.2441825   1.5135603  )
        24           O   tau(  24) = (   0.7527966   0.4978604   1.0164559  )
        25           O   tau(  25) = (   0.5021396   0.2472034   1.0164559  )
        26           O   tau(  26) = (   0.7517679   0.0000000   1.0164559  )
        27           O   tau(  27) = (   0.0114961   0.4948124   1.7455321  )
        28           O   tau(  28) = (   0.0048226   0.0077944   1.7715967  )
        29           Sr  tau(  29) = (   0.2545482   0.2517602   1.7648669  )
        30           O   tau(  30) = (   0.5048017   0.0015068   1.7786929  )
        31           Co  tau(  31) = (   0.0056869   0.5006215   1.0164559  )
        32           Co  tau(  32) = (   0.0065315   0.4997770   1.5135603  )
        33           Co  tau(  33) = (   0.0061999   0.0064171   1.0164559  )
        34           Co  tau(  34) = (   0.0000000   0.0126169   1.5135603  )
        35           O   tau(  35) = (   0.0114961   0.4948124   1.2815885  )
        36           O   tau(  36) = (   0.0114961   0.4948124   0.7513233  )
        37           O   tau(  37) = (   0.0051979   0.2673486   1.0164559  )
        38           O   tau(  38) = (   0.0130029   0.2478461   1.5135603  )
        39           O   tau(  39) = (   0.0048226   0.0077944   0.7773880  )
        40           O   tau(  40) = (   0.0048226   0.0077944   1.2555238  )
        41           Sr  tau(  41) = (   0.2545482   0.2517602   0.7706582  )
        42           Sr  tau(  42) = (   0.2545482   0.2517602   1.2622536  )
        43           Co  tau(  43) = (   0.4989925   0.0073160   1.5135603  )
        44           Co  tau(  44) = (   0.4998370   0.0064714   1.0164559  )
        45           O   tau(  45) = (   0.5048017   0.0015068   0.7844841  )
        46           O   tau(  46) = (   0.5048017   0.0015068   1.2484277  )
        47           O   tau(  47) = (   0.2621260   0.0059111   1.5135603  )
        48           O   tau(  48) = (   0.2591051   0.0041689   1.0164559  )
        49           O   tau(  49) = (   0.0000000   0.7108228   2.1602013  )
        50           O   tau(  50) = (   0.0000000   0.7108228   2.3186489  )
        51           H   tau(  51) = (   0.0000000   0.7108228   2.4431567  )

   Crystallographic axes

     site n.     atom                  positions (cryst. coord.)
         1           Sr  tau(   1) = (  0.2508693  0.7491307  0.6943562  )
         2           O   tau(   2) = (  0.4985141  0.5014859  0.6999492  )
         3           Sr  tau(   3) = (  0.7482398  0.7454518  0.6972903  )
         4           Sr  tau(   4) = (  0.7441748  0.2558252  0.6980478  )
         5           Sr  tau(   5) = (  0.2508693  0.7491307  0.5016443  )
         6           Sr  tau(   6) = (  0.2508693  0.7491307  0.3015492  )
         7           Co  tau(   7) = (  0.4998914  0.5001086  0.4015968  )
         8           Co  tau(   8) = (  0.4936915  0.5063085  0.5980003  )
         9           O   tau(   9) = (  0.4988895  0.7610401  0.4015968  )
        10           O   tau(  10) = (  0.2389599  0.5011105  0.4015968  )
        11           O   tau(  11) = (  0.0070918  0.7374880  0.4015968  )
        12           O   tau(  12) = (  0.0088340  0.7405089  0.5980003  )
        13           O   tau(  13) = (  0.5066944  0.7415376  0.5980003  )
        14           O   tau(  14) = (  0.2584624  0.4933056  0.5980003  )
        15           O   tau(  15) = (  0.4985141  0.5014859  0.3071422  )
        16           O   tau(  16) = (  0.4985141  0.5014859  0.4960513  )
        17           Sr  tau(  17) = (  0.7482398  0.7454518  0.3044833  )
        18           Sr  tau(  18) = (  0.7482398  0.7454518  0.4987103  )
        19           Sr  tau(  19) = (  0.7441748  0.2558252  0.3052408  )
        20           Sr  tau(  20) = (  0.7441748  0.2558252  0.4979527  )
        21           O   tau(  21) = (  0.7322655  0.0078049  0.5980003  )
        22           O   tau(  22) = (  0.7558175  0.4996027  0.5980003  )
        23           O   tau(  23) = (  0.5003973  0.2441825  0.5980003  )
        24           O   tau(  24) = (  0.7527966  0.4978604  0.4015968  )
        25           O   tau(  25) = (  0.5021396  0.2472034  0.4015968  )
        26           O   tau(  26) = (  0.7517679  0.0000000  0.4015968  )
        27           O   tau(  27) = (  0.0114961  0.4948124  0.6896512  )
        28           O   tau(  28) = (  0.0048226  0.0077944  0.6999492  )
        29           Sr  tau(  29) = (  0.2545482  0.2517602  0.6972903  )
        30           O   tau(  30) = (  0.5048017  0.0015068  0.7027529  )
        31           Co  tau(  31) = (  0.0056869  0.5006215  0.4015968  )
        32           Co  tau(  32) = (  0.0065315  0.4997770  0.5980003  )
        33           Co  tau(  33) = (  0.0061999  0.0064171  0.4015968  )
        34           Co  tau(  34) = (  0.0000000  0.0126169  0.5980003  )
        35           O   tau(  35) = (  0.0114961  0.4948124  0.5063494  )
        36           O   tau(  36) = (  0.0114961  0.4948124  0.2968442  )
        37           O   tau(  37) = (  0.0051979  0.2673486  0.4015968  )
        38           O   tau(  38) = (  0.0130029  0.2478461  0.5980003  )
        39           O   tau(  39) = (  0.0048226  0.0077944  0.3071422  )
        40           O   tau(  40) = (  0.0048226  0.0077944  0.4960513  )
        41           Sr  tau(  41) = (  0.2545482  0.2517602  0.3044833  )
        42           Sr  tau(  42) = (  0.2545482  0.2517602  0.4987103  )
        43           Co  tau(  43) = (  0.4989925  0.0073160  0.5980003  )
        44           Co  tau(  44) = (  0.4998370  0.0064714  0.4015968  )
        45           O   tau(  45) = (  0.5048017  0.0015068  0.3099459  )
        46           O   tau(  46) = (  0.5048017  0.0015068  0.4932477  )
        47           O   tau(  47) = (  0.2621260  0.0059111  0.5980003  )
        48           O   tau(  48) = (  0.2591051  0.0041689  0.4015968  )
        49           O   tau(  49) = (  0.0000000  0.7108228  0.8534850  )
        50           O   tau(  50) = (  0.0000000  0.7108228  0.9160869  )
        51           H   tau(  51) = (  0.0000000  0.7108228  0.9652793  )

     number of k points=    10  Gaussian smearing, width (Ry)=  0.0700
                       cart. coord. in units 2pi/alat
        k(    1) = (   0.0000000   0.0000000   0.0000000), wk =   0.1250000
        k(    2) = (   0.0000000   0.2500000   0.0000000), wk =   0.2500000
        k(    3) = (   0.0000000  -0.5000000   0.0000000), wk =   0.1250000
        k(    4) = (   0.2500000   0.2500000   0.0000000), wk =   0.2500000
        k(    5) = (   0.2500000  -0.5000000   0.0000000), wk =   0.2500000
        k(    6) = (  -0.5000000  -0.5000000   0.0000000), wk =   0.1250000
        k(    7) = (   0.2500000   0.0000000   0.0000000), wk =   0.2500000
        k(    8) = (  -0.5000000   0.0000000   0.0000000), wk =   0.1250000
        k(    9) = (  -0.2500000   0.2500000   0.0000000), wk =   0.2500000
        k(   10) = (  -0.5000000   0.2500000   0.0000000), wk =   0.2500000

                       cryst. coord.
        k(    1) = (   0.0000000   0.0000000   0.0000000), wk =   0.1250000
        k(    2) = (   0.0000000   0.2500000   0.0000000), wk =   0.2500000
        k(    3) = (   0.0000000  -0.5000000   0.0000000), wk =   0.1250000
        k(    4) = (   0.2500000   0.2500000   0.0000000), wk =   0.2500000
        k(    5) = (   0.2500000  -0.5000000   0.0000000), wk =   0.2500000
        k(    6) = (  -0.5000000  -0.5000000   0.0000000), wk =   0.1250000
        k(    7) = (   0.2500000   0.0000000   0.0000000), wk =   0.2500000
        k(    8) = (  -0.5000000   0.0000000   0.0000000), wk =   0.1250000
        k(    9) = (  -0.2500000   0.2500000   0.0000000), wk =   0.2500000
        k(   10) = (  -0.5000000   0.2500000   0.0000000), wk =   0.2500000

     Dense  grid:  1474595 G-vectors     FFT dimensions: ( 108, 108, 270)

     Smooth grid:   521381 G-vectors     FFT dimensions: (  75,  75, 192)

     Dynamical RAM for                 wfc:      10.90 MB

     Dynamical RAM for     wfc (w. buffer):      65.37 MB

     Dynamical RAM for           str. fact:       3.75 MB

     Dynamical RAM for           local pot:       0.00 MB

     Dynamical RAM for          nlocal pot:      24.94 MB

     Dynamical RAM for                qrad:       7.03 MB

     Dynamical RAM for          rho,v,vnew:       6.02 MB

     Dynamical RAM for               rhoin:       2.01 MB

     Dynamical RAM for            rho*nmix:      15.00 MB

     Dynamical RAM for           G-vectors:       3.68 MB

     Dynamical RAM for          h,s,v(r/c):       1.40 MB

     Dynamical RAM for          <psi|beta>:       2.42 MB

     Dynamical RAM for                 psi:      21.79 MB

     Dynamical RAM for                hpsi:      21.79 MB

     Dynamical RAM for                spsi:      21.79 MB

     Dynamical RAM for      wfcinit/wfcrot:      34.89 MB

     Dynamical RAM for           addusdens:     101.73 MB

     Estimated static dynamical RAM per process >     122.82 MB

     Estimated max dynamical RAM per process >     239.55 MB

     Estimated total dynamical RAM >      10.88 GB

     Check: negative core charge=   -0.000004

     Initial potential from superposition of free atoms

     starting charge     428.5961, renormalised to     437.0000

     negative rho (up, down):  7.813E-01 0.000E+00
     Starting wfcs are  381 randomized atomic wfcs
     Checking if some PAW data can be deallocated... 
       PAW data deallocated on   18 nodes for type:  2

     total cpu time spent up to now is        9.3 secs

     Self-consistent Calculation

     iteration #  1     ecut=    60.00 Ry     beta= 0.15
     Davidson diagonalization with overlap

---- Real-time Memory Report at c_bands before calling an iterative solver
             0 MiB given to the printing process from OS
             0 MiB allocation reported by mallinfo(arena+hblkhd)
          6220 MiB available memory on the node where the printing process lives
------------------
     ethr =  1.00E-02,  avg # of iterations =  2.0

     negative rho (up, down):  7.717E-01 0.000E+00

     total cpu time spent up to now is       25.2 secs

     total energy              =   -4489.32916444 Ry
     estimated scf accuracy    <      49.77316798 Ry

     iteration #  2     ecut=    60.00 Ry     beta= 0.15
     Davidson diagonalization with overlap

---- Real-time Memory Report at c_bands before calling an iterative solver
             0 MiB given to the printing process from OS
             0 MiB allocation reported by mallinfo(arena+hblkhd)
          6540 MiB available memory on the node where the printing process lives
------------------
     ethr =  1.00E-02,  avg # of iterations =  1.0

     negative rho (up, down):  7.614E-01 0.000E+00

     total cpu time spent up to now is       38.3 secs

     total energy              =   -4486.82135896 Ry
     estimated scf accuracy    <      35.42430287 Ry

     iteration #  3     ecut=    60.00 Ry     beta= 0.15
     Davidson diagonalization with overlap

---- Real-time Memory Report at c_bands before calling an iterative solver
             0 MiB given to the printing process from OS
             0 MiB allocation reported by mallinfo(arena+hblkhd)
          5754 MiB available memory on the node where the printing process lives
------------------
     ethr =  8.11E-03,  avg # of iterations =  1.0

     negative rho (up, down):  7.562E-01 0.000E+00

     total cpu time spent up to now is       51.5 secs

     total energy              =   -4486.75533265 Ry
     estimated scf accuracy    <      35.06643863 Ry

     iteration #  4     ecut=    60.00 Ry     beta= 0.15
     Davidson diagonalization with overlap

---- Real-time Memory Report at c_bands before calling an iterative solver
             0 MiB given to the printing process from OS
             0 MiB allocation reported by mallinfo(arena+hblkhd)
          5719 MiB available memory on the node where the printing process lives
------------------
     ethr =  8.02E-03,  avg # of iterations =  1.0

     negative rho (up, down):  7.573E-01 0.000E+00

     total cpu time spent up to now is       64.5 secs

     total energy              =   -4486.68142930 Ry
     estimated scf accuracy    <      34.34398168 Ry

     iteration #  5     ecut=    60.00 Ry     beta= 0.15
     Davidson diagonalization with overlap

---- Real-time Memory Report at c_bands before calling an iterative solver
             0 MiB given to the printing process from OS
             0 MiB allocation reported by mallinfo(arena+hblkhd)
          5702 MiB available memory on the node where the printing process lives
------------------
     ethr =  7.86E-03,  avg # of iterations =  1.0

     negative rho (up, down):  7.342E-01 0.000E+00

     total cpu time spent up to now is       77.5 secs

     total energy              =   -4482.99412856 Ry
     estimated scf accuracy    <      24.00087262 Ry

     iteration #  6     ecut=    60.00 Ry     beta= 0.15
     Davidson diagonalization with overlap

---- Real-time Memory Report at c_bands before calling an iterative solver
             0 MiB given to the printing process from OS
             0 MiB allocation reported by mallinfo(arena+hblkhd)
          5687 MiB available memory on the node where the printing process lives
------------------
     ethr =  5.49E-03,  avg # of iterations =  2.0

     negative rho (up, down):  7.474E-01 0.000E+00

     total cpu time spent up to now is       91.9 secs

     total energy              =   -4484.18470166 Ry
     estimated scf accuracy    <      43.22417637 Ry

     iteration #  7     ecut=    60.00 Ry     beta= 0.15
     Davidson diagonalization with overlap

---- Real-time Memory Report at c_bands before calling an iterative solver
             0 MiB given to the printing process from OS
             0 MiB allocation reported by mallinfo(arena+hblkhd)
          5660 MiB available memory on the node where the printing process lives
------------------
     ethr =  5.49E-03,  avg # of iterations =  1.0

     negative rho (up, down):  7.527E-01 0.000E+00

     total cpu time spent up to now is      105.0 secs

     total energy              =   -4483.46908059 Ry
     estimated scf accuracy    <      43.78892384 Ry

     iteration #  8     ecut=    60.00 Ry     beta= 0.15
     Davidson diagonalization with overlap

---- Real-time Memory Report at c_bands before calling an iterative solver
             0 MiB given to the printing process from OS
             0 MiB allocation reported by mallinfo(arena+hblkhd)
          5640 MiB available memory on the node where the printing process lives
------------------
     ethr =  5.49E-03,  avg # of iterations =  1.0

     negative rho (up, down):  7.503E-01 0.000E+00

     total cpu time spent up to now is      118.2 secs

     total energy              =   -4483.82812272 Ry
     estimated scf accuracy    <       5.94712529 Ry

     iteration #  9     ecut=    60.00 Ry     beta= 0.15
     Davidson diagonalization with overlap

---- Real-time Memory Report at c_bands before calling an iterative solver
             0 MiB given to the printing process from OS
             0 MiB allocation reported by mallinfo(arena+hblkhd)
          5630 MiB available memory on the node where the printing process lives
------------------
     ethr =  1.36E-03,  avg # of iterations =  5.9

     negative rho (up, down):  7.635E-01 0.000E+00

     total cpu time spent up to now is      134.1 secs

     total energy              =   -4483.68135995 Ry
     estimated scf accuracy    <       3.56188541 Ry

     iteration # 10     ecut=    60.00 Ry     beta= 0.15
     Davidson diagonalization with overlap

---- Real-time Memory Report at c_bands before calling an iterative solver
             0 MiB given to the printing process from OS
             0 MiB allocation reported by mallinfo(arena+hblkhd)
          5583 MiB available memory on the node where the printing process lives
------------------
     ethr =  8.15E-04,  avg # of iterations =  9.4

     negative rho (up, down):  7.784E-01 0.000E+00

     total cpu time spent up to now is      152.3 secs

     total energy              =   -4483.52539153 Ry
     estimated scf accuracy    <       4.16713845 Ry

     iteration # 11     ecut=    60.00 Ry     beta= 0.15
     Davidson diagonalization with overlap

---- Real-time Memory Report at c_bands before calling an iterative solver
             0 MiB given to the printing process from OS
             0 MiB allocation reported by mallinfo(arena+hblkhd)
          5224 MiB available memory on the node where the printing process lives
------------------
     ethr =  8.15E-04,  avg # of iterations =  6.0

     negative rho (up, down):  7.874E-01 0.000E+00

     total cpu time spent up to now is      169.4 secs

     total energy              =   -4483.33930496 Ry
     estimated scf accuracy    <       3.86447483 Ry

     iteration # 12     ecut=    60.00 Ry     beta= 0.15
     Davidson diagonalization with overlap

---- Real-time Memory Report at c_bands before calling an iterative solver
             0 MiB given to the printing process from OS
             0 MiB allocation reported by mallinfo(arena+hblkhd)
          5192 MiB available memory on the node where the printing process lives
------------------
     ethr =  8.15E-04,  avg # of iterations =  9.4

     negative rho (up, down):  7.995E-01 0.000E+00

     total cpu time spent up to now is      187.7 secs

     total energy              =   -4483.19481267 Ry
     estimated scf accuracy    <       2.08263332 Ry

     iteration # 13     ecut=    60.00 Ry     beta= 0.15
     Davidson diagonalization with overlap

---- Real-time Memory Report at c_bands before calling an iterative solver
             0 MiB given to the printing process from OS
             0 MiB allocation reported by mallinfo(arena+hblkhd)
          5102 MiB available memory on the node where the printing process lives
------------------
     ethr =  4.77E-04,  avg # of iterations =  2.0

     negative rho (up, down):  7.972E-01 0.000E+00

     total cpu time spent up to now is      202.8 secs

     total energy              =   -4483.30584198 Ry
     estimated scf accuracy    <       1.92952913 Ry

     iteration # 14     ecut=    60.00 Ry     beta= 0.15
     Davidson diagonalization with overlap

---- Real-time Memory Report at c_bands before calling an iterative solver
             0 MiB given to the printing process from OS
             0 MiB allocation reported by mallinfo(arena+hblkhd)
          5127 MiB available memory on the node where the printing process lives
------------------
     ethr =  4.42E-04,  avg # of iterations =  1.4

     negative rho (up, down):  8.048E-01 0.000E+00

     total cpu time spent up to now is      216.3 secs

     total energy              =   -4483.25476124 Ry
     estimated scf accuracy    <       0.93487851 Ry

     iteration # 15     ecut=    60.00 Ry     beta= 0.15
     Davidson diagonalization with overlap

---- Real-time Memory Report at c_bands before calling an iterative solver
             0 MiB given to the printing process from OS
             0 MiB allocation reported by mallinfo(arena+hblkhd)
          5139 MiB available memory on the node where the printing process lives
------------------
     ethr =  2.14E-04,  avg # of iterations =  6.0

     negative rho (up, down):  8.139E-01 0.000E+00

     total cpu time spent up to now is      233.5 secs

     total energy              =   -4483.16509761 Ry
     estimated scf accuracy    <       1.10798113 Ry

     iteration # 16     ecut=    60.00 Ry     beta= 0.15
     Davidson diagonalization with overlap

---- Real-time Memory Report at c_bands before calling an iterative solver
             0 MiB given to the printing process from OS
             0 MiB allocation reported by mallinfo(arena+hblkhd)
          5123 MiB available memory on the node where the printing process lives
------------------
     ethr =  2.14E-04,  avg # of iterations =  4.1

     negative rho (up, down):  8.233E-01 0.000E+00

     total cpu time spent up to now is      249.5 secs

     total energy              =   -4483.09636897 Ry
     estimated scf accuracy    <       2.29725014 Ry

     iteration # 17     ecut=    60.00 Ry     beta= 0.15
     Davidson diagonalization with overlap

---- Real-time Memory Report at c_bands before calling an iterative solver
             0 MiB given to the printing process from OS
             0 MiB allocation reported by mallinfo(arena+hblkhd)
          5118 MiB available memory on the node where the printing process lives
------------------
     ethr =  2.14E-04,  avg # of iterations =  7.6

     negative rho (up, down):  8.222E-01 0.000E+00

     total cpu time spent up to now is      267.4 secs

     total energy              =   -4483.09361786 Ry
     estimated scf accuracy    <       0.86825256 Ry

     iteration # 18     ecut=    60.00 Ry     beta= 0.15
     Davidson diagonalization with overlap

---- Real-time Memory Report at c_bands before calling an iterative solver
             0 MiB given to the printing process from OS
             0 MiB allocation reported by mallinfo(arena+hblkhd)
          5106 MiB available memory on the node where the printing process lives
------------------
     ethr =  1.99E-04,  avg # of iterations =  1.4

     negative rho (up, down):  8.216E-01 0.000E+00

     total cpu time spent up to now is      281.9 secs

     total energy              =   -4483.06497684 Ry
     estimated scf accuracy    <       1.01288417 Ry

     iteration # 19     ecut=    60.00 Ry     beta= 0.15
     Davidson diagonalization with overlap

---- Real-time Memory Report at c_bands before calling an iterative solver
             0 MiB given to the printing process from OS
             0 MiB allocation reported by mallinfo(arena+hblkhd)
          5111 MiB available memory on the node where the printing process lives
------------------
     ethr =  1.99E-04,  avg # of iterations =  1.8

     negative rho (up, down):  8.302E-01 0.000E+00

     total cpu time spent up to now is      296.8 secs

     total energy              =   -4483.03214852 Ry
     estimated scf accuracy    <       0.84298526 Ry

     iteration # 20     ecut=    60.00 Ry     beta= 0.15
     Davidson diagonalization with overlap

---- Real-time Memory Report at c_bands before calling an iterative solver
             0 MiB given to the printing process from OS
             0 MiB allocation reported by mallinfo(arena+hblkhd)
          5116 MiB available memory on the node where the printing process lives
------------------
     ethr =  1.93E-04,  avg # of iterations =  8.2

     negative rho (up, down):  8.164E-01 0.000E+00

     total cpu time spent up to now is      315.0 secs

     total energy              =   -4482.99604924 Ry
     estimated scf accuracy    <       0.34523018 Ry

     iteration # 21     ecut=    60.00 Ry     beta= 0.15
     Davidson diagonalization with overlap

---- Real-time Memory Report at c_bands before calling an iterative solver
             0 MiB given to the printing process from OS
             0 MiB allocation reported by mallinfo(arena+hblkhd)
          5104 MiB available memory on the node where the printing process lives
------------------
     ethr =  7.90E-05,  avg # of iterations = 10.0

     negative rho (up, down):  8.237E-01 0.000E+00

     total cpu time spent up to now is      334.4 secs

     total energy              =   -4482.98235593 Ry
     estimated scf accuracy    <       0.12920762 Ry

     iteration # 22     ecut=    60.00 Ry     beta= 0.15
     Davidson diagonalization with overlap

---- Real-time Memory Report at c_bands before calling an iterative solver
             0 MiB given to the printing process from OS
             0 MiB allocation reported by mallinfo(arena+hblkhd)
          5047 MiB available memory on the node where the printing process lives
------------------
     ethr =  2.96E-05,  avg # of iterations =  9.9

     negative rho (up, down):  8.213E-01 0.000E+00

     total cpu time spent up to now is      354.2 secs

     total energy              =   -4482.98474151 Ry
     estimated scf accuracy    <       0.04894821 Ry

     iteration # 23     ecut=    60.00 Ry     beta= 0.15
     Davidson diagonalization with overlap

---- Real-time Memory Report at c_bands before calling an iterative solver
             0 MiB given to the printing process from OS
             0 MiB allocation reported by mallinfo(arena+hblkhd)
          4961 MiB available memory on the node where the printing process lives
------------------
     ethr =  1.12E-05,  avg # of iterations =  3.3

     negative rho (up, down):  8.110E-01 0.000E+00

     total cpu time spent up to now is      370.2 secs

     total energy              =   -4482.98046529 Ry
     estimated scf accuracy    <       0.03548286 Ry

     iteration # 24     ecut=    60.00 Ry     beta= 0.15
     Davidson diagonalization with overlap

---- Real-time Memory Report at c_bands before calling an iterative solver
             0 MiB given to the printing process from OS
             0 MiB allocation reported by mallinfo(arena+hblkhd)
          4963 MiB available memory on the node where the printing process lives
------------------
     ethr =  8.12E-06,  avg # of iterations =  4.8

     negative rho (up, down):  8.234E-01 0.000E+00

     total cpu time spent up to now is      386.6 secs

     total energy              =   -4482.97853883 Ry
     estimated scf accuracy    <       0.02164709 Ry

     iteration # 25     ecut=    60.00 Ry     beta= 0.15
     Davidson diagonalization with overlap

---- Real-time Memory Report at c_bands before calling an iterative solver
             0 MiB given to the printing process from OS
             0 MiB allocation reported by mallinfo(arena+hblkhd)
          4969 MiB available memory on the node where the printing process lives
------------------
     ethr =  4.95E-06,  avg # of iterations = 12.7

     negative rho (up, down):  8.005E-01 0.000E+00

     total cpu time spent up to now is      408.1 secs

     total energy              =   -4482.97693858 Ry
     estimated scf accuracy    <       0.01121866 Ry

     iteration # 26     ecut=    60.00 Ry     beta= 0.15
     Davidson diagonalization with overlap

---- Real-time Memory Report at c_bands before calling an iterative solver
             0 MiB given to the printing process from OS
             0 MiB allocation reported by mallinfo(arena+hblkhd)
          4877 MiB available memory on the node where the printing process lives
------------------
     ethr =  2.57E-06,  avg # of iterations =  7.3

     negative rho (up, down):  8.018E-01 0.000E+00

     total cpu time spent up to now is      426.8 secs

     total energy              =   -4482.97645963 Ry
     estimated scf accuracy    <       0.00666207 Ry

     iteration # 27     ecut=    60.00 Ry     beta= 0.15
     Davidson diagonalization with overlap

---- Real-time Memory Report at c_bands before calling an iterative solver
             0 MiB given to the printing process from OS
             0 MiB allocation reported by mallinfo(arena+hblkhd)
          4879 MiB available memory on the node where the printing process lives
------------------
     ethr =  1.52E-06,  avg # of iterations =  6.0

     negative rho (up, down):  7.943E-01 0.000E+00

     total cpu time spent up to now is      444.4 secs

     total energy              =   -4482.97609921 Ry
     estimated scf accuracy    <       0.00318370 Ry

     iteration # 28     ecut=    60.00 Ry     beta= 0.15
     Davidson diagonalization with overlap

---- Real-time Memory Report at c_bands before calling an iterative solver
             0 MiB given to the printing process from OS
             0 MiB allocation reported by mallinfo(arena+hblkhd)
          4869 MiB available memory on the node where the printing process lives
------------------
     c_bands:  1 eigenvalues not converged
     ethr =  7.29E-07,  avg # of iterations = 11.6

     negative rho (up, down):  7.943E-01 0.000E+00

     total cpu time spent up to now is      466.3 secs

     total energy              =   -4482.97632162 Ry
     estimated scf accuracy    <       0.00119355 Ry

     iteration # 29     ecut=    60.00 Ry     beta= 0.15
     Davidson diagonalization with overlap

---- Real-time Memory Report at c_bands before calling an iterative solver
             0 MiB given to the printing process from OS
             0 MiB allocation reported by mallinfo(arena+hblkhd)
          4865 MiB available memory on the node where the printing process lives
------------------
     ethr =  2.73E-07,  avg # of iterations =  2.7

     negative rho (up, down):  7.935E-01 0.000E+00

     total cpu time spent up to now is      481.3 secs

     total energy              =   -4482.97628474 Ry
     estimated scf accuracy    <       0.00060070 Ry

     iteration # 30     ecut=    60.00 Ry     beta= 0.15
     Davidson diagonalization with overlap

---- Real-time Memory Report at c_bands before calling an iterative solver
             0 MiB given to the printing process from OS
             0 MiB allocation reported by mallinfo(arena+hblkhd)
          4851 MiB available memory on the node where the printing process lives
------------------
     ethr =  1.37E-07,  avg # of iterations =  5.0

     negative rho (up, down):  7.927E-01 0.000E+00

     total cpu time spent up to now is      497.1 secs

     total energy              =   -4482.97626465 Ry
     estimated scf accuracy    <       0.00032801 Ry

     iteration # 31     ecut=    60.00 Ry     beta= 0.15
     Davidson diagonalization with overlap

---- Real-time Memory Report at c_bands before calling an iterative solver
             0 MiB given to the printing process from OS
             0 MiB allocation reported by mallinfo(arena+hblkhd)
          4859 MiB available memory on the node where the printing process lives
------------------
     ethr =  7.51E-08,  avg # of iterations =  3.9

     negative rho (up, down):  7.924E-01 0.000E+00

     total cpu time spent up to now is      513.0 secs

     total energy              =   -4482.97626683 Ry
     estimated scf accuracy    <       0.00015230 Ry

     iteration # 32     ecut=    60.00 Ry     beta= 0.15
     Davidson diagonalization with overlap

---- Real-time Memory Report at c_bands before calling an iterative solver
             0 MiB given to the printing process from OS
             0 MiB allocation reported by mallinfo(arena+hblkhd)
          4930 MiB available memory on the node where the printing process lives
------------------
     ethr =  3.49E-08,  avg # of iterations =  4.4

     negative rho (up, down):  7.924E-01 0.000E+00

     total cpu time spent up to now is      529.0 secs

     total energy              =   -4482.97626907 Ry
     estimated scf accuracy    <       0.00005921 Ry

     iteration # 33     ecut=    60.00 Ry     beta= 0.15
     Davidson diagonalization with overlap

---- Real-time Memory Report at c_bands before calling an iterative solver
             0 MiB given to the printing process from OS
             0 MiB allocation reported by mallinfo(arena+hblkhd)
          4937 MiB available memory on the node where the printing process lives
------------------
     ethr =  1.36E-08,  avg # of iterations =  3.7

     negative rho (up, down):  7.923E-01 0.000E+00

     total cpu time spent up to now is      544.6 secs

     total energy              =   -4482.97627069 Ry
     estimated scf accuracy    <       0.00003518 Ry

     iteration # 34     ecut=    60.00 Ry     beta= 0.15
     Davidson diagonalization with overlap

---- Real-time Memory Report at c_bands before calling an iterative solver
             0 MiB given to the printing process from OS
             0 MiB allocation reported by mallinfo(arena+hblkhd)
          4944 MiB available memory on the node where the printing process lives
------------------
     ethr =  8.05E-09,  avg # of iterations =  3.7

     negative rho (up, down):  7.922E-01 0.000E+00

     total cpu time spent up to now is      560.6 secs

     total energy              =   -4482.97627532 Ry
     estimated scf accuracy    <       0.00001931 Ry

     iteration # 35     ecut=    60.00 Ry     beta= 0.15
     Davidson diagonalization with overlap

---- Real-time Memory Report at c_bands before calling an iterative solver
             0 MiB given to the printing process from OS
             0 MiB allocation reported by mallinfo(arena+hblkhd)
          4949 MiB available memory on the node where the printing process lives
------------------
     ethr =  4.42E-09,  avg # of iterations =  3.1

     negative rho (up, down):  7.921E-01 0.000E+00

     total cpu time spent up to now is      575.8 secs

     total energy              =   -4482.97628202 Ry
     estimated scf accuracy    <       0.00001052 Ry

     iteration # 36     ecut=    60.00 Ry     beta= 0.15
     Davidson diagonalization with overlap

---- Real-time Memory Report at c_bands before calling an iterative solver
             0 MiB given to the printing process from OS
             0 MiB allocation reported by mallinfo(arena+hblkhd)
          4947 MiB available memory on the node where the printing process lives
------------------
     ethr =  2.41E-09,  avg # of iterations =  4.2

     negative rho (up, down):  7.922E-01 0.000E+00

     total cpu time spent up to now is      592.1 secs

     total energy              =   -4482.97628447 Ry
     estimated scf accuracy    <       0.00000407 Ry

     iteration # 37     ecut=    60.00 Ry     beta= 0.15
     Davidson diagonalization with overlap

---- Real-time Memory Report at c_bands before calling an iterative solver
             0 MiB given to the printing process from OS
             0 MiB allocation reported by mallinfo(arena+hblkhd)
          4950 MiB available memory on the node where the printing process lives
------------------
     ethr =  9.32E-10,  avg # of iterations =  3.0

     negative rho (up, down):  7.922E-01 0.000E+00

     total cpu time spent up to now is      607.4 secs

     total energy              =   -4482.97628568 Ry
     estimated scf accuracy    <       0.00000309 Ry

     iteration # 38     ecut=    60.00 Ry     beta= 0.15
     Davidson diagonalization with overlap

---- Real-time Memory Report at c_bands before calling an iterative solver
             0 MiB given to the printing process from OS
             0 MiB allocation reported by mallinfo(arena+hblkhd)
          4969 MiB available memory on the node where the printing process lives
------------------
     ethr =  7.08E-10,  avg # of iterations =  3.6

     negative rho (up, down):  7.923E-01 0.000E+00

     total cpu time spent up to now is      622.9 secs

     total energy              =   -4482.97628707 Ry
     estimated scf accuracy    <       0.00000264 Ry

     iteration # 39     ecut=    60.00 Ry     beta= 0.15
     Davidson diagonalization with overlap

---- Real-time Memory Report at c_bands before calling an iterative solver
             0 MiB given to the printing process from OS
             0 MiB allocation reported by mallinfo(arena+hblkhd)
          4961 MiB available memory on the node where the printing process lives
------------------
     ethr =  6.04E-10,  avg # of iterations =  4.9

     negative rho (up, down):  7.923E-01 0.000E+00

     total cpu time spent up to now is      639.0 secs

     total energy              =   -4482.97628736 Ry
     estimated scf accuracy    <       0.00000121 Ry

     iteration # 40     ecut=    60.00 Ry     beta= 0.15
     Davidson diagonalization with overlap

---- Real-time Memory Report at c_bands before calling an iterative solver
             0 MiB given to the printing process from OS
             0 MiB allocation reported by mallinfo(arena+hblkhd)
          4962 MiB available memory on the node where the printing process lives
------------------
     ethr =  2.76E-10,  avg # of iterations =  4.7

     negative rho (up, down):  7.923E-01 0.000E+00

     total cpu time spent up to now is      654.9 secs

     total energy              =   -4482.97628734 Ry
     estimated scf accuracy    <       0.00000074 Ry

     iteration # 41     ecut=    60.00 Ry     beta= 0.15
     Davidson diagonalization with overlap

---- Real-time Memory Report at c_bands before calling an iterative solver
             0 MiB given to the printing process from OS
             0 MiB allocation reported by mallinfo(arena+hblkhd)
          4985 MiB available memory on the node where the printing process lives
------------------
     ethr =  1.70E-10,  avg # of iterations =  3.5

     negative rho (up, down):  7.923E-01 0.000E+00

     total cpu time spent up to now is      670.5 secs

     total energy              =   -4482.97628733 Ry
     estimated scf accuracy    <       0.00000039 Ry

     iteration # 42     ecut=    60.00 Ry     beta= 0.15
     Davidson diagonalization with overlap

---- Real-time Memory Report at c_bands before calling an iterative solver
             0 MiB given to the printing process from OS
             0 MiB allocation reported by mallinfo(arena+hblkhd)
          4983 MiB available memory on the node where the printing process lives
------------------
     ethr =  8.99E-11,  avg # of iterations =  3.0

     negative rho (up, down):  7.923E-01 0.000E+00

     total cpu time spent up to now is      685.4 secs

     total energy              =   -4482.97628731 Ry
     estimated scf accuracy    <       0.00000032 Ry

     iteration # 43     ecut=    60.00 Ry     beta= 0.15
     Davidson diagonalization with overlap

---- Real-time Memory Report at c_bands before calling an iterative solver
             0 MiB given to the printing process from OS
             0 MiB allocation reported by mallinfo(arena+hblkhd)
          4983 MiB available memory on the node where the printing process lives
------------------
     ethr =  7.34E-11,  avg # of iterations =  3.0

     negative rho (up, down):  7.923E-01 0.000E+00

     total cpu time spent up to now is      700.5 secs

     total energy              =   -4482.97628735 Ry
     estimated scf accuracy    <       0.00000022 Ry

     iteration # 44     ecut=    60.00 Ry     beta= 0.15
     Davidson diagonalization with overlap

---- Real-time Memory Report at c_bands before calling an iterative solver
             0 MiB given to the printing process from OS
             0 MiB allocation reported by mallinfo(arena+hblkhd)
          5048 MiB available memory on the node where the printing process lives
------------------
     ethr =  4.95E-11,  avg # of iterations =  2.3

     negative rho (up, down):  7.923E-01 0.000E+00

     total cpu time spent up to now is      715.4 secs

     total energy              =   -4482.97628744 Ry
     estimated scf accuracy    <       0.00000018 Ry

     iteration # 45     ecut=    60.00 Ry     beta= 0.15
     Davidson diagonalization with overlap

---- Real-time Memory Report at c_bands before calling an iterative solver
             0 MiB given to the printing process from OS
             0 MiB allocation reported by mallinfo(arena+hblkhd)
          5039 MiB available memory on the node where the printing process lives
------------------
     ethr =  4.16E-11,  avg # of iterations =  4.1

     negative rho (up, down):  7.923E-01 0.000E+00

     total cpu time spent up to now is      731.1 secs

     total energy              =   -4482.97628749 Ry
     estimated scf accuracy    <       0.00000015 Ry

     iteration # 46     ecut=    60.00 Ry     beta= 0.15
     Davidson diagonalization with overlap

---- Real-time Memory Report at c_bands before calling an iterative solver
             0 MiB given to the printing process from OS
             0 MiB allocation reported by mallinfo(arena+hblkhd)
          5047 MiB available memory on the node where the printing process lives
------------------
     ethr =  3.49E-11,  avg # of iterations =  3.7

     negative rho (up, down):  7.923E-01 0.000E+00

     total cpu time spent up to now is      746.7 secs

     total energy              =   -4482.97628753 Ry
     estimated scf accuracy    <       0.00000011 Ry

     iteration # 47     ecut=    60.00 Ry     beta= 0.15
     Davidson diagonalization with overlap

---- Real-time Memory Report at c_bands before calling an iterative solver
             0 MiB given to the printing process from OS
             0 MiB allocation reported by mallinfo(arena+hblkhd)
          5050 MiB available memory on the node where the printing process lives
------------------
     ethr =  2.46E-11,  avg # of iterations =  5.2

     negative rho (up, down):  7.923E-01 0.000E+00

     total cpu time spent up to now is      762.9 secs

     total energy              =   -4482.97628752 Ry
     estimated scf accuracy    <       0.00000005 Ry

     iteration # 48     ecut=    60.00 Ry     beta= 0.15
     Davidson diagonalization with overlap

---- Real-time Memory Report at c_bands before calling an iterative solver
             0 MiB given to the printing process from OS
             0 MiB allocation reported by mallinfo(arena+hblkhd)
          5045 MiB available memory on the node where the printing process lives
------------------
     ethr =  1.04E-11,  avg # of iterations =  5.4

     negative rho (up, down):  7.923E-01 0.000E+00

     total cpu time spent up to now is      779.4 secs

     total energy              =   -4482.97628753 Ry
     estimated scf accuracy    <       0.00000002 Ry

     iteration # 49     ecut=    60.00 Ry     beta= 0.15
     Davidson diagonalization with overlap

---- Real-time Memory Report at c_bands before calling an iterative solver
             0 MiB given to the printing process from OS
             0 MiB allocation reported by mallinfo(arena+hblkhd)
          5037 MiB available memory on the node where the printing process lives
------------------
     ethr =  3.64E-12,  avg # of iterations =  2.0

     negative rho (up, down):  7.923E-01 0.000E+00

     total cpu time spent up to now is      794.4 secs

     total energy              =   -4482.97628752 Ry
     estimated scf accuracy    <       0.00000001 Ry

     iteration # 50     ecut=    60.00 Ry     beta= 0.15
     Davidson diagonalization with overlap

---- Real-time Memory Report at c_bands before calling an iterative solver
             0 MiB given to the printing process from OS
             0 MiB allocation reported by mallinfo(arena+hblkhd)
          5038 MiB available memory on the node where the printing process lives
------------------
     ethr =  3.13E-12,  avg # of iterations =  2.4

     negative rho (up, down):  7.923E-01 0.000E+00

     total cpu time spent up to now is      809.4 secs

     total energy              =   -4482.97628753 Ry
     estimated scf accuracy    <       0.00000001 Ry

     iteration # 51     ecut=    60.00 Ry     beta= 0.15
     Davidson diagonalization with overlap

---- Real-time Memory Report at c_bands before calling an iterative solver
             0 MiB given to the printing process from OS
             0 MiB allocation reported by mallinfo(arena+hblkhd)
          5038 MiB available memory on the node where the printing process lives
------------------
     ethr =  2.36E-12,  avg # of iterations =  4.9

     negative rho (up, down):  7.923E-01 0.000E+00

     total cpu time spent up to now is      825.4 secs

     End of self-consistent calculation

          k = 0.0000 0.0000 0.0000 ( 65197 PWs)   bands (ev):

   -92.3461 -92.2935 -92.2002 -92.1503 -92.0929 -92.0524 -92.0352 -91.9121
   -55.6992 -55.6800 -55.5580 -55.5472 -55.5393 -55.5339 -55.4982 -55.4698
   -55.4533 -55.4514 -55.4441 -55.4013 -55.3812 -55.3448 -55.3263 -55.2924
   -55.2856 -55.2414 -55.2390 -55.2382 -55.2297 -55.1868 -55.1659 -55.0787
   -30.9332 -30.9142 -30.7732 -30.7437 -30.7100 -30.6866 -30.5293 -30.5110
   -29.4970 -29.4536 -29.4284 -29.3200 -22.2578 -14.7312 -14.6935 -14.6088
   -14.4789 -14.2930 -14.1720 -13.8709 -13.8527 -13.8213 -13.7800 -13.7783
   -13.7400 -13.7299 -13.7123 -13.6975 -13.6731 -13.6423 -13.5801 -13.4322
   -13.2576 -13.2215 -13.1892 -13.1585 -13.1426 -13.0989 -13.0592 -12.9802
   -12.9074 -12.8139 -12.7754 -12.7660 -12.7540 -12.7305 -12.7136 -12.6868
   -12.6607 -12.6489 -12.6182 -12.5812 -12.5763 -12.5654 -12.5632 -12.5495
   -12.4942 -12.4810 -12.4585 -12.4130 -12.3733 -12.3599 -11.9983 -11.8537
   -11.7343 -11.6598 -11.5111 -11.4363 -11.4253 -11.4032 -11.3855 -11.3215
   -11.3045 -11.2694 -11.2406 -11.1299 -11.0490 -11.0455  -5.9018  -3.1662
    -3.1546  -2.5913  -2.3581  -2.1287  -1.9819  -1.9185  -1.7756  -1.4688
    -1.4546  -1.4338  -1.3502  -1.3329  -1.2651  -1.2492  -1.2072  -1.1620
    -0.9820  -0.7574  -0.7286  -0.5793  -0.5656  -0.5211  -0.5033  -0.4592
    -0.4432  -0.3827  -0.3564  -0.2886  -0.2766  -0.1955  -0.0699  -0.0549
    -0.0250   0.0570   0.0680   0.0852   0.1418   0.2214   0.2430   0.3158
     0.3346   0.3879   0.4745   0.5290   0.5500   0.5570   0.8141   0.8289
     0.9998   1.0687   1.1297   1.1700   1.2678   1.2815   1.2975   1.3680
     1.3966   1.4310   1.4895   1.6249   1.6763   1.6998   1.7179   1.7273
     1.7962   1.8741   1.9690   1.9842   2.0357   2.0590   2.0968   2.1207
     2.1278   2.1813   2.2357   2.2405   2.2769   2.3005   2.3721   2.5014
     2.5803   2.6310   2.6437   2.7912   2.8055   2.8554   2.8661   2.9688
     3.0053   3.0118   3.0382   3.0544   3.0651   3.0725   3.1473   3.2560
     3.2911   3.3032   3.3103   3.3772   3.3813   3.4052   3.4138   3.4216
     3.4327   3.4400   3.4534   3.4586   3.4716   3.4806   3.4882   3.5089
     3.5301   3.5352   3.5470   3.5632   3.6877   3.7414   4.4152   4.7496
     4.7880   5.1352   5.3792   5.4686   5.7380   6.2789   6.3179   6.3469
     6.6158   6.6208   6.6671   6.7153   7.0129   7.1429   7.2413   7.4393
     7.5190   7.6451   7.8604   7.9078   7.9318   7.9400   8.0061   8.0566
     8.3068   8.3619   8.3817   8.4440   8.5124   8.5695   8.6381

     occupation numbers 
     1.0000   1.0000   1.0000   1.0000   1.0000   1.0000   1.0000   1.0000
     1.0000   1.0000   1.0000   1.0000   1.0000   1.0000   1.0000   1.0000
     1.0000   1.0000   1.0000   1.0000   1.0000   1.0000   1.0000   1.0000
     1.0000   1.0000   1.0000   1.0000   1.0000   1.0000   1.0000   1.0000
     1.0000   1.0000   1.0000   1.0000   1.0000   1.0000   1.0000   1.0000
     1.0000   1.0000   1.0000   1.0000   1.0000   1.0000   1.0000   1.0000
     1.0000   1.0000   1.0000   1.0000   1.0000   1.0000   1.0000   1.0000
     1.0000   1.0000   1.0000   1.0000   1.0000   1.0000   1.0000   1.0000
     1.0000   1.0000   1.0000   1.0000   1.0000   1.0000   1.0000   1.0000
     1.0000   1.0000   1.0000   1.0000   1.0000   1.0000   1.0000   1.0000
     1.0000   1.0000   1.0000   1.0000   1.0000   1.0000   1.0000   1.0000
     1.0000   1.0000   1.0000   1.0000   1.0000   1.0000   1.0000   1.0000
     1.0000   1.0000   1.0000   1.0000   1.0000   1.0000   1.0000   1.0000
     1.0000   1.0000   1.0000   1.0000   1.0000   1.0000   1.0000   1.0000
     1.0000   1.0000   1.0000   1.0000   1.0000   1.0000   1.0000   1.0000
     1.0000   1.0000   1.0000   1.0000   1.0000   1.0000   1.0000   1.0000
     1.0000   1.0000   1.0000   1.0000   1.0000   1.0000   1.0000   1.0000
     1.0000   1.0000   1.0000   1.0000   1.0000   1.0000   1.0000   1.0000
     1.0000   1.0000   1.0000   1.0000   1.0000   1.0000   1.0000   1.0000
     1.0000   1.0000   1.0000   1.0000   1.0000   1.0000   1.0000   1.0000
     1.0000   0.9999   0.9999   0.9999   0.9998   0.9998   0.9998   0.9997
     0.9997   0.9996   0.9994   0.9989   0.9985   0.9984   0.9982   0.9981
     0.9974   0.9963   0.9945   0.9941   0.9927   0.9920   0.9906   0.9897
     0.9894   0.9870   0.9840   0.9837   0.9814   0.9798   0.9740   0.9600
     0.9488   0.9404   0.9381   0.9066   0.9030   0.8897   0.8866   0.8546
     0.8419   0.8395   0.8298   0.8236   0.8195   0.8166   0.7856   0.7356
     0.7183   0.7122   0.7086   0.6736   0.6714   0.6585   0.6538   0.6495
     0.6434   0.6393   0.6319   0.6289   0.6216   0.6165   0.6122   0.6004
     0.5882   0.5852   0.5784   0.5690   0.4955   0.4638   0.1376   0.0562
     0.0500   0.0154   0.0058   0.0040   0.0011   0.0001   0.0000   0.0000
     0.0000   0.0000   0.0000   0.0000   0.0000   0.0000   0.0000   0.0000
     0.0000   0.0000   0.0000   0.0000   0.0000   0.0000   0.0000   0.0000
     0.0000   0.0000   0.0000   0.0000   0.0000   0.0000   0.0000

          k = 0.0000 0.2500 0.0000 ( 65257 PWs)   bands (ev):

   -92.3461 -92.2935 -92.2002 -92.1503 -92.0929 -92.0524 -92.0352 -91.9121
   -55.6992 -55.6800 -55.5580 -55.5472 -55.5393 -55.5339 -55.4982 -55.4698
   -55.4533 -55.4514 -55.4441 -55.4013 -55.3812 -55.3448 -55.3263 -55.2924
   -55.2856 -55.2414 -55.2390 -55.2382 -55.2297 -55.1868 -55.1659 -55.0787
   -30.9330 -30.9141 -30.7734 -30.7428 -30.7109 -30.6868 -30.5274 -30.5129
   -29.4964 -29.4532 -29.4290 -29.3203 -22.2578 -14.6942 -14.6675 -14.5841
   -14.4493 -14.3323 -14.1610 -14.0168 -13.8370 -13.8058 -13.7843 -13.7781
   -13.7559 -13.6977 -13.6934 -13.6780 -13.6592 -13.6234 -13.5002 -13.4624
   -13.3012 -13.2830 -13.2308 -13.1961 -13.1494 -13.1141 -13.0777 -12.9987
   -12.9662 -12.9302 -12.8599 -12.8039 -12.7644 -12.7528 -12.7460 -12.6548
   -12.6343 -12.6089 -12.5895 -12.5585 -12.5241 -12.5199 -12.5074 -12.4857
   -12.4648 -12.4563 -12.4477 -12.4036 -12.2707 -12.1953 -12.0597 -11.9050
   -11.7924 -11.7284 -11.4766 -11.4331 -11.4058 -11.3775 -11.3608 -11.3134
   -11.3021 -11.2797 -11.2452 -11.1442 -11.0907 -11.0801  -5.9018  -3.1662
    -3.1548  -2.4560  -2.2338  -2.0966  -1.9140  -1.8707  -1.7065  -1.4879
    -1.4020  -1.3889  -1.3306  -1.2300  -1.2149  -1.1804  -1.1550  -1.1111
    -0.9133  -0.7843  -0.7725  -0.6957  -0.6853  -0.5807  -0.5504  -0.4957
    -0.4701  -0.4270  -0.3640  -0.3391  -0.3053  -0.2776  -0.2604  -0.2256
    -0.1544  -0.1001  -0.0343   0.0703   0.0963   0.1338   0.2489   0.2845
     0.3465   0.3976   0.4551   0.4734   0.5063   0.5614   0.8608   0.9507
     0.9804   1.0660   1.1079   1.1255   1.2568   1.2746   1.3678   1.3940
     1.4253   1.5403   1.6270   1.6527   1.6771   1.6945   1.7226   1.7841
     1.8104   1.8366   1.8859   1.9152   1.9462   2.0253   2.0575   2.0882
     2.1488   2.1969   2.2254   2.2564   2.2936   2.3144   2.4088   2.5385
     2.6087   2.6280   2.7091   2.7508   2.7883   2.7932   2.8634   2.9058
     2.9846   3.0104   3.0338   3.0463   3.0689   3.2174   3.2383   3.2702
     3.2930   3.3099   3.3191   3.3261   3.3341   3.3645   3.3667   3.3838
     3.3888   3.3997   3.4175   3.4272   3.4375   3.4598   3.4705   3.4755
     3.5109   3.5276   3.5874   3.9352   3.9711   4.2294   4.6003   4.7398
     4.9043   5.0825   5.4035   5.5139   5.8588   5.9187   6.1618   6.3018
     6.3341   6.4500   6.5192   6.7315   6.9272   7.1001   7.2691   7.5240
     7.5436   7.6900   7.7924   7.8916   7.9547   7.9901   8.1116   8.2168
     8.2680   8.4106   8.5260   8.5497   8.6290   8.6742   8.9556

     occupation numbers 
     1.0000   1.0000   1.0000   1.0000   1.0000   1.0000   1.0000   1.0000
     1.0000   1.0000   1.0000   1.0000   1.0000   1.0000   1.0000   1.0000
     1.0000   1.0000   1.0000   1.0000   1.0000   1.0000   1.0000   1.0000
     1.0000   1.0000   1.0000   1.0000   1.0000   1.0000   1.0000   1.0000
     1.0000   1.0000   1.0000   1.0000   1.0000   1.0000   1.0000   1.0000
     1.0000   1.0000   1.0000   1.0000   1.0000   1.0000   1.0000   1.0000
     1.0000   1.0000   1.0000   1.0000   1.0000   1.0000   1.0000   1.0000
     1.0000   1.0000   1.0000   1.0000   1.0000   1.0000   1.0000   1.0000
     1.0000   1.0000   1.0000   1.0000   1.0000   1.0000   1.0000   1.0000
     1.0000   1.0000   1.0000   1.0000   1.0000   1.0000   1.0000   1.0000
     1.0000   1.0000   1.0000   1.0000   1.0000   1.0000   1.0000   1.0000
     1.0000   1.0000   1.0000   1.0000   1.0000   1.0000   1.0000   1.0000
     1.0000   1.0000   1.0000   1.0000   1.0000   1.0000   1.0000   1.0000
     1.0000   1.0000   1.0000   1.0000   1.0000   1.0000   1.0000   1.0000
     1.0000   1.0000   1.0000   1.0000   1.0000   1.0000   1.0000   1.0000
     1.0000   1.0000   1.0000   1.0000   1.0000   1.0000   1.0000   1.0000
     1.0000   1.0000   1.0000   1.0000   1.0000   1.0000   1.0000   1.0000
     1.0000   1.0000   1.0000   1.0000   1.0000   1.0000   1.0000   1.0000
     1.0000   1.0000   1.0000   1.0000   1.0000   1.0000   1.0000   1.0000
     1.0000   1.0000   1.0000   1.0000   1.0000   1.0000   1.0000   1.0000
     1.0000   0.9999   0.9999   0.9999   0.9998   0.9998   0.9997   0.9997
     0.9996   0.9993   0.9989   0.9987   0.9985   0.9984   0.9982   0.9976
     0.9973   0.9969   0.9961   0.9956   0.9950   0.9930   0.9920   0.9910
     0.9885   0.9862   0.9846   0.9827   0.9803   0.9787   0.9705   0.9550
     0.9442   0.9409   0.9253   0.9162   0.9073   0.9061   0.8874   0.8749
     0.8492   0.8400   0.8315   0.8267   0.8180   0.7540   0.7441   0.7287
     0.7174   0.7088   0.7041   0.7005   0.6964   0.6804   0.6792   0.6701
     0.6674   0.6615   0.6518   0.6465   0.6407   0.6283   0.6223   0.6194
     0.5993   0.5896   0.5548   0.3525   0.3329   0.2074   0.0859   0.0578
     0.0346   0.0187   0.0052   0.0032   0.0006   0.0004   0.0001   0.0000
     0.0000   0.0000   0.0000   0.0000   0.0000   0.0000   0.0000   0.0000
     0.0000   0.0000   0.0000   0.0000   0.0000   0.0000   0.0000   0.0000
     0.0000   0.0000   0.0000   0.0000   0.0000   0.0000   0.0000

          k = 0.0000-0.5000 0.0000 ( 65180 PWs)   bands (ev):

   -92.3461 -92.2935 -92.2002 -92.1503 -92.0929 -92.0524 -92.0352 -91.9121
   -55.6992 -55.6800 -55.5580 -55.5472 -55.5393 -55.5339 -55.4982 -55.4698
   -55.4533 -55.4514 -55.4441 -55.4013 -55.3812 -55.3448 -55.3263 -55.2924
   -55.2856 -55.2414 -55.2390 -55.2382 -55.2297 -55.1868 -55.1659 -55.0787
   -30.9328 -30.9139 -30.7737 -30.7419 -30.7119 -30.6869 -30.5247 -30.5157
   -29.4958 -29.4529 -29.4297 -29.3206 -22.2578 -14.6616 -14.6126 -14.5624
   -14.4342 -14.3486 -14.2089 -14.0668 -13.9368 -13.8075 -13.7791 -13.7456
   -13.6986 -13.6883 -13.6418 -13.6231 -13.5788 -13.5558 -13.5333 -13.4952
   -13.4646 -13.4358 -13.2345 -13.1765 -13.1574 -13.1083 -13.0900 -13.0117
   -12.9992 -12.9401 -12.9395 -12.8749 -12.7652 -12.7496 -12.7284 -12.6904
   -12.6280 -12.6123 -12.5853 -12.5373 -12.5237 -12.4974 -12.4831 -12.4595
   -12.4288 -12.4108 -12.3606 -12.3073 -12.1708 -12.1196 -11.9803 -11.9620
   -11.9086 -11.8703 -11.4300 -11.4281 -11.4010 -11.3633 -11.3291 -11.3180
   -11.2748 -11.2711 -11.2267 -11.1659 -11.1517 -11.1372  -5.9018  -3.1662
    -3.1549  -2.2411  -2.1822  -2.0307  -1.9580  -1.6767  -1.5950  -1.4664
    -1.3282  -1.2899  -1.2722  -1.1933  -1.1616  -1.0815  -1.0456  -0.9689
    -0.9282  -0.8884  -0.8617  -0.8059  -0.7686  -0.7210  -0.6845  -0.6524
    -0.6177  -0.5077  -0.4625  -0.4299  -0.4278  -0.3420  -0.3092  -0.2874
    -0.2415  -0.1524  -0.0879  -0.0013   0.0304   0.1255   0.1658   0.3206
     0.3585   0.3813   0.4269   0.5386   0.5982   0.7428   0.8093   0.8161
     0.9450   0.9880   1.0747   1.2218   1.3269   1.3601   1.3961   1.4025
     1.4384   1.4589   1.4954   1.5121   1.5227   1.6311   1.6897   1.7222
     1.7489   2.0092   2.0345   2.0544   2.1394   2.1698   2.2058   2.2186
     2.2564   2.2638   2.2728   2.3021   2.3523   2.3742   2.4015   2.4161
     2.4444   2.4988   2.5806   2.6061   2.7819   2.9550   2.9639   2.9755
     3.0092   3.0187   3.0326   3.0340   3.0685   3.0825   3.0961   3.1511
     3.1708   3.2485   3.2610   3.3310   3.3352   3.3622   3.3644   3.3822
     3.3850   3.3886   3.3957   3.3973   3.4096   3.4300   3.4313   3.4959
     3.5018   3.5172   3.5714   4.4635   4.4709   4.5153   4.5856   4.9829
     5.1036   5.2311   5.3436   5.5419   5.6764   5.7981   5.8887   6.0366
     6.2251   6.3779   6.3909   6.4734   6.9996   7.1031   7.1263   7.4136
     7.6078   7.6814   7.7301   7.9807   8.0623   8.0673   8.2041   8.3946
     8.5099   8.5620   8.7115   8.7302   8.7676   8.8648   8.9596

     occupation numbers 
     1.0000   1.0000   1.0000   1.0000   1.0000   1.0000   1.0000   1.0000
     1.0000   1.0000   1.0000   1.0000   1.0000   1.0000   1.0000   1.0000
     1.0000   1.0000   1.0000   1.0000   1.0000   1.0000   1.0000   1.0000
     1.0000   1.0000   1.0000   1.0000   1.0000   1.0000   1.0000   1.0000
     1.0000   1.0000   1.0000   1.0000   1.0000   1.0000   1.0000   1.0000
     1.0000   1.0000   1.0000   1.0000   1.0000   1.0000   1.0000   1.0000
     1.0000   1.0000   1.0000   1.0000   1.0000   1.0000   1.0000   1.0000
     1.0000   1.0000   1.0000   1.0000   1.0000   1.0000   1.0000   1.0000
     1.0000   1.0000   1.0000   1.0000   1.0000   1.0000   1.0000   1.0000
     1.0000   1.0000   1.0000   1.0000   1.0000   1.0000   1.0000   1.0000
     1.0000   1.0000   1.0000   1.0000   1.0000   1.0000   1.0000   1.0000
     1.0000   1.0000   1.0000   1.0000   1.0000   1.0000   1.0000   1.0000
     1.0000   1.0000   1.0000   1.0000   1.0000   1.0000   1.0000   1.0000
     1.0000   1.0000   1.0000   1.0000   1.0000   1.0000   1.0000   1.0000
     1.0000   1.0000   1.0000   1.0000   1.0000   1.0000   1.0000   1.0000
     1.0000   1.0000   1.0000   1.0000   1.0000   1.0000   1.0000   1.0000
     1.0000   1.0000   1.0000   1.0000   1.0000   1.0000   1.0000   1.0000
     1.0000   1.0000   1.0000   1.0000   1.0000   1.0000   1.0000   1.0000
     1.0000   1.0000   1.0000   1.0000   1.0000   1.0000   1.0000   1.0000
     1.0000   1.0000   1.0000   1.0000   1.0000   1.0000   1.0000   1.0000
     1.0000   1.0000   0.9999   0.9999   0.9998   0.9997   0.9997   0.9996
     0.9996   0.9995   0.9994   0.9994   0.9993   0.9988   0.9984   0.9982
     0.9979   0.9935   0.9927   0.9921   0.9889   0.9875   0.9857   0.9850
     0.9827   0.9823   0.9817   0.9796   0.9757   0.9738   0.9712   0.9697
     0.9667   0.9603   0.9487   0.9446   0.9089   0.8592   0.8563   0.8523
     0.8405   0.8370   0.8319   0.8314   0.8181   0.8126   0.8071   0.7840
     0.7753   0.7393   0.7332   0.6980   0.6958   0.6816   0.6804   0.6710
     0.6694   0.6675   0.6637   0.6628   0.6561   0.6449   0.6442   0.6078
     0.6044   0.5957   0.5642   0.1224   0.1202   0.1075   0.0894   0.0265
     0.0173   0.0106   0.0068   0.0029   0.0015   0.0008   0.0005   0.0002
     0.0001   0.0000   0.0000   0.0000   0.0000   0.0000   0.0000   0.0000
     0.0000   0.0000   0.0000   0.0000   0.0000   0.0000   0.0000   0.0000
     0.0000   0.0000   0.0000   0.0000   0.0000   0.0000   0.0000

          k = 0.2500 0.2500 0.0000 ( 65198 PWs)   bands (ev):

   -92.3461 -92.2935 -92.2002 -92.1503 -92.0929 -92.0524 -92.0352 -91.9121
   -55.6992 -55.6800 -55.5580 -55.5472 -55.5393 -55.5339 -55.4982 -55.4698
   -55.4533 -55.4514 -55.4441 -55.4013 -55.3812 -55.3448 -55.3263 -55.2924
   -55.2856 -55.2414 -55.2390 -55.2382 -55.2297 -55.1868 -55.1659 -55.0787
   -30.9313 -30.9158 -30.7731 -30.7427 -30.7107 -30.6871 -30.5276 -30.5131
   -29.4955 -29.4542 -29.4286 -29.3207 -22.2578 -14.6661 -14.6319 -14.5564
   -14.4389 -14.3239 -14.2008 -14.1218 -13.9198 -13.7798 -13.7599 -13.7485
   -13.7143 -13.6829 -13.6633 -13.6393 -13.6054 -13.5836 -13.4926 -13.4766
   -13.3175 -13.3034 -13.2726 -13.2532 -13.2026 -13.1653 -13.1240 -13.0813
   -12.9910 -12.9495 -12.8869 -12.7981 -12.7580 -12.7143 -12.7052 -12.6753
   -12.6454 -12.6094 -12.6036 -12.5794 -12.5550 -12.5157 -12.4901 -12.4545
   -12.4111 -12.3989 -12.3959 -12.3694 -12.2078 -12.1082 -12.1021 -11.9342
   -11.8244 -11.7765 -11.4487 -11.4167 -11.4062 -11.3989 -11.3364 -11.3017
   -11.2950 -11.2597 -11.2519 -11.1607 -11.1190 -11.1015  -5.9018  -3.1664
    -3.1547  -2.3179  -2.1081  -1.9909  -1.8964  -1.7752  -1.7098  -1.5128
    -1.3672  -1.3470  -1.3177  -1.2244  -1.1903  -1.0974  -1.0706  -1.0205
    -0.8883  -0.8410  -0.7678  -0.7228  -0.6783  -0.6540  -0.6292  -0.5881
    -0.5716  -0.4818  -0.4324  -0.3681  -0.3194  -0.2912  -0.2385  -0.2282
    -0.1643  -0.1124  -0.0547  -0.0232   0.0633   0.1130   0.1436   0.1835
     0.2376   0.2980   0.3461   0.3727   0.4364   0.4774   0.7554   0.9018
     0.9400   0.9917   1.0328   1.0812   1.1382   1.2023   1.2424   1.5168
     1.5877   1.6617   1.6870   1.7337   1.7671   1.8028   1.8391   1.8567
     1.8854   1.9224   1.9347   1.9523   1.9951   2.0329   2.0732   2.1160
     2.1522   2.1716   2.1944   2.2364   2.2871   2.3142   2.4487   2.5167
     2.5579   2.5863   2.6438   2.7100   2.7427   2.7809   2.8012   2.8148
     2.9286   2.9652   3.0186   3.0559   3.0720   3.2278   3.2460   3.2517
     3.2671   3.2816   3.2949   3.3073   3.3145   3.3250   3.3390   3.3511
     3.3694   3.3754   3.3874   3.4081   3.4214   3.4312   3.4618   3.7637
     3.8537   3.8943   3.9552   3.9681   4.2022   4.3053   4.6340   4.7939
     4.9788   5.1314   5.3198   5.5470   5.9165   6.0023   6.0153   6.1212
     6.1930   6.2389   6.3635   6.3873   6.9838   7.0131   7.0802   7.2175
     7.7230   7.8212   7.8429   7.9058   8.0142   8.1365   8.2342   8.2784
     8.4170   8.4980   8.5154   8.6812   8.7083   8.7849   8.8896

     occupation numbers 
     1.0000   1.0000   1.0000   1.0000   1.0000   1.0000   1.0000   1.0000
     1.0000   1.0000   1.0000   1.0000   1.0000   1.0000   1.0000   1.0000
     1.0000   1.0000   1.0000   1.0000   1.0000   1.0000   1.0000   1.0000
     1.0000   1.0000   1.0000   1.0000   1.0000   1.0000   1.0000   1.0000
     1.0000   1.0000   1.0000   1.0000   1.0000   1.0000   1.0000   1.0000
     1.0000   1.0000   1.0000   1.0000   1.0000   1.0000   1.0000   1.0000
     1.0000   1.0000   1.0000   1.0000   1.0000   1.0000   1.0000   1.0000
     1.0000   1.0000   1.0000   1.0000   1.0000   1.0000   1.0000   1.0000
     1.0000   1.0000   1.0000   1.0000   1.0000   1.0000   1.0000   1.0000
     1.0000   1.0000   1.0000   1.0000   1.0000   1.0000   1.0000   1.0000
     1.0000   1.0000   1.0000   1.0000   1.0000   1.0000   1.0000   1.0000
     1.0000   1.0000   1.0000   1.0000   1.0000   1.0000   1.0000   1.0000
     1.0000   1.0000   1.0000   1.0000   1.0000   1.0000   1.0000   1.0000
     1.0000   1.0000   1.0000   1.0000   1.0000   1.0000   1.0000   1.0000
     1.0000   1.0000   1.0000   1.0000   1.0000   1.0000   1.0000   1.0000
     1.0000   1.0000   1.0000   1.0000   1.0000   1.0000   1.0000   1.0000
     1.0000   1.0000   1.0000   1.0000   1.0000   1.0000   1.0000   1.0000
     1.0000   1.0000   1.0000   1.0000   1.0000   1.0000   1.0000   1.0000
     1.0000   1.0000   1.0000   1.0000   1.0000   1.0000   1.0000   1.0000
     1.0000   1.0000   1.0000   1.0000   1.0000   1.0000   1.0000   1.0000
     1.0000   1.0000   1.0000   0.9999   0.9999   0.9999   0.9999   0.9993
     0.9991   0.9986   0.9985   0.9981   0.9977   0.9973   0.9969   0.9966
     0.9962   0.9955   0.9952   0.9949   0.9938   0.9928   0.9915   0.9899
     0.9884   0.9875   0.9863   0.9840   0.9807   0.9787   0.9663   0.9580
     0.9522   0.9479   0.9381   0.9252   0.9180   0.9091   0.9041   0.9006
     0.8678   0.8558   0.8370   0.8231   0.8168   0.7491   0.7405   0.7377
     0.7302   0.7230   0.7164   0.7101   0.7065   0.7010   0.6938   0.6875
     0.6778   0.6746   0.6681   0.6569   0.6497   0.6442   0.6272   0.4507
     0.3984   0.3753   0.3415   0.3345   0.2191   0.1766   0.0784   0.0491
     0.0269   0.0156   0.0075   0.0028   0.0004   0.0003   0.0003   0.0001
     0.0001   0.0001   0.0000   0.0000   0.0000   0.0000   0.0000   0.0000
     0.0000   0.0000   0.0000   0.0000   0.0000   0.0000   0.0000   0.0000
     0.0000   0.0000   0.0000   0.0000   0.0000   0.0000   0.0000

          k = 0.2500-0.5000 0.0000 ( 65138 PWs)   bands (ev):

   -92.3461 -92.2935 -92.2002 -92.1503 -92.0929 -92.0524 -92.0352 -91.9121
   -55.6992 -55.6800 -55.5580 -55.5472 -55.5393 -55.5339 -55.4982 -55.4698
   -55.4533 -55.4514 -55.4441 -55.4013 -55.3812 -55.3448 -55.3263 -55.2924
   -55.2856 -55.2414 -55.2390 -55.2382 -55.2297 -55.1868 -55.1659 -55.0787
   -30.9311 -30.9157 -30.7733 -30.7417 -30.7117 -30.6873 -30.5248 -30.5158
   -29.4948 -29.4539 -29.4293 -29.3210 -22.2578 -14.6313 -14.5857 -14.5193
   -14.4028 -14.3727 -14.2497 -14.1672 -14.0344 -13.7793 -13.7243 -13.6765
   -13.6456 -13.6278 -13.6092 -13.5953 -13.5633 -13.5438 -13.5110 -13.4724
   -13.4487 -13.4261 -13.3180 -13.2696 -13.2213 -13.1909 -13.1457 -13.1214
   -13.0449 -13.0059 -12.8626 -12.7984 -12.7758 -12.7016 -12.6895 -12.6481
   -12.6418 -12.6268 -12.5995 -12.5682 -12.5215 -12.5083 -12.4871 -12.4656
   -12.4395 -12.4116 -12.3112 -12.2798 -12.1774 -12.1032 -11.9779 -11.9429
   -11.8982 -11.8691 -11.4241 -11.4122 -11.4014 -11.3743 -11.3425 -11.3146
   -11.2727 -11.2456 -11.2231 -11.1789 -11.1527 -11.1413  -5.9018  -3.1664
    -3.1549  -2.0994  -2.0345  -1.9047  -1.8271  -1.6975  -1.6152  -1.4909
    -1.3395  -1.2855  -1.2637  -1.2012  -1.1880  -1.0923  -1.0241  -0.9388
    -0.8908  -0.8812  -0.8167  -0.7759  -0.7405  -0.6929  -0.6556  -0.6213
    -0.5811  -0.5706  -0.5245  -0.4964  -0.4538  -0.4242  -0.3561  -0.2543
    -0.2191  -0.1389  -0.0744  -0.0263   0.0160   0.0370   0.0885   0.2477
     0.2545   0.3703   0.3977   0.4088   0.4544   0.4816   0.5182   0.5505
     0.6253   0.8894   0.9808   1.0390   1.1027   1.3756   1.3962   1.4901
     1.5132   1.6847   1.7186   1.7586   1.7834   1.7999   1.8209   1.8816
     1.9289   1.9644   2.0367   2.1208   2.1573   2.1811   2.1967   2.2274
     2.2449   2.2532   2.2915   2.3086   2.3275   2.3616   2.3768   2.4076
     2.4365   2.4967   2.5365   2.6114   2.7518   2.9068   2.9224   2.9417
     2.9668   2.9921   3.0129   3.0249   3.0437   3.0537   3.0718   3.0784
     3.1772   3.2268   3.2464   3.2503   3.2650   3.2851   3.2991   3.3175
     3.3258   3.3584   3.3690   3.3836   3.3917   3.4001   3.4117   3.9212
     3.9384   4.0951   4.1440   4.4677   4.5236   4.5258   4.6513   5.0436
     5.1368   5.2600   5.3801   5.5008   5.6477   5.7253   5.8448   5.9283
     6.0736   6.1304   6.3210   6.5174   6.6142   6.6243   7.1791   7.2708
     7.5509   7.6453   7.9473   8.0710   8.1759   8.2158   8.3452   8.4285
     8.5172   8.6211   8.6904   8.8068   8.8783   8.9186   8.9574

     occupation numbers 
     1.0000   1.0000   1.0000   1.0000   1.0000   1.0000   1.0000   1.0000
     1.0000   1.0000   1.0000   1.0000   1.0000   1.0000   1.0000   1.0000
     1.0000   1.0000   1.0000   1.0000   1.0000   1.0000   1.0000   1.0000
     1.0000   1.0000   1.0000   1.0000   1.0000   1.0000   1.0000   1.0000
     1.0000   1.0000   1.0000   1.0000   1.0000   1.0000   1.0000   1.0000
     1.0000   1.0000   1.0000   1.0000   1.0000   1.0000   1.0000   1.0000
     1.0000   1.0000   1.0000   1.0000   1.0000   1.0000   1.0000   1.0000
     1.0000   1.0000   1.0000   1.0000   1.0000   1.0000   1.0000   1.0000
     1.0000   1.0000   1.0000   1.0000   1.0000   1.0000   1.0000   1.0000
     1.0000   1.0000   1.0000   1.0000   1.0000   1.0000   1.0000   1.0000
     1.0000   1.0000   1.0000   1.0000   1.0000   1.0000   1.0000   1.0000
     1.0000   1.0000   1.0000   1.0000   1.0000   1.0000   1.0000   1.0000
     1.0000   1.0000   1.0000   1.0000   1.0000   1.0000   1.0000   1.0000
     1.0000   1.0000   1.0000   1.0000   1.0000   1.0000   1.0000   1.0000
     1.0000   1.0000   1.0000   1.0000   1.0000   1.0000   1.0000   1.0000
     1.0000   1.0000   1.0000   1.0000   1.0000   1.0000   1.0000   1.0000
     1.0000   1.0000   1.0000   1.0000   1.0000   1.0000   1.0000   1.0000
     1.0000   1.0000   1.0000   1.0000   1.0000   1.0000   1.0000   1.0000
     1.0000   1.0000   1.0000   1.0000   1.0000   1.0000   1.0000   1.0000
     1.0000   1.0000   1.0000   1.0000   1.0000   1.0000   1.0000   1.0000
     1.0000   1.0000   1.0000   1.0000   0.9999   0.9997   0.9997   0.9994
     0.9994   0.9985   0.9982   0.9978   0.9976   0.9974   0.9971   0.9962
     0.9953   0.9946   0.9927   0.9897   0.9881   0.9870   0.9862   0.9845
     0.9835   0.9830   0.9804   0.9792   0.9777   0.9749   0.9735   0.9706
     0.9676   0.9606   0.9553   0.9437   0.9160   0.8746   0.8698   0.8636
     0.8553   0.8466   0.8391   0.8347   0.8277   0.8239   0.8169   0.8142
     0.7724   0.7496   0.7403   0.7384   0.7312   0.7213   0.7143   0.7049
     0.7006   0.6836   0.6780   0.6702   0.6658   0.6613   0.6549   0.3602
     0.3507   0.2689   0.2455   0.1211   0.1052   0.1046   0.0747   0.0215
     0.0153   0.0095   0.0058   0.0034   0.0017   0.0012   0.0007   0.0004
     0.0002   0.0001   0.0000   0.0000   0.0000   0.0000   0.0000   0.0000
     0.0000   0.0000   0.0000   0.0000   0.0000   0.0000   0.0000   0.0000
     0.0000   0.0000   0.0000   0.0000   0.0000   0.0000   0.0000

          k =-0.5000-0.5000 0.0000 ( 65132 PWs)   bands (ev):

   -92.3461 -92.2935 -92.2002 -92.1503 -92.0929 -92.0524 -92.0352 -91.9121
   -55.6992 -55.6800 -55.5580 -55.5472 -55.5393 -55.5339 -55.4982 -55.4698
   -55.4533 -55.4514 -55.4441 -55.4013 -55.3812 -55.3448 -55.3263 -55.2924
   -55.2856 -55.2414 -55.2390 -55.2382 -55.2297 -55.1868 -55.1659 -55.0787
   -30.9288 -30.9180 -30.7729 -30.7416 -30.7116 -30.6877 -30.5250 -30.5160
   -29.4938 -29.4549 -29.4289 -29.3215 -22.2578 -14.5855 -14.5583 -14.4411
   -14.4305 -14.3388 -14.2978 -14.2677 -14.1344 -13.7793 -13.6360 -13.6263
   -13.5890 -13.5722 -13.5544 -13.5425 -13.5097 -13.5025 -13.4914 -13.4780
   -13.4621 -13.3865 -13.3804 -13.3536 -13.3188 -13.3166 -13.2189 -13.2091
   -13.0948 -13.0581 -12.8136 -12.7727 -12.7097 -12.6826 -12.6751 -12.6411
   -12.6397 -12.6293 -12.6116 -12.6094 -12.5193 -12.4947 -12.4905 -12.4659
   -12.4592 -12.4298 -12.2610 -12.2534 -12.1938 -12.0875 -11.9745 -11.9218
   -11.8889 -11.8685 -11.4207 -11.4084 -11.3904 -11.3738 -11.3389 -11.3209
   -11.2870 -11.2262 -11.2055 -11.2008 -11.1504 -11.1471  -5.9018  -3.1666
    -3.1549  -1.8750  -1.8000  -1.7917  -1.7180  -1.6789  -1.6007  -1.5329
    -1.4068  -1.2897  -1.2603  -1.2192  -1.1636  -1.0913  -1.0783  -1.0061
    -0.9638  -0.8475  -0.8197  -0.7706  -0.7398  -0.6758  -0.6322  -0.6128
    -0.6017  -0.5478  -0.5007  -0.4873  -0.3736  -0.3164  -0.2711  -0.2215
    -0.1953  -0.1819  -0.1486  -0.1102  -0.0726  -0.0610   0.0251   0.0908
     0.1406   0.1611   0.2379   0.2888   0.2955   0.3578   0.3903   0.3959
     0.4058   0.8586   0.8948   0.9853   1.0075   1.4059   1.4183   1.4526
     1.4935   1.7675   1.7864   1.7931   1.8350   1.9656   2.0624   2.0877
     2.1231   2.1355   2.1596   2.1713   2.2031   2.2083   2.2170   2.2314
     2.2945   2.2979   2.3217   2.3258   2.3522   2.3631   2.4050   2.4333
     2.4460   2.4807   2.5075   2.5807   2.6487   2.9157   2.9508   2.9690
     2.9902   2.9970   3.0164   3.0275   3.0328   3.0512   3.0624   3.0715
     3.0801   3.1039   3.1132   3.1785   3.1829   3.2027   3.2172   3.2303
     3.2498   3.2524   3.2618   3.3652   3.3702   3.3951   3.4067   4.3476
     4.3723   4.3838   4.4072   4.6716   4.7435   4.7717   5.0107   5.1328
     5.1801   5.2176   5.3336   5.3897   5.4427   5.5563   5.5585   5.7858
     5.9755   6.0588   6.1360   6.2247   6.6005   6.7126   6.8028   7.1489
     7.5563   7.5775   7.6894   8.2755   8.2951   8.3676   8.4651   8.5517
     8.6363   8.8623   8.8835   8.9138   8.9183   8.9569   9.0906

     occupation numbers 
     1.0000   1.0000   1.0000   1.0000   1.0000   1.0000   1.0000   1.0000
     1.0000   1.0000   1.0000   1.0000   1.0000   1.0000   1.0000   1.0000
     1.0000   1.0000   1.0000   1.0000   1.0000   1.0000   1.0000   1.0000
     1.0000   1.0000   1.0000   1.0000   1.0000   1.0000   1.0000   1.0000
     1.0000   1.0000   1.0000   1.0000   1.0000   1.0000   1.0000   1.0000
     1.0000   1.0000   1.0000   1.0000   1.0000   1.0000   1.0000   1.0000
[...]
     0.0000   0.0000   0.0000   0.0000   0.0000   0.0000   0.0000   0.0000
     0.0000   0.0000   0.0000   0.0000   0.0000   0.0000   0.0000

          k =-0.5000 0.0000 0.0000 ( 65180 PWs)   bands (ev):

   -92.3461 -92.2935 -92.2002 -92.1503 -92.0929 -92.0524 -92.0352 -91.9121
   -55.6992 -55.6800 -55.5580 -55.5472 -55.5393 -55.5339 -55.4982 -55.4698
   -55.4533 -55.4514 -55.4441 -55.4013 -55.3812 -55.3448 -55.3263 -55.2924
   -55.2856 -55.2414 -55.2390 -55.2382 -55.2297 -55.1868 -55.1659 -55.0787
   -30.9292 -30.9182 -30.7725 -30.7434 -30.7097 -30.6874 -30.5297 -30.5113
   -29.4950 -29.4556 -29.4276 -29.3208 -22.2578 -14.6657 -14.6162 -14.5544
   -14.4478 -14.3408 -14.1965 -14.0580 -13.9155 -13.7835 -13.7802 -13.7761
   -13.7579 -13.7024 -13.6465 -13.6132 -13.5640 -13.5596 -13.5454 -13.4913
   -13.4804 -13.3876 -13.2061 -13.1788 -13.1461 -13.1377 -13.0993 -13.0174
   -12.9961 -12.9252 -12.9067 -12.9018 -12.7586 -12.7100 -12.6999 -12.6761
   -12.6668 -12.6636 -12.6045 -12.5851 -12.5681 -12.5507 -12.4666 -12.4283
   -12.3745 -12.3581 -12.2957 -12.2867 -12.1968 -12.1630 -12.0187 -11.9842
   -11.8873 -11.8476 -11.4275 -11.4064 -11.3994 -11.3846 -11.3666 -11.3253
   -11.2626 -11.2451 -11.2126 -11.1679 -11.1585 -11.1426  -5.9018  -3.1666
    -3.1546  -2.2313  -2.1924  -2.0280  -1.9890  -1.6769  -1.6006  -1.4529
    -1.3346  -1.2954  -1.2492  -1.2017  -1.1761  -1.0547  -1.0092  -0.9950
    -0.9119  -0.8765  -0.8626  -0.8295  -0.7735  -0.7041  -0.6742  -0.6472
    -0.5532  -0.5038  -0.4546  -0.4234  -0.4019  -0.3707  -0.3239  -0.2991
    -0.2629  -0.1628  -0.0961  -0.0267   0.0342   0.1815   0.2311   0.2927
     0.3228   0.3710   0.4041   0.5305   0.5715   0.6096   0.7904   0.8888
     0.9351   1.0114   1.0644   1.2025   1.2139   1.3442   1.3775   1.4322
     1.4580   1.4982   1.5084   1.5568   1.5805   1.6444   1.6911   1.7387
     1.7481   2.0390   2.0502   2.0551   2.0870   2.1993   2.2078   2.2144
     2.2309   2.2637   2.2764   2.3102   2.3418   2.3589   2.4283   2.4325
     2.4910   2.5030   2.5696   2.6715   2.7656   2.8502   2.8649   2.9448
     2.9793   3.0043   3.0181   3.0688   3.0756   3.0818   3.0927   3.1211
     3.1868   3.2311   3.2803   3.3042   3.3522   3.3558   3.3573   3.3689
     3.3832   3.3960   3.4102   3.4135   3.4328   3.4389   3.4618   3.4820
     3.4864   3.6122   3.6199   4.4111   4.4604   4.5225   4.6365   5.0095
     5.1368   5.1916   5.3082   5.4453   5.7184   5.8683   5.9418   5.9802
     6.2611   6.3634   6.3741   6.4261   6.9793   7.1045   7.1476   7.4721
     7.5001   7.6773   7.8168   8.0481   8.0836   8.1566   8.2302   8.2484
     8.4296   8.5987   8.6756   8.7280   8.7820   8.8535   8.9209

     occupation numbers 
     1.0000   1.0000   1.0000   1.0000   1.0000   1.0000   1.0000   1.0000
     1.0000   1.0000   1.0000   1.0000   1.0000   1.0000   1.0000   1.0000
     1.0000   1.0000   1.0000   1.0000   1.0000   1.0000   1.0000   1.0000
     1.0000   1.0000   1.0000   1.0000   1.0000   1.0000   1.0000   1.0000
     1.0000   1.0000   1.0000   1.0000   1.0000   1.0000   1.0000   1.0000
     1.0000   1.0000   1.0000   1.0000   1.0000   1.0000   1.0000   1.0000
     1.0000   1.0000   1.0000   1.0000   1.0000   1.0000   1.0000   1.0000
     1.0000   1.0000   1.0000   1.0000   1.0000   1.0000   1.0000   1.0000
     1.0000   1.0000   1.0000   1.0000   1.0000   1.0000   1.0000   1.0000
     1.0000   1.0000   1.0000   1.0000   1.0000   1.0000   1.0000   1.0000
     1.0000   1.0000   1.0000   1.0000   1.0000   1.0000   1.0000   1.0000
     1.0000   1.0000   1.0000   1.0000   1.0000   1.0000   1.0000   1.0000
     1.0000   1.0000   1.0000   1.0000   1.0000   1.0000   1.0000   1.0000
     1.0000   1.0000   1.0000   1.0000   1.0000   1.0000   1.0000   1.0000
     1.0000   1.0000   1.0000   1.0000   1.0000   1.0000   1.0000   1.0000
     1.0000   1.0000   1.0000   1.0000   1.0000   1.0000   1.0000   1.0000
     1.0000   1.0000   1.0000   1.0000   1.0000   1.0000   1.0000   1.0000
     1.0000   1.0000   1.0000   1.0000   1.0000   1.0000   1.0000   1.0000
     1.0000   1.0000   1.0000   1.0000   1.0000   1.0000   1.0000   1.0000
     1.0000   1.0000   1.0000   1.0000   1.0000   1.0000   1.0000   1.0000
     1.0000   1.0000   0.9999   0.9999   0.9999   0.9997   0.9997   0.9996
     0.9995   0.9994   0.9994   0.9992   0.9991   0.9987   0.9984   0.9980
     0.9979   0.9926   0.9922   0.9921   0.9910   0.9861   0.9856   0.9852
     0.9843   0.9823   0.9814   0.9790   0.9766   0.9751   0.9685   0.9680
     0.9613   0.9598   0.9504   0.9329   0.9128   0.8911   0.8870   0.8626
     0.8510   0.8422   0.8372   0.8180   0.8153   0.8129   0.8085   0.7968
     0.7681   0.7476   0.7237   0.7117   0.6869   0.6850   0.6842   0.6780
     0.6704   0.6635   0.6557   0.6540   0.6433   0.6399   0.6271   0.6157
     0.6133   0.5402   0.5357   0.1389   0.1233   0.1055   0.0778   0.0242
     0.0153   0.0124   0.0078   0.0044   0.0012   0.0006   0.0004   0.0003
     0.0001   0.0000   0.0000   0.0000   0.0000   0.0000   0.0000   0.0000
     0.0000   0.0000   0.0000   0.0000   0.0000   0.0000   0.0000   0.0000
     0.0000   0.0000   0.0000   0.0000   0.0000   0.0000   0.0000

          k =-0.2500 0.2500 0.0000 ( 65198 PWs)   bands (ev):

   -92.3461 -92.2935 -92.2002 -92.1503 -92.0929 -92.0524 -92.0352 -91.9121
   -55.6992 -55.6800 -55.5580 -55.5472 -55.5393 -55.5339 -55.4982 -55.4698
   -55.4533 -55.4514 -55.4441 -55.4013 -55.3812 -55.3448 -55.3263 -55.2924
   -55.2856 -55.2414 -55.2390 -55.2382 -55.2297 -55.1868 -55.1659 -55.0787
   -30.9313 -30.9158 -30.7731 -30.7427 -30.7107 -30.6871 -30.5276 -30.5131
   -29.4955 -29.4542 -29.4286 -29.3207 -22.2578 -14.6676 -14.6308 -14.5547
   -14.4371 -14.3302 -14.2051 -14.1139 -13.9112 -13.7796 -13.7675 -13.7379
   -13.7270 -13.6794 -13.6548 -13.6402 -13.6244 -13.5831 -13.4892 -13.4769
   -13.3265 -13.2986 -13.2702 -13.2503 -13.2080 -13.1508 -13.1139 -13.0910
   -12.9969 -12.9522 -12.8802 -12.8022 -12.7595 -12.7161 -12.6954 -12.6680
   -12.6449 -12.6197 -12.5956 -12.5831 -12.5616 -12.5200 -12.4896 -12.4504
   -12.4263 -12.4136 -12.3931 -12.3476 -12.2027 -12.1091 -12.0979 -11.9399
   -11.8259 -11.7742 -11.4480 -11.4261 -11.3993 -11.3869 -11.3460 -11.3114
   -11.2882 -11.2669 -11.2443 -11.1604 -11.1143 -11.1048  -5.9018  -3.1664
    -3.1547  -2.3163  -2.1071  -1.9867  -1.8981  -1.7794  -1.7124  -1.5105
    -1.3640  -1.3447  -1.3156  -1.2251  -1.1891  -1.0973  -1.0638  -1.0379
    -0.8942  -0.8388  -0.7705  -0.7426  -0.6823  -0.6599  -0.6194  -0.5906
    -0.5506  -0.4881  -0.4416  -0.3780  -0.3116  -0.2876  -0.2347  -0.2059
    -0.1616  -0.1025  -0.0581  -0.0175   0.0812   0.1151   0.1224   0.1718
     0.2342   0.2979   0.3462   0.3787   0.4407   0.4754   0.7361   0.9058
     0.9477   0.9834   1.0381   1.0795   1.1406   1.2100   1.2396   1.5239
     1.6395   1.6774   1.7106   1.7175   1.7593   1.7765   1.8217   1.8520
     1.8676   1.8944   1.9343   1.9469   1.9937   2.0117   2.0550   2.1252
     2.1460   2.1703   2.1988   2.2347   2.2691   2.3195   2.4369   2.5471
     2.5823   2.6261   2.6460   2.7085   2.7546   2.7821   2.8026   2.8262
     2.9289   2.9644   3.0182   3.0571   3.0709   3.2351   3.2430   3.2572
     3.2669   3.2776   3.2910   3.2979   3.3157   3.3240   3.3393   3.3493
     3.3616   3.3708   3.3766   3.4101   3.4213   3.4301   3.4637   3.7568
     3.8370   3.8969   3.9536   3.9817   4.1867   4.3137   4.6332   4.7937
     4.9749   5.1351   5.3288   5.5488   5.9140   6.0005   6.0169   6.1240
     6.1893   6.2397   6.3462   6.4064   6.9495   7.0168   7.1122   7.2313
     7.7278   7.8055   7.8307   7.9090   7.9741   8.1688   8.2211   8.3198
     8.3973   8.4751   8.5314   8.6914   8.7108   8.7852   8.8973

     occupation numbers 
     1.0000   1.0000   1.0000   1.0000   1.0000   1.0000   1.0000   1.0000
     1.0000   1.0000   1.0000   1.0000   1.0000   1.0000   1.0000   1.0000
     1.0000   1.0000   1.0000   1.0000   1.0000   1.0000   1.0000   1.0000
     1.0000   1.0000   1.0000   1.0000   1.0000   1.0000   1.0000   1.0000
     1.0000   1.0000   1.0000   1.0000   1.0000   1.0000   1.0000   1.0000
     1.0000   1.0000   1.0000   1.0000   1.0000   1.0000   1.0000   1.0000
     1.0000   1.0000   1.0000   1.0000   1.0000   1.0000   1.0000   1.0000
     1.0000   1.0000   1.0000   1.0000   1.0000   1.0000   1.0000   1.0000
     1.0000   1.0000   1.0000   1.0000   1.0000   1.0000   1.0000   1.0000
     1.0000   1.0000   1.0000   1.0000   1.0000   1.0000   1.0000   1.0000
     1.0000   1.0000   1.0000   1.0000   1.0000   1.0000   1.0000   1.0000
     1.0000   1.0000   1.0000   1.0000   1.0000   1.0000   1.0000   1.0000
     1.0000   1.0000   1.0000   1.0000   1.0000   1.0000   1.0000   1.0000
     1.0000   1.0000   1.0000   1.0000   1.0000   1.0000   1.0000   1.0000
     1.0000   1.0000   1.0000   1.0000   1.0000   1.0000   1.0000   1.0000
     1.0000   1.0000   1.0000   1.0000   1.0000   1.0000   1.0000   1.0000
     1.0000   1.0000   1.0000   1.0000   1.0000   1.0000   1.0000   1.0000
     1.0000   1.0000   1.0000   1.0000   1.0000   1.0000   1.0000   1.0000
     1.0000   1.0000   1.0000   1.0000   1.0000   1.0000   1.0000   1.0000
     1.0000   1.0000   1.0000   1.0000   1.0000   1.0000   1.0000   1.0000
     1.0000   1.0000   1.0000   0.9999   0.9999   0.9999   0.9999   0.9993
     0.9988   0.9985   0.9983   0.9982   0.9978   0.9976   0.9971   0.9967
     0.9964   0.9960   0.9952   0.9950   0.9939   0.9934   0.9921   0.9895
     0.9886   0.9875   0.9861   0.9841   0.9819   0.9783   0.9676   0.9538
     0.9485   0.9412   0.9377   0.9255   0.9154   0.9088   0.9037   0.8976
     0.8677   0.8561   0.8372   0.8226   0.8172   0.7457   0.7419   0.7350
     0.7303   0.7250   0.7183   0.7149   0.7058   0.7016   0.6936   0.6884
     0.6820   0.6770   0.6740   0.6558   0.6497   0.6448   0.6261   0.4547
     0.4080   0.3738   0.3424   0.3272   0.2260   0.1734   0.0785   0.0491
     0.0273   0.0154   0.0072   0.0028   0.0005   0.0003   0.0003   0.0001
     0.0001   0.0001   0.0000   0.0000   0.0000   0.0000   0.0000   0.0000
     0.0000   0.0000   0.0000   0.0000   0.0000   0.0000   0.0000   0.0000
     0.0000   0.0000   0.0000   0.0000   0.0000   0.0000   0.0000

          k =-0.5000 0.2500 0.0000 ( 65138 PWs)   bands (ev):

   -92.3461 -92.2935 -92.2002 -92.1503 -92.0929 -92.0524 -92.0352 -91.9121
   -55.6992 -55.6800 -55.5580 -55.5472 -55.5393 -55.5339 -55.4982 -55.4698
   -55.4533 -55.4514 -55.4441 -55.4013 -55.3812 -55.3448 -55.3263 -55.2924
   -55.2856 -55.2414 -55.2390 -55.2382 -55.2297 -55.1868 -55.1659 -55.0787
   -30.9290 -30.9181 -30.7727 -30.7425 -30.7106 -30.6875 -30.5277 -30.5132
   -29.4944 -29.4553 -29.4282 -29.3211 -22.2578 -14.6333 -14.5896 -14.5115
   -14.4132 -14.3707 -14.2429 -14.1603 -14.0302 -13.7793 -13.7178 -13.6876
   -13.6758 -13.6330 -13.6124 -13.5862 -13.5492 -13.5448 -13.5231 -13.4828
   -13.4704 -13.3742 -13.2903 -13.2418 -13.2383 -13.2259 -13.1570 -13.1238
   -13.0415 -12.9892 -12.8565 -12.8197 -12.7258 -12.7076 -12.6831 -12.6713
   -12.6477 -12.6194 -12.6061 -12.5946 -12.5799 -12.5124 -12.4806 -12.4482
   -12.4067 -12.3938 -12.2780 -12.2705 -12.1951 -12.1216 -11.9798 -11.9748
   -11.8825 -11.8570 -11.4204 -11.4078 -11.3935 -11.3818 -11.3604 -11.3301
   -11.2498 -11.2413 -11.2178 -11.1824 -11.1540 -11.1450  -5.9018  -3.1666
    -3.1547  -2.0892  -2.0469  -1.8979  -1.8560  -1.6965  -1.6194  -1.4771
    -1.3408  -1.2835  -1.2566  -1.2177  -1.1789  -1.0989  -0.9840  -0.9274
    -0.9040  -0.8779  -0.8028  -0.7730  -0.7361  -0.7171  -0.6566  -0.6285
    -0.5881  -0.5532  -0.5245  -0.4672  -0.4412  -0.3997  -0.3649  -0.2602
    -0.2361  -0.1458  -0.0884  -0.0540   0.0043   0.0860   0.1159   0.2228
     0.2483   0.3135   0.3543   0.3924   0.4641   0.4935   0.5237   0.5816
     0.6191   0.9295   0.9746   1.0362   1.0554   1.3539   1.4160   1.4904
     1.5174   1.6969   1.7323   1.7701   1.7856   1.8030   1.8206   1.8895
     1.9329   1.9681   2.0011   2.1024   2.1491   2.1848   2.1945   2.2237
     2.2570   2.2727   2.2846   2.3062   2.3313   2.3732   2.3999   2.4300
     2.4541   2.4798   2.5468   2.6654   2.7641   2.7941   2.8638   2.9062
     2.9621   3.0018   3.0095   3.0176   3.0473   3.0689   3.0821   3.1057
     3.1867   3.2290   3.2434   3.2496   3.2710   3.2928   3.3056   3.3201
     3.3328   3.3535   3.3670   3.3775   3.3856   3.3941   3.4063   3.9307
     3.9615   4.1266   4.1462   4.4201   4.4809   4.5355   4.7335   5.0675
     5.1495   5.2157   5.3340   5.4440   5.7218   5.7671   5.8310   5.9328
     6.0390   6.1416   6.3593   6.4776   6.5614   6.6454   7.1594   7.3568
     7.5006   7.6814   7.9627   8.0501   8.1830   8.2214   8.3174   8.4171
     8.5240   8.6444   8.6928   8.8256   8.8703   8.9014   8.9355

     occupation numbers 
     1.0000   1.0000   1.0000   1.0000   1.0000   1.0000   1.0000   1.0000
     1.0000   1.0000   1.0000   1.0000   1.0000   1.0000   1.0000   1.0000
     1.0000   1.0000   1.0000   1.0000   1.0000   1.0000   1.0000   1.0000
     1.0000   1.0000   1.0000   1.0000   1.0000   1.0000   1.0000   1.0000
     1.0000   1.0000   1.0000   1.0000   1.0000   1.0000   1.0000   1.0000
     1.0000   1.0000   1.0000   1.0000   1.0000   1.0000   1.0000   1.0000
     1.0000   1.0000   1.0000   1.0000   1.0000   1.0000   1.0000   1.0000
     1.0000   1.0000   1.0000   1.0000   1.0000   1.0000   1.0000   1.0000
     1.0000   1.0000   1.0000   1.0000   1.0000   1.0000   1.0000   1.0000
     1.0000   1.0000   1.0000   1.0000   1.0000   1.0000   1.0000   1.0000
     1.0000   1.0000   1.0000   1.0000   1.0000   1.0000   1.0000   1.0000
     1.0000   1.0000   1.0000   1.0000   1.0000   1.0000   1.0000   1.0000
     1.0000   1.0000   1.0000   1.0000   1.0000   1.0000   1.0000   1.0000
     1.0000   1.0000   1.0000   1.0000   1.0000   1.0000   1.0000   1.0000
     1.0000   1.0000   1.0000   1.0000   1.0000   1.0000   1.0000   1.0000
     1.0000   1.0000   1.0000   1.0000   1.0000   1.0000   1.0000   1.0000
     1.0000   1.0000   1.0000   1.0000   1.0000   1.0000   1.0000   1.0000
     1.0000   1.0000   1.0000   1.0000   1.0000   1.0000   1.0000   1.0000
     1.0000   1.0000   1.0000   1.0000   1.0000   1.0000   1.0000   1.0000
     1.0000   1.0000   1.0000   1.0000   1.0000   1.0000   1.0000   1.0000
     1.0000   1.0000   1.0000   1.0000   1.0000   0.9997   0.9996   0.9994
     0.9993   0.9984   0.9981   0.9977   0.9975   0.9973   0.9971   0.9961
     0.9953   0.9945   0.9937   0.9904   0.9885   0.9868   0.9863   0.9847
     0.9827   0.9817   0.9809   0.9793   0.9774   0.9739   0.9714   0.9683
     0.9657   0.9627   0.9538   0.9341   0.9131   0.9059   0.8873   0.8748
     0.8569   0.8431   0.8404   0.8374   0.8263   0.8180   0.8128   0.8032
     0.7682   0.7486   0.7417   0.7387   0.7283   0.7174   0.7110   0.7036
     0.6970   0.6862   0.6791   0.6735   0.6691   0.6645   0.6579   0.3550
     0.3381   0.2537   0.2445   0.1360   0.1172   0.1021   0.0589   0.0197
     0.0146   0.0113   0.0070   0.0044   0.0012   0.0010   0.0007   0.0004
     0.0002   0.0001   0.0000   0.0000   0.0000   0.0000   0.0000   0.0000
     0.0000   0.0000   0.0000   0.0000   0.0000   0.0000   0.0000   0.0000
     0.0000   0.0000   0.0000   0.0000   0.0000   0.0000   0.0000

     the Fermi energy is     3.6802 ev

!    total energy              =   -4482.97628753 Ry
     estimated scf accuracy    <          5.2E-09 Ry
     smearing contrib. (-TS)   =      -1.17206630 Ry
     internal energy E=F+TS    =   -4481.80422123 Ry

     The total energy is F=E-TS. E is the sum of the following terms:
     one-electron contribution =  -20250.89819242 Ry
     hartree contribution      =   10265.00248085 Ry
     xc contribution           =    -701.58465067 Ry
     ewald contribution        =    6491.33120299 Ry
     one-center paw contrib.   =    -285.65506198 Ry
      -> PAW hartree energy AE =      25.18350714 Ry
      -> PAW hartree energy PS =     -25.06721515 Ry
      -> PAW xc energy AE      =     -16.52036293 Ry
      -> PAW xc energy PS      =       6.87998572 Ry
      -> total E_H with PAW    =   10265.11877285 Ry
      -> total E_XC with PAW   =    -711.22502788 Ry

     convergence has been achieved in  51 iterations

     Writing all to output data dir /bsuhome/zayahcortright/scratch/pwscf.save/
 
     init_run     :      7.66s CPU      8.62s WALL (       1 calls)
     electrons    :    775.37s CPU    816.22s WALL (       1 calls)

     Called by init_run:
     wfcinit      :      6.27s CPU      6.51s WALL (       1 calls)
     wfcinit:atom :      0.06s CPU      0.09s WALL (       5 calls)
     wfcinit:wfcr :      5.93s CPU      6.07s WALL (       5 calls)
     potinit      :      0.18s CPU      0.21s WALL (       1 calls)
     hinit0       :      0.31s CPU      0.78s WALL (       1 calls)

     Called by electrons:
     c_bands      :    615.70s CPU    624.42s WALL (      51 calls)
     sum_band     :    120.30s CPU    137.80s WALL (      51 calls)
     v_of_rho     :      5.70s CPU      5.96s WALL (      52 calls)
     v_h          :      0.47s CPU      0.47s WALL (      52 calls)
     v_xc         :      5.23s CPU      5.49s WALL (      52 calls)
     newd         :     18.55s CPU     32.52s WALL (      52 calls)
     PAW_pot      :      1.71s CPU      1.75s WALL (      52 calls)
     mix_rho      :     12.99s CPU     13.41s WALL (      51 calls)

     Called by c_bands:
     init_us_2    :      7.01s CPU      7.08s WALL (     515 calls)
     init_us_2:cp :      7.01s CPU      7.08s WALL (     515 calls)
     cegterg      :    584.11s CPU    592.55s WALL (     255 calls)

     Called by sum_band:
     sum_band:wei :      0.35s CPU      0.36s WALL (      51 calls)
     sum_band:loo :     97.00s CPU     97.78s WALL (      51 calls)
     sum_band:buf :      1.46s CPU      1.52s WALL (     255 calls)
     sum_band:ini :      3.15s CPU      3.17s WALL (     255 calls)
     sum_band:cal :     21.09s CPU     21.17s WALL (     255 calls)
     sum_band:bec :      0.60s CPU      0.62s WALL (     255 calls)
     addusdens    :     20.29s CPU     36.93s WALL (      51 calls)
                                        0.00s GPU  (      51 calls)
     addusd:skk   :      0.33s CPU      0.91s WALL (     204 calls)
                                        0.00s GPU  (     204 calls)

     Called by *egterg:
     cdiaghg      :     62.65s CPU     62.97s WALL (    1393 calls)
     cegterg:over :     45.73s CPU     45.92s WALL (    1138 calls)
     cegterg:upda :     32.26s CPU     32.89s WALL (    1138 calls)
     cegterg:last :     66.60s CPU     66.85s WALL (     470 calls)
     cdiaghg:chol :      3.73s CPU      3.75s WALL (    1393 calls)
     cdiaghg:inve :      3.74s CPU      3.76s WALL (    1393 calls)
     cdiaghg:para :      8.03s CPU      8.09s WALL (    2786 calls)
     h_psi        :    316.45s CPU    319.97s WALL (    1398 calls)
     s_psi        :     42.69s CPU     42.81s WALL (    1398 calls)
     g_psi        :      1.08s CPU      1.09s WALL (    1138 calls)

     Called by h_psi:
     h_psi:calbec :     49.46s CPU     49.71s WALL (    1398 calls)
     vloc_psi     :    221.28s CPU    223.53s WALL (    1398 calls)
     add_vuspsi   :     42.78s CPU     43.03s WALL (    1398 calls)

     General routines
     calbec       :     70.53s CPU     70.88s WALL (    1653 calls)
     fft          :      4.39s CPU      4.44s WALL (     674 calls)
     ffts         :      4.85s CPU      4.90s WALL (    5467 calls)
     fftw         :    192.47s CPU    194.17s WALL (  351045 calls)
     interpolate  :      0.45s CPU      0.46s WALL (      52 calls)
 
     Parallel routines

     PAW routines
     PAW_pot      :      1.71s CPU      1.75s WALL (      52 calls)
 
     PWSCF        :  13m 5.43s CPU  13m51.90s WALL

 
   This run was terminated on:  18:52:49  18Jun2024            

=------------------------------------------------------------------------------=
   JOB DONE.
=------------------------------------------------------------------------------=
