
     Program PWSCF v.7.2 starts on  3Jul2024 at 15: 2:37 

     This program is part of the open-source Quantum ESPRESSO suite
     for quantum simulation of materials; please cite
         "P. Giannozzi et al., J. Phys.:Condens. Matter 21 395502 (2009);
         "P. Giannozzi et al., J. Phys.:Condens. Matter 29 465901 (2017);
         "P. Giannozzi et al., J. Chem. Phys. 152 154105 (2020);
          URL http://www.quantum-espresso.org", 
     in publications or presentations arising from this work. More details at
     http://www.quantum-espresso.org/quote

     Parallel version (MPI & OpenMP), running on      48 processor cores
     Number of MPI processes:                48
     Threads/MPI process:                     1

     MPI processes distributed on     1 nodes
     53379 MiB available memory on the printing compute node when the environment starts
 
     Reading input from espresso.pwi
Warning: card &CELL ignored
Warning: card / ignored
Warning: card &FCP ignored
Warning: card / ignored
Warning: card &RISM ignored
Warning: card / ignored

     Current dimensions of program PWSCF are:
     Max number of different atomic species (ntypx) = 10
     Max number of k-points (npk) =  40000
     Max angular momentum in pseudopotentials (lmaxx) =  4
     file O.pbe-n-kjpaw_psl.0.1.UPF: wavefunction(s)  2P renormalized
     signal trapping enabled: kill the code with -SIGUSR1 to stop cleanly the simulation 
 
     K-points division:     npool     =       2
     R & G space division:  proc/nbgrp/npool/nimage =      24
     Subspace diagonalization in iterative solution of the eigenvalue problem:
     one sub-group per band group will be used
     scalapack distributed-memory algorithm (size of sub-group:  3*  3 procs)

 
     Parallelization info
     --------------------
     sticks:   dense  smooth     PW     G-vecs:    dense   smooth      PW
     Min         350     175     47                61430    21716    3036
     Max         351     177     48                61449    21727    3041
     Sum        8421    4205   1137              1474595   521381   72913
 
     Using Slab Decomposition
 


     bravais-lattice index     =            0
     lattice parameter (alat)  =      14.8599  a.u.
     unit-cell volume          =    8305.1283 (a.u.)^3
     number of atoms/cell      =           48
     number of atomic types    =            3
     number of electrons       =       424.00
     number of Kohn-Sham states=          254
     kinetic-energy cutoff     =      60.0000  Ry
     charge density cutoff     =     480.0000  Ry
     scf convergence threshold =      1.0E-08
     mixing beta               =       0.1500
     number of iterations used =            8  local-TF  mixing
     Exchange-correlation= SLA  PW   PBE  PBE
                           (   1   4   3   4   0   0   0)

     celldm(1)=  14.859904  celldm(2)=   0.000000  celldm(3)=   0.000000
     celldm(4)=   0.000000  celldm(5)=   0.000000  celldm(6)=   0.000000

     crystal axes: (cart. coord. in units of alat)
               a(1) = (   1.000000   0.000000   0.000000 )  
               a(2) = (   0.000000   1.000000   0.000000 )  
               a(3) = (   0.000000   0.000000   2.531036 )  

     reciprocal axes: (cart. coord. in units 2 pi/alat)
               b(1) = (  1.000000  0.000000  0.000000 )  
               b(2) = (  0.000000  1.000000  0.000000 )  
               b(3) = (  0.000000  0.000000  0.395095 )  


     PseudoPot. # 1 for Sr read from file:
     /bsuhome/zayahcortright/q-e/pseudo/Sr_pbe_v1.uspp.F.UPF
     MD5 check sum: 6b418c05fbe9db5448babca5e47b7a5b
     Pseudo is Ultrasoft + core correction, Zval = 10.0
     Generated by new atomic code, or converted to UPF format
     Using radial grid of  883 points,  6 beta functions with: 
                l(1) =   0
                l(2) =   0
                l(3) =   1
                l(4) =   1
                l(5) =   2
                l(6) =   2
     Q(r) pseudized with  6 coefficients,  rinner =    1.400   1.400   1.400
                                                       1.400   1.400

     PseudoPot. # 2 for O  read from file:
     /bsuhome/zayahcortright/q-e/pseudo/O.pbe-n-kjpaw_psl.0.1.UPF
     MD5 check sum: 0234752ac141de4415c5fc33072bef88
     Pseudo is Projector augmented-wave + core cor, Zval =  6.0
     Generated using "atomic" code by A. Dal Corso  v.5.0.99 svn rev. 10869
     Shape of augmentation charge: BESSEL
     Using radial grid of 1095 points,  4 beta functions with: 
                l(1) =   0
                l(2) =   0
                l(3) =   1
                l(4) =   1
     Q(r) pseudized with 0 coefficients 


     PseudoPot. # 3 for Co read from file:
     /bsuhome/zayahcortright/q-e/pseudo/Co_pbe_v1.2.uspp.F.UPF
     MD5 check sum: 5f91765df6ddd3222702df6e7b74a16d
     Pseudo is Ultrasoft + core correction, Zval = 17.0
     Generated by new atomic code, or converted to UPF format
     Using radial grid of  863 points,  6 beta functions with: 
                l(1) =   0
                l(2) =   0
                l(3) =   1
                l(4) =   1
                l(5) =   2
                l(6) =   2
     Q(r) pseudized with  8 coefficients,  rinner =    1.200   1.200   1.200
                                                       1.200   1.200

     atomic species   valence    mass     pseudopotential
        Sr            10.00    87.62000     Sr( 1.00)
        O              6.00    15.99900     O ( 1.00)
        Co            17.00    58.93319     Co( 1.00)

     No symmetry found


                                    s                        frac. trans.

      isym =  1     identity                                     

 cryst.   s( 1) = (     1          0          0      )
                  (     0          1          0      )
                  (     0          0          1      )

 cart.    s( 1) = (  1.0000000  0.0000000  0.0000000 )
                  (  0.0000000  1.0000000  0.0000000 )
                  (  0.0000000  0.0000000  1.0000000 )


   Cartesian axes

     site n.     atom                  positions (alat units)
         1           Sr  tau(   1) = (   0.2508693   0.7491307   1.7574407  )
         2           O   tau(   2) = (   0.4985141   0.5014859   1.7715967  )
         3           Sr  tau(   3) = (   0.7482398   0.7454518   1.7648669  )
         4           Sr  tau(   4) = (   0.7441748   0.2558252   1.7667843  )
         5           Sr  tau(   5) = (   0.2508693   0.7491307   1.2696799  )
         6           Sr  tau(   6) = (   0.2508693   0.7491307   0.7632319  )
         7           Co  tau(   7) = (   0.4998914   0.5001086   1.0164559  )
         8           Co  tau(   8) = (   0.4936915   0.5063085   1.5135603  )
         9           O   tau(   9) = (   0.4988895   0.7610401   1.0164559  )
        10           O   tau(  10) = (   0.2389599   0.5011105   1.0164559  )
        11           O   tau(  11) = (   0.0070918   0.7374880   1.0164559  )
        12           O   tau(  12) = (   0.0088340   0.7405089   1.5135603  )
        13           O   tau(  13) = (   0.5066944   0.7415376   1.5135603  )
        14           O   tau(  14) = (   0.2584624   0.4933056   1.5135603  )
        15           O   tau(  15) = (   0.4985141   0.5014859   0.7773880  )
        16           O   tau(  16) = (   0.4985141   0.5014859   1.2555238  )
        17           Sr  tau(  17) = (   0.7482398   0.7454518   0.7706582  )
        18           Sr  tau(  18) = (   0.7482398   0.7454518   1.2622536  )
        19           Sr  tau(  19) = (   0.7441748   0.2558252   0.7725755  )
        20           Sr  tau(  20) = (   0.7441748   0.2558252   1.2603363  )
        21           O   tau(  21) = (   0.7322655   0.0078049   1.5135603  )
        22           O   tau(  22) = (   0.7558175   0.4996027   1.5135603  )
        23           O   tau(  23) = (   0.5003973   0.2441825   1.5135603  )
        24           O   tau(  24) = (   0.7527966   0.4978604   1.0164559  )
        25           O   tau(  25) = (   0.5021396   0.2472034   1.0164559  )
        26           O   tau(  26) = (   0.7517679   0.0000000   1.0164559  )
        27           O   tau(  27) = (   0.0114961   0.4948124   1.7455321  )
        28           O   tau(  28) = (   0.0048226   0.0077944   1.7715967  )
        29           Sr  tau(  29) = (   0.2545482   0.2517602   1.7648669  )
        30           O   tau(  30) = (   0.5048017   0.0015068   1.7786929  )
        31           Co  tau(  31) = (   0.0056869   0.5006215   1.0164559  )
        32           Co  tau(  32) = (   0.0065315   0.4997770   1.5135603  )
        33           Co  tau(  33) = (   0.0061999   0.0064171   1.0164559  )
        34           Co  tau(  34) = (   0.0000000   0.0126169   1.5135603  )
        35           O   tau(  35) = (   0.0114961   0.4948124   1.2815885  )
        36           O   tau(  36) = (   0.0114961   0.4948124   0.7513233  )
        37           O   tau(  37) = (   0.0051979   0.2673486   1.0164559  )
        38           O   tau(  38) = (   0.0130029   0.2478461   1.5135603  )
        39           O   tau(  39) = (   0.0048226   0.0077944   0.7773880  )
        40           O   tau(  40) = (   0.0048226   0.0077944   1.2555238  )
        41           Sr  tau(  41) = (   0.2545482   0.2517602   0.7706582  )
        42           Sr  tau(  42) = (   0.2545482   0.2517602   1.2622536  )
        43           Co  tau(  43) = (   0.4989925   0.0073160   1.5135603  )
        44           Co  tau(  44) = (   0.4998370   0.0064714   1.0164559  )
        45           O   tau(  45) = (   0.5048017   0.0015068   0.7844841  )
        46           O   tau(  46) = (   0.5048017   0.0015068   1.2484277  )
        47           O   tau(  47) = (   0.2621260   0.0059111   1.5135603  )
        48           O   tau(  48) = (   0.2591051   0.0041689   1.0164559  )

   Crystallographic axes

     site n.     atom                  positions (cryst. coord.)
         1           Sr  tau(   1) = (  0.2508693  0.7491307  0.6943562  )
         2           O   tau(   2) = (  0.4985141  0.5014859  0.6999492  )
         3           Sr  tau(   3) = (  0.7482398  0.7454518  0.6972903  )
         4           Sr  tau(   4) = (  0.7441748  0.2558252  0.6980478  )
         5           Sr  tau(   5) = (  0.2508693  0.7491307  0.5016443  )
         6           Sr  tau(   6) = (  0.2508693  0.7491307  0.3015492  )
         7           Co  tau(   7) = (  0.4998914  0.5001086  0.4015968  )
         8           Co  tau(   8) = (  0.4936915  0.5063085  0.5980003  )
         9           O   tau(   9) = (  0.4988895  0.7610401  0.4015968  )
        10           O   tau(  10) = (  0.2389599  0.5011105  0.4015968  )
        11           O   tau(  11) = (  0.0070918  0.7374880  0.4015968  )
        12           O   tau(  12) = (  0.0088340  0.7405089  0.5980003  )
        13           O   tau(  13) = (  0.5066944  0.7415376  0.5980003  )
        14           O   tau(  14) = (  0.2584624  0.4933056  0.5980003  )
        15           O   tau(  15) = (  0.4985141  0.5014859  0.3071422  )
        16           O   tau(  16) = (  0.4985141  0.5014859  0.4960513  )
        17           Sr  tau(  17) = (  0.7482398  0.7454518  0.3044833  )
        18           Sr  tau(  18) = (  0.7482398  0.7454518  0.4987103  )
        19           Sr  tau(  19) = (  0.7441748  0.2558252  0.3052408  )
        20           Sr  tau(  20) = (  0.7441748  0.2558252  0.4979527  )
        21           O   tau(  21) = (  0.7322655  0.0078049  0.5980003  )
        22           O   tau(  22) = (  0.7558175  0.4996027  0.5980003  )
        23           O   tau(  23) = (  0.5003973  0.2441825  0.5980003  )
        24           O   tau(  24) = (  0.7527966  0.4978604  0.4015968  )
        25           O   tau(  25) = (  0.5021396  0.2472034  0.4015968  )
        26           O   tau(  26) = (  0.7517679  0.0000000  0.4015968  )
        27           O   tau(  27) = (  0.0114961  0.4948124  0.6896512  )
        28           O   tau(  28) = (  0.0048226  0.0077944  0.6999492  )
        29           Sr  tau(  29) = (  0.2545482  0.2517602  0.6972903  )
        30           O   tau(  30) = (  0.5048017  0.0015068  0.7027529  )
        31           Co  tau(  31) = (  0.0056869  0.5006215  0.4015968  )
        32           Co  tau(  32) = (  0.0065315  0.4997770  0.5980003  )
        33           Co  tau(  33) = (  0.0061999  0.0064171  0.4015968  )
        34           Co  tau(  34) = (  0.0000000  0.0126169  0.5980003  )
        35           O   tau(  35) = (  0.0114961  0.4948124  0.5063494  )
        36           O   tau(  36) = (  0.0114961  0.4948124  0.2968442  )
        37           O   tau(  37) = (  0.0051979  0.2673486  0.4015968  )
        38           O   tau(  38) = (  0.0130029  0.2478461  0.5980003  )
        39           O   tau(  39) = (  0.0048226  0.0077944  0.3071422  )
        40           O   tau(  40) = (  0.0048226  0.0077944  0.4960513  )
        41           Sr  tau(  41) = (  0.2545482  0.2517602  0.3044833  )
        42           Sr  tau(  42) = (  0.2545482  0.2517602  0.4987103  )
        43           Co  tau(  43) = (  0.4989925  0.0073160  0.5980003  )
        44           Co  tau(  44) = (  0.4998370  0.0064714  0.4015968  )
        45           O   tau(  45) = (  0.5048017  0.0015068  0.3099459  )
        46           O   tau(  46) = (  0.5048017  0.0015068  0.4932477  )
        47           O   tau(  47) = (  0.2621260  0.0059111  0.5980003  )
        48           O   tau(  48) = (  0.2591051  0.0041689  0.4015968  )

     number of k points=    10  Gaussian smearing, width (Ry)=  0.0700
                       cart. coord. in units 2pi/alat
        k(    1) = (   0.0000000   0.0000000   0.0000000), wk =   0.1250000
        k(    2) = (   0.0000000   0.2500000   0.0000000), wk =   0.2500000
        k(    3) = (   0.0000000  -0.5000000   0.0000000), wk =   0.1250000
        k(    4) = (   0.2500000   0.2500000   0.0000000), wk =   0.2500000
        k(    5) = (   0.2500000  -0.5000000   0.0000000), wk =   0.2500000
        k(    6) = (  -0.5000000  -0.5000000   0.0000000), wk =   0.1250000
        k(    7) = (   0.2500000   0.0000000   0.0000000), wk =   0.2500000
        k(    8) = (  -0.5000000   0.0000000   0.0000000), wk =   0.1250000
        k(    9) = (  -0.2500000   0.2500000   0.0000000), wk =   0.2500000
        k(   10) = (  -0.5000000   0.2500000   0.0000000), wk =   0.2500000

                       cryst. coord.
        k(    1) = (   0.0000000   0.0000000   0.0000000), wk =   0.1250000
        k(    2) = (   0.0000000   0.2500000   0.0000000), wk =   0.2500000
        k(    3) = (   0.0000000  -0.5000000   0.0000000), wk =   0.1250000
        k(    4) = (   0.2500000   0.2500000   0.0000000), wk =   0.2500000
        k(    5) = (   0.2500000  -0.5000000   0.0000000), wk =   0.2500000
        k(    6) = (  -0.5000000  -0.5000000   0.0000000), wk =   0.1250000
        k(    7) = (   0.2500000   0.0000000   0.0000000), wk =   0.2500000
        k(    8) = (  -0.5000000   0.0000000   0.0000000), wk =   0.1250000
        k(    9) = (  -0.2500000   0.2500000   0.0000000), wk =   0.2500000
        k(   10) = (  -0.5000000   0.2500000   0.0000000), wk =   0.2500000

     Dense  grid:  1474595 G-vectors     FFT dimensions: ( 108, 108, 270)

     Smooth grid:   521381 G-vectors     FFT dimensions: (  75,  75, 192)

     Dynamical RAM for                 wfc:      10.52 MB

     Dynamical RAM for     wfc (w. buffer):      63.14 MB

     Dynamical RAM for           str. fact:       2.81 MB

     Dynamical RAM for           local pot:       0.00 MB

     Dynamical RAM for          nlocal pot:      24.19 MB

     Dynamical RAM for                qrad:       5.27 MB

     Dynamical RAM for          rho,v,vnew:       6.02 MB

     Dynamical RAM for               rhoin:       2.01 MB

     Dynamical RAM for            rho*nmix:      15.00 MB

     Dynamical RAM for           G-vectors:       3.68 MB

     Dynamical RAM for          h,s,v(r/c):       1.31 MB

     Dynamical RAM for          <psi|beta>:       2.26 MB

     Dynamical RAM for                 psi:      21.05 MB

     Dynamical RAM for                hpsi:      21.05 MB

     Dynamical RAM for                spsi:      21.05 MB

     Dynamical RAM for      wfcinit/wfcrot:      33.99 MB

     Dynamical RAM for           addusdens:     100.79 MB

     Estimated static dynamical RAM per process >     116.21 MB

     Estimated max dynamical RAM per process >     232.00 MB

     Estimated total dynamical RAM >      10.52 GB

     Check: negative core charge=   -0.000004

     Initial potential from superposition of free atoms

     starting charge     415.5961, renormalised to     424.0000

     negative rho (up, down):  7.832E-01 0.000E+00
     Starting wfcs are  372 randomized atomic wfcs
     Checking if some PAW data can be deallocated... 
       PAW data deallocated on   20 nodes for type:  2

     total cpu time spent up to now is       10.1 secs

     Self-consistent Calculation

     iteration #  1     ecut=    60.00 Ry     beta= 0.15
     Davidson diagonalization with overlap

---- Real-time Memory Report at c_bands before calling an iterative solver
             0 MiB given to the printing process from OS
             0 MiB allocation reported by mallinfo(arena+hblkhd)
         44281 MiB available memory on the node where the printing process lives
------------------
     ethr =  1.00E-02,  avg # of iterations =  2.0

     negative rho (up, down):  7.715E-01 0.000E+00

     total cpu time spent up to now is       25.2 secs

     total energy              =   -4403.45192678 Ry
     estimated scf accuracy    <      42.50789142 Ry

     iteration #  2     ecut=    60.00 Ry     beta= 0.15
     Davidson diagonalization with overlap

---- Real-time Memory Report at c_bands before calling an iterative solver
             0 MiB given to the printing process from OS
             0 MiB allocation reported by mallinfo(arena+hblkhd)
         44552 MiB available memory on the node where the printing process lives
------------------
     ethr =  1.00E-02,  avg # of iterations =  1.0

     negative rho (up, down):  7.534E-01 0.000E+00

     total cpu time spent up to now is       38.1 secs

     total energy              =   -4398.83861059 Ry
     estimated scf accuracy    <      25.31771718 Ry

     iteration #  3     ecut=    60.00 Ry     beta= 0.15
     Davidson diagonalization with overlap

---- Real-time Memory Report at c_bands before calling an iterative solver
             0 MiB given to the printing process from OS
             0 MiB allocation reported by mallinfo(arena+hblkhd)
         43840 MiB available memory on the node where the printing process lives
------------------
     ethr =  5.97E-03,  avg # of iterations =  2.0

     negative rho (up, down):  7.548E-01 0.000E+00

     total cpu time spent up to now is       52.4 secs

     total energy              =   -4401.19453844 Ry
     estimated scf accuracy    <      47.85478071 Ry

     iteration #  4     ecut=    60.00 Ry     beta= 0.15
     Davidson diagonalization with overlap

---- Real-time Memory Report at c_bands before calling an iterative solver
             0 MiB given to the printing process from OS
             0 MiB allocation reported by mallinfo(arena+hblkhd)
         43704 MiB available memory on the node where the printing process lives
------------------
     ethr =  5.97E-03,  avg # of iterations =  1.0

     negative rho (up, down):  7.415E-01 0.000E+00

     total cpu time spent up to now is       64.7 secs

     total energy              =   -4400.67479357 Ry
     estimated scf accuracy    <      24.72054949 Ry

     iteration #  5     ecut=    60.00 Ry     beta= 0.15
     Davidson diagonalization with overlap

---- Real-time Memory Report at c_bands before calling an iterative solver
             0 MiB given to the printing process from OS
             0 MiB allocation reported by mallinfo(arena+hblkhd)
         43692 MiB available memory on the node where the printing process lives
------------------
     ethr =  5.83E-03,  avg # of iterations =  1.0

     negative rho (up, down):  7.464E-01 0.000E+00

     total cpu time spent up to now is       77.0 secs

     total energy              =   -4399.20419822 Ry
     estimated scf accuracy    <      42.58189598 Ry

     iteration #  6     ecut=    60.00 Ry     beta= 0.15
     Davidson diagonalization with overlap

---- Real-time Memory Report at c_bands before calling an iterative solver
             0 MiB given to the printing process from OS
             0 MiB allocation reported by mallinfo(arena+hblkhd)
         43679 MiB available memory on the node where the printing process lives
------------------
     ethr =  5.83E-03,  avg # of iterations =  1.0

     negative rho (up, down):  7.431E-01 0.000E+00

     total cpu time spent up to now is       89.6 secs

     total energy              =   -4400.03806657 Ry
     estimated scf accuracy    <      10.84828403 Ry

     iteration #  7     ecut=    60.00 Ry     beta= 0.15
     Davidson diagonalization with overlap

---- Real-time Memory Report at c_bands before calling an iterative solver
             0 MiB given to the printing process from OS
             0 MiB allocation reported by mallinfo(arena+hblkhd)
         43656 MiB available memory on the node where the printing process lives
------------------
     ethr =  2.56E-03,  avg # of iterations =  1.0

     negative rho (up, down):  7.421E-01 0.000E+00

     total cpu time spent up to now is      102.1 secs

     total energy              =   -4399.69338952 Ry
     estimated scf accuracy    <       5.42089908 Ry

     iteration #  8     ecut=    60.00 Ry     beta= 0.15
     Davidson diagonalization with overlap

---- Real-time Memory Report at c_bands before calling an iterative solver
             0 MiB given to the printing process from OS
             0 MiB allocation reported by mallinfo(arena+hblkhd)
         43645 MiB available memory on the node where the printing process lives
------------------
     ethr =  1.28E-03,  avg # of iterations =  2.0

     negative rho (up, down):  7.477E-01 0.000E+00

     total cpu time spent up to now is      115.3 secs

     total energy              =   -4399.86144895 Ry
     estimated scf accuracy    <       7.42697988 Ry

     iteration #  9     ecut=    60.00 Ry     beta= 0.15
     Davidson diagonalization with overlap

---- Real-time Memory Report at c_bands before calling an iterative solver
             0 MiB given to the printing process from OS
             0 MiB allocation reported by mallinfo(arena+hblkhd)
         43625 MiB available memory on the node where the printing process lives
------------------
     ethr =  1.28E-03,  avg # of iterations =  1.0

     negative rho (up, down):  7.676E-01 0.000E+00

     total cpu time spent up to now is      127.9 secs

     total energy              =   -4399.92594880 Ry
     estimated scf accuracy    <      15.15328446 Ry

     iteration # 10     ecut=    60.00 Ry     beta= 0.15
     Davidson diagonalization with overlap

---- Real-time Memory Report at c_bands before calling an iterative solver
             0 MiB given to the printing process from OS
             0 MiB allocation reported by mallinfo(arena+hblkhd)
         43600 MiB available memory on the node where the printing process lives
------------------
     ethr =  1.28E-03,  avg # of iterations =  5.5

     negative rho (up, down):  7.775E-01 0.000E+00

     total cpu time spent up to now is      144.3 secs

     total energy              =   -4398.64120133 Ry
     estimated scf accuracy    <      31.82504006 Ry

     iteration # 11     ecut=    60.00 Ry     beta= 0.15
     Davidson diagonalization with overlap

---- Real-time Memory Report at c_bands before calling an iterative solver
             0 MiB given to the printing process from OS
             0 MiB allocation reported by mallinfo(arena+hblkhd)
         43498 MiB available memory on the node where the printing process lives
------------------
     ethr =  1.28E-03,  avg # of iterations =  4.1

     negative rho (up, down):  7.761E-01 0.000E+00

     total cpu time spent up to now is      159.8 secs

     total energy              =   -4399.11432908 Ry
     estimated scf accuracy    <       5.19714007 Ry

     iteration # 12     ecut=    60.00 Ry     beta= 0.15
     Davidson diagonalization with overlap

---- Real-time Memory Report at c_bands before calling an iterative solver
             0 MiB given to the printing process from OS
             0 MiB allocation reported by mallinfo(arena+hblkhd)
         43458 MiB available memory on the node where the printing process lives
------------------
     ethr =  1.23E-03,  avg # of iterations =  2.1

     negative rho (up, down):  7.859E-01 0.000E+00

     total cpu time spent up to now is      173.8 secs

     total energy              =   -4399.06005047 Ry
     estimated scf accuracy    <       1.67162113 Ry

     iteration # 13     ecut=    60.00 Ry     beta= 0.15
     Davidson diagonalization with overlap

---- Real-time Memory Report at c_bands before calling an iterative solver
             0 MiB given to the printing process from OS
             0 MiB allocation reported by mallinfo(arena+hblkhd)
         43449 MiB available memory on the node where the printing process lives
------------------
     ethr =  3.94E-04,  avg # of iterations = 11.8

     negative rho (up, down):  7.877E-01 0.000E+00

     total cpu time spent up to now is      192.6 secs

     total energy              =   -4399.04743459 Ry
     estimated scf accuracy    <       4.19035019 Ry

     iteration # 14     ecut=    60.00 Ry     beta= 0.15
     Davidson diagonalization with overlap

---- Real-time Memory Report at c_bands before calling an iterative solver
             0 MiB given to the printing process from OS
             0 MiB allocation reported by mallinfo(arena+hblkhd)
         43147 MiB available memory on the node where the printing process lives
------------------
     ethr =  3.94E-04,  avg # of iterations =  1.3

     negative rho (up, down):  8.115E-01 0.000E+00

     total cpu time spent up to now is      205.6 secs

     total energy              =   -4399.05539247 Ry
     estimated scf accuracy    <       0.63441589 Ry

     iteration # 15     ecut=    60.00 Ry     beta= 0.15
     Davidson diagonalization with overlap

---- Real-time Memory Report at c_bands before calling an iterative solver
             0 MiB given to the printing process from OS
             0 MiB allocation reported by mallinfo(arena+hblkhd)
         43142 MiB available memory on the node where the printing process lives
------------------
     ethr =  1.50E-04,  avg # of iterations =  8.4

     negative rho (up, down):  8.308E-01 0.000E+00

     total cpu time spent up to now is      222.2 secs

     total energy              =   -4399.02259760 Ry
     estimated scf accuracy    <       1.13008204 Ry

     iteration # 16     ecut=    60.00 Ry     beta= 0.15
     Davidson diagonalization with overlap

---- Real-time Memory Report at c_bands before calling an iterative solver
             0 MiB given to the printing process from OS
             0 MiB allocation reported by mallinfo(arena+hblkhd)
         43148 MiB available memory on the node where the printing process lives
------------------
     ethr =  1.50E-04,  avg # of iterations =  7.7

     negative rho (up, down):  8.324E-01 0.000E+00

     total cpu time spent up to now is      238.0 secs

     total energy              =   -4398.99011779 Ry
     estimated scf accuracy    <       0.45519222 Ry

     iteration # 17     ecut=    60.00 Ry     beta= 0.15
     Davidson diagonalization with overlap

---- Real-time Memory Report at c_bands before calling an iterative solver
             0 MiB given to the printing process from OS
             0 MiB allocation reported by mallinfo(arena+hblkhd)
         43150 MiB available memory on the node where the printing process lives
------------------
     ethr =  1.07E-04,  avg # of iterations =  5.4

     negative rho (up, down):  8.301E-01 0.000E+00

     total cpu time spent up to now is      252.9 secs

     total energy              =   -4398.95367960 Ry
     estimated scf accuracy    <       0.23874760 Ry

     iteration # 18     ecut=    60.00 Ry     beta= 0.15
     Davidson diagonalization with overlap

---- Real-time Memory Report at c_bands before calling an iterative solver
             0 MiB given to the printing process from OS
             0 MiB allocation reported by mallinfo(arena+hblkhd)
         43160 MiB available memory on the node where the printing process lives
------------------
     ethr =  5.63E-05,  avg # of iterations = 13.7

     negative rho (up, down):  8.264E-01 0.000E+00

     total cpu time spent up to now is      272.8 secs

     total energy              =   -4398.94136465 Ry
     estimated scf accuracy    <       0.28252895 Ry

     iteration # 19     ecut=    60.00 Ry     beta= 0.15
     Davidson diagonalization with overlap

---- Real-time Memory Report at c_bands before calling an iterative solver
             0 MiB given to the printing process from OS
             0 MiB allocation reported by mallinfo(arena+hblkhd)
         43134 MiB available memory on the node where the printing process lives
------------------
     ethr =  5.63E-05,  avg # of iterations =  1.5

     negative rho (up, down):  8.290E-01 0.000E+00

     total cpu time spent up to now is      286.5 secs

     total energy              =   -4398.92183667 Ry
     estimated scf accuracy    <       0.17289952 Ry

     iteration # 20     ecut=    60.00 Ry     beta= 0.15
     Davidson diagonalization with overlap

---- Real-time Memory Report at c_bands before calling an iterative solver
             0 MiB given to the printing process from OS
             0 MiB allocation reported by mallinfo(arena+hblkhd)
         43147 MiB available memory on the node where the printing process lives
------------------
     ethr =  4.08E-05,  avg # of iterations =  8.0

     negative rho (up, down):  8.114E-01 0.000E+00

     total cpu time spent up to now is      303.9 secs

     total energy              =   -4398.91270535 Ry
     estimated scf accuracy    <       0.11595959 Ry

     iteration # 21     ecut=    60.00 Ry     beta= 0.15
     Davidson diagonalization with overlap

---- Real-time Memory Report at c_bands before calling an iterative solver
             0 MiB given to the printing process from OS
             0 MiB allocation reported by mallinfo(arena+hblkhd)
         43164 MiB available memory on the node where the printing process lives
------------------
     ethr =  2.73E-05,  avg # of iterations =  4.6

     negative rho (up, down):  8.028E-01 0.000E+00

     total cpu time spent up to now is      319.4 secs

     total energy              =   -4398.89141209 Ry
     estimated scf accuracy    <       0.09140144 Ry

     iteration # 22     ecut=    60.00 Ry     beta= 0.15
     Davidson diagonalization with overlap

---- Real-time Memory Report at c_bands before calling an iterative solver
             0 MiB given to the printing process from OS
             0 MiB allocation reported by mallinfo(arena+hblkhd)
         43099 MiB available memory on the node where the printing process lives
------------------
     ethr =  2.16E-05,  avg # of iterations =  8.8

     negative rho (up, down):  8.226E-01 0.000E+00

     total cpu time spent up to now is      337.5 secs

     total energy              =   -4398.88427749 Ry
     estimated scf accuracy    <       0.05195732 Ry

     iteration # 23     ecut=    60.00 Ry     beta= 0.15
     Davidson diagonalization with overlap

---- Real-time Memory Report at c_bands before calling an iterative solver
             0 MiB given to the printing process from OS
             0 MiB allocation reported by mallinfo(arena+hblkhd)
         43062 MiB available memory on the node where the printing process lives
------------------
     ethr =  1.23E-05,  avg # of iterations = 11.8

     negative rho (up, down):  8.087E-01 0.000E+00

     total cpu time spent up to now is      356.6 secs

     total energy              =   -4398.88033226 Ry
     estimated scf accuracy    <       0.03231023 Ry

     iteration # 24     ecut=    60.00 Ry     beta= 0.15
     Davidson diagonalization with overlap

---- Real-time Memory Report at c_bands before calling an iterative solver
             0 MiB given to the printing process from OS
             0 MiB allocation reported by mallinfo(arena+hblkhd)
         43085 MiB available memory on the node where the printing process lives
------------------
     ethr =  7.62E-06,  avg # of iterations =  8.4

     negative rho (up, down):  7.880E-01 0.000E+00

     total cpu time spent up to now is      372.7 secs

     total energy              =   -4398.87721280 Ry
     estimated scf accuracy    <       0.02092372 Ry

     iteration # 25     ecut=    60.00 Ry     beta= 0.15
     Davidson diagonalization with overlap

---- Real-time Memory Report at c_bands before calling an iterative solver
             0 MiB given to the printing process from OS
             0 MiB allocation reported by mallinfo(arena+hblkhd)
         43116 MiB available memory on the node where the printing process lives
------------------
     ethr =  4.93E-06,  avg # of iterations =  4.9

     negative rho (up, down):  7.921E-01 0.000E+00

     total cpu time spent up to now is      388.0 secs

     total energy              =   -4398.87676003 Ry
     estimated scf accuracy    <       0.01037879 Ry

     iteration # 26     ecut=    60.00 Ry     beta= 0.15
     Davidson diagonalization with overlap

---- Real-time Memory Report at c_bands before calling an iterative solver
             0 MiB given to the printing process from OS
             0 MiB allocation reported by mallinfo(arena+hblkhd)
         43124 MiB available memory on the node where the printing process lives
------------------
     ethr =  2.45E-06,  avg # of iterations =  9.2

     negative rho (up, down):  7.963E-01 0.000E+00

     total cpu time spent up to now is      405.9 secs

     total energy              =   -4398.87622686 Ry
     estimated scf accuracy    <       0.00507302 Ry

     iteration # 27     ecut=    60.00 Ry     beta= 0.15
     Davidson diagonalization with overlap

---- Real-time Memory Report at c_bands before calling an iterative solver
             0 MiB given to the printing process from OS
             0 MiB allocation reported by mallinfo(arena+hblkhd)
         43036 MiB available memory on the node where the printing process lives
------------------
     ethr =  1.20E-06,  avg # of iterations =  6.8

     negative rho (up, down):  7.976E-01 0.000E+00

     total cpu time spent up to now is      424.6 secs

     total energy              =   -4398.87664729 Ry
     estimated scf accuracy    <       0.00164445 Ry

     iteration # 28     ecut=    60.00 Ry     beta= 0.15
     Davidson diagonalization with overlap

---- Real-time Memory Report at c_bands before calling an iterative solver
             0 MiB given to the printing process from OS
             0 MiB allocation reported by mallinfo(arena+hblkhd)
         42731 MiB available memory on the node where the printing process lives
------------------
     ethr =  3.88E-07,  avg # of iterations =  3.6

     negative rho (up, down):  7.951E-01 0.000E+00

     total cpu time spent up to now is      439.2 secs

     total energy              =   -4398.87665170 Ry
     estimated scf accuracy    <       0.00105763 Ry

     iteration # 29     ecut=    60.00 Ry     beta= 0.15
     Davidson diagonalization with overlap

---- Real-time Memory Report at c_bands before calling an iterative solver
             0 MiB given to the printing process from OS
             0 MiB allocation reported by mallinfo(arena+hblkhd)
         42758 MiB available memory on the node where the printing process lives
------------------
     ethr =  2.49E-07,  avg # of iterations =  4.1

     negative rho (up, down):  7.932E-01 0.000E+00

     total cpu time spent up to now is      454.3 secs

     total energy              =   -4398.87691196 Ry
     estimated scf accuracy    <       0.00061923 Ry

     iteration # 30     ecut=    60.00 Ry     beta= 0.15
     Davidson diagonalization with overlap

---- Real-time Memory Report at c_bands before calling an iterative solver
             0 MiB given to the printing process from OS
             0 MiB allocation reported by mallinfo(arena+hblkhd)
         42818 MiB available memory on the node where the printing process lives
------------------
     ethr =  1.46E-07,  avg # of iterations =  6.9

     negative rho (up, down):  7.925E-01 0.000E+00

     total cpu time spent up to now is      470.9 secs

     total energy              =   -4398.87706838 Ry
     estimated scf accuracy    <       0.00021658 Ry

     iteration # 31     ecut=    60.00 Ry     beta= 0.15
     Davidson diagonalization with overlap

---- Real-time Memory Report at c_bands before calling an iterative solver
             0 MiB given to the printing process from OS
             0 MiB allocation reported by mallinfo(arena+hblkhd)
         42913 MiB available memory on the node where the printing process lives
------------------
     ethr =  5.11E-08,  avg # of iterations =  3.9

     negative rho (up, down):  7.923E-01 0.000E+00

     total cpu time spent up to now is      485.7 secs

     total energy              =   -4398.87711964 Ry
     estimated scf accuracy    <       0.00009274 Ry

     iteration # 32     ecut=    60.00 Ry     beta= 0.15
     Davidson diagonalization with overlap

---- Real-time Memory Report at c_bands before calling an iterative solver
             0 MiB given to the printing process from OS
             0 MiB allocation reported by mallinfo(arena+hblkhd)
         42909 MiB available memory on the node where the printing process lives
------------------
     ethr =  2.19E-08,  avg # of iterations =  5.1

     negative rho (up, down):  7.919E-01 0.000E+00

     total cpu time spent up to now is      502.1 secs

     total energy              =   -4398.87713938 Ry
     estimated scf accuracy    <       0.00004847 Ry

     iteration # 33     ecut=    60.00 Ry     beta= 0.15
     Davidson diagonalization with overlap

---- Real-time Memory Report at c_bands before calling an iterative solver
             0 MiB given to the printing process from OS
             0 MiB allocation reported by mallinfo(arena+hblkhd)
         42926 MiB available memory on the node where the printing process lives
------------------
     ethr =  1.14E-08,  avg # of iterations =  2.7

     negative rho (up, down):  7.917E-01 0.000E+00

     total cpu time spent up to now is      516.2 secs

     total energy              =   -4398.87714369 Ry
     estimated scf accuracy    <       0.00002102 Ry

     iteration # 34     ecut=    60.00 Ry     beta= 0.15
     Davidson diagonalization with overlap

---- Real-time Memory Report at c_bands before calling an iterative solver
             0 MiB given to the printing process from OS
             0 MiB allocation reported by mallinfo(arena+hblkhd)
         42975 MiB available memory on the node where the printing process lives
------------------
     ethr =  4.96E-09,  avg # of iterations =  3.5

     negative rho (up, down):  7.918E-01 0.000E+00

     total cpu time spent up to now is      530.7 secs

     total energy              =   -4398.87714365 Ry
     estimated scf accuracy    <       0.00001419 Ry

     iteration # 35     ecut=    60.00 Ry     beta= 0.15
     Davidson diagonalization with overlap

---- Real-time Memory Report at c_bands before calling an iterative solver
             0 MiB given to the printing process from OS
             0 MiB allocation reported by mallinfo(arena+hblkhd)
         42975 MiB available memory on the node where the printing process lives
------------------
     ethr =  3.35E-09,  avg # of iterations =  3.5

     negative rho (up, down):  7.919E-01 0.000E+00

     total cpu time spent up to now is      545.3 secs

     total energy              =   -4398.87714250 Ry
     estimated scf accuracy    <       0.00000983 Ry

     iteration # 36     ecut=    60.00 Ry     beta= 0.15
     Davidson diagonalization with overlap

---- Real-time Memory Report at c_bands before calling an iterative solver
             0 MiB given to the printing process from OS
             0 MiB allocation reported by mallinfo(arena+hblkhd)
         42981 MiB available memory on the node where the printing process lives
------------------
     ethr =  2.32E-09,  avg # of iterations =  3.4

     negative rho (up, down):  7.920E-01 0.000E+00

     total cpu time spent up to now is      559.8 secs

     total energy              =   -4398.87714238 Ry
     estimated scf accuracy    <       0.00000726 Ry

     iteration # 37     ecut=    60.00 Ry     beta= 0.15
     Davidson diagonalization with overlap

---- Real-time Memory Report at c_bands before calling an iterative solver
             0 MiB given to the printing process from OS
             0 MiB allocation reported by mallinfo(arena+hblkhd)
         42994 MiB available memory on the node where the printing process lives
------------------
     ethr =  1.71E-09,  avg # of iterations =  1.6

     negative rho (up, down):  7.921E-01 0.000E+00

     total cpu time spent up to now is      573.5 secs

     total energy              =   -4398.87714587 Ry
     estimated scf accuracy    <       0.00000623 Ry

     iteration # 38     ecut=    60.00 Ry     beta= 0.15
     Davidson diagonalization with overlap

---- Real-time Memory Report at c_bands before calling an iterative solver
             0 MiB given to the printing process from OS
             0 MiB allocation reported by mallinfo(arena+hblkhd)
         42990 MiB available memory on the node where the printing process lives
------------------
     ethr =  1.47E-09,  avg # of iterations =  4.0

     negative rho (up, down):  7.923E-01 0.000E+00

     total cpu time spent up to now is      588.0 secs

     total energy              =   -4398.87714732 Ry
     estimated scf accuracy    <       0.00000382 Ry

     iteration # 39     ecut=    60.00 Ry     beta= 0.15
     Davidson diagonalization with overlap

---- Real-time Memory Report at c_bands before calling an iterative solver
             0 MiB given to the printing process from OS
             0 MiB allocation reported by mallinfo(arena+hblkhd)
         42987 MiB available memory on the node where the printing process lives
------------------
     ethr =  9.02E-10,  avg # of iterations =  5.0

     negative rho (up, down):  7.924E-01 0.000E+00

     total cpu time spent up to now is      603.1 secs

     total energy              =   -4398.87714770 Ry
     estimated scf accuracy    <       0.00000175 Ry

     iteration # 40     ecut=    60.00 Ry     beta= 0.15
     Davidson diagonalization with overlap

---- Real-time Memory Report at c_bands before calling an iterative solver
             0 MiB given to the printing process from OS
             0 MiB allocation reported by mallinfo(arena+hblkhd)
         42978 MiB available memory on the node where the printing process lives
------------------
     ethr =  4.12E-10,  avg # of iterations =  4.4

     negative rho (up, down):  7.924E-01 0.000E+00

     total cpu time spent up to now is      617.9 secs

     total energy              =   -4398.87714763 Ry
     estimated scf accuracy    <       0.00000096 Ry

     iteration # 41     ecut=    60.00 Ry     beta= 0.15
     Davidson diagonalization with overlap

---- Real-time Memory Report at c_bands before calling an iterative solver
             0 MiB given to the printing process from OS
             0 MiB allocation reported by mallinfo(arena+hblkhd)
         42981 MiB available memory on the node where the printing process lives
------------------
     ethr =  2.26E-10,  avg # of iterations =  3.8

     negative rho (up, down):  7.923E-01 0.000E+00

     total cpu time spent up to now is      632.5 secs

     total energy              =   -4398.87714763 Ry
     estimated scf accuracy    <       0.00000057 Ry

     iteration # 42     ecut=    60.00 Ry     beta= 0.15
     Davidson diagonalization with overlap

---- Real-time Memory Report at c_bands before calling an iterative solver
             0 MiB given to the printing process from OS
             0 MiB allocation reported by mallinfo(arena+hblkhd)
         42979 MiB available memory on the node where the printing process lives
------------------
     ethr =  1.35E-10,  avg # of iterations =  2.7

     negative rho (up, down):  7.923E-01 0.000E+00

     total cpu time spent up to now is      646.8 secs

     total energy              =   -4398.87714778 Ry
     estimated scf accuracy    <       0.00000035 Ry

     iteration # 43     ecut=    60.00 Ry     beta= 0.15
     Davidson diagonalization with overlap

---- Real-time Memory Report at c_bands before calling an iterative solver
             0 MiB given to the printing process from OS
             0 MiB allocation reported by mallinfo(arena+hblkhd)
         42977 MiB available memory on the node where the printing process lives
------------------
     ethr =  8.27E-11,  avg # of iterations =  4.3

     negative rho (up, down):  7.922E-01 0.000E+00

     total cpu time spent up to now is      661.8 secs

     total energy              =   -4398.87714782 Ry
     estimated scf accuracy    <       0.00000019 Ry

     iteration # 44     ecut=    60.00 Ry     beta= 0.15
     Davidson diagonalization with overlap

---- Real-time Memory Report at c_bands before calling an iterative solver
             0 MiB given to the printing process from OS
             0 MiB allocation reported by mallinfo(arena+hblkhd)
         42996 MiB available memory on the node where the printing process lives
------------------
     ethr =  4.44E-11,  avg # of iterations =  4.2

     negative rho (up, down):  7.922E-01 0.000E+00

     total cpu time spent up to now is      676.5 secs

     total energy              =   -4398.87714789 Ry
     estimated scf accuracy    <       0.00000006 Ry

     iteration # 45     ecut=    60.00 Ry     beta= 0.15
     Davidson diagonalization with overlap

---- Real-time Memory Report at c_bands before calling an iterative solver
             0 MiB given to the printing process from OS
             0 MiB allocation reported by mallinfo(arena+hblkhd)
         42994 MiB available memory on the node where the printing process lives
------------------
     ethr =  1.36E-11,  avg # of iterations =  5.2

     negative rho (up, down):  7.922E-01 0.000E+00

     total cpu time spent up to now is      692.0 secs

     total energy              =   -4398.87714790 Ry
     estimated scf accuracy    <       0.00000002 Ry

     iteration # 46     ecut=    60.00 Ry     beta= 0.15
     Davidson diagonalization with overlap

---- Real-time Memory Report at c_bands before calling an iterative solver
             0 MiB given to the printing process from OS
             0 MiB allocation reported by mallinfo(arena+hblkhd)
         42964 MiB available memory on the node where the printing process lives
------------------
     ethr =  4.90E-12,  avg # of iterations =  2.0

     negative rho (up, down):  7.922E-01 0.000E+00

     total cpu time spent up to now is      706.1 secs

     total energy              =   -4398.87714791 Ry
     estimated scf accuracy    <       0.00000001 Ry

     iteration # 47     ecut=    60.00 Ry     beta= 0.15
     Davidson diagonalization with overlap

---- Real-time Memory Report at c_bands before calling an iterative solver
             0 MiB given to the printing process from OS
             0 MiB allocation reported by mallinfo(arena+hblkhd)
         43113 MiB available memory on the node where the printing process lives
------------------
     ethr =  2.40E-12,  avg # of iterations =  4.9

     negative rho (up, down):  7.922E-01 0.000E+00

     total cpu time spent up to now is      720.9 secs

     End of self-consistent calculation

          k = 0.0000 0.0000 0.0000 ( 65197 PWs)   bands (ev):

   -92.2568 -92.1951 -92.1105 -92.0559 -91.9971 -91.9629 -91.9457 -91.8158
   -55.6097 -55.5807 -55.4688 -55.4582 -55.4469 -55.4448 -55.4020 -55.3804
   -55.3635 -55.3616 -55.3480 -55.3075 -55.2879 -55.2506 -55.2360 -55.1957
   -55.1904 -55.1523 -55.1491 -55.1458 -55.1406 -55.0885 -55.0768 -54.9843
   -30.8486 -30.8296 -30.8186 -30.7323 -30.6888 -30.6163 -30.6022 -30.5078
   -29.4132 -29.3697 -29.3435 -29.2348 -14.6472 -14.6235 -14.5298 -14.3979
   -14.2313 -14.1073 -13.7951 -13.7817 -13.7433 -13.7086 -13.6752 -13.6672
   -13.6436 -13.6308 -13.6131 -13.5758 -13.4977 -13.3558 -13.1994 -13.1502
   -13.1102 -13.0930 -13.0710 -13.0293 -12.9787 -12.8966 -12.8463 -12.8266
   -12.7910 -12.7095 -12.6813 -12.6731 -12.6458 -12.6430 -12.6243 -12.6115
   -12.6019 -12.5673 -12.5538 -12.5339 -12.5298 -12.5140 -12.4984 -12.4848
   -12.4508 -12.4295 -12.3972 -12.3801 -11.9137 -11.7695 -11.7360 -11.6675
   -11.4277 -11.3524 -11.3410 -11.3198 -11.3019 -11.2374 -11.2201 -11.1858
   -11.1570 -11.0462 -10.9644 -10.9610  -2.5090  -2.2731  -2.0438  -1.9006
    -1.8337  -1.6888  -1.3855  -1.3709  -1.3464  -1.2694  -1.2515  -1.1831
    -1.1684  -1.1236  -1.0781  -0.8996  -0.6808  -0.6514  -0.4930  -0.4815
    -0.4426  -0.4255  -0.3818  -0.3684  -0.2984  -0.2724  -0.2141  -0.2020
    -0.1101   0.0102   0.0280   0.0540   0.0980   0.1387   0.1474   0.2164
     0.2956   0.3019   0.3827   0.4031   0.4364   0.5382   0.6090   0.6252
     0.6369   0.8817   0.8980   1.0584   1.1438   1.1988   1.2246   1.3371
     1.3533   1.3634   1.4435   1.4737   1.5083   1.5691   1.7088   1.7509
     1.7729   1.7847   1.7930   1.8708   1.9614   2.0283   2.0473   2.0965
     2.1352   2.1654   2.1884   2.1975   2.2481   2.2878   2.2975   2.3167
     2.3475   2.4470   2.5722   2.6488   2.7011   2.7119   2.8620   2.8739
     2.9332   2.9542   3.0421   3.0869   3.1092   3.1335   3.1466   3.2188
     3.3372   3.3715   3.3903   3.3977   3.4606   3.4669   3.4914   3.5008
     3.5063   3.5113   3.5238   3.5359   3.5414   3.5565   3.5660   3.5738
     3.5953   3.6163   3.6221   3.6328   3.6395   3.7722   3.7866   4.4853
     4.8255   4.8368   5.1302   5.2330   5.4488   6.2488   6.3362   6.3866
     6.4195   6.6301   6.6392   6.7524   6.8036   6.8303   6.8328   7.1189
     7.1474   7.4181   7.4214   7.6976   7.7963   7.8593   7.9849   7.9991
     8.1424   8.1557   8.3327   8.3498   8.3720   8.3824

     occupation numbers 
     1.0000   1.0000   1.0000   1.0000   1.0000   1.0000   1.0000   1.0000
     1.0000   1.0000   1.0000   1.0000   1.0000   1.0000   1.0000   1.0000
     1.0000   1.0000   1.0000   1.0000   1.0000   1.0000   1.0000   1.0000
     1.0000   1.0000   1.0000   1.0000   1.0000   1.0000   1.0000   1.0000
     1.0000   1.0000   1.0000   1.0000   1.0000   1.0000   1.0000   1.0000
     1.0000   1.0000   1.0000   1.0000   1.0000   1.0000   1.0000   1.0000
     1.0000   1.0000   1.0000   1.0000   1.0000   1.0000   1.0000   1.0000
     1.0000   1.0000   1.0000   1.0000   1.0000   1.0000   1.0000   1.0000
     1.0000   1.0000   1.0000   1.0000   1.0000   1.0000   1.0000   1.0000
     1.0000   1.0000   1.0000   1.0000   1.0000   1.0000   1.0000   1.0000
     1.0000   1.0000   1.0000   1.0000   1.0000   1.0000   1.0000   1.0000
     1.0000   1.0000   1.0000   1.0000   1.0000   1.0000   1.0000   1.0000
     1.0000   1.0000   1.0000   1.0000   1.0000   1.0000   1.0000   1.0000
     1.0000   1.0000   1.0000   1.0000   1.0000   1.0000   1.0000   1.0000
     1.0000   1.0000   1.0000   1.0000   1.0000   1.0000   1.0000   1.0000
     1.0000   1.0000   1.0000   1.0000   1.0000   1.0000   1.0000   1.0000
     1.0000   1.0000   1.0000   1.0000   1.0000   1.0000   1.0000   1.0000
     1.0000   1.0000   1.0000   1.0000   1.0000   1.0000   1.0000   1.0000
     1.0000   1.0000   1.0000   1.0000   1.0000   1.0000   1.0000   1.0000
     1.0000   1.0000   1.0000   1.0000   1.0000   0.9999   0.9999   0.9998
     0.9998   0.9998   0.9997   0.9997   0.9996   0.9995   0.9989   0.9986
     0.9985   0.9984   0.9983   0.9976   0.9964   0.9951   0.9947   0.9935
     0.9924   0.9914   0.9905   0.9902   0.9880   0.9861   0.9855   0.9845
     0.9826   0.9752   0.9622   0.9518   0.9436   0.9417   0.9109   0.9080
     0.8926   0.8867   0.8597   0.8443   0.8363   0.8272   0.8222   0.7929
     0.7391   0.7223   0.7129   0.7092   0.6764   0.6730   0.6598   0.6546
     0.6516   0.6489   0.6420   0.6352   0.6322   0.6236   0.6183   0.6139
     0.6016   0.5895   0.5862   0.5800   0.5761   0.4979   0.4894   0.1436
     0.0583   0.0564   0.0216   0.0148   0.0063   0.0001   0.0001   0.0001
     0.0000   0.0000   0.0000   0.0000   0.0000   0.0000   0.0000   0.0000
     0.0000   0.0000   0.0000   0.0000   0.0000   0.0000   0.0000   0.0000
     0.0000   0.0000   0.0000   0.0000   0.0000   0.0000

          k = 0.0000 0.2500 0.0000 ( 65257 PWs)   bands (ev):

   -92.2568 -92.1952 -92.1105 -92.0559 -91.9971 -91.9629 -91.9457 -91.8158
   -55.6097 -55.5807 -55.4688 -55.4582 -55.4469 -55.4449 -55.4020 -55.3804
   -55.3635 -55.3616 -55.3480 -55.3075 -55.2879 -55.2506 -55.2360 -55.1957
   -55.1904 -55.1523 -55.1491 -55.1458 -55.1406 -55.0885 -55.0768 -54.9843
   -30.8484 -30.8295 -30.8183 -30.7327 -30.6891 -30.6160 -30.6024 -30.5081
   -29.4126 -29.3694 -29.3442 -29.2352 -14.6088 -14.5984 -14.5047 -14.3692
   -14.2657 -14.0972 -13.9381 -13.7585 -13.7375 -13.7134 -13.6823 -13.6303
   -13.6250 -13.6111 -13.5982 -13.5739 -13.4205 -13.3868 -13.2313 -13.2135
   -13.1553 -13.1225 -13.0841 -13.0583 -13.0050 -12.9358 -12.9056 -12.8842
   -12.8650 -12.8042 -12.7199 -12.6917 -12.6784 -12.6591 -12.5825 -12.5699
   -12.5542 -12.5321 -12.5211 -12.5013 -12.4825 -12.4755 -12.4535 -12.4339
   -12.4260 -12.3692 -12.2904 -12.2142 -11.9751 -11.8208 -11.7925 -11.7350
   -11.3932 -11.3492 -11.3223 -11.2933 -11.2765 -11.2297 -11.2180 -11.1958
   -11.1621 -11.0602 -11.0062 -10.9955  -2.3740  -2.1487  -2.0130  -1.8306
    -1.7869  -1.6207  -1.4071  -1.3157  -1.3019  -1.2506  -1.1454  -1.1324
    -1.0967  -1.0733  -1.0302  -0.8308  -0.7045  -0.6912  -0.6183  -0.6022
    -0.4990  -0.4653  -0.4159  -0.3927  -0.3420  -0.2841  -0.2611  -0.2260
    -0.2015  -0.1839  -0.1468  -0.0744  -0.0194   0.0214   0.1396   0.1572
     0.2031   0.3126   0.3582   0.4048   0.4600   0.5060   0.5432   0.5864
     0.6399   0.9267   1.0173   1.0462   1.1225   1.1645   1.1879   1.3287
     1.3532   1.4400   1.4656   1.5053   1.6197   1.6924   1.7295   1.7495
     1.7637   1.8027   1.8651   1.8863   1.9136   1.9643   1.9871   2.0157
     2.0828   2.1135   2.1443   2.2102   2.2590   2.2697   2.3032   2.3533
     2.3853   2.4607   2.6105   2.6776   2.6944   2.7910   2.8294   2.8614
     2.8645   2.9391   2.9918   3.0623   3.0990   3.1177   3.3025   3.3232
     3.3544   3.3732   3.3940   3.4046   3.4126   3.4189   3.4486   3.4512
     3.4637   3.4727   3.4860   3.4988   3.5086   3.5235   3.5465   3.5564
     3.5613   3.5966   3.6141   3.6739   3.9841   4.0368   4.3085   4.6703
     4.8136   4.9903   5.0856   5.3670   5.4714   5.8947   6.0760   6.2472
     6.3707   6.4647   6.4929   6.5414   6.6090   6.7561   6.9384   7.2250
     7.4670   7.4937   7.5819   7.7378   7.8021   7.8463   7.9254   7.9502
     7.9750   8.0471   8.0769   8.4671   8.5093   8.6072

     occupation numbers 
     1.0000   1.0000   1.0000   1.0000   1.0000   1.0000   1.0000   1.0000
     1.0000   1.0000   1.0000   1.0000   1.0000   1.0000   1.0000   1.0000
     1.0000   1.0000   1.0000   1.0000   1.0000   1.0000   1.0000   1.0000
     1.0000   1.0000   1.0000   1.0000   1.0000   1.0000   1.0000   1.0000
     1.0000   1.0000   1.0000   1.0000   1.0000   1.0000   1.0000   1.0000
     1.0000   1.0000   1.0000   1.0000   1.0000   1.0000   1.0000   1.0000
     1.0000   1.0000   1.0000   1.0000   1.0000   1.0000   1.0000   1.0000
     1.0000   1.0000   1.0000   1.0000   1.0000   1.0000   1.0000   1.0000
     1.0000   1.0000   1.0000   1.0000   1.0000   1.0000   1.0000   1.0000
     1.0000   1.0000   1.0000   1.0000   1.0000   1.0000   1.0000   1.0000
     1.0000   1.0000   1.0000   1.0000   1.0000   1.0000   1.0000   1.0000
     1.0000   1.0000   1.0000   1.0000   1.0000   1.0000   1.0000   1.0000
     1.0000   1.0000   1.0000   1.0000   1.0000   1.0000   1.0000   1.0000
     1.0000   1.0000   1.0000   1.0000   1.0000   1.0000   1.0000   1.0000
     1.0000   1.0000   1.0000   1.0000   1.0000   1.0000   1.0000   1.0000
     1.0000   1.0000   1.0000   1.0000   1.0000   1.0000   1.0000   1.0000
     1.0000   1.0000   1.0000   1.0000   1.0000   1.0000   1.0000   1.0000
     1.0000   1.0000   1.0000   1.0000   1.0000   1.0000   1.0000   1.0000
     1.0000   1.0000   1.0000   1.0000   1.0000   1.0000   1.0000   1.0000
     1.0000   1.0000   1.0000   1.0000   1.0000   0.9999   0.9999   0.9999
     0.9998   0.9997   0.9997   0.9996   0.9993   0.9990   0.9988   0.9986
     0.9985   0.9982   0.9976   0.9974   0.9971   0.9963   0.9959   0.9954
     0.9939   0.9930   0.9921   0.9897   0.9875   0.9870   0.9852   0.9822
     0.9800   0.9739   0.9573   0.9474   0.9447   0.9267   0.9185   0.9111
     0.9103   0.8910   0.8757   0.8529   0.8400   0.8332   0.7556   0.7459
     0.7308   0.7215   0.7110   0.7057   0.7015   0.6983   0.6827   0.6814
     0.6747   0.6699   0.6627   0.6557   0.6504   0.6421   0.6293   0.6237
     0.6210   0.6009   0.5908   0.5560   0.3745   0.3453   0.2114   0.0903
     0.0604   0.0348   0.0253   0.0088   0.0057   0.0008   0.0003   0.0001
     0.0001   0.0000   0.0000   0.0000   0.0000   0.0000   0.0000   0.0000
     0.0000   0.0000   0.0000   0.0000   0.0000   0.0000   0.0000   0.0000
     0.0000   0.0000   0.0000   0.0000   0.0000   0.0000

          k = 0.0000-0.5000 0.0000 ( 65180 PWs)   bands (ev):

   -92.2568 -92.1951 -92.1105 -92.0559 -91.9971 -91.9629 -91.9457 -91.8158
   -55.6097 -55.5807 -55.4688 -55.4582 -55.4469 -55.4448 -55.4020 -55.3804
   -55.3635 -55.3616 -55.3480 -55.3075 -55.2879 -55.2506 -55.2360 -55.1957
   -55.1904 -55.1523 -55.1491 -55.1458 -55.1406 -55.0885 -55.0768 -54.9843
   -30.8482 -30.8294 -30.8180 -30.7330 -30.6893 -30.6157 -30.6025 -30.5084
   -29.4119 -29.3691 -29.3448 -29.2355 -14.5844 -14.5324 -14.4830 -14.3673
   -14.2684 -14.1327 -13.9973 -13.8765 -13.7214 -13.6862 -13.6392 -13.6019
   -13.5698 -13.5413 -13.5026 -13.4958 -13.4635 -13.4361 -13.4176 -13.3823
   -13.1501 -13.1150 -13.0864 -13.0574 -13.0224 -12.9754 -12.9289 -12.9231
   -12.8562 -12.7947 -12.7908 -12.7386 -12.6815 -12.6696 -12.5814 -12.5616
   -12.5381 -12.5280 -12.5096 -12.4986 -12.4735 -12.4538 -12.4417 -12.4319
   -12.2760 -12.2227 -12.1472 -12.0861 -11.9923 -11.9029 -11.8958 -11.8612
   -11.3462 -11.3448 -11.3178 -11.2783 -11.2447 -11.2339 -11.1917 -11.1876
   -11.1440 -11.0813 -11.0669 -11.0523  -2.1592  -2.0998  -1.9456  -1.8719
    -1.5960  -1.5121  -1.3824  -1.2416  -1.2115  -1.1874  -1.1077  -1.0789
    -0.9973  -0.9620  -0.8889  -0.8440  -0.8026  -0.7767  -0.7281  -0.6853
    -0.6434  -0.6060  -0.5677  -0.5360  -0.4244  -0.3776  -0.3510  -0.3498
    -0.2645  -0.2291  -0.2079  -0.1654  -0.0777  -0.0125   0.0563   0.0823
     0.1952   0.2361   0.4047   0.4090   0.4546   0.4847   0.5843   0.6599
     0.8288   0.8835   0.8921   1.0200   1.0473   1.1113   1.3012   1.4029
     1.4337   1.4592   1.4753   1.4996   1.5369   1.5725   1.5833   1.6000
     1.7080   1.7609   1.7859   1.8128   2.0657   2.0988   2.1107   2.1815
     2.2362   2.2621   2.2767   2.3218   2.3311   2.3464   2.3704   2.4252
     2.4367   2.4647   2.4950   2.5243   2.5790   2.6495   2.6701   2.8482
     3.0379   3.0454   3.0550   3.0955   3.1030   3.1180   3.1638   3.1823
     3.2372   3.2554   3.3268   3.3416   3.4096   3.4159   3.4456   3.4472
     3.4655   3.4704   3.4726   3.4768   3.4817   3.4947   3.5160   3.5176
     3.5818   3.5886   3.6036   3.6578   4.5086   4.5353   4.5681   4.6458
     5.1195   5.2416   5.2655   5.4031   5.4880   5.5961   5.8205   5.8681
     5.9863   6.1823   6.4285   6.4654   6.8596   6.9083   7.0467   7.1270
     7.1948   7.3651   7.4385   7.5612   7.6911   7.7541   8.1265   8.2542
     8.2735   8.3546   8.4377   8.4696   8.7457   8.8047

     occupation numbers 
     1.0000   1.0000   1.0000   1.0000   1.0000   1.0000   1.0000   1.0000
     1.0000   1.0000   1.0000   1.0000   1.0000   1.0000   1.0000   1.0000
     1.0000   1.0000   1.0000   1.0000   1.0000   1.0000   1.0000   1.0000
     1.0000   1.0000   1.0000   1.0000   1.0000   1.0000   1.0000   1.0000
     1.0000   1.0000   1.0000   1.0000   1.0000   1.0000   1.0000   1.0000
     1.0000   1.0000   1.0000   1.0000   1.0000   1.0000   1.0000   1.0000
     1.0000   1.0000   1.0000   1.0000   1.0000   1.0000   1.0000   1.0000
     1.0000   1.0000   1.0000   1.0000   1.0000   1.0000   1.0000   1.0000
     1.0000   1.0000   1.0000   1.0000   1.0000   1.0000   1.0000   1.0000
     1.0000   1.0000   1.0000   1.0000   1.0000   1.0000   1.0000   1.0000
     1.0000   1.0000   1.0000   1.0000   1.0000   1.0000   1.0000   1.0000
     1.0000   1.0000   1.0000   1.0000   1.0000   1.0000   1.0000   1.0000
     1.0000   1.0000   1.0000   1.0000   1.0000   1.0000   1.0000   1.0000
     1.0000   1.0000   1.0000   1.0000   1.0000   1.0000   1.0000   1.0000
     1.0000   1.0000   1.0000   1.0000   1.0000   1.0000   1.0000   1.0000
     1.0000   1.0000   1.0000   1.0000   1.0000   1.0000   1.0000   1.0000
     1.0000   1.0000   1.0000   1.0000   1.0000   1.0000   1.0000   1.0000
     1.0000   1.0000   1.0000   1.0000   1.0000   1.0000   1.0000   1.0000
     1.0000   1.0000   1.0000   1.0000   1.0000   1.0000   1.0000   1.0000
     1.0000   1.0000   1.0000   1.0000   1.0000   1.0000   0.9999   0.9998
     0.9997   0.9997   0.9997   0.9996   0.9995   0.9994   0.9994   0.9994
     0.9989   0.9986   0.9984   0.9982   0.9943   0.9934   0.9931   0.9908
     0.9886   0.9874   0.9866   0.9842   0.9836   0.9827   0.9811   0.9770
     0.9760   0.9736   0.9707   0.9677   0.9614   0.9517   0.9486   0.9142
     0.8611   0.8586   0.8554   0.8413   0.8385   0.8331   0.8155   0.8081
     0.7850   0.7770   0.7442   0.7370   0.7031   0.6998   0.6843   0.6835
     0.6737   0.6711   0.6699   0.6676   0.6650   0.6579   0.6462   0.6454
     0.6093   0.6054   0.5969   0.5654   0.1360   0.1275   0.1176   0.0964
     0.0224   0.0144   0.0131   0.0076   0.0053   0.0033   0.0012   0.0009
     0.0005   0.0002   0.0000   0.0000   0.0000   0.0000   0.0000   0.0000
     0.0000   0.0000   0.0000   0.0000   0.0000   0.0000   0.0000   0.0000
     0.0000   0.0000   0.0000   0.0000   0.0000   0.0000

          k = 0.2500 0.2500 0.0000 ( 65198 PWs)   bands (ev):

   -92.2568 -92.1951 -92.1105 -92.0559 -91.9971 -91.9629 -91.9457 -91.8158
   -55.6097 -55.5807 -55.4688 -55.4582 -55.4469 -55.4448 -55.4020 -55.3804
   -55.3635 -55.3616 -55.3480 -55.3075 -55.2879 -55.2506 -55.2360 -55.1957
   -55.1904 -55.1523 -55.1491 -55.1458 -55.1406 -55.0885 -55.0768 -54.9843
   -30.8466 -30.8313 -30.8182 -30.7326 -30.6887 -30.6162 -30.6028 -30.5083
   -29.4116 -29.3704 -29.3438 -29.2356 -14.5833 -14.5603 -14.4772 -14.3591
   -14.2557 -14.1340 -14.0422 -13.8541 -13.6837 -13.6732 -13.6414 -13.6086
   -13.5910 -13.5758 -13.5584 -13.5262 -13.4153 -13.4013 -13.2392 -13.2284
   -13.1953 -13.1764 -13.1608 -13.1065 -13.0694 -13.0012 -12.9840 -12.9531
   -12.8046 -12.7619 -12.7157 -12.6838 -12.6705 -12.6247 -12.6069 -12.5808
   -12.5584 -12.5419 -12.5226 -12.5168 -12.4939 -12.4713 -12.4343 -12.4205
   -12.3144 -12.2852 -12.2305 -12.1116 -12.0236 -11.8498 -11.8237 -11.7839
   -11.3652 -11.3328 -11.3227 -11.3151 -11.2529 -11.2175 -11.2110 -11.1759
   -11.1683 -11.0766 -11.0344 -11.0168  -2.2363  -2.0231  -1.9074  -1.8154
    -1.6906  -1.6237  -1.4326  -1.2822  -1.2593  -1.2367  -1.1400  -1.1058
    -1.0152  -0.9892  -0.9390  -0.8051  -0.7594  -0.6886  -0.6413  -0.5990
    -0.5722  -0.5447  -0.5061  -0.4878  -0.3997  -0.3512  -0.2926  -0.2432
    -0.2154  -0.1581  -0.1488  -0.0880  -0.0355   0.0074   0.0561   0.1322
     0.1837   0.2152   0.2622   0.3120   0.3571   0.4084   0.4443   0.4864
     0.5383   0.8294   0.9693   1.0176   1.0498   1.0991   1.1288   1.1970
     1.2634   1.3062   1.5817   1.6639   1.7391   1.7678   1.8003   1.8449
     1.8788   1.9145   1.9336   1.9639   1.9898   2.0043   2.0326   2.0612
     2.1005   2.1448   2.1760   2.2046   2.2287   2.2471   2.2980   2.3352
     2.3698   2.5032   2.5855   2.6361   2.6702   2.7090   2.7839   2.8222
     2.8624   2.8766   2.8957   3.0043   3.0435   3.1319   3.3131   3.3311
     3.3383   3.3526   3.3645   3.3788   3.3918   3.4005   3.4086   3.4228
     3.4334   3.4545   3.4609   3.4711   3.4890   3.5072   3.5174   3.5475
     3.8506   3.9333   3.9672   4.0135   4.0337   4.2687   4.3922   4.7017
     4.8732   5.0729   5.1666   5.3697   5.5142   5.9474   5.9827   6.0716
     6.2240   6.2681   6.3043   6.3400   6.5314   6.5764   6.6157   7.0615
     7.2630   7.5944   7.6173   7.8559   7.9087   7.9713   8.0796   8.1174
     8.1428   8.1925   8.2348   8.3555   8.5419   8.7469

     occupation numbers 
     1.0000   1.0000   1.0000   1.0000   1.0000   1.0000   1.0000   1.0000
     1.0000   1.0000   1.0000   1.0000   1.0000   1.0000   1.0000   1.0000
     1.0000   1.0000   1.0000   1.0000   1.0000   1.0000   1.0000   1.0000
     1.0000   1.0000   1.0000   1.0000   1.0000   1.0000   1.0000   1.0000
     1.0000   1.0000   1.0000   1.0000   1.0000   1.0000   1.0000   1.0000
     1.0000   1.0000   1.0000   1.0000   1.0000   1.0000   1.0000   1.0000
     1.0000   1.0000   1.0000   1.0000   1.0000   1.0000   1.0000   1.0000
     1.0000   1.0000   1.0000   1.0000   1.0000   1.0000   1.0000   1.0000
     1.0000   1.0000   1.0000   1.0000   1.0000   1.0000   1.0000   1.0000
     1.0000   1.0000   1.0000   1.0000   1.0000   1.0000   1.0000   1.0000
     1.0000   1.0000   1.0000   1.0000   1.0000   1.0000   1.0000   1.0000
     1.0000   1.0000   1.0000   1.0000   1.0000   1.0000   1.0000   1.0000
     1.0000   1.0000   1.0000   1.0000   1.0000   1.0000   1.0000   1.0000
     1.0000   1.0000   1.0000   1.0000   1.0000   1.0000   1.0000   1.0000
     1.0000   1.0000   1.0000   1.0000   1.0000   1.0000   1.0000   1.0000
     1.0000   1.0000   1.0000   1.0000   1.0000   1.0000   1.0000   1.0000
     1.0000   1.0000   1.0000   1.0000   1.0000   1.0000   1.0000   1.0000
     1.0000   1.0000   1.0000   1.0000   1.0000   1.0000   1.0000   1.0000
     1.0000   1.0000   1.0000   1.0000   1.0000   1.0000   1.0000   1.0000
     1.0000   1.0000   1.0000   1.0000   1.0000   1.0000   1.0000   0.9999
     0.9999   0.9999   0.9994   0.9991   0.9987   0.9985   0.9983   0.9979
     0.9975   0.9971   0.9968   0.9963   0.9959   0.9956   0.9950   0.9944
     0.9934   0.9921   0.9910   0.9899   0.9889   0.9881   0.9855   0.9834
     0.9811   0.9699   0.9605   0.9537   0.9486   0.9422   0.9282   0.9201
     0.9108   0.9074   0.9026   0.8718   0.8592   0.8278   0.7506   0.7421
     0.7386   0.7317   0.7258   0.7187   0.7121   0.7077   0.7036   0.6963
     0.6907   0.6796   0.6762   0.6708   0.6610   0.6511   0.6455   0.6287
     0.4516   0.4035   0.3841   0.3582   0.3470   0.2289   0.1773   0.0830
     0.0505   0.0264   0.0190   0.0087   0.0048   0.0006   0.0005   0.0003
     0.0001   0.0001   0.0001   0.0001   0.0000   0.0000   0.0000   0.0000
     0.0000   0.0000   0.0000   0.0000   0.0000   0.0000   0.0000   0.0000
     0.0000   0.0000   0.0000   0.0000   0.0000   0.0000

          k = 0.2500-0.5000 0.0000 ( 65138 PWs)   bands (ev):

   -92.2568 -92.1951 -92.1105 -92.0559 -91.9971 -91.9629 -91.9457 -91.8158
   -55.6097 -55.5807 -55.4688 -55.4582 -55.4469 -55.4448 -55.4020 -55.3804
   -55.3635 -55.3616 -55.3480 -55.3075 -55.2879 -55.2506 -55.2360 -55.1957
   -55.1904 -55.1523 -55.1491 -55.1458 -55.1406 -55.0885 -55.0768 -54.9843
   -30.8464 -30.8311 -30.8178 -30.7329 -30.6889 -30.6159 -30.6029 -30.5086
   -29.4110 -29.3701 -29.3444 -29.2359 -14.5546 -14.5050 -14.4402 -14.3344
   -14.2942 -14.1716 -14.0970 -13.9706 -13.6443 -13.6087 -13.5747 -13.5549
   -13.5325 -13.5127 -13.4919 -13.4803 -13.4433 -13.4094 -13.3872 -13.3771
   -13.2350 -13.1906 -13.1813 -13.1211 -13.1055 -13.0415 -13.0327 -13.0096
   -12.7783 -12.7474 -12.7144 -12.6974 -12.6860 -12.6086 -12.5773 -12.5655
   -12.5497 -12.5326 -12.5228 -12.5108 -12.4900 -12.4795 -12.4476 -12.4393
   -12.2268 -12.1954 -12.1266 -12.0928 -11.9667 -11.8962 -11.8930 -11.8642
   -11.3404 -11.3287 -11.3176 -11.2903 -11.2589 -11.2304 -11.1899 -11.1615
   -11.1396 -11.0944 -11.0678 -11.0565  -2.0186  -1.9528  -1.8199  -1.7412
    -1.6169  -1.5329  -1.4072  -1.2543  -1.2044  -1.1804  -1.1171  -1.1029
    -1.0079  -0.9412  -0.8529  -0.8106  -0.8000  -0.7319  -0.6958  -0.6558
    -0.6103  -0.5752  -0.5388  -0.4979  -0.4891  -0.4424  -0.4155  -0.3755
    -0.3460  -0.2754  -0.1804  -0.1428  -0.0637  -0.0037   0.0399   0.0893
     0.1161   0.1508   0.3196   0.3277   0.4210   0.4651   0.4828   0.5278
     0.5485   0.5863   0.6222   0.7095   0.9457   1.0319   1.0759   1.1518
     1.4345   1.4611   1.5544   1.5817   1.7593   1.7864   1.8342   1.8604
     1.8809   1.9007   1.9564   1.9948   2.0389   2.1032   2.1768   2.2130
     2.2316   2.2682   2.2835   2.3124   2.3230   2.3529   2.3779   2.3967
     2.4135   2.4476   2.4843   2.5129   2.5734   2.6063   2.6797   2.8251
     2.9912   3.0035   3.0233   3.0467   3.0753   3.1024   3.1303   3.1400
     3.1597   3.2618   3.3074   3.3280   3.3329   3.3505   3.3716   3.3855
     3.4032   3.4104   3.4358   3.4495   3.4683   3.4765   3.4837   3.4971
     3.9851   4.0070   4.1822   4.2258   4.5293   4.5841   4.5906   4.7170
     5.1535   5.2906   5.3381   5.4646   5.5427   5.6644   5.7334   5.7868
     5.9923   6.0834   6.1294   6.1508   6.4982   6.5623   6.7548   6.8344
     6.9944   7.0414   7.9384   7.9730   8.0202   8.1368   8.1670   8.2487
     8.2885   8.3943   8.4075   8.4827   8.5570   8.5991

     occupation numbers 
     1.0000   1.0000   1.0000   1.0000   1.0000   1.0000   1.0000   1.0000
     1.0000   1.0000   1.0000   1.0000   1.0000   1.0000   1.0000   1.0000
     1.0000   1.0000   1.0000   1.0000   1.0000   1.0000   1.0000   1.0000
     1.0000   1.0000   1.0000   1.0000   1.0000   1.0000   1.0000   1.0000
     1.0000   1.0000   1.0000   1.0000   1.0000   1.0000   1.0000   1.0000
     1.0000   1.0000   1.0000   1.0000   1.0000   1.0000   1.0000   1.0000
     1.0000   1.0000   1.0000   1.0000   1.0000   1.0000   1.0000   1.0000
     1.0000   1.0000   1.0000   1.0000   1.0000   1.0000   1.0000   1.0000
     1.0000   1.0000   1.0000   1.0000   1.0000   1.0000   1.0000   1.0000
     1.0000   1.0000   1.0000   1.0000   1.0000   1.0000   1.0000   1.0000
     1.0000   1.0000   1.0000   1.0000   1.0000   1.0000   1.0000   1.0000
     1.0000   1.0000   1.0000   1.0000   1.0000   1.0000   1.0000   1.0000
     1.0000   1.0000   1.0000   1.0000   1.0000   1.0000   1.0000   1.0000
     1.0000   1.0000   1.0000   1.0000   1.0000   1.0000   1.0000   1.0000
     1.0000   1.0000   1.0000   1.0000   1.0000   1.0000   1.0000   1.0000
     1.0000   1.0000   1.0000   1.0000   1.0000   1.0000   1.0000   1.0000
     1.0000   1.0000   1.0000   1.0000   1.0000   1.0000   1.0000   1.0000
     1.0000   1.0000   1.0000   1.0000   1.0000   1.0000   1.0000   1.0000
     1.0000   1.0000   1.0000   1.0000   1.0000   1.0000   1.0000   1.0000
     1.0000   1.0000   1.0000   1.0000   1.0000   1.0000   1.0000   0.9999
     0.9997   0.9997   0.9995   0.9994   0.9986   0.9984   0.9980   0.9977
     0.9975   0.9972   0.9964   0.9958   0.9949   0.9933   0.9910   0.9896
     0.9888   0.9871   0.9863   0.9847   0.9841   0.9822   0.9805   0.9792
     0.9779   0.9751   0.9718   0.9689   0.9620   0.9578   0.9471   0.9194
     0.8759   0.8721   0.8658   0.8582   0.8484   0.8388   0.8284   0.8247
     0.8171   0.7742   0.7533   0.7436   0.7412   0.7327   0.7223   0.7153
     0.7063   0.7027   0.6895   0.6823   0.6723   0.6678   0.6639   0.6567
     0.3740   0.3617   0.2696   0.2486   0.1294   0.1130   0.1112   0.0796
     0.0199   0.0119   0.0099   0.0059   0.0042   0.0024   0.0018   0.0014
     0.0005   0.0003   0.0002   0.0002   0.0000   0.0000   0.0000   0.0000
     0.0000   0.0000   0.0000   0.0000   0.0000   0.0000   0.0000   0.0000
     0.0000   0.0000   0.0000   0.0000   0.0000   0.0000

          k =-0.5000-0.5000 0.0000 ( 65132 PWs)   bands (ev):

   -92.2568 -92.1951 -92.1105 -92.0559 -91.9971 -91.9629 -91.9457 -91.8158
   -55.6097 -55.5807 -55.4688 -55.4582 -55.4469 -55.4448 -55.4020 -55.3804
   -55.3635 -55.3616 -55.3480 -55.3075 -55.2879 -55.2506 -55.2360 -55.1957
   -55.1904 -55.1523 -55.1491 -55.1458 -55.1406 -55.0885 -55.0768 -54.9843
   -30.8442 -30.8334 -30.8177 -30.7328 -30.6885 -30.6160 -30.6033 -30.5087
   -29.4099 -29.3711 -29.3440 -29.2363 -14.5109 -14.4760 -14.3616 -14.3522
   -14.2678 -14.2170 -14.2017 -14.0685 -13.5619 -13.5489 -13.5103 -13.4972
   -13.4841 -13.4729 -13.4283 -13.4258 -13.4170 -13.4054 -13.3907 -13.3150
   -13.3029 -13.2938 -13.2879 -13.2366 -13.2097 -13.1335 -13.0986 -13.0769
   -12.7321 -12.7290 -12.6697 -12.6604 -12.6181 -12.5988 -12.5703 -12.5611
   -12.5526 -12.5454 -12.5311 -12.5290 -12.5160 -12.4979 -12.4654 -12.4494
   -12.1767 -12.1690 -12.1095 -12.1072 -11.9372 -11.8935 -11.8900 -11.8667
   -11.3366 -11.3245 -11.3069 -11.2900 -11.2559 -11.2380 -11.2030 -11.1420
   -11.1215 -11.1162 -11.0655 -11.0625  -1.7975  -1.7184  -1.7094  -1.6361
    -1.5952  -1.5170  -1.4493  -1.3252  -1.2040  -1.1749  -1.1378  -1.0782
    -1.0065  -0.9944  -0.9201  -0.8786  -0.7654  -0.7410  -0.6921  -0.6524
    -0.5899  -0.5505  -0.5298  -0.5201  -0.4705  -0.4156  -0.4082  -0.2933
    -0.2368  -0.1892  -0.1397  -0.1236  -0.1105  -0.0688  -0.0349  -0.0027
     0.0172   0.1029   0.1642   0.2265   0.2354   0.3178   0.3563   0.3667
     0.4271   0.4349   0.4646   0.4685   0.9056   0.9432   1.0221   1.0368
     1.4689   1.4813   1.5145   1.5540   1.8382   1.8578   1.8648   1.9001
     2.0459   2.1429   2.1658   2.1869   2.2029   2.2168   2.2401   2.2703
     2.2795   2.2838   2.2963   2.3601   2.3771   2.3815   2.3910   2.4172
     2.4253   2.4738   2.4956   2.5178   2.5564   2.5700   2.6617   2.7264
     3.0025   3.0369   3.0528   3.0774   3.0791   3.1124   3.1165   3.1343
     3.1497   3.1643   3.1852   3.1995   3.2625   3.2678   3.2875   3.3008
     3.3101   3.3286   3.3365   3.3455   3.4435   3.4481   3.4786   3.4882
     4.3945   4.4284   4.4358   4.4594   4.7574   4.8237   4.8597   5.0986
     5.2198   5.3045   5.4083   5.4386   5.4591   5.5856   5.5946   5.6759
     5.8860   5.9219   5.9897   6.0278   6.2094   6.2466   6.3308   6.3591
     7.3327   7.3802   7.3899   7.4355   8.3450   8.3634   8.3946   8.4412
     8.5764   8.6091   8.6803   8.6983   8.8378   8.8648

     occupation numbers 
     1.0000   1.0000   1.0000   1.0000   1.0000   1.0000   1.0000   1.0000
     1.0000   1.0000   1.0000   1.0000   1.0000   1.0000   1.0000   1.0000
     1.0000   1.0000   1.0000   1.0000   1.0000   1.0000   1.0000   1.0000
     1.0000   1.0000   1.0000   1.0000   1.0000   1.0000   1.0000   1.0000
     1.0000   1.0000   1.0000   1.0000   1.0000   1.0000   1.0000   1.0000
     1.0000   1.0000   1.0000   1.0000   1.0000   1.0000   1.0000   1.0000
     1.0000   1.0000   1.0000   1.0000   1.0000   1.0000   1.0000   1.0000
     1.0000   1.0000   1.0000   1.0000   1.0000   1.0000   1.0000   1.0000
     1.0000   1.0000   1.0000   1.0000   1.0000   1.0000   1.0000   1.0000
     1.0000   1.0000   1.0000   1.0000   1.0000   1.0000   1.0000   1.0000
     1.0000   1.0000   1.0000   1.0000   1.0000   1.0000   1.0000   1.0000
     1.0000   1.0000   1.0000   1.0000   1.0000   1.0000   1.0000   1.0000
     1.0000   1.0000   1.0000   1.0000   1.0000   1.0000   1.0000   1.0000
     1.0000   1.0000   1.0000   1.0000   1.0000   1.0000   1.0000   1.0000
     1.0000   1.0000   1.0000   1.0000   1.0000   1.0000   1.0000   1.0000
     1.0000   1.0000   1.0000   1.0000   1.0000   1.0000   1.0000   1.0000
     1.0000   1.0000   1.0000   1.0000   1.0000   1.0000   1.0000   1.0000
     1.0000   1.0000   1.0000   1.0000   1.0000   1.0000   1.0000   1.0000
     1.0000   1.0000   1.0000   1.0000   1.0000   1.0000   1.0000   1.0000
     1.0000   1.0000   1.0000   1.0000   1.0000   1.0000   1.0000   1.0000
     0.9997   0.9997   0.9996   0.9995   0.9979   0.9977   0.9977   0.9972
     0.9947   0.9921   0.9913   0.9906   0.9900   0.9894   0.9884   0.9870
     0.9865   0.9863   0.9856   0.9818   0.9806   0.9803   0.9796   0.9776
     0.9770   0.9727   0.9707   0.9684   0.9641   0.9625   0.9499   0.9392
     0.8724   0.8614   0.8561   0.8477   0.8471   0.8351   0.8336   0.8269
     0.8210   0.8153   0.8069   0.8010   0.7739   0.7715   0.7626   0.7564
     0.7521   0.7433   0.7395   0.7352   0.6854   0.6830   0.6667   0.6615
     0.1764   0.1637   0.1610   0.1526   0.0710   0.0586   0.0526   0.0241
     0.0156   0.0113   0.0075   0.0066   0.0060   0.0035   0.0034   0.0023
     0.0008   0.0007   0.0005   0.0004   0.0001   0.0001   0.0001   0.0001
     0.0000   0.0000   0.0000   0.0000   0.0000   0.0000   0.0000   0.0000
     0.0000   0.0000   0.0000   0.0000   0.0000   0.0000

          k = 0.2500 0.0000 0.0000 ( 65257 PWs)   bands (ev):

   -92.2568 -92.1952 -92.1105 -92.0559 -91.9971 -91.9629 -91.9457 -91.8158
   -55.6097 -55.5807 -55.4688 -55.4582 -55.4469 -55.4448 -55.4020 -55.3804
   -55.3635 -55.3616 -55.3480 -55.3075 -55.2879 -55.2506 -55.2360 -55.1957
   -55.1904 -55.1523 -55.1491 -55.1458 -55.1406 -55.0885 -55.0768 -54.9843
   -30.8468 -30.8314 -30.8185 -30.7322 -30.6885 -30.6165 -30.6026 -30.5080
   -29.4122 -29.3707 -29.3432 -29.2352 -14.6115 -14.5957 -14.5100 -14.3613
   -14.2749 -14.0839 -13.9283 -13.7646 -13.7364 -13.7080 -13.6810 -13.6524
   -13.6302 -13.6149 -13.5995 -13.5823 -13.4121 -13.3866 -13.2276 -13.1893
   -13.1747 -13.1080 -13.0818 -13.0575 -13.0240 -12.9322 -12.8938 -12.8856
   -12.8411 -12.8205 -12.7327 -12.6714 -12.6467 -12.6310 -12.6134 -12.6083
   -12.5938 -12.5625 -12.5445 -12.5129 -12.5027 -12.4456 -12.4196 -12.3939
   -12.3906 -12.3425 -12.3188 -12.2380 -11.9772 -11.8218 -11.7904 -11.7342
   -11.3924 -11.3393 -11.3226 -11.3095 -11.2829 -11.2316 -11.2089 -11.2006
   -11.1504 -11.0618 -11.0045 -10.9984  -2.3734  -2.1479  -2.0190  -1.8474
    -1.7839  -1.6099  -1.4085  -1.3264  -1.2784  -1.2505  -1.1490  -1.1365
    -1.1014  -1.0820  -1.0165  -0.8336  -0.7290  -0.6805  -0.5888  -0.5837
    -0.4925  -0.4680  -0.4240  -0.3822  -0.3277  -0.3061  -0.2521  -0.2250
    -0.2111  -0.1541  -0.1430  -0.0489  -0.0351   0.0112   0.1060   0.1564
     0.2685   0.3133   0.3414   0.3818   0.4365   0.4734   0.5250   0.5756
     0.6425   0.9085   1.0425   1.0653   1.1478   1.1592   1.2069   1.2352
     1.3400   1.4434   1.4886   1.5074   1.5564   1.6878   1.7280   1.7588
     1.7715   1.8187   1.8637   1.9011   1.9488   1.9822   2.0289   2.0437
     2.0833   2.1172   2.1701   2.1976   2.2597   2.2766   2.2959   2.3359
     2.3859   2.4817   2.5958   2.6317   2.7062   2.7364   2.8048   2.8611
     2.9072   2.9670   2.9799   2.9850   3.0461   3.1659   3.2951   3.3189
     3.3447   3.3708   3.3824   3.4001   3.4163   3.4279   3.4436   3.4550
     3.4743   3.4828   3.4974   3.5116   3.5266   3.5560   3.5597   3.5683
     3.5751   3.5859   3.5957   3.7124   3.9752   4.0072   4.3142   4.6569
     4.8364   4.9799   5.0942   5.3458   5.4775   5.8925   6.0721   6.2710
     6.3770   6.4604   6.4750   6.5403   6.6057   6.7487   6.9442   7.2274
     7.4673   7.4957   7.5833   7.7428   7.8095   7.8279   7.9131   7.9423
     8.0089   8.0437   8.0773   8.4652   8.5118   8.6060

     occupation numbers 
     1.0000   1.0000   1.0000   1.0000   1.0000   1.0000   1.0000   1.0000
     1.0000   1.0000   1.0000   1.0000   1.0000   1.0000   1.0000   1.0000
[...]
     0.9800   0.9720   0.9592   0.9543   0.9427   0.9373   0.9238   0.9111
     0.8996   0.8831   0.8793   0.8777   0.8584   0.8147   0.7590   0.7479
     0.7356   0.7227   0.7169   0.7079   0.6996   0.6936   0.6854   0.6794
     0.6690   0.6644   0.6565   0.6487   0.6404   0.6239   0.6219   0.6170
     0.6132   0.6070   0.6014   0.5334   0.3795   0.3616   0.2090   0.0936
     0.0564   0.0361   0.0245   0.0096   0.0056   0.0008   0.0003   0.0001
     0.0001   0.0000   0.0000   0.0000   0.0000   0.0000   0.0000   0.0000
     0.0000   0.0000   0.0000   0.0000   0.0000   0.0000   0.0000   0.0000
     0.0000   0.0000   0.0000   0.0000   0.0000   0.0000

          k =-0.5000 0.0000 0.0000 ( 65180 PWs)   bands (ev):

   -92.2568 -92.1951 -92.1105 -92.0559 -91.9971 -91.9629 -91.9457 -91.8158
   -55.6097 -55.5807 -55.4688 -55.4582 -55.4469 -55.4448 -55.4020 -55.3804
   -55.3635 -55.3616 -55.3480 -55.3075 -55.2879 -55.2506 -55.2360 -55.1957
   -55.1904 -55.1523 -55.1491 -55.1458 -55.1406 -55.0885 -55.0768 -54.9843
   -30.8445 -30.8337 -30.8183 -30.7321 -30.6881 -30.6166 -30.6030 -30.5081
   -29.4112 -29.3717 -29.3428 -29.2357 -14.5840 -14.5416 -14.4766 -14.3787
   -14.2600 -14.1173 -13.9891 -13.8564 -13.7244 -13.6944 -13.6711 -13.6455
   -13.5666 -13.5343 -13.5091 -13.4937 -13.4785 -13.4237 -13.4085 -13.3544
   -13.1284 -13.1203 -13.0641 -13.0617 -13.0524 -12.9821 -12.9319 -12.8735
   -12.8413 -12.8184 -12.8138 -12.7236 -12.6517 -12.6256 -12.6136 -12.6084
   -12.5842 -12.5484 -12.5277 -12.5023 -12.4886 -12.4503 -12.4154 -12.3880
   -12.2111 -12.2021 -12.1748 -12.1122 -12.0268 -11.8999 -11.8872 -11.8525
   -11.3435 -11.3231 -11.3157 -11.3007 -11.2831 -11.2421 -11.1780 -11.1608
   -11.1292 -11.0837 -11.0740 -11.0578  -2.1493  -2.1092  -1.9427  -1.9042
    -1.5960  -1.5208  -1.3680  -1.2504  -1.2120  -1.1671  -1.1172  -1.0891
    -0.9708  -0.9235  -0.9135  -0.8288  -0.7926  -0.7840  -0.7437  -0.6947
    -0.6224  -0.5877  -0.5698  -0.4774  -0.4212  -0.3753  -0.3412  -0.3194
    -0.2933  -0.2419  -0.2195  -0.1850  -0.0957  -0.0233   0.0370   0.1044
     0.2358   0.2920   0.3758   0.3815   0.4285   0.4808   0.5904   0.6359
     0.6686   0.8756   0.9719   1.0129   1.0579   1.1126   1.2715   1.2835
     1.4164   1.4554   1.5040   1.5217   1.5676   1.5849   1.6279   1.6577
     1.7154   1.7596   1.8080   1.8172   2.0953   2.1014   2.1061   2.1376
     2.2535   2.2715   2.2793   2.3007   2.3340   2.3472   2.3729   2.4022
     2.4368   2.5046   2.5143   2.5650   2.5656   2.6497   2.7308   2.8338
     2.9313   2.9485   3.0294   3.0672   3.0869   3.1515   3.1619   3.1759
     3.2029   3.2693   3.3151   3.3529   3.3880   3.4332   3.4403   3.4430
     3.4546   3.4665   3.4797   3.4955   3.4976   3.5169   3.5258   3.5477
     3.5693   3.5731   3.6950   3.7025   4.4533   4.5228   4.5840   4.6785
     5.1727   5.2079   5.3070   5.3546   5.4709   5.5571   5.8278   5.9078
     6.0387   6.1082   6.4456   6.4534   6.8607   6.9058   6.9990   7.1714
     7.2427   7.3171   7.4755   7.5257   7.6511   7.7958   8.1517   8.2407
     8.2671   8.3864   8.4238   8.4634   8.7556   8.7818

     occupation numbers 
     1.0000   1.0000   1.0000   1.0000   1.0000   1.0000   1.0000   1.0000
     1.0000   1.0000   1.0000   1.0000   1.0000   1.0000   1.0000   1.0000
     1.0000   1.0000   1.0000   1.0000   1.0000   1.0000   1.0000   1.0000
     1.0000   1.0000   1.0000   1.0000   1.0000   1.0000   1.0000   1.0000
     1.0000   1.0000   1.0000   1.0000   1.0000   1.0000   1.0000   1.0000
     1.0000   1.0000   1.0000   1.0000   1.0000   1.0000   1.0000   1.0000
     1.0000   1.0000   1.0000   1.0000   1.0000   1.0000   1.0000   1.0000
     1.0000   1.0000   1.0000   1.0000   1.0000   1.0000   1.0000   1.0000
     1.0000   1.0000   1.0000   1.0000   1.0000   1.0000   1.0000   1.0000
     1.0000   1.0000   1.0000   1.0000   1.0000   1.0000   1.0000   1.0000
     1.0000   1.0000   1.0000   1.0000   1.0000   1.0000   1.0000   1.0000
     1.0000   1.0000   1.0000   1.0000   1.0000   1.0000   1.0000   1.0000
     1.0000   1.0000   1.0000   1.0000   1.0000   1.0000   1.0000   1.0000
     1.0000   1.0000   1.0000   1.0000   1.0000   1.0000   1.0000   1.0000
     1.0000   1.0000   1.0000   1.0000   1.0000   1.0000   1.0000   1.0000
     1.0000   1.0000   1.0000   1.0000   1.0000   1.0000   1.0000   1.0000
     1.0000   1.0000   1.0000   1.0000   1.0000   1.0000   1.0000   1.0000
     1.0000   1.0000   1.0000   1.0000   1.0000   1.0000   1.0000   1.0000
     1.0000   1.0000   1.0000   1.0000   1.0000   1.0000   1.0000   1.0000
     1.0000   1.0000   1.0000   1.0000   1.0000   1.0000   0.9999   0.9999
     0.9998   0.9997   0.9996   0.9996   0.9995   0.9994   0.9993   0.9991
     0.9989   0.9986   0.9982   0.9981   0.9935   0.9934   0.9932   0.9923
     0.9878   0.9869   0.9865   0.9854   0.9834   0.9826   0.9809   0.9788
     0.9760   0.9697   0.9687   0.9631   0.9630   0.9517   0.9384   0.9175
     0.8932   0.8884   0.8639   0.8512   0.8443   0.8203   0.8162   0.8106
     0.7996   0.7708   0.7497   0.7315   0.7141   0.6908   0.6871   0.6857
     0.6795   0.6732   0.6661   0.6575   0.6564   0.6458   0.6409   0.6286
     0.6164   0.6143   0.5436   0.5392   0.1547   0.1314   0.1130   0.0884
     0.0185   0.0163   0.0112   0.0093   0.0057   0.0040   0.0011   0.0007
     0.0004   0.0003   0.0000   0.0000   0.0000   0.0000   0.0000   0.0000
     0.0000   0.0000   0.0000   0.0000   0.0000   0.0000   0.0000   0.0000
     0.0000   0.0000   0.0000   0.0000   0.0000   0.0000

          k =-0.2500 0.2500 0.0000 ( 65198 PWs)   bands (ev):

   -92.2568 -92.1951 -92.1105 -92.0559 -91.9971 -91.9629 -91.9457 -91.8158
   -55.6097 -55.5807 -55.4688 -55.4582 -55.4469 -55.4448 -55.4020 -55.3804
   -55.3635 -55.3616 -55.3480 -55.3075 -55.2879 -55.2506 -55.2360 -55.1957
   -55.1904 -55.1523 -55.1491 -55.1458 -55.1406 -55.0885 -55.0768 -54.9843
   -30.8466 -30.8313 -30.8182 -30.7326 -30.6887 -30.6162 -30.6028 -30.5083
   -29.4116 -29.3704 -29.3438 -29.2356 -14.5850 -14.5589 -14.4758 -14.3560
   -14.2635 -14.1376 -14.0339 -13.8463 -13.6932 -13.6604 -13.6536 -13.6053
   -13.5839 -13.5756 -13.5707 -13.5319 -13.4125 -13.4019 -13.2448 -13.2257
   -13.1983 -13.1785 -13.1550 -13.0949 -13.0555 -13.0114 -12.9875 -12.9619
   -12.7975 -12.7554 -12.7193 -12.6819 -12.6622 -12.6279 -12.6107 -12.5775
   -12.5636 -12.5509 -12.5291 -12.5067 -12.4984 -12.4750 -12.4374 -12.4121
   -12.3414 -12.2632 -12.2141 -12.1274 -12.0133 -11.8556 -11.8257 -11.7808
   -11.3645 -11.3424 -11.3154 -11.3028 -11.2627 -11.2273 -11.2047 -11.1829
   -11.1605 -11.0763 -11.0297 -11.0202  -2.2346  -2.0221  -1.9027  -1.8178
    -1.6948  -1.6262  -1.4303  -1.2786  -1.2573  -1.2345  -1.1405  -1.1046
    -1.0150  -0.9826  -0.9569  -0.8103  -0.7572  -0.6918  -0.6612  -0.6035
    -0.5774  -0.5359  -0.5061  -0.4672  -0.4065  -0.3613  -0.3042  -0.2337
    -0.2121  -0.1550  -0.1266  -0.0834  -0.0286   0.0068   0.0622   0.1506
     0.1853   0.1934   0.2487   0.3089   0.3618   0.4140   0.4416   0.4899
     0.5366   0.8119   0.9695   1.0229   1.0530   1.1026   1.1231   1.1986
     1.2715   1.3032   1.5885   1.7162   1.7527   1.7790   1.7969   1.8358
     1.8565   1.8971   1.9270   1.9485   1.9748   2.0034   2.0146   2.0637
     2.0829   2.1232   2.1764   2.2059   2.2249   2.2497   2.2975   2.3236
     2.3659   2.4941   2.6146   2.6616   2.6944   2.7239   2.7830   2.8353
     2.8608   2.8818   2.9052   3.0056   3.0421   3.1327   3.3198   3.3287
     3.3420   3.3535   3.3629   3.3749   3.3812   3.3985   3.4056   3.4248
     3.4338   3.4478   3.4562   3.4605   3.4910   3.5060   3.5165   3.5493
     3.8434   3.9202   3.9699   4.0069   4.0500   4.2525   4.4001   4.7008
     4.8727   5.0702   5.1685   5.3804   5.5138   5.9476   5.9818   6.0753
     6.2269   6.2667   6.2993   6.3412   6.5382   6.5677   6.6141   7.0637
     7.2653   7.5993   7.6113   7.8621   7.9101   7.9964   8.0442   8.0776
     8.1548   8.1936   8.2475   8.3781   8.5397   8.7446

     occupation numbers 
     1.0000   1.0000   1.0000   1.0000   1.0000   1.0000   1.0000   1.0000
     1.0000   1.0000   1.0000   1.0000   1.0000   1.0000   1.0000   1.0000
     1.0000   1.0000   1.0000   1.0000   1.0000   1.0000   1.0000   1.0000
     1.0000   1.0000   1.0000   1.0000   1.0000   1.0000   1.0000   1.0000
     1.0000   1.0000   1.0000   1.0000   1.0000   1.0000   1.0000   1.0000
     1.0000   1.0000   1.0000   1.0000   1.0000   1.0000   1.0000   1.0000
     1.0000   1.0000   1.0000   1.0000   1.0000   1.0000   1.0000   1.0000
     1.0000   1.0000   1.0000   1.0000   1.0000   1.0000   1.0000   1.0000
     1.0000   1.0000   1.0000   1.0000   1.0000   1.0000   1.0000   1.0000
     1.0000   1.0000   1.0000   1.0000   1.0000   1.0000   1.0000   1.0000
     1.0000   1.0000   1.0000   1.0000   1.0000   1.0000   1.0000   1.0000
     1.0000   1.0000   1.0000   1.0000   1.0000   1.0000   1.0000   1.0000
     1.0000   1.0000   1.0000   1.0000   1.0000   1.0000   1.0000   1.0000
     1.0000   1.0000   1.0000   1.0000   1.0000   1.0000   1.0000   1.0000
     1.0000   1.0000   1.0000   1.0000   1.0000   1.0000   1.0000   1.0000
     1.0000   1.0000   1.0000   1.0000   1.0000   1.0000   1.0000   1.0000
     1.0000   1.0000   1.0000   1.0000   1.0000   1.0000   1.0000   1.0000
     1.0000   1.0000   1.0000   1.0000   1.0000   1.0000   1.0000   1.0000
     1.0000   1.0000   1.0000   1.0000   1.0000   1.0000   1.0000   1.0000
     1.0000   1.0000   1.0000   1.0000   1.0000   1.0000   1.0000   0.9999
     0.9999   0.9999   0.9994   0.9988   0.9986   0.9984   0.9983   0.9979
     0.9977   0.9973   0.9969   0.9966   0.9961   0.9956   0.9954   0.9943
     0.9938   0.9927   0.9910   0.9898   0.9891   0.9880   0.9855   0.9841
     0.9814   0.9708   0.9567   0.9499   0.9447   0.9396   0.9284   0.9171
     0.9112   0.9061   0.9001   0.8714   0.8597   0.8275   0.7475   0.7433
     0.7369   0.7312   0.7266   0.7206   0.7175   0.7087   0.7051   0.6952
     0.6905   0.6832   0.6787   0.6764   0.6600   0.6518   0.6460   0.6277
     0.4559   0.4110   0.3826   0.3618   0.3381   0.2363   0.1742   0.0832
     0.0506   0.0266   0.0188   0.0084   0.0048   0.0006   0.0005   0.0003
     0.0001   0.0001   0.0001   0.0001   0.0000   0.0000   0.0000   0.0000
     0.0000   0.0000   0.0000   0.0000   0.0000   0.0000   0.0000   0.0000
     0.0000   0.0000   0.0000   0.0000   0.0000   0.0000

          k =-0.5000 0.2500 0.0000 ( 65138 PWs)   bands (ev):

   -92.2568 -92.1951 -92.1105 -92.0559 -91.9971 -91.9629 -91.9457 -91.8158
   -55.6097 -55.5807 -55.4688 -55.4582 -55.4469 -55.4448 -55.4020 -55.3804
   -55.3635 -55.3616 -55.3480 -55.3075 -55.2879 -55.2506 -55.2360 -55.1957
   -55.1904 -55.1523 -55.1491 -55.1458 -55.1406 -55.0885 -55.0768 -54.9843
   -30.8443 -30.8336 -30.8180 -30.7324 -30.6883 -30.6163 -30.6031 -30.5084
   -29.4106 -29.3714 -29.3434 -29.2360 -14.5532 -14.5132 -14.4339 -14.3428
   -14.2912 -14.1629 -14.0918 -13.9664 -13.6456 -13.6109 -13.5977 -13.5573
   -13.5484 -13.5063 -13.4915 -13.4737 -13.4591 -13.4207 -13.3883 -13.3326
   -13.2097 -13.1948 -13.1554 -13.1465 -13.1376 -13.0403 -13.0379 -12.9831
   -12.7733 -12.7536 -12.7311 -12.6735 -12.6490 -12.6295 -12.5970 -12.5863
   -12.5560 -12.5426 -12.5295 -12.5113 -12.5013 -12.4783 -12.4321 -12.4183
   -12.1936 -12.1862 -12.1382 -12.1106 -11.9860 -11.8953 -11.8840 -11.8605
   -11.3365 -11.3240 -11.3099 -11.2983 -11.2771 -11.2468 -11.1659 -11.1569
   -11.1339 -11.0981 -11.0695 -11.0602  -2.0082  -1.9645  -1.8129  -1.7717
    -1.6153  -1.5399  -1.3923  -1.2571  -1.2014  -1.1728  -1.1332  -1.0919
    -1.0141  -0.9000  -0.8433  -0.8195  -0.7960  -0.7262  -0.6892  -0.6572
    -0.6326  -0.5739  -0.5498  -0.5054  -0.4696  -0.4416  -0.3861  -0.3621
    -0.3186  -0.2862  -0.1836  -0.1582  -0.0816  -0.0130   0.0189   0.0745
     0.1612   0.1889   0.2949   0.3168   0.3803   0.4160   0.4430   0.5361
     0.5618   0.5962   0.6659   0.6984   0.9822   1.0270   1.0837   1.0941
     1.4212   1.4737   1.5570   1.5803   1.7683   1.8075   1.8445   1.8630
     1.8812   1.8997   1.9672   2.0053   2.0384   2.0655   2.1530   2.1996
     2.2459   2.2606   2.2828   2.3211   2.3304   2.3495   2.3725   2.3954
     2.4458   2.4817   2.5063   2.5224   2.5444   2.6232   2.7312   2.8419
     2.8739   2.9462   2.9933   3.0454   3.0854   3.0974   3.1268   3.1626
     3.1860   3.2689   3.3111   3.3239   3.3351   3.3548   3.3782   3.3915
     3.4051   3.4177   3.4350   3.4481   3.4619   3.4696   3.4783   3.4904
     4.0028   4.0276   4.2081   4.2310   4.4743   4.5431   4.5993   4.7915
     5.2012   5.2502   5.3549   5.3838   5.5583   5.6355   5.7801   5.8330
     5.9924   6.0384   6.1020   6.1666   6.5162   6.5494   6.7686   6.8267
     6.9937   7.0403   7.9267   7.9775   8.0596   8.1154   8.1361   8.2572
     8.3074   8.3767   8.4386   8.4891   8.5447   8.5944

     occupation numbers 
     1.0000   1.0000   1.0000   1.0000   1.0000   1.0000   1.0000   1.0000
     1.0000   1.0000   1.0000   1.0000   1.0000   1.0000   1.0000   1.0000
     1.0000   1.0000   1.0000   1.0000   1.0000   1.0000   1.0000   1.0000
     1.0000   1.0000   1.0000   1.0000   1.0000   1.0000   1.0000   1.0000
     1.0000   1.0000   1.0000   1.0000   1.0000   1.0000   1.0000   1.0000
     1.0000   1.0000   1.0000   1.0000   1.0000   1.0000   1.0000   1.0000
     1.0000   1.0000   1.0000   1.0000   1.0000   1.0000   1.0000   1.0000
     1.0000   1.0000   1.0000   1.0000   1.0000   1.0000   1.0000   1.0000
     1.0000   1.0000   1.0000   1.0000   1.0000   1.0000   1.0000   1.0000
     1.0000   1.0000   1.0000   1.0000   1.0000   1.0000   1.0000   1.0000
     1.0000   1.0000   1.0000   1.0000   1.0000   1.0000   1.0000   1.0000
     1.0000   1.0000   1.0000   1.0000   1.0000   1.0000   1.0000   1.0000
     1.0000   1.0000   1.0000   1.0000   1.0000   1.0000   1.0000   1.0000
     1.0000   1.0000   1.0000   1.0000   1.0000   1.0000   1.0000   1.0000
     1.0000   1.0000   1.0000   1.0000   1.0000   1.0000   1.0000   1.0000
     1.0000   1.0000   1.0000   1.0000   1.0000   1.0000   1.0000   1.0000
     1.0000   1.0000   1.0000   1.0000   1.0000   1.0000   1.0000   1.0000
     1.0000   1.0000   1.0000   1.0000   1.0000   1.0000   1.0000   1.0000
     1.0000   1.0000   1.0000   1.0000   1.0000   1.0000   1.0000   1.0000
     1.0000   1.0000   1.0000   1.0000   1.0000   1.0000   1.0000   1.0000
     0.9998   0.9997   0.9995   0.9994   0.9985   0.9982   0.9979   0.9977
     0.9975   0.9972   0.9963   0.9956   0.9949   0.9943   0.9918   0.9901
     0.9881   0.9874   0.9863   0.9842   0.9836   0.9825   0.9809   0.9793
     0.9753   0.9720   0.9696   0.9679   0.9655   0.9555   0.9383   0.9156
     0.9080   0.8890   0.8752   0.8586   0.8449   0.8406   0.8298   0.8159
     0.8066   0.7710   0.7516   0.7455   0.7402   0.7306   0.7190   0.7123
     0.7054   0.6989   0.6899   0.6830   0.6757   0.6716   0.6668   0.6603
     0.3641   0.3504   0.2570   0.2462   0.1474   0.1251   0.1087   0.0644
     0.0167   0.0139   0.0093   0.0082   0.0039   0.0028   0.0014   0.0011
     0.0005   0.0004   0.0003   0.0002   0.0000   0.0000   0.0000   0.0000
     0.0000   0.0000   0.0000   0.0000   0.0000   0.0000   0.0000   0.0000
     0.0000   0.0000   0.0000   0.0000   0.0000   0.0000

     the Fermi energy is     3.7687 ev

!    total energy              =   -4398.87714791 Ry
     estimated scf accuracy    <          6.1E-09 Ry
     smearing contrib. (-TS)   =      -1.11569121 Ry
     internal energy E=F+TS    =   -4397.76145670 Ry

     The total energy is F=E-TS. E is the sum of the following terms:
     one-electron contribution =  -21346.23810893 Ry
     hartree contribution      =   10807.28690432 Ry
     xc contribution           =    -686.21858271 Ry
     ewald contribution        =    7094.04941278 Ry
     one-center paw contrib.   =    -266.64108217 Ry
      -> PAW hartree energy AE =       0.00000000 Ry
      -> PAW hartree energy PS =       0.00000000 Ry
      -> PAW xc energy AE      =       0.00000000 Ry
      -> PAW xc energy PS      =       0.00000000 Ry
      -> total E_H with PAW    =   10807.28690432 Ry
      -> total E_XC with PAW   =    -686.21858271 Ry

     convergence has been achieved in  47 iterations

     Writing all to output data dir /bsuhome/zayahcortright/scratch/pwscf.save/
 
     init_run     :      7.91s CPU      8.85s WALL (       1 calls)
     electrons    :    678.95s CPU    711.54s WALL (       1 calls)

     Called by init_run:
     wfcinit      :      6.08s CPU      6.35s WALL (       1 calls)
     wfcinit:atom :      0.04s CPU      0.06s WALL (       5 calls)
     wfcinit:wfcr :      5.77s CPU      5.95s WALL (       5 calls)
     potinit      :      0.27s CPU      0.34s WALL (       1 calls)
     hinit0       :      0.31s CPU      0.62s WALL (       1 calls)

     Called by electrons:
     c_bands      :    540.04s CPU    546.66s WALL (      47 calls)
     sum_band     :    103.92s CPU    118.03s WALL (      47 calls)
     v_of_rho     :      5.39s CPU      5.53s WALL (      48 calls)
     v_h          :      0.46s CPU      0.46s WALL (      48 calls)
     v_xc         :      4.93s CPU      5.07s WALL (      48 calls)
     newd         :     15.47s CPU     26.37s WALL (      48 calls)
     PAW_pot      :      1.66s CPU      1.67s WALL (      48 calls)
     mix_rho      :     12.27s CPU     12.65s WALL (      47 calls)

     Called by c_bands:
     init_us_2    :      6.37s CPU      6.47s WALL (     475 calls)
     init_us_2:cp :      6.37s CPU      6.46s WALL (     475 calls)
     cegterg      :    511.65s CPU    517.98s WALL (     235 calls)

     Called by sum_band:
     sum_band:wei :      0.33s CPU      0.33s WALL (      47 calls)
     sum_band:loo :     87.26s CPU     87.98s WALL (      47 calls)
     sum_band:buf :      1.37s CPU      1.44s WALL (     235 calls)
     sum_band:ini :      2.95s CPU      2.96s WALL (     235 calls)
     sum_band:cal :     18.34s CPU     18.40s WALL (     235 calls)
     sum_band:bec :      0.51s CPU      0.52s WALL (     235 calls)
     addusdens    :     15.07s CPU     28.41s WALL (      47 calls)
                                        0.00s GPU  (      47 calls)
     addusd:skk   :      0.28s CPU      0.90s WALL (     141 calls)
                                        0.00s GPU  (     141 calls)

     Called by *egterg:
     cdiaghg      :     52.67s CPU     52.92s WALL (    1327 calls)
     cegterg:over :     37.54s CPU     37.72s WALL (    1092 calls)
     cegterg:upda :     27.97s CPU     28.52s WALL (    1092 calls)
     cegterg:last :     56.86s CPU     57.07s WALL (     430 calls)
     cdiaghg:chol :      3.14s CPU      3.18s WALL (    1327 calls)
     cdiaghg:inve :      3.21s CPU      3.23s WALL (    1327 calls)
     cdiaghg:para :      6.77s CPU      6.81s WALL (    2654 calls)
     h_psi        :    283.35s CPU    286.46s WALL (    1332 calls)
     s_psi        :     38.80s CPU     38.91s WALL (    1332 calls)
     g_psi        :      1.05s CPU      1.06s WALL (    1092 calls)

     Called by h_psi:
     h_psi:calbec :     43.15s CPU     43.42s WALL (    1332 calls)
     vloc_psi     :    199.05s CPU    201.07s WALL (    1332 calls)
     add_vuspsi   :     38.48s CPU     38.67s WALL (    1332 calls)

     General routines
     calbec       :     61.48s CPU     61.82s WALL (    1567 calls)
     fft          :      3.54s CPU      3.70s WALL (     622 calls)
     ffts         :      4.34s CPU      4.43s WALL (    5009 calls)
     fftw         :    169.27s CPU    170.72s WALL (  313900 calls)
     interpolate  :      0.40s CPU      0.45s WALL (      48 calls)
 
     Parallel routines

     PAW routines
     PAW_pot      :      1.66s CPU      1.67s WALL (      48 calls)
 
     PWSCF        :  11m28.22s CPU  12m12.22s WALL

 
   This run was terminated on:  15:14:49   3Jul2024            

=------------------------------------------------------------------------------=
   JOB DONE.
=------------------------------------------------------------------------------=
