
     Program PWSCF v.7.2 starts on 21Jun2024 at 18: 5:53 

     This program is part of the open-source Quantum ESPRESSO suite
     for quantum simulation of materials; please cite
         "P. Giannozzi et al., J. Phys.:Condens. Matter 21 395502 (2009);
         "P. Giannozzi et al., J. Phys.:Condens. Matter 29 465901 (2017);
         "P. Giannozzi et al., J. Chem. Phys. 152 154105 (2020);
          URL http://www.quantum-espresso.org", 
     in publications or presentations arising from this work. More details at
     http://www.quantum-espresso.org/quote

     Parallel version (MPI & OpenMP), running on      48 processor cores
     Number of MPI processes:                48
     Threads/MPI process:                     1

     MPI processes distributed on     1 nodes
     60575 MiB available memory on the printing compute node when the environment starts
 
     Reading input from espresso.pwi
Warning: card &CELL ignored
Warning: card / ignored
Warning: card &FCP ignored
Warning: card / ignored
Warning: card &RISM ignored
Warning: card / ignored

     Current dimensions of program PWSCF are:
     Max number of different atomic species (ntypx) = 10
     Max number of k-points (npk) =  40000
     Max angular momentum in pseudopotentials (lmaxx) =  4
     file O.pbe-n-kjpaw_psl.0.1.UPF: wavefunction(s)  2P renormalized
     signal trapping enabled: kill the code with -SIGUSR1 to stop cleanly the simulation 
 
     K-points division:     npool     =       2
     R & G space division:  proc/nbgrp/npool/nimage =      24
     Subspace diagonalization in iterative solution of the eigenvalue problem:
     one sub-group per band group will be used
     scalapack distributed-memory algorithm (size of sub-group:  3*  3 procs)

 
     Parallelization info
     --------------------
     sticks:   dense  smooth     PW     G-vecs:    dense   smooth      PW
     Min         350     175     47                61430    21716    3036
     Max         351     177     48                61449    21727    3041
     Sum        8421    4205   1137              1474595   521381   72913
 
     Using Slab Decomposition
 


     bravais-lattice index     =            0
     lattice parameter (alat)  =      14.8599  a.u.
     unit-cell volume          =    8305.1283 (a.u.)^3
     number of atoms/cell      =           49
     number of atomic types    =            3
     number of electrons       =       430.00
     number of Kohn-Sham states=          258
     kinetic-energy cutoff     =      60.0000  Ry
     charge density cutoff     =     480.0000  Ry
     scf convergence threshold =      1.0E-08
     mixing beta               =       0.1500
     number of iterations used =            8  local-TF  mixing
     Exchange-correlation= SLA  PW   PBE  PBE
                           (   1   4   3   4   0   0   0)

     celldm(1)=  14.859904  celldm(2)=   0.000000  celldm(3)=   0.000000
     celldm(4)=   0.000000  celldm(5)=   0.000000  celldm(6)=   0.000000

     crystal axes: (cart. coord. in units of alat)
               a(1) = (   1.000000   0.000000   0.000000 )  
               a(2) = (   0.000000   1.000000   0.000000 )  
               a(3) = (   0.000000   0.000000   2.531036 )  

     reciprocal axes: (cart. coord. in units 2 pi/alat)
               b(1) = (  1.000000  0.000000  0.000000 )  
               b(2) = (  0.000000  1.000000  0.000000 )  
               b(3) = (  0.000000  0.000000  0.395095 )  


     PseudoPot. # 1 for Sr read from file:
     /bsuhome/zayahcortright/q-e/pseudo/Sr_pbe_v1.uspp.F.UPF
     MD5 check sum: 6b418c05fbe9db5448babca5e47b7a5b
     Pseudo is Ultrasoft + core correction, Zval = 10.0
     Generated by new atomic code, or converted to UPF format
     Using radial grid of  883 points,  6 beta functions with: 
                l(1) =   0
                l(2) =   0
                l(3) =   1
                l(4) =   1
                l(5) =   2
                l(6) =   2
     Q(r) pseudized with  6 coefficients,  rinner =    1.400   1.400   1.400
                                                       1.400   1.400

     PseudoPot. # 2 for O  read from file:
     /bsuhome/zayahcortright/q-e/pseudo/O.pbe-n-kjpaw_psl.0.1.UPF
     MD5 check sum: 0234752ac141de4415c5fc33072bef88
     Pseudo is Projector augmented-wave + core cor, Zval =  6.0
     Generated using "atomic" code by A. Dal Corso  v.5.0.99 svn rev. 10869
     Shape of augmentation charge: BESSEL
     Using radial grid of 1095 points,  4 beta functions with: 
                l(1) =   0
                l(2) =   0
                l(3) =   1
                l(4) =   1
     Q(r) pseudized with 0 coefficients 


     PseudoPot. # 3 for Co read from file:
     /bsuhome/zayahcortright/q-e/pseudo/Co_pbe_v1.2.uspp.F.UPF
     MD5 check sum: 5f91765df6ddd3222702df6e7b74a16d
     Pseudo is Ultrasoft + core correction, Zval = 17.0
     Generated by new atomic code, or converted to UPF format
     Using radial grid of  863 points,  6 beta functions with: 
                l(1) =   0
                l(2) =   0
                l(3) =   1
                l(4) =   1
                l(5) =   2
                l(6) =   2
     Q(r) pseudized with  8 coefficients,  rinner =    1.200   1.200   1.200
                                                       1.200   1.200

     atomic species   valence    mass     pseudopotential
        Sr            10.00    87.62000     Sr( 1.00)
        O              6.00    15.99900     O ( 1.00)
        Co            17.00    58.93319     Co( 1.00)

     No symmetry found


                                    s                        frac. trans.

      isym =  1     identity                                     

 cryst.   s( 1) = (     1          0          0      )
                  (     0          1          0      )
                  (     0          0          1      )

 cart.    s( 1) = (  1.0000000  0.0000000  0.0000000 )
                  (  0.0000000  1.0000000  0.0000000 )
                  (  0.0000000  0.0000000  1.0000000 )


   Cartesian axes

     site n.     atom                  positions (alat units)
         1           Sr  tau(   1) = (   0.2508693   0.7491307   1.7574407  )
         2           O   tau(   2) = (   0.4985141   0.5014859   1.7715967  )
         3           Sr  tau(   3) = (   0.7482398   0.7454518   1.7648669  )
         4           Sr  tau(   4) = (   0.7441748   0.2558252   1.7667843  )
         5           Sr  tau(   5) = (   0.2508693   0.7491307   1.2696799  )
         6           Sr  tau(   6) = (   0.2508693   0.7491307   0.7632319  )
         7           Co  tau(   7) = (   0.4998914   0.5001086   1.0164559  )
         8           Co  tau(   8) = (   0.4936915   0.5063085   1.5135603  )
         9           O   tau(   9) = (   0.4988895   0.7610401   1.0164559  )
        10           O   tau(  10) = (   0.2389599   0.5011105   1.0164559  )
        11           O   tau(  11) = (   0.0070918   0.7374880   1.0164559  )
        12           O   tau(  12) = (   0.0088340   0.7405089   1.5135603  )
        13           O   tau(  13) = (   0.5066944   0.7415376   1.5135603  )
        14           O   tau(  14) = (   0.2584624   0.4933056   1.5135603  )
        15           O   tau(  15) = (   0.4985141   0.5014859   0.7773880  )
        16           O   tau(  16) = (   0.4985141   0.5014859   1.2555238  )
        17           Sr  tau(  17) = (   0.7482398   0.7454518   0.7706582  )
        18           Sr  tau(  18) = (   0.7482398   0.7454518   1.2622536  )
        19           Sr  tau(  19) = (   0.7441748   0.2558252   0.7725755  )
        20           Sr  tau(  20) = (   0.7441748   0.2558252   1.2603363  )
        21           O   tau(  21) = (   0.7322655   0.0078049   1.5135603  )
        22           O   tau(  22) = (   0.7558175   0.4996027   1.5135603  )
        23           O   tau(  23) = (   0.5003973   0.2441825   1.5135603  )
        24           O   tau(  24) = (   0.7527966   0.4978604   1.0164559  )
        25           O   tau(  25) = (   0.5021396   0.2472034   1.0164559  )
        26           O   tau(  26) = (   0.7517679   0.0000000   1.0164559  )
        27           O   tau(  27) = (   0.0114961   0.4948124   1.7455321  )
        28           O   tau(  28) = (   0.0048226   0.0077944   1.7715967  )
        29           Sr  tau(  29) = (   0.2545482   0.2517602   1.7648669  )
        30           O   tau(  30) = (   0.5048017   0.0015068   1.7786929  )
        31           Co  tau(  31) = (   0.0056869   0.5006215   1.0164559  )
        32           Co  tau(  32) = (   0.0065315   0.4997770   1.5135603  )
        33           Co  tau(  33) = (   0.0061999   0.0064171   1.0164559  )
        34           Co  tau(  34) = (   0.0000000   0.0126169   1.5135603  )
        35           O   tau(  35) = (   0.0114961   0.4948124   1.2815885  )
        36           O   tau(  36) = (   0.0114961   0.4948124   0.7513233  )
        37           O   tau(  37) = (   0.0051979   0.2673486   1.0164559  )
        38           O   tau(  38) = (   0.0130029   0.2478461   1.5135603  )
        39           O   tau(  39) = (   0.0048226   0.0077944   0.7773880  )
        40           O   tau(  40) = (   0.0048226   0.0077944   1.2555238  )
        41           Sr  tau(  41) = (   0.2545482   0.2517602   0.7706582  )
        42           Sr  tau(  42) = (   0.2545482   0.2517602   1.2622536  )
        43           Co  tau(  43) = (   0.4989925   0.0073160   1.5135603  )
        44           Co  tau(  44) = (   0.4998370   0.0064714   1.0164559  )
        45           O   tau(  45) = (   0.5048017   0.0015068   0.7844841  )
        46           O   tau(  46) = (   0.5048017   0.0015068   1.2484277  )
        47           O   tau(  47) = (   0.2621260   0.0059111   1.5135603  )
        48           O   tau(  48) = (   0.2591051   0.0041689   1.0164559  )
        49           O   tau(  49) = (   0.2843291   0.2843291   2.1602013  )

   Crystallographic axes

     site n.     atom                  positions (cryst. coord.)
         1           Sr  tau(   1) = (  0.2508693  0.7491307  0.6943562  )
         2           O   tau(   2) = (  0.4985141  0.5014859  0.6999492  )
         3           Sr  tau(   3) = (  0.7482398  0.7454518  0.6972903  )
         4           Sr  tau(   4) = (  0.7441748  0.2558252  0.6980478  )
         5           Sr  tau(   5) = (  0.2508693  0.7491307  0.5016443  )
         6           Sr  tau(   6) = (  0.2508693  0.7491307  0.3015492  )
         7           Co  tau(   7) = (  0.4998914  0.5001086  0.4015968  )
         8           Co  tau(   8) = (  0.4936915  0.5063085  0.5980003  )
         9           O   tau(   9) = (  0.4988895  0.7610401  0.4015968  )
        10           O   tau(  10) = (  0.2389599  0.5011105  0.4015968  )
        11           O   tau(  11) = (  0.0070918  0.7374880  0.4015968  )
        12           O   tau(  12) = (  0.0088340  0.7405089  0.5980003  )
        13           O   tau(  13) = (  0.5066944  0.7415376  0.5980003  )
        14           O   tau(  14) = (  0.2584624  0.4933056  0.5980003  )
        15           O   tau(  15) = (  0.4985141  0.5014859  0.3071422  )
        16           O   tau(  16) = (  0.4985141  0.5014859  0.4960513  )
        17           Sr  tau(  17) = (  0.7482398  0.7454518  0.3044833  )
        18           Sr  tau(  18) = (  0.7482398  0.7454518  0.4987103  )
        19           Sr  tau(  19) = (  0.7441748  0.2558252  0.3052408  )
        20           Sr  tau(  20) = (  0.7441748  0.2558252  0.4979527  )
        21           O   tau(  21) = (  0.7322655  0.0078049  0.5980003  )
        22           O   tau(  22) = (  0.7558175  0.4996027  0.5980003  )
        23           O   tau(  23) = (  0.5003973  0.2441825  0.5980003  )
        24           O   tau(  24) = (  0.7527966  0.4978604  0.4015968  )
        25           O   tau(  25) = (  0.5021396  0.2472034  0.4015968  )
        26           O   tau(  26) = (  0.7517679  0.0000000  0.4015968  )
        27           O   tau(  27) = (  0.0114961  0.4948124  0.6896512  )
        28           O   tau(  28) = (  0.0048226  0.0077944  0.6999492  )
        29           Sr  tau(  29) = (  0.2545482  0.2517602  0.6972903  )
        30           O   tau(  30) = (  0.5048017  0.0015068  0.7027529  )
        31           Co  tau(  31) = (  0.0056869  0.5006215  0.4015968  )
        32           Co  tau(  32) = (  0.0065315  0.4997770  0.5980003  )
        33           Co  tau(  33) = (  0.0061999  0.0064171  0.4015968  )
        34           Co  tau(  34) = (  0.0000000  0.0126169  0.5980003  )
        35           O   tau(  35) = (  0.0114961  0.4948124  0.5063494  )
        36           O   tau(  36) = (  0.0114961  0.4948124  0.2968442  )
        37           O   tau(  37) = (  0.0051979  0.2673486  0.4015968  )
        38           O   tau(  38) = (  0.0130029  0.2478461  0.5980003  )
        39           O   tau(  39) = (  0.0048226  0.0077944  0.3071422  )
        40           O   tau(  40) = (  0.0048226  0.0077944  0.4960513  )
        41           Sr  tau(  41) = (  0.2545482  0.2517602  0.3044833  )
        42           Sr  tau(  42) = (  0.2545482  0.2517602  0.4987103  )
        43           Co  tau(  43) = (  0.4989925  0.0073160  0.5980003  )
        44           Co  tau(  44) = (  0.4998370  0.0064714  0.4015968  )
        45           O   tau(  45) = (  0.5048017  0.0015068  0.3099459  )
        46           O   tau(  46) = (  0.5048017  0.0015068  0.4932477  )
        47           O   tau(  47) = (  0.2621260  0.0059111  0.5980003  )
        48           O   tau(  48) = (  0.2591051  0.0041689  0.4015968  )
        49           O   tau(  49) = (  0.2843291  0.2843291  0.8534850  )

     number of k points=    10  Gaussian smearing, width (Ry)=  0.0700
                       cart. coord. in units 2pi/alat
        k(    1) = (   0.0000000   0.0000000   0.0000000), wk =   0.1250000
        k(    2) = (   0.0000000   0.2500000   0.0000000), wk =   0.2500000
        k(    3) = (   0.0000000  -0.5000000   0.0000000), wk =   0.1250000
        k(    4) = (   0.2500000   0.2500000   0.0000000), wk =   0.2500000
        k(    5) = (   0.2500000  -0.5000000   0.0000000), wk =   0.2500000
        k(    6) = (  -0.5000000  -0.5000000   0.0000000), wk =   0.1250000
        k(    7) = (   0.2500000   0.0000000   0.0000000), wk =   0.2500000
        k(    8) = (  -0.5000000   0.0000000   0.0000000), wk =   0.1250000
        k(    9) = (  -0.2500000   0.2500000   0.0000000), wk =   0.2500000
        k(   10) = (  -0.5000000   0.2500000   0.0000000), wk =   0.2500000

                       cryst. coord.
        k(    1) = (   0.0000000   0.0000000   0.0000000), wk =   0.1250000
        k(    2) = (   0.0000000   0.2500000   0.0000000), wk =   0.2500000
        k(    3) = (   0.0000000  -0.5000000   0.0000000), wk =   0.1250000
        k(    4) = (   0.2500000   0.2500000   0.0000000), wk =   0.2500000
        k(    5) = (   0.2500000  -0.5000000   0.0000000), wk =   0.2500000
        k(    6) = (  -0.5000000  -0.5000000   0.0000000), wk =   0.1250000
        k(    7) = (   0.2500000   0.0000000   0.0000000), wk =   0.2500000
        k(    8) = (  -0.5000000   0.0000000   0.0000000), wk =   0.1250000
        k(    9) = (  -0.2500000   0.2500000   0.0000000), wk =   0.2500000
        k(   10) = (  -0.5000000   0.2500000   0.0000000), wk =   0.2500000

     Dense  grid:  1474595 G-vectors     FFT dimensions: ( 108, 108, 270)

     Smooth grid:   521381 G-vectors     FFT dimensions: (  75,  75, 192)

     Dynamical RAM for                 wfc:      10.69 MB

     Dynamical RAM for     wfc (w. buffer):      64.13 MB

     Dynamical RAM for           str. fact:       2.81 MB

     Dynamical RAM for           local pot:       0.00 MB

     Dynamical RAM for          nlocal pot:      24.53 MB

     Dynamical RAM for                qrad:       5.27 MB

     Dynamical RAM for          rho,v,vnew:       6.02 MB

     Dynamical RAM for               rhoin:       2.01 MB

     Dynamical RAM for            rho*nmix:      15.00 MB

     Dynamical RAM for           G-vectors:       3.68 MB

     Dynamical RAM for          h,s,v(r/c):       1.35 MB

     Dynamical RAM for          <psi|beta>:       2.33 MB

     Dynamical RAM for                 psi:      21.38 MB

     Dynamical RAM for                hpsi:      21.38 MB

     Dynamical RAM for                spsi:      21.38 MB

     Dynamical RAM for      wfcinit/wfcrot:      34.39 MB

     Dynamical RAM for           addusdens:     101.26 MB

     Estimated static dynamical RAM per process >     117.53 MB

     Estimated max dynamical RAM per process >     233.79 MB

     Estimated total dynamical RAM >      10.61 GB

     Check: negative core charge=   -0.000004

     Initial potential from superposition of free atoms

     starting charge     421.5961, renormalised to     430.0000

     negative rho (up, down):  7.826E-01 0.000E+00
     Starting wfcs are  376 randomized atomic wfcs
     Checking if some PAW data can be deallocated... 
       PAW data deallocated on   19 nodes for type:  2

     total cpu time spent up to now is        9.2 secs

     Self-consistent Calculation

     iteration #  1     ecut=    60.00 Ry     beta= 0.15
     Davidson diagonalization with overlap

---- Real-time Memory Report at c_bands before calling an iterative solver
             0 MiB given to the printing process from OS
             0 MiB allocation reported by mallinfo(arena+hblkhd)
         51477 MiB available memory on the node where the printing process lives
------------------
     ethr =  1.00E-02,  avg # of iterations =  2.0

     negative rho (up, down):  7.717E-01 0.000E+00

     total cpu time spent up to now is       24.3 secs

     total energy              =   -4445.20764934 Ry
     estimated scf accuracy    <      53.67799666 Ry

     iteration #  2     ecut=    60.00 Ry     beta= 0.15
     Davidson diagonalization with overlap

---- Real-time Memory Report at c_bands before calling an iterative solver
             0 MiB given to the printing process from OS
             0 MiB allocation reported by mallinfo(arena+hblkhd)
         51854 MiB available memory on the node where the printing process lives
------------------
     ethr =  1.00E-02,  avg # of iterations =  1.0

     negative rho (up, down):  7.597E-01 0.000E+00

     total cpu time spent up to now is       37.0 secs

     total energy              =   -4442.07968011 Ry
     estimated scf accuracy    <      28.00097195 Ry

     iteration #  3     ecut=    60.00 Ry     beta= 0.15
     Davidson diagonalization with overlap

---- Real-time Memory Report at c_bands before calling an iterative solver
             0 MiB given to the printing process from OS
             0 MiB allocation reported by mallinfo(arena+hblkhd)
         51091 MiB available memory on the node where the printing process lives
------------------
     ethr =  6.51E-03,  avg # of iterations =  1.0

     negative rho (up, down):  7.528E-01 0.000E+00

     total cpu time spent up to now is       49.9 secs

     total energy              =   -4442.53162242 Ry
     estimated scf accuracy    <      30.70278667 Ry

     iteration #  4     ecut=    60.00 Ry     beta= 0.15
     Davidson diagonalization with overlap

---- Real-time Memory Report at c_bands before calling an iterative solver
             0 MiB given to the printing process from OS
             0 MiB allocation reported by mallinfo(arena+hblkhd)
         51046 MiB available memory on the node where the printing process lives
------------------
     ethr =  6.51E-03,  avg # of iterations =  1.0

     negative rho (up, down):  7.517E-01 0.000E+00

     total cpu time spent up to now is       62.5 secs

     total energy              =   -4443.06738034 Ry
     estimated scf accuracy    <      29.40879519 Ry

     iteration #  5     ecut=    60.00 Ry     beta= 0.15
     Davidson diagonalization with overlap

---- Real-time Memory Report at c_bands before calling an iterative solver
             0 MiB given to the printing process from OS
             0 MiB allocation reported by mallinfo(arena+hblkhd)
         51019 MiB available memory on the node where the printing process lives
------------------
     ethr =  6.51E-03,  avg # of iterations =  1.0

     negative rho (up, down):  7.365E-01 0.000E+00

     total cpu time spent up to now is       74.9 secs

     total energy              =   -4442.21224239 Ry
     estimated scf accuracy    <      42.18897206 Ry

     iteration #  6     ecut=    60.00 Ry     beta= 0.15
     Davidson diagonalization with overlap

---- Real-time Memory Report at c_bands before calling an iterative solver
             0 MiB given to the printing process from OS
             0 MiB allocation reported by mallinfo(arena+hblkhd)
         51002 MiB available memory on the node where the printing process lives
------------------
     ethr =  6.51E-03,  avg # of iterations =  1.0

     negative rho (up, down):  7.434E-01 0.000E+00

     total cpu time spent up to now is       87.6 secs

     total energy              =   -4442.10017828 Ry
     estimated scf accuracy    <      35.27942704 Ry

     iteration #  7     ecut=    60.00 Ry     beta= 0.15
     Davidson diagonalization with overlap

---- Real-time Memory Report at c_bands before calling an iterative solver
             0 MiB given to the printing process from OS
             0 MiB allocation reported by mallinfo(arena+hblkhd)
         50985 MiB available memory on the node where the printing process lives
------------------
     ethr =  6.51E-03,  avg # of iterations =  1.0

     negative rho (up, down):  7.468E-01 0.000E+00

     total cpu time spent up to now is      100.1 secs

     total energy              =   -4439.53083034 Ry
     estimated scf accuracy    <      32.07395334 Ry

     iteration #  8     ecut=    60.00 Ry     beta= 0.15
     Davidson diagonalization with overlap

---- Real-time Memory Report at c_bands before calling an iterative solver
             0 MiB given to the printing process from OS
             0 MiB allocation reported by mallinfo(arena+hblkhd)
         50969 MiB available memory on the node where the printing process lives
------------------
     ethr =  6.51E-03,  avg # of iterations =  1.0

     negative rho (up, down):  7.436E-01 0.000E+00

     total cpu time spent up to now is      112.5 secs

     total energy              =   -4440.21878465 Ry
     estimated scf accuracy    <       4.50429226 Ry

     iteration #  9     ecut=    60.00 Ry     beta= 0.15
     Davidson diagonalization with overlap

---- Real-time Memory Report at c_bands before calling an iterative solver
             0 MiB given to the printing process from OS
             0 MiB allocation reported by mallinfo(arena+hblkhd)
         50953 MiB available memory on the node where the printing process lives
------------------
     ethr =  1.05E-03,  avg # of iterations =  6.4

     negative rho (up, down):  7.576E-01 0.000E+00

     total cpu time spent up to now is      128.5 secs

     total energy              =   -4440.50657889 Ry
     estimated scf accuracy    <       8.64734483 Ry

     iteration # 10     ecut=    60.00 Ry     beta= 0.15
     Davidson diagonalization with overlap

---- Real-time Memory Report at c_bands before calling an iterative solver
             0 MiB given to the printing process from OS
             0 MiB allocation reported by mallinfo(arena+hblkhd)
         50776 MiB available memory on the node where the printing process lives
------------------
     ethr =  1.05E-03,  avg # of iterations =  2.0

     negative rho (up, down):  7.647E-01 0.000E+00

     total cpu time spent up to now is      142.3 secs

     total energy              =   -4440.42232549 Ry
     estimated scf accuracy    <       8.58855508 Ry

     iteration # 11     ecut=    60.00 Ry     beta= 0.15
     Davidson diagonalization with overlap

---- Real-time Memory Report at c_bands before calling an iterative solver
             0 MiB given to the printing process from OS
             0 MiB allocation reported by mallinfo(arena+hblkhd)
         50778 MiB available memory on the node where the printing process lives
------------------
     ethr =  1.05E-03,  avg # of iterations =  7.9

     negative rho (up, down):  7.704E-01 0.000E+00

     total cpu time spent up to now is      159.0 secs

     total energy              =   -4440.55526977 Ry
     estimated scf accuracy    <       2.63776345 Ry

     iteration # 12     ecut=    60.00 Ry     beta= 0.15
     Davidson diagonalization with overlap

---- Real-time Memory Report at c_bands before calling an iterative solver
             0 MiB given to the printing process from OS
             0 MiB allocation reported by mallinfo(arena+hblkhd)
         50654 MiB available memory on the node where the printing process lives
------------------
     ethr =  6.13E-04,  avg # of iterations =  8.2

     negative rho (up, down):  7.798E-01 0.000E+00

     total cpu time spent up to now is      176.4 secs

     total energy              =   -4440.53777378 Ry
     estimated scf accuracy    <       0.90712973 Ry

     iteration # 13     ecut=    60.00 Ry     beta= 0.15
     Davidson diagonalization with overlap

---- Real-time Memory Report at c_bands before calling an iterative solver
             0 MiB given to the printing process from OS
             0 MiB allocation reported by mallinfo(arena+hblkhd)
         50547 MiB available memory on the node where the printing process lives
------------------
     ethr =  2.11E-04,  avg # of iterations =  8.2

     negative rho (up, down):  7.984E-01 0.000E+00

     total cpu time spent up to now is      193.2 secs

     total energy              =   -4440.49098198 Ry
     estimated scf accuracy    <       0.76382331 Ry

     iteration # 14     ecut=    60.00 Ry     beta= 0.15
     Davidson diagonalization with overlap

---- Real-time Memory Report at c_bands before calling an iterative solver
             0 MiB given to the printing process from OS
             0 MiB allocation reported by mallinfo(arena+hblkhd)
         50552 MiB available memory on the node where the printing process lives
------------------
     ethr =  1.78E-04,  avg # of iterations =  1.5

     negative rho (up, down):  8.186E-01 0.000E+00

     total cpu time spent up to now is      206.7 secs

     total energy              =   -4440.42258572 Ry
     estimated scf accuracy    <       2.24504864 Ry

     iteration # 15     ecut=    60.00 Ry     beta= 0.15
     Davidson diagonalization with overlap

---- Real-time Memory Report at c_bands before calling an iterative solver
             0 MiB given to the printing process from OS
             0 MiB allocation reported by mallinfo(arena+hblkhd)
         50566 MiB available memory on the node where the printing process lives
------------------
     ethr =  1.78E-04,  avg # of iterations =  5.5

     negative rho (up, down):  8.274E-01 0.000E+00

     total cpu time spent up to now is      222.5 secs

     total energy              =   -4440.39699785 Ry
     estimated scf accuracy    <       0.56812495 Ry

     iteration # 16     ecut=    60.00 Ry     beta= 0.15
     Davidson diagonalization with overlap

---- Real-time Memory Report at c_bands before calling an iterative solver
             0 MiB given to the printing process from OS
             0 MiB allocation reported by mallinfo(arena+hblkhd)
         50567 MiB available memory on the node where the printing process lives
------------------
     ethr =  1.32E-04,  avg # of iterations = 12.6

     negative rho (up, down):  8.294E-01 0.000E+00

     total cpu time spent up to now is      241.5 secs

     total energy              =   -4440.37326133 Ry
     estimated scf accuracy    <       0.25304004 Ry

     iteration # 17     ecut=    60.00 Ry     beta= 0.15
     Davidson diagonalization with overlap

---- Real-time Memory Report at c_bands before calling an iterative solver
             0 MiB given to the printing process from OS
             0 MiB allocation reported by mallinfo(arena+hblkhd)
         50569 MiB available memory on the node where the printing process lives
------------------
     ethr =  5.88E-05,  avg # of iterations =  8.1

     negative rho (up, down):  8.287E-01 0.000E+00

     total cpu time spent up to now is      259.1 secs

     total energy              =   -4440.36884417 Ry
     estimated scf accuracy    <       0.17970553 Ry

     iteration # 18     ecut=    60.00 Ry     beta= 0.15
     Davidson diagonalization with overlap

---- Real-time Memory Report at c_bands before calling an iterative solver
             0 MiB given to the printing process from OS
             0 MiB allocation reported by mallinfo(arena+hblkhd)
         50531 MiB available memory on the node where the printing process lives
------------------
     ethr =  4.18E-05,  avg # of iterations =  3.8

     negative rho (up, down):  8.087E-01 0.000E+00

     total cpu time spent up to now is      274.2 secs

     total energy              =   -4440.34452776 Ry
     estimated scf accuracy    <       0.14967146 Ry

     iteration # 19     ecut=    60.00 Ry     beta= 0.15
     Davidson diagonalization with overlap

---- Real-time Memory Report at c_bands before calling an iterative solver
             0 MiB given to the printing process from OS
             0 MiB allocation reported by mallinfo(arena+hblkhd)
         50540 MiB available memory on the node where the printing process lives
------------------
     ethr =  3.48E-05,  avg # of iterations =  4.2

     negative rho (up, down):  7.984E-01 0.000E+00

     total cpu time spent up to now is      290.1 secs

     total energy              =   -4440.33467831 Ry
     estimated scf accuracy    <       0.11871501 Ry

     iteration # 20     ecut=    60.00 Ry     beta= 0.15
     Davidson diagonalization with overlap

---- Real-time Memory Report at c_bands before calling an iterative solver
             0 MiB given to the printing process from OS
             0 MiB allocation reported by mallinfo(arena+hblkhd)
         50521 MiB available memory on the node where the printing process lives
------------------
     ethr =  2.76E-05,  avg # of iterations =  5.7

     negative rho (up, down):  8.004E-01 0.000E+00

     total cpu time spent up to now is      306.6 secs

     total energy              =   -4440.32470724 Ry
     estimated scf accuracy    <       0.08843044 Ry

     iteration # 21     ecut=    60.00 Ry     beta= 0.15
     Davidson diagonalization with overlap

---- Real-time Memory Report at c_bands before calling an iterative solver
             0 MiB given to the printing process from OS
             0 MiB allocation reported by mallinfo(arena+hblkhd)
         50524 MiB available memory on the node where the printing process lives
------------------
     ethr =  2.06E-05,  avg # of iterations =  8.6

     negative rho (up, down):  8.247E-01 0.000E+00

     total cpu time spent up to now is      324.1 secs

     total energy              =   -4440.31952721 Ry
     estimated scf accuracy    <       0.05158387 Ry

     iteration # 22     ecut=    60.00 Ry     beta= 0.15
     Davidson diagonalization with overlap

---- Real-time Memory Report at c_bands before calling an iterative solver
             0 MiB given to the printing process from OS
             0 MiB allocation reported by mallinfo(arena+hblkhd)
         50389 MiB available memory on the node where the printing process lives
------------------
     c_bands:  1 eigenvalues not converged
     ethr =  1.20E-05,  avg # of iterations =  9.0

     negative rho (up, down):  8.319E-01 0.000E+00

     total cpu time spent up to now is      341.9 secs

     total energy              =   -4440.31888704 Ry
     estimated scf accuracy    <       0.02754520 Ry

     iteration # 23     ecut=    60.00 Ry     beta= 0.15
     Davidson diagonalization with overlap

---- Real-time Memory Report at c_bands before calling an iterative solver
             0 MiB given to the printing process from OS
             0 MiB allocation reported by mallinfo(arena+hblkhd)
         50428 MiB available memory on the node where the printing process lives
------------------
     ethr =  6.41E-06,  avg # of iterations =  5.1

     negative rho (up, down):  8.198E-01 0.000E+00

     total cpu time spent up to now is      357.5 secs

     total energy              =   -4440.31566085 Ry
     estimated scf accuracy    <       0.02073804 Ry

     iteration # 24     ecut=    60.00 Ry     beta= 0.15
     Davidson diagonalization with overlap

---- Real-time Memory Report at c_bands before calling an iterative solver
             0 MiB given to the printing process from OS
             0 MiB allocation reported by mallinfo(arena+hblkhd)
         50377 MiB available memory on the node where the printing process lives
------------------
     ethr =  4.82E-06,  avg # of iterations = 10.3

     negative rho (up, down):  7.967E-01 0.000E+00

     total cpu time spent up to now is      375.7 secs

     total energy              =   -4440.31280799 Ry
     estimated scf accuracy    <       0.01189881 Ry

     iteration # 25     ecut=    60.00 Ry     beta= 0.15
     Davidson diagonalization with overlap

---- Real-time Memory Report at c_bands before calling an iterative solver
             0 MiB given to the printing process from OS
             0 MiB allocation reported by mallinfo(arena+hblkhd)
         50377 MiB available memory on the node where the printing process lives
------------------
     c_bands:  1 eigenvalues not converged
     c_bands:  1 eigenvalues not converged
     c_bands:  1 eigenvalues not converged
     ethr =  2.77E-06,  avg # of iterations = 12.6

     negative rho (up, down):  7.984E-01 0.000E+00

     total cpu time spent up to now is      395.3 secs

     total energy              =   -4440.31304104 Ry
     estimated scf accuracy    <       0.00375618 Ry

     iteration # 26     ecut=    60.00 Ry     beta= 0.15
     Davidson diagonalization with overlap

---- Real-time Memory Report at c_bands before calling an iterative solver
             0 MiB given to the printing process from OS
             0 MiB allocation reported by mallinfo(arena+hblkhd)
         50379 MiB available memory on the node where the printing process lives
------------------
     ethr =  8.74E-07,  avg # of iterations =  7.0

     negative rho (up, down):  7.995E-01 0.000E+00

     total cpu time spent up to now is      411.7 secs

     total energy              =   -4440.31311804 Ry
     estimated scf accuracy    <       0.00214824 Ry

     iteration # 27     ecut=    60.00 Ry     beta= 0.15
     Davidson diagonalization with overlap

---- Real-time Memory Report at c_bands before calling an iterative solver
             0 MiB given to the printing process from OS
             0 MiB allocation reported by mallinfo(arena+hblkhd)
         50360 MiB available memory on the node where the printing process lives
------------------
     ethr =  5.00E-07,  avg # of iterations =  3.1

     negative rho (up, down):  7.929E-01 0.000E+00

     total cpu time spent up to now is      426.1 secs

     total energy              =   -4440.31297819 Ry
     estimated scf accuracy    <       0.00165303 Ry

     iteration # 28     ecut=    60.00 Ry     beta= 0.15
     Davidson diagonalization with overlap

---- Real-time Memory Report at c_bands before calling an iterative solver
             0 MiB given to the printing process from OS
             0 MiB allocation reported by mallinfo(arena+hblkhd)
         50362 MiB available memory on the node where the printing process lives
------------------
     c_bands:  1 eigenvalues not converged
     c_bands:  1 eigenvalues not converged
     c_bands:  1 eigenvalues not converged
     ethr =  3.84E-07,  avg # of iterations = 11.6

     negative rho (up, down):  7.954E-01 0.000E+00

     total cpu time spent up to now is      444.3 secs

     total energy              =   -4440.31311122 Ry
     estimated scf accuracy    <       0.00064167 Ry

     iteration # 29     ecut=    60.00 Ry     beta= 0.15
     Davidson diagonalization with overlap

---- Real-time Memory Report at c_bands before calling an iterative solver
             0 MiB given to the printing process from OS
             0 MiB allocation reported by mallinfo(arena+hblkhd)
         50407 MiB available memory on the node where the printing process lives
------------------
     ethr =  1.49E-07,  avg # of iterations =  9.6

     negative rho (up, down):  7.962E-01 0.000E+00

     total cpu time spent up to now is      462.8 secs

     total energy              =   -4440.31317580 Ry
     estimated scf accuracy    <       0.00017344 Ry

     iteration # 30     ecut=    60.00 Ry     beta= 0.15
     Davidson diagonalization with overlap

---- Real-time Memory Report at c_bands before calling an iterative solver
             0 MiB given to the printing process from OS
             0 MiB allocation reported by mallinfo(arena+hblkhd)
         50285 MiB available memory on the node where the printing process lives
------------------
     ethr =  4.03E-08,  avg # of iterations =  2.0

     negative rho (up, down):  7.938E-01 0.000E+00

     total cpu time spent up to now is      476.8 secs

     total energy              =   -4440.31315875 Ry
     estimated scf accuracy    <       0.00008014 Ry

     iteration # 31     ecut=    60.00 Ry     beta= 0.15
     Davidson diagonalization with overlap

---- Real-time Memory Report at c_bands before calling an iterative solver
             0 MiB given to the printing process from OS
             0 MiB allocation reported by mallinfo(arena+hblkhd)
         50243 MiB available memory on the node where the printing process lives
------------------
     ethr =  1.86E-08,  avg # of iterations =  2.0

     negative rho (up, down):  7.940E-01 0.000E+00

     total cpu time spent up to now is      491.1 secs

     total energy              =   -4440.31316799 Ry
     estimated scf accuracy    <       0.00002791 Ry

     iteration # 32     ecut=    60.00 Ry     beta= 0.15
     Davidson diagonalization with overlap

---- Real-time Memory Report at c_bands before calling an iterative solver
             0 MiB given to the printing process from OS
             0 MiB allocation reported by mallinfo(arena+hblkhd)
         50243 MiB available memory on the node where the printing process lives
------------------
     ethr =  6.49E-09,  avg # of iterations =  2.0

     negative rho (up, down):  7.937E-01 0.000E+00

     total cpu time spent up to now is      505.5 secs

     total energy              =   -4440.31316635 Ry
     estimated scf accuracy    <       0.00001624 Ry

     iteration # 33     ecut=    60.00 Ry     beta= 0.15
     Davidson diagonalization with overlap

---- Real-time Memory Report at c_bands before calling an iterative solver
             0 MiB given to the printing process from OS
             0 MiB allocation reported by mallinfo(arena+hblkhd)
         50252 MiB available memory on the node where the printing process lives
------------------
     ethr =  3.78E-09,  avg # of iterations =  1.2

     negative rho (up, down):  7.928E-01 0.000E+00

     total cpu time spent up to now is      518.7 secs

     total energy              =   -4440.31316404 Ry
     estimated scf accuracy    <       0.00000946 Ry

     iteration # 34     ecut=    60.00 Ry     beta= 0.15
     Davidson diagonalization with overlap

---- Real-time Memory Report at c_bands before calling an iterative solver
             0 MiB given to the printing process from OS
             0 MiB allocation reported by mallinfo(arena+hblkhd)
         50278 MiB available memory on the node where the printing process lives
------------------
     ethr =  2.20E-09,  avg # of iterations =  2.0

     negative rho (up, down):  7.929E-01 0.000E+00

     total cpu time spent up to now is      533.1 secs

     total energy              =   -4440.31316448 Ry
     estimated scf accuracy    <       0.00000448 Ry

     iteration # 35     ecut=    60.00 Ry     beta= 0.15
     Davidson diagonalization with overlap

---- Real-time Memory Report at c_bands before calling an iterative solver
             0 MiB given to the printing process from OS
             0 MiB allocation reported by mallinfo(arena+hblkhd)
         50281 MiB available memory on the node where the printing process lives
------------------
     ethr =  1.04E-09,  avg # of iterations =  2.0

     negative rho (up, down):  7.927E-01 0.000E+00

     total cpu time spent up to now is      547.2 secs

     total energy              =   -4440.31316553 Ry
     estimated scf accuracy    <       0.00000282 Ry

     iteration # 36     ecut=    60.00 Ry     beta= 0.15
     Davidson diagonalization with overlap

---- Real-time Memory Report at c_bands before calling an iterative solver
             0 MiB given to the printing process from OS
             0 MiB allocation reported by mallinfo(arena+hblkhd)
         50287 MiB available memory on the node where the printing process lives
------------------
     ethr =  6.55E-10,  avg # of iterations =  2.0

     negative rho (up, down):  7.927E-01 0.000E+00

     total cpu time spent up to now is      561.3 secs

     total energy              =   -4440.31316571 Ry
     estimated scf accuracy    <       0.00000182 Ry

     iteration # 37     ecut=    60.00 Ry     beta= 0.15
     Davidson diagonalization with overlap

---- Real-time Memory Report at c_bands before calling an iterative solver
             0 MiB given to the printing process from OS
             0 MiB allocation reported by mallinfo(arena+hblkhd)
         50288 MiB available memory on the node where the printing process lives
------------------
     ethr =  4.22E-10,  avg # of iterations =  1.0

     negative rho (up, down):  7.927E-01 0.000E+00

     total cpu time spent up to now is      573.9 secs

     total energy              =   -4440.31316568 Ry
     estimated scf accuracy    <       0.00000152 Ry

     iteration # 38     ecut=    60.00 Ry     beta= 0.15
     Davidson diagonalization with overlap

---- Real-time Memory Report at c_bands before calling an iterative solver
             0 MiB given to the printing process from OS
             0 MiB allocation reported by mallinfo(arena+hblkhd)
         50291 MiB available memory on the node where the printing process lives
------------------
     ethr =  3.55E-10,  avg # of iterations =  2.0

     negative rho (up, down):  7.926E-01 0.000E+00

     total cpu time spent up to now is      588.1 secs

     total energy              =   -4440.31316581 Ry
     estimated scf accuracy    <       0.00000106 Ry

     iteration # 39     ecut=    60.00 Ry     beta= 0.15
     Davidson diagonalization with overlap

---- Real-time Memory Report at c_bands before calling an iterative solver
             0 MiB given to the printing process from OS
             0 MiB allocation reported by mallinfo(arena+hblkhd)
         50290 MiB available memory on the node where the printing process lives
------------------
     ethr =  2.46E-10,  avg # of iterations =  2.5

     negative rho (up, down):  7.925E-01 0.000E+00

     total cpu time spent up to now is      602.3 secs

     total energy              =   -4440.31316581 Ry
     estimated scf accuracy    <       0.00000054 Ry

     iteration # 40     ecut=    60.00 Ry     beta= 0.15
     Davidson diagonalization with overlap

---- Real-time Memory Report at c_bands before calling an iterative solver
             0 MiB given to the printing process from OS
             0 MiB allocation reported by mallinfo(arena+hblkhd)
         50288 MiB available memory on the node where the printing process lives
------------------
     ethr =  1.25E-10,  avg # of iterations =  2.0

     negative rho (up, down):  7.925E-01 0.000E+00

     total cpu time spent up to now is      616.6 secs

     total energy              =   -4440.31316581 Ry
     estimated scf accuracy    <       0.00000040 Ry

     iteration # 41     ecut=    60.00 Ry     beta= 0.15
     Davidson diagonalization with overlap

---- Real-time Memory Report at c_bands before calling an iterative solver
             0 MiB given to the printing process from OS
             0 MiB allocation reported by mallinfo(arena+hblkhd)
         50285 MiB available memory on the node where the printing process lives
------------------
     ethr =  9.27E-11,  avg # of iterations =  1.1

     negative rho (up, down):  7.926E-01 0.000E+00

     total cpu time spent up to now is      629.5 secs

     total energy              =   -4440.31316577 Ry
     estimated scf accuracy    <       0.00000026 Ry

     iteration # 42     ecut=    60.00 Ry     beta= 0.15
     Davidson diagonalization with overlap

---- Real-time Memory Report at c_bands before calling an iterative solver
             0 MiB given to the printing process from OS
             0 MiB allocation reported by mallinfo(arena+hblkhd)
         50293 MiB available memory on the node where the printing process lives
------------------
     ethr =  6.10E-11,  avg # of iterations =  2.5

     negative rho (up, down):  7.926E-01 0.000E+00

     total cpu time spent up to now is      643.8 secs

     total energy              =   -4440.31316578 Ry
     estimated scf accuracy    <       0.00000017 Ry

     iteration # 43     ecut=    60.00 Ry     beta= 0.15
     Davidson diagonalization with overlap

---- Real-time Memory Report at c_bands before calling an iterative solver
             0 MiB given to the printing process from OS
             0 MiB allocation reported by mallinfo(arena+hblkhd)
         50294 MiB available memory on the node where the printing process lives
------------------
     ethr =  3.96E-11,  avg # of iterations =  1.4

     negative rho (up, down):  7.926E-01 0.000E+00

     total cpu time spent up to now is      657.1 secs

     total energy              =   -4440.31316580 Ry
     estimated scf accuracy    <       0.00000008 Ry

     iteration # 44     ecut=    60.00 Ry     beta= 0.15
     Davidson diagonalization with overlap

---- Real-time Memory Report at c_bands before calling an iterative solver
             0 MiB given to the printing process from OS
             0 MiB allocation reported by mallinfo(arena+hblkhd)
         50292 MiB available memory on the node where the printing process lives
------------------
     ethr =  1.81E-11,  avg # of iterations =  2.0

     negative rho (up, down):  7.926E-01 0.000E+00

     total cpu time spent up to now is      671.2 secs

     total energy              =   -4440.31316582 Ry
     estimated scf accuracy    <       0.00000005 Ry

     iteration # 45     ecut=    60.00 Ry     beta= 0.15
     Davidson diagonalization with overlap

---- Real-time Memory Report at c_bands before calling an iterative solver
             0 MiB given to the printing process from OS
             0 MiB allocation reported by mallinfo(arena+hblkhd)
         50291 MiB available memory on the node where the printing process lives
------------------
     ethr =  1.05E-11,  avg # of iterations =  2.9

     negative rho (up, down):  7.926E-01 0.000E+00

     total cpu time spent up to now is      685.8 secs

     total energy              =   -4440.31316582 Ry
     estimated scf accuracy    <       0.00000002 Ry

     iteration # 46     ecut=    60.00 Ry     beta= 0.15
     Davidson diagonalization with overlap

---- Real-time Memory Report at c_bands before calling an iterative solver
             0 MiB given to the printing process from OS
             0 MiB allocation reported by mallinfo(arena+hblkhd)
         50282 MiB available memory on the node where the printing process lives
------------------
     ethr =  4.82E-12,  avg # of iterations =  2.0

     negative rho (up, down):  7.926E-01 0.000E+00

     total cpu time spent up to now is      699.7 secs

     total energy              =   -4440.31316579 Ry
     estimated scf accuracy    <       0.00000001 Ry

     iteration # 47     ecut=    60.00 Ry     beta= 0.15
     Davidson diagonalization with overlap

---- Real-time Memory Report at c_bands before calling an iterative solver
             0 MiB given to the printing process from OS
             0 MiB allocation reported by mallinfo(arena+hblkhd)
         50293 MiB available memory on the node where the printing process lives
------------------
     ethr =  3.31E-12,  avg # of iterations =  2.7

     negative rho (up, down):  7.926E-01 0.000E+00

     total cpu time spent up to now is      713.7 secs

     End of self-consistent calculation

          k = 0.0000 0.0000 0.0000 ( 65197 PWs)   bands (ev):

   -92.8934 -92.8430 -92.7476 -92.7024 -92.6443 -92.6002 -92.5824 -92.4630
   -56.2470 -56.2297 -56.1044 -56.0938 -56.0882 -56.0807 -56.0460 -56.0164
   -56.0013 -56.0002 -55.9934 -55.9511 -55.9337 -55.8947 -55.8745 -55.8439
   -55.8376 -55.7889 -55.7877 -55.7849 -55.7766 -55.7378 -55.7125 -55.6284
   -31.4571 -31.4366 -31.3072 -31.2951 -31.2069 -31.1564 -31.0511 -30.4625
   -30.0392 -29.9937 -29.9683 -29.8591 -15.2690 -15.2150 -15.1425 -15.0120
   -14.8110 -14.6866 -14.4063 -14.3815 -14.3564 -14.3102 -14.2577 -14.2416
   -14.2407 -14.2165 -14.2034 -14.1702 -14.1197 -13.9651 -13.7784 -13.7526
   -13.7231 -13.6861 -13.6717 -13.6112 -13.5782 -13.4991 -13.4314 -13.3114
   -13.2944 -13.2888 -13.2695 -13.2547 -13.2361 -13.1831 -13.1820 -13.1579
   -13.1334 -13.1023 -13.0991 -13.0833 -13.0739 -13.0387 -12.9806 -12.9574
   -12.9397 -12.6159 -12.6068 -12.5224 -12.4278 -12.3762 -12.0702 -12.0508
   -12.0077 -11.9772 -11.9663 -11.9501 -11.9382 -11.9203 -11.8605 -11.8431
   -11.8093 -11.7811 -11.6642 -11.5885 -11.5848  -3.1294  -2.8981  -2.6688
    -2.5204  -2.4587  -2.3174  -2.0092  -1.9948  -1.9770  -1.8898  -1.8696
    -1.8022  -1.7843  -1.7452  -1.7025  -1.5181  -1.2932  -1.2624  -1.1204
    -1.1052  -1.0559  -1.0367  -0.9915  -0.9742  -0.9231  -0.8959  -0.8170
    -0.8056  -0.7363  -0.6007  -0.5874  -0.5593  -0.4803  -0.4490  -0.4277
    -0.3819  -0.3151  -0.2533  -0.2146  -0.1852  -0.1105  -0.0518  -0.0073
     0.0194   0.0312   0.2919   0.3038   0.4784   0.5424   0.6109   0.6637
     0.7423   0.7544   0.7721   0.8371   0.8652   0.8977   0.9560   1.0844
     1.1474   1.1678   1.1938   1.2056   1.2638   1.3306   1.4482   1.4611
     1.5265   1.5343   1.5794   1.5938   1.6061   1.6626   1.7252   1.7343
     1.7763   1.8156   1.8417   1.9756   2.0671   2.1016   2.1236   2.2716
     2.2879   2.3214   2.3317   2.4371   2.4705   2.4950   2.5119   2.5207
     2.5312   2.6133   2.6363   2.6431   2.7216   2.7516   2.7620   2.7677
     2.8362   2.8419   2.8630   2.8710   2.8807   2.8922   2.9006   2.9145
     2.9207   2.9322   2.9404   2.9497   2.9676   2.9886   2.9930   3.0054
     3.0379   3.1459   3.2377   3.9277   4.2475   4.6004   4.8217   4.8626
     5.7585   5.8011   5.8116   5.8357   6.1238   6.1706   6.4275   6.4375
     6.9327   6.9765   7.0732   7.1490   7.3191   7.5288   7.5463   7.5780
     7.7359   7.8095   7.8651   7.9099   8.0248   8.1366   8.4630   8.5452
     8.7375   8.9213

     occupation numbers 
     1.0000   1.0000   1.0000   1.0000   1.0000   1.0000   1.0000   1.0000
     1.0000   1.0000   1.0000   1.0000   1.0000   1.0000   1.0000   1.0000
     1.0000   1.0000   1.0000   1.0000   1.0000   1.0000   1.0000   1.0000
     1.0000   1.0000   1.0000   1.0000   1.0000   1.0000   1.0000   1.0000
     1.0000   1.0000   1.0000   1.0000   1.0000   1.0000   1.0000   1.0000
     1.0000   1.0000   1.0000   1.0000   1.0000   1.0000   1.0000   1.0000
     1.0000   1.0000   1.0000   1.0000   1.0000   1.0000   1.0000   1.0000
     1.0000   1.0000   1.0000   1.0000   1.0000   1.0000   1.0000   1.0000
     1.0000   1.0000   1.0000   1.0000   1.0000   1.0000   1.0000   1.0000
     1.0000   1.0000   1.0000   1.0000   1.0000   1.0000   1.0000   1.0000
     1.0000   1.0000   1.0000   1.0000   1.0000   1.0000   1.0000   1.0000
     1.0000   1.0000   1.0000   1.0000   1.0000   1.0000   1.0000   1.0000
     1.0000   1.0000   1.0000   1.0000   1.0000   1.0000   1.0000   1.0000
     1.0000   1.0000   1.0000   1.0000   1.0000   1.0000   1.0000   1.0000
     1.0000   1.0000   1.0000   1.0000   1.0000   1.0000   1.0000   1.0000
     1.0000   1.0000   1.0000   1.0000   1.0000   1.0000   1.0000   1.0000
     1.0000   1.0000   1.0000   1.0000   1.0000   1.0000   1.0000   1.0000
     1.0000   1.0000   1.0000   1.0000   1.0000   1.0000   1.0000   1.0000
     1.0000   1.0000   1.0000   1.0000   1.0000   1.0000   1.0000   1.0000
     1.0000   1.0000   1.0000   1.0000   1.0000   0.9999   0.9999   0.9999
     0.9998   0.9998   0.9998   0.9997   0.9996   0.9996   0.9994   0.9988
     0.9984   0.9983   0.9980   0.9979   0.9973   0.9963   0.9939   0.9935
     0.9916   0.9913   0.9896   0.9890   0.9884   0.9856   0.9819   0.9813
     0.9782   0.9750   0.9726   0.9575   0.9437   0.9376   0.9335   0.9002
     0.8959   0.8866   0.8837   0.8501   0.8382   0.8292   0.8227   0.8193
     0.8152   0.7809   0.7707   0.7676   0.7306   0.7156   0.7104   0.7075
     0.6716   0.6685   0.6571   0.6527   0.6473   0.6410   0.6363   0.6285
     0.6250   0.6186   0.6139   0.6086   0.5984   0.5863   0.5837   0.5765
     0.5576   0.4938   0.4396   0.1197   0.0493   0.0148   0.0061   0.0052
     0.0000   0.0000   0.0000   0.0000   0.0000   0.0000   0.0000   0.0000
     0.0000   0.0000   0.0000   0.0000   0.0000   0.0000   0.0000   0.0000
     0.0000   0.0000   0.0000   0.0000   0.0000   0.0000   0.0000   0.0000
     0.0000   0.0000

          k = 0.0000 0.2500 0.0000 ( 65257 PWs)   bands (ev):

   -92.8934 -92.8430 -92.7476 -92.7024 -92.6443 -92.6002 -92.5824 -92.4630
   -56.2470 -56.2297 -56.1044 -56.0938 -56.0882 -56.0807 -56.0460 -56.0164
   -56.0013 -56.0002 -55.9934 -55.9511 -55.9337 -55.8947 -55.8745 -55.8439
   -55.8376 -55.7889 -55.7877 -55.7849 -55.7766 -55.7378 -55.7125 -55.6284
   -31.4569 -31.4365 -31.3070 -31.2953 -31.2070 -31.1566 -31.0511 -30.4625
   -30.0386 -29.9934 -29.9689 -29.8595 -15.2329 -15.1883 -15.1168 -14.9828
   -14.8540 -14.6788 -14.5497 -14.3714 -14.3315 -14.3129 -14.2860 -14.2253
   -14.2183 -14.2009 -14.1819 -14.1329 -14.0368 -13.9961 -13.8318 -13.8052
   -13.7641 -13.7258 -13.6736 -13.6355 -13.5787 -13.5252 -13.4853 -13.4147
   -13.3511 -13.3265 -13.2905 -13.2822 -13.2512 -13.1697 -13.1441 -13.1160
   -13.1015 -13.0814 -13.0492 -13.0451 -13.0146 -12.9831 -12.9723 -12.8879
   -12.8346 -12.5864 -12.5823 -12.5498 -12.4310 -12.4241 -12.1112 -12.0557
   -12.0130 -11.9746 -11.9573 -11.9387 -11.9153 -11.8985 -11.8522 -11.8414
   -11.8190 -11.7859 -11.6787 -11.6297 -11.6194  -2.9939  -2.7738  -2.6356
    -2.4536  -2.4103  -2.2472  -2.0260  -1.9441  -1.9309  -1.8707  -1.7688
    -1.7524  -1.7200  -1.6910  -1.6474  -1.4492  -1.3207  -1.3094  -1.2325
    -1.2230  -1.1198  -1.0909  -1.0295  -1.0044  -0.9668  -0.9010  -0.8734
    -0.8423  -0.8076  -0.7905  -0.7599  -0.6843  -0.6357  -0.5615  -0.4484
    -0.4271  -0.3864  -0.2739  -0.2257  -0.1709  -0.1265  -0.0603  -0.0506
    -0.0261   0.0392   0.3393   0.4252   0.4588   0.5469   0.5951   0.6224
     0.7239   0.7447   0.8398   0.8668   0.8900   1.0033   1.1042   1.1217
     1.1482   1.1672   1.1882   1.2478   1.2752   1.3045   1.3495   1.3906
     1.4209   1.5118   1.5485   1.5824   1.6292   1.6890   1.7371   1.7619
     1.7809   1.7963   1.8954   2.0131   2.0889   2.1052   2.1721   2.2218
     2.2668   2.2758   2.3306   2.3653   2.4526   2.4924   2.5066   2.5209
     2.6348   2.6394   2.6756   2.6984   2.7334   2.7540   2.7693   2.7773
     2.7847   2.7956   2.8247   2.8260   2.8444   2.8510   2.8581   2.8769
     2.8908   2.8965   2.9181   2.9294   2.9342   2.9708   2.9857   3.0454
     3.4267   3.4602   3.6910   4.1191   4.2459   4.5395   4.8782   4.9836
     5.5062   5.6285   5.7999   5.9025   5.9436   5.9814   6.0578   6.5410
     7.0085   7.0289   7.2047   7.2348   7.3365   7.3985   7.5383   7.6066
     7.7687   7.8451   8.0555   8.2111   8.2859   8.3197   8.3524   8.4480
     8.5768   8.8104

     occupation numbers 
     1.0000   1.0000   1.0000   1.0000   1.0000   1.0000   1.0000   1.0000
     1.0000   1.0000   1.0000   1.0000   1.0000   1.0000   1.0000   1.0000
     1.0000   1.0000   1.0000   1.0000   1.0000   1.0000   1.0000   1.0000
     1.0000   1.0000   1.0000   1.0000   1.0000   1.0000   1.0000   1.0000
     1.0000   1.0000   1.0000   1.0000   1.0000   1.0000   1.0000   1.0000
     1.0000   1.0000   1.0000   1.0000   1.0000   1.0000   1.0000   1.0000
     1.0000   1.0000   1.0000   1.0000   1.0000   1.0000   1.0000   1.0000
     1.0000   1.0000   1.0000   1.0000   1.0000   1.0000   1.0000   1.0000
     1.0000   1.0000   1.0000   1.0000   1.0000   1.0000   1.0000   1.0000
     1.0000   1.0000   1.0000   1.0000   1.0000   1.0000   1.0000   1.0000
     1.0000   1.0000   1.0000   1.0000   1.0000   1.0000   1.0000   1.0000
     1.0000   1.0000   1.0000   1.0000   1.0000   1.0000   1.0000   1.0000
     1.0000   1.0000   1.0000   1.0000   1.0000   1.0000   1.0000   1.0000
     1.0000   1.0000   1.0000   1.0000   1.0000   1.0000   1.0000   1.0000
     1.0000   1.0000   1.0000   1.0000   1.0000   1.0000   1.0000   1.0000
     1.0000   1.0000   1.0000   1.0000   1.0000   1.0000   1.0000   1.0000
     1.0000   1.0000   1.0000   1.0000   1.0000   1.0000   1.0000   1.0000
     1.0000   1.0000   1.0000   1.0000   1.0000   1.0000   1.0000   1.0000
     1.0000   1.0000   1.0000   1.0000   1.0000   1.0000   1.0000   1.0000
     1.0000   1.0000   1.0000   1.0000   1.0000   0.9999   0.9999   0.9999
     0.9998   0.9998   0.9997   0.9996   0.9996   0.9992   0.9987   0.9986
     0.9984   0.9983   0.9981   0.9975   0.9971   0.9967   0.9960   0.9952
     0.9945   0.9920   0.9908   0.9894   0.9873   0.9841   0.9811   0.9793
     0.9778   0.9766   0.9672   0.9522   0.9399   0.9370   0.9237   0.9125
     0.9014   0.8991   0.8840   0.8736   0.8447   0.8302   0.8248   0.8192
     0.7713   0.7693   0.7526   0.7418   0.7247   0.7144   0.7066   0.7025
     0.6987   0.6930   0.6778   0.6771   0.6672   0.6636   0.6598   0.6494
     0.6418   0.6386   0.6265   0.6201   0.6175   0.5965   0.5879   0.5531
     0.3327   0.3148   0.2047   0.0720   0.0496   0.0185   0.0048   0.0030
     0.0002   0.0001   0.0000   0.0000   0.0000   0.0000   0.0000   0.0000
     0.0000   0.0000   0.0000   0.0000   0.0000   0.0000   0.0000   0.0000
     0.0000   0.0000   0.0000   0.0000   0.0000   0.0000   0.0000   0.0000
     0.0000   0.0000

          k = 0.0000-0.5000 0.0000 ( 65180 PWs)   bands (ev):

   -92.8934 -92.8430 -92.7476 -92.7024 -92.6443 -92.6002 -92.5824 -92.4630
   -56.2470 -56.2297 -56.1044 -56.0938 -56.0882 -56.0807 -56.0460 -56.0164
   -56.0013 -56.0002 -55.9934 -55.9511 -55.9337 -55.8947 -55.8745 -55.8439
   -55.8376 -55.7889 -55.7877 -55.7849 -55.7766 -55.7378 -55.7125 -55.6284
   -31.4567 -31.4363 -31.3068 -31.2955 -31.2072 -31.1568 -31.0510 -30.4626
   -30.0380 -29.9930 -29.9695 -29.8598 -15.1939 -15.1463 -15.0861 -14.9629
   -14.8791 -14.7472 -14.5765 -14.4670 -14.3444 -14.2683 -14.2277 -14.2208
   -14.1693 -14.1561 -14.1041 -14.0802 -14.0568 -14.0275 -13.9845 -13.9353
   -13.7701 -13.7108 -13.6754 -13.6426 -13.5689 -13.5432 -13.4837 -13.4611
   -13.4430 -13.3954 -13.2925 -13.2834 -13.2376 -13.1652 -13.1437 -13.1225
   -13.1067 -13.0624 -13.0431 -13.0035 -12.9821 -12.8862 -12.8346 -12.8319
   -12.7790 -12.6944 -12.5314 -12.5028 -12.4592 -12.4275 -12.1675 -12.1185
   -11.9727 -11.9680 -11.9561 -11.9315 -11.9024 -11.8681 -11.8565 -11.8156
   -11.8113 -11.7672 -11.7012 -11.6887 -11.6760  -2.7787  -2.7208  -2.5700
    -2.4996  -2.2153  -2.1326  -2.0043  -1.8704  -1.8281  -1.8115  -1.7341
    -1.7037  -1.6178  -1.5846  -1.5041  -1.4669  -1.4302  -1.4031  -1.3359
    -1.3062  -1.2585  -1.2239  -1.1894  -1.1575  -1.0465  -1.0034  -0.9648
    -0.9606  -0.8757  -0.8468  -0.8239  -0.7723  -0.6861  -0.6107  -0.5198
    -0.4901  -0.3815  -0.3510  -0.2180  -0.1657  -0.1460  -0.0909   0.0394
     0.1004   0.2029   0.2748   0.2839   0.4092   0.4747   0.5767   0.6943
     0.7964   0.8284   0.8695   0.8842   0.9154   0.9304   0.9634   0.9809
     0.9935   1.1045   1.1675   1.1967   1.2187   1.4915   1.5201   1.5440
     1.6372   1.6623   1.6904   1.7098   1.7259   1.7609   1.7660   1.7889
     1.8163   1.8493   1.8813   1.8858   1.9145   1.9664   2.0579   2.0976
     2.2648   2.4128   2.4199   2.4450   2.4708   2.4856   2.4904   2.5332
     2.5451   2.5578   2.6089   2.6273   2.6353   2.6455   2.7092   2.7257
     2.7947   2.7994   2.8208   2.8243   2.8403   2.8464   2.8499   2.8561
     2.8584   2.8718   2.8881   2.8901   2.9558   2.9583   2.9755   3.0301
     3.9459   3.9727   4.0135   4.0815   4.5517   4.7297   4.8963   4.9945
     5.2753   5.3552   5.4850   5.5786   5.8479   5.8665   6.2272   6.6503
     6.7813   6.8897   7.1292   7.3056   7.5575   7.6395   7.6648   7.7401
     7.7748   7.8542   8.1077   8.2439   8.3354   8.4075   8.5062   8.5360
     8.6799   8.7130

     occupation numbers 
     1.0000   1.0000   1.0000   1.0000   1.0000   1.0000   1.0000   1.0000
     1.0000   1.0000   1.0000   1.0000   1.0000   1.0000   1.0000   1.0000
     1.0000   1.0000   1.0000   1.0000   1.0000   1.0000   1.0000   1.0000
     1.0000   1.0000   1.0000   1.0000   1.0000   1.0000   1.0000   1.0000
     1.0000   1.0000   1.0000   1.0000   1.0000   1.0000   1.0000   1.0000
     1.0000   1.0000   1.0000   1.0000   1.0000   1.0000   1.0000   1.0000
     1.0000   1.0000   1.0000   1.0000   1.0000   1.0000   1.0000   1.0000
     1.0000   1.0000   1.0000   1.0000   1.0000   1.0000   1.0000   1.0000
     1.0000   1.0000   1.0000   1.0000   1.0000   1.0000   1.0000   1.0000
     1.0000   1.0000   1.0000   1.0000   1.0000   1.0000   1.0000   1.0000
     1.0000   1.0000   1.0000   1.0000   1.0000   1.0000   1.0000   1.0000
     1.0000   1.0000   1.0000   1.0000   1.0000   1.0000   1.0000   1.0000
     1.0000   1.0000   1.0000   1.0000   1.0000   1.0000   1.0000   1.0000
     1.0000   1.0000   1.0000   1.0000   1.0000   1.0000   1.0000   1.0000
     1.0000   1.0000   1.0000   1.0000   1.0000   1.0000   1.0000   1.0000
     1.0000   1.0000   1.0000   1.0000   1.0000   1.0000   1.0000   1.0000
     1.0000   1.0000   1.0000   1.0000   1.0000   1.0000   1.0000   1.0000
     1.0000   1.0000   1.0000   1.0000   1.0000   1.0000   1.0000   1.0000
     1.0000   1.0000   1.0000   1.0000   1.0000   1.0000   1.0000   1.0000
     1.0000   1.0000   1.0000   1.0000   1.0000   1.0000   0.9999   0.9999
     0.9997   0.9997   0.9996   0.9996   0.9995   0.9995   0.9994   0.9993
     0.9993   0.9987   0.9983   0.9980   0.9978   0.9927   0.9918   0.9909
     0.9869   0.9856   0.9841   0.9829   0.9818   0.9794   0.9790   0.9772
     0.9749   0.9719   0.9687   0.9682   0.9651   0.9587   0.9452   0.9383
     0.9020   0.8584   0.8560   0.8473   0.8381   0.8327   0.8309   0.8144
     0.8096   0.8044   0.7828   0.7747   0.7711   0.7665   0.7366   0.7285
     0.6935   0.6911   0.6798   0.6780   0.6694   0.6661   0.6642   0.6608
     0.6596   0.6523   0.6433   0.6421   0.6051   0.6037   0.5939   0.5621
     0.1144   0.1069   0.0961   0.0800   0.0177   0.0090   0.0045   0.0029
     0.0007   0.0005   0.0002   0.0001   0.0000   0.0000   0.0000   0.0000
     0.0000   0.0000   0.0000   0.0000   0.0000   0.0000   0.0000   0.0000
     0.0000   0.0000   0.0000   0.0000   0.0000   0.0000   0.0000   0.0000
     0.0000   0.0000

          k = 0.2500 0.2500 0.0000 ( 65198 PWs)   bands (ev):

   -92.8934 -92.8430 -92.7476 -92.7024 -92.6443 -92.6002 -92.5824 -92.4630
   -56.2470 -56.2297 -56.1044 -56.0938 -56.0882 -56.0807 -56.0460 -56.0164
   -56.0013 -56.0002 -55.9934 -55.9511 -55.9337 -55.8947 -55.8745 -55.8439
   -55.8376 -55.7889 -55.7877 -55.7849 -55.7766 -55.7378 -55.7125 -55.6284
   -31.4553 -31.4381 -31.3069 -31.2949 -31.2074 -31.1565 -31.0512 -30.4626
   -30.0377 -29.9943 -29.9685 -29.8599 -15.2036 -15.1536 -15.0884 -14.9726
   -14.8477 -14.7193 -14.6570 -14.4468 -14.2945 -14.2793 -14.2442 -14.2141
   -14.1911 -14.1526 -14.1304 -14.0955 -14.0271 -14.0101 -13.8482 -13.8340
   -13.8035 -13.7852 -13.7172 -13.6945 -13.6103 -13.6071 -13.4690 -13.4247
   -13.4058 -13.3228 -13.2825 -13.2497 -13.2226 -13.1976 -13.1594 -13.1259
   -13.1128 -13.0968 -13.0407 -12.9858 -12.9601 -12.9238 -12.9152 -12.8935
   -12.7948 -12.6324 -12.6078 -12.4571 -12.4468 -12.4258 -12.1206 -12.0980
   -11.9878 -11.9610 -11.9507 -11.9437 -11.9366 -11.8752 -11.8396 -11.8336
   -11.7990 -11.7921 -11.6956 -11.6577 -11.6408  -2.8554  -2.6479  -2.5294
    -2.4345  -2.3147  -2.2504  -2.0506  -1.9080  -1.8903  -1.8578  -1.7638
    -1.7309  -1.6354  -1.6053  -1.5570  -1.4267  -1.3760  -1.3046  -1.2605
    -1.2144  -1.1930  -1.1696  -1.1257  -1.1113  -1.0206  -0.9696  -0.9011
    -0.8519  -0.8211  -0.7760  -0.7588  -0.6943  -0.6472  -0.5838  -0.5527
    -0.4639  -0.4137  -0.3837  -0.3490  -0.2931  -0.2006  -0.1794  -0.1508
    -0.0672  -0.0387   0.2249   0.3767   0.4068   0.4714   0.5140   0.5811
     0.6277   0.6875   0.7251   0.9936   1.0560   1.1289   1.1523   1.2067
     1.2322   1.2697   1.3073   1.3235   1.3499   1.4014   1.4062   1.4205
     1.4671   1.5053   1.5439   1.6196   1.6518   1.6575   1.6985   1.7302
     1.7829   1.8156   1.9323   1.9965   2.0296   2.0458   2.1219   2.1846
     2.2100   2.2437   2.2747   2.2878   2.3956   2.4320   2.5093   2.5283
     2.6339   2.6381   2.6877   2.7040   2.7096   2.7279   2.7435   2.7553
     2.7679   2.7750   2.7853   2.7983   2.8111   2.8293   2.8353   2.8469
     2.8704   2.8803   2.8910   2.9205   3.2204   3.3149   3.3621   3.4360
     3.4644   3.6735   3.7644   4.1263   4.3356   4.5450   4.8006   5.1230
     5.4924   5.5532   5.5922   5.6504   5.7123   6.0722   6.1085   6.1504
     6.8296   7.0342   7.2277   7.3726   7.4463   7.4724   7.5835   7.7517
     7.8663   8.1095   8.1601   8.2244   8.3177   8.3999   8.4505   8.4858
     8.5506   8.6418

     occupation numbers 
     1.0000   1.0000   1.0000   1.0000   1.0000   1.0000   1.0000   1.0000
     1.0000   1.0000   1.0000   1.0000   1.0000   1.0000   1.0000   1.0000
     1.0000   1.0000   1.0000   1.0000   1.0000   1.0000   1.0000   1.0000
     1.0000   1.0000   1.0000   1.0000   1.0000   1.0000   1.0000   1.0000
     1.0000   1.0000   1.0000   1.0000   1.0000   1.0000   1.0000   1.0000
     1.0000   1.0000   1.0000   1.0000   1.0000   1.0000   1.0000   1.0000
     1.0000   1.0000   1.0000   1.0000   1.0000   1.0000   1.0000   1.0000
     1.0000   1.0000   1.0000   1.0000   1.0000   1.0000   1.0000   1.0000
     1.0000   1.0000   1.0000   1.0000   1.0000   1.0000   1.0000   1.0000
     1.0000   1.0000   1.0000   1.0000   1.0000   1.0000   1.0000   1.0000
     1.0000   1.0000   1.0000   1.0000   1.0000   1.0000   1.0000   1.0000
     1.0000   1.0000   1.0000   1.0000   1.0000   1.0000   1.0000   1.0000
     1.0000   1.0000   1.0000   1.0000   1.0000   1.0000   1.0000   1.0000
     1.0000   1.0000   1.0000   1.0000   1.0000   1.0000   1.0000   1.0000
     1.0000   1.0000   1.0000   1.0000   1.0000   1.0000   1.0000   1.0000
     1.0000   1.0000   1.0000   1.0000   1.0000   1.0000   1.0000   1.0000
     1.0000   1.0000   1.0000   1.0000   1.0000   1.0000   1.0000   1.0000
     1.0000   1.0000   1.0000   1.0000   1.0000   1.0000   1.0000   1.0000
     1.0000   1.0000   1.0000   1.0000   1.0000   1.0000   1.0000   1.0000
     1.0000   1.0000   1.0000   1.0000   1.0000   1.0000   1.0000   0.9999
     0.9999   0.9999   0.9998   0.9993   0.9990   0.9986   0.9984   0.9979
     0.9976   0.9972   0.9967   0.9964   0.9960   0.9950   0.9949   0.9946
     0.9934   0.9923   0.9909   0.9878   0.9862   0.9859   0.9836   0.9815
     0.9777   0.9750   0.9630   0.9546   0.9497   0.9472   0.9338   0.9210
     0.9153   0.9073   0.8994   0.8959   0.8640   0.8519   0.8237   0.8163
     0.7718   0.7699   0.7469   0.7391   0.7364   0.7274   0.7197   0.7138
     0.7073   0.7037   0.6984   0.6917   0.6850   0.6753   0.6721   0.6658
     0.6530   0.6476   0.6417   0.6252   0.4498   0.3949   0.3682   0.3277
     0.3126   0.2121   0.1751   0.0706   0.0374   0.0182   0.0067   0.0016
     0.0002   0.0002   0.0001   0.0001   0.0001   0.0000   0.0000   0.0000
     0.0000   0.0000   0.0000   0.0000   0.0000   0.0000   0.0000   0.0000
     0.0000   0.0000   0.0000   0.0000   0.0000   0.0000   0.0000   0.0000
     0.0000   0.0000

          k = 0.2500-0.5000 0.0000 ( 65138 PWs)   bands (ev):

   -92.8934 -92.8430 -92.7476 -92.7024 -92.6443 -92.6002 -92.5824 -92.4630
   -56.2470 -56.2297 -56.1044 -56.0938 -56.0882 -56.0807 -56.0460 -56.0164
   -56.0013 -56.0002 -55.9934 -55.9511 -55.9337 -55.8947 -55.8745 -55.8439
   -55.8376 -55.7889 -55.7877 -55.7849 -55.7766 -55.7378 -55.7125 -55.6284
   -31.4551 -31.4379 -31.3067 -31.2951 -31.2075 -31.1567 -31.0511 -30.4626
   -30.0371 -29.9940 -29.9691 -29.8602 -15.1625 -15.1193 -15.0427 -14.9354
   -14.9009 -14.7871 -14.6846 -14.5627 -14.2599 -14.2028 -14.1794 -14.1537
   -14.1397 -14.1276 -14.0882 -14.0673 -14.0411 -14.0040 -13.9780 -13.9271
   -13.8510 -13.8027 -13.7338 -13.7226 -13.6503 -13.6147 -13.5235 -13.4888
   -13.3864 -13.3211 -13.3045 -13.2305 -13.2052 -13.1699 -13.1570 -13.1261
   -13.1100 -13.0903 -13.0331 -12.9933 -12.9655 -12.8704 -12.8364 -12.8312
   -12.8044 -12.7010 -12.5035 -12.4992 -12.4344 -12.4169 -12.1607 -12.1205
   -11.9662 -11.9573 -11.9464 -11.9389 -11.9122 -11.8824 -11.8528 -11.8131
   -11.7827 -11.7633 -11.7143 -11.6909 -11.6804  -2.6363  -2.5721  -2.4434
    -2.3679  -2.2356  -2.1522  -2.0285  -1.8811  -1.8242  -1.8035  -1.7420
    -1.7293  -1.6286  -1.5647  -1.4805  -1.4270  -1.4178  -1.3573  -1.3097
    -1.2801  -1.2321  -1.1949  -1.1595  -1.1205  -1.1053  -1.0634  -1.0332
    -0.9906  -0.9591  -0.8928  -0.7891  -0.7485  -0.6696  -0.6029  -0.5485
    -0.5108  -0.4938  -0.4295  -0.2737  -0.2644  -0.1552  -0.1285  -0.1210
    -0.0768  -0.0372  -0.0007   0.0293   0.0889   0.3765   0.4807   0.5442
     0.5951   0.8631   0.8781   0.9647   0.9947   1.1525   1.1903   1.2291
     1.2507   1.2641   1.2853   1.3505   1.4004   1.4326   1.5120   1.6192
     1.6528   1.6655   1.6776   1.7148   1.7234   1.7433   1.7831   1.7885
     1.8152   1.8446   1.8577   1.8746   1.9141   1.9666   2.0117   2.0938
     2.2263   2.3648   2.3831   2.4008   2.4303   2.4493   2.4742   2.4986
     2.5135   2.5286   2.5509   2.6300   2.6358   2.6461   2.6889   2.7069
     2.7134   2.7244   2.7439   2.7571   2.7779   2.7855   2.8217   2.8305
     2.8450   2.8517   2.8614   2.8704   3.3967   3.4150   3.5522   3.6076
     3.9539   4.0073   4.0176   4.1362   4.5708   4.7497   4.9146   4.9580
     5.1250   5.2959   5.4964   5.5231   5.6181   5.6666   6.3121   6.3358
     6.4454   6.7354   7.2536   7.5752   7.6568   7.7086   7.7649   7.8105
     7.9122   8.1065   8.1600   8.3151   8.3824   8.3992   8.5457   8.5811
     8.6321   8.6906

     occupation numbers 
     1.0000   1.0000   1.0000   1.0000   1.0000   1.0000   1.0000   1.0000
     1.0000   1.0000   1.0000   1.0000   1.0000   1.0000   1.0000   1.0000
     1.0000   1.0000   1.0000   1.0000   1.0000   1.0000   1.0000   1.0000
     1.0000   1.0000   1.0000   1.0000   1.0000   1.0000   1.0000   1.0000
     1.0000   1.0000   1.0000   1.0000   1.0000   1.0000   1.0000   1.0000
     1.0000   1.0000   1.0000   1.0000   1.0000   1.0000   1.0000   1.0000
     1.0000   1.0000   1.0000   1.0000   1.0000   1.0000   1.0000   1.0000
     1.0000   1.0000   1.0000   1.0000   1.0000   1.0000   1.0000   1.0000
     1.0000   1.0000   1.0000   1.0000   1.0000   1.0000   1.0000   1.0000
     1.0000   1.0000   1.0000   1.0000   1.0000   1.0000   1.0000   1.0000
     1.0000   1.0000   1.0000   1.0000   1.0000   1.0000   1.0000   1.0000
     1.0000   1.0000   1.0000   1.0000   1.0000   1.0000   1.0000   1.0000
     1.0000   1.0000   1.0000   1.0000   1.0000   1.0000   1.0000   1.0000
     1.0000   1.0000   1.0000   1.0000   1.0000   1.0000   1.0000   1.0000
     1.0000   1.0000   1.0000   1.0000   1.0000   1.0000   1.0000   1.0000
     1.0000   1.0000   1.0000   1.0000   1.0000   1.0000   1.0000   1.0000
     1.0000   1.0000   1.0000   1.0000   1.0000   1.0000   1.0000   1.0000
     1.0000   1.0000   1.0000   1.0000   1.0000   1.0000   1.0000   1.0000
     1.0000   1.0000   1.0000   1.0000   1.0000   1.0000   1.0000   1.0000
     1.0000   1.0000   1.0000   1.0000   1.0000   1.0000   1.0000   0.9999
     0.9999   0.9996   0.9996   0.9994   0.9993   0.9984   0.9981   0.9977
     0.9974   0.9973   0.9970   0.9960   0.9950   0.9943   0.9920   0.9878
     0.9862   0.9855   0.9848   0.9825   0.9820   0.9806   0.9777   0.9772
     0.9750   0.9724   0.9711   0.9694   0.9651   0.9587   0.9524   0.9390
     0.9115   0.8737   0.8680   0.8623   0.8525   0.8458   0.8369   0.8278
     0.8221   0.8162   0.8073   0.7735   0.7709   0.7663   0.7463   0.7377
     0.7346   0.7292   0.7195   0.7129   0.7023   0.6983   0.6793   0.6746
     0.6668   0.6632   0.6580   0.6530   0.3490   0.3390   0.2680   0.2416
     0.1121   0.0977   0.0951   0.0686   0.0165   0.0083   0.0041   0.0034
     0.0016   0.0007   0.0002   0.0002   0.0001   0.0001   0.0000   0.0000
     0.0000   0.0000   0.0000   0.0000   0.0000   0.0000   0.0000   0.0000
     0.0000   0.0000   0.0000   0.0000   0.0000   0.0000   0.0000   0.0000
     0.0000   0.0000

          k =-0.5000-0.5000 0.0000 ( 65132 PWs)   bands (ev):

   -92.8934 -92.8430 -92.7476 -92.7024 -92.6443 -92.6002 -92.5824 -92.4630
   -56.2470 -56.2297 -56.1044 -56.0938 -56.0882 -56.0807 -56.0460 -56.0164
   -56.0013 -56.0002 -55.9934 -55.9511 -55.9337 -55.8947 -55.8745 -55.8439
   -55.8376 -55.7889 -55.7877 -55.7849 -55.7766 -55.7378 -55.7125 -55.6284
   -31.4532 -31.4399 -31.3066 -31.2948 -31.2079 -31.1567 -31.0513 -30.4627
   -30.0361 -29.9950 -29.9687 -29.8606 -15.1137 -15.0917 -14.9759 -14.9557
   -14.8635 -14.8311 -14.7957 -14.6612 -14.1700 -14.1569 -14.1222 -14.1066
   -14.0858 -14.0621 -14.0480 -14.0334 -14.0165 -14.0119 -13.9965 -13.9178
   -13.9094 -13.8829 -13.8460 -13.8106 -13.7369 -13.6759 -13.5552 -13.5309
   -13.3368 -13.3028 -13.2297 -13.2064 -13.2011 -13.1708 -13.1632 -13.1534
   -13.1362 -13.0883 -12.9998 -12.9856 -12.9489 -12.9060 -12.8954 -12.7856
   -12.7780 -12.7172 -12.4969 -12.4817 -12.4257 -12.3909 -12.1552 -12.1209
   -11.9603 -11.9535 -11.9479 -11.9307 -11.9128 -11.8787 -11.8596 -11.8246
   -11.7604 -11.7456 -11.7379 -11.6896 -11.6864  -2.4105  -2.3369  -2.3276
    -2.2550  -2.2169  -2.1389  -2.0704  -1.9454  -1.8313  -1.8010  -1.7594
    -1.7038  -1.6333  -1.6158  -1.5480  -1.5051  -1.3872  -1.3533  -1.3095
    -1.2827  -1.2179  -1.1681  -1.1508  -1.1370  -1.0826  -1.0426  -1.0234
    -0.9119  -0.8540  -0.8035  -0.7581  -0.7291  -0.7154  -0.6814  -0.6369
    -0.5990  -0.5928  -0.5072  -0.4393  -0.3991  -0.3652  -0.2980  -0.2304
    -0.2189  -0.1594  -0.1317  -0.1259  -0.1128   0.3484   0.4129   0.4903
     0.5165   0.8899   0.9021   0.9349   0.9732   1.2405   1.2578   1.2671
     1.3071   1.4319   1.5250   1.5527   1.5903   1.6228   1.6364   1.6475
     1.6760   1.6941   1.7176   1.7293   1.7613   1.7646   1.7914   1.8309
     1.8367   1.8491   1.8916   1.9115   1.9255   1.9569   1.9881   2.0459
     2.1133   2.3774   2.4079   2.4284   2.4396   2.4471   2.4802   2.4901
     2.5052   2.5224   2.5322   2.5401   2.5688   2.5932   2.6308   2.6331
     2.6419   2.6453   2.6638   2.6804   2.6891   2.7104   2.7188   2.7254
     2.8277   2.8348   2.8568   2.8687   3.8247   3.8615   3.8911   3.9163
     4.1284   4.2029   4.2275   4.4682   4.5911   4.6731   4.8066   4.9133
     4.9252   5.0176   5.1597   5.2482   5.8000   5.8368   5.8875   6.0097
     6.4717   6.8505   6.9309   7.7994   7.8300   7.8440   7.9250   8.0739
     8.1058   8.1760   8.1992   8.2815   8.3699   8.4436   8.4873   8.4993
     8.5389   8.5973

     occupation numbers 
     1.0000   1.0000   1.0000   1.0000   1.0000   1.0000   1.0000   1.0000
     1.0000   1.0000   1.0000   1.0000   1.0000   1.0000   1.0000   1.0000
     1.0000   1.0000   1.0000   1.0000   1.0000   1.0000   1.0000   1.0000
     1.0000   1.0000   1.0000   1.0000   1.0000   1.0000   1.0000   1.0000
     1.0000   1.0000   1.0000   1.0000   1.0000   1.0000   1.0000   1.0000
     1.0000   1.0000   1.0000   1.0000   1.0000   1.0000   1.0000   1.0000
     1.0000   1.0000   1.0000   1.0000   1.0000   1.0000   1.0000   1.0000
     1.0000   1.0000   1.0000   1.0000   1.0000   1.0000   1.0000   1.0000
     1.0000   1.0000   1.0000   1.0000   1.0000   1.0000   1.0000   1.0000
     1.0000   1.0000   1.0000   1.0000   1.0000   1.0000   1.0000   1.0000
     1.0000   1.0000   1.0000   1.0000   1.0000   1.0000   1.0000   1.0000
     1.0000   1.0000   1.0000   1.0000   1.0000   1.0000   1.0000   1.0000
     1.0000   1.0000   1.0000   1.0000   1.0000   1.0000   1.0000   1.0000
     1.0000   1.0000   1.0000   1.0000   1.0000   1.0000   1.0000   1.0000
     1.0000   1.0000   1.0000   1.0000   1.0000   1.0000   1.0000   1.0000
     1.0000   1.0000   1.0000   1.0000   1.0000   1.0000   1.0000   1.0000
     1.0000   1.0000   1.0000   1.0000   1.0000   1.0000   1.0000   1.0000
     1.0000   1.0000   1.0000   1.0000   1.0000   1.0000   1.0000   1.0000
     1.0000   1.0000   1.0000   1.0000   1.0000   1.0000   1.0000   1.0000
     1.0000   1.0000   1.0000   1.0000   1.0000   1.0000   1.0000   1.0000
     0.9999   0.9996   0.9995   0.9995   0.9993   0.9976   0.9973   0.9972
     0.9967   0.9943   0.9916   0.9906   0.9891   0.9877   0.9870   0.9864
     0.9849   0.9838   0.9824   0.9816   0.9793   0.9791   0.9770   0.9736
     0.9731   0.9719   0.9676   0.9654   0.9638   0.9599   0.9558   0.9471
     0.9355   0.8698   0.8600   0.8531   0.8493   0.8466   0.8347   0.8310
     0.8253   0.8187   0.8148   0.8116   0.7999   0.7896   0.7732   0.7721
     0.7681   0.7666   0.7581   0.7503   0.7462   0.7360   0.7319   0.7287
     0.6761   0.6723   0.6605   0.6540   0.1530   0.1405   0.1309   0.1231
     0.0702   0.0565   0.0524   0.0239   0.0153   0.0112   0.0065   0.0041
     0.0039   0.0026   0.0013   0.0009   0.0000   0.0000   0.0000   0.0000
     0.0000   0.0000   0.0000   0.0000   0.0000   0.0000   0.0000   0.0000
     0.0000   0.0000   0.0000   0.0000   0.0000   0.0000   0.0000   0.0000
     0.0000   0.0000

          k = 0.2500 0.0000 0.0000 ( 65257 PWs)   bands (ev):

   -92.8934 -92.8430 -92.7476 -92.7024 -92.6443 -92.6002 -92.5824 -92.4630
   -56.2470 -56.2297 -56.1044 -56.0938 -56.0882 -56.0807 -56.0460 -56.0164
   -56.0013 -56.0002 -55.9934 -55.9511 -55.9337 -55.8947 -55.8745 -55.8439
   -55.8376 -55.7889 -55.7877 -55.7849 -55.7766 -55.7378 -55.7125 -55.6284
   -31.4555 -31.4382 -31.3071 -31.2947 -31.2073 -31.1563 -31.0512 -30.4625
   -30.0383 -29.9946 -29.9679 -29.8596 -15.2366 -15.1829 -15.1233 -14.9755
   -14.8637 -14.6634 -14.5437 -14.3603 -14.3442 -14.3140 -14.2793 -14.2561
   -14.2190 -14.2024 -14.1847 -14.1372 -14.0282 -13.9958 -13.8446 -13.7779
   -13.7605 -13.6954 -13.6787 -13.6614 -13.5896 -13.5279 -13.4897 -13.3930
   -13.3381 -13.3293 -13.2752 -13.2401 -13.2225 -13.2055 -13.1894 -13.1530
   -13.1227 -13.1060 -13.0751 -13.0532 -12.9996 -12.9700 -12.9503 -12.8490
   -12.7937 -12.5992 -12.5861 -12.5712 -12.4318 -12.4245 -12.1084 -12.0535
   -12.0145 -11.9650 -11.9560 -11.9425 -11.9294 -11.9033 -11.8547 -11.8322
   -11.8235 -11.7743 -11.6803 -11.6281 -11.6223  -2.9935  -2.7728  -2.6428
    -2.4697  -2.4057  -2.2370  -2.0272  -1.9525  -1.9100  -1.8719  -1.7712
    -1.7568  -1.7220  -1.7030  -1.6325  -1.4523  -1.3432  -1.3062  -1.2079
    -1.1936  -1.1188  -1.0914  -1.0376  -0.9976  -0.9468  -0.9137  -0.8675
    -0.8407  -0.8186  -0.7674  -0.7499  -0.6602  -0.6520  -0.5794  -0.4827
    -0.4256  -0.3122  -0.3017  -0.2320  -0.1875  -0.1397  -0.1064  -0.0729
    -0.0117   0.0295   0.3166   0.4478   0.4803   0.5668   0.6017   0.6351
     0.6471   0.7202   0.8345   0.8801   0.9074   0.9437   1.0961   1.1266
     1.1617   1.1676   1.2054   1.2516   1.2967   1.3264   1.3863   1.4324
[...]
     0.6338   0.6205   0.6179   0.6135   0.6104   0.6042   0.5993   0.5230
     0.3494   0.3194   0.2030   0.0758   0.0440   0.0206   0.0049   0.0029
     0.0002   0.0001   0.0000   0.0000   0.0000   0.0000   0.0000   0.0000
     0.0000   0.0000   0.0000   0.0000   0.0000   0.0000   0.0000   0.0000
     0.0000   0.0000   0.0000   0.0000   0.0000   0.0000   0.0000   0.0000
     0.0000   0.0000

          k =-0.5000 0.0000 0.0000 ( 65180 PWs)   bands (ev):

   -92.8934 -92.8430 -92.7476 -92.7024 -92.6443 -92.6002 -92.5824 -92.4630
   -56.2470 -56.2297 -56.1044 -56.0938 -56.0882 -56.0807 -56.0460 -56.0164
   -56.0013 -56.0002 -55.9934 -55.9511 -55.9337 -55.8947 -55.8745 -55.8439
   -55.8376 -55.7889 -55.7877 -55.7849 -55.7766 -55.7378 -55.7125 -55.6284
   -31.4536 -31.4401 -31.3070 -31.2944 -31.2076 -31.1563 -31.0514 -30.4626
   -30.0373 -29.9956 -29.9675 -29.8600 -15.2014 -15.1433 -15.0819 -14.9761
   -14.8727 -14.7310 -14.5718 -14.4417 -14.3192 -14.3012 -14.2959 -14.2286
   -14.1739 -14.1405 -14.0926 -14.0850 -14.0657 -14.0220 -14.0051 -13.8878
   -13.7415 -13.7004 -13.6800 -13.6736 -13.5884 -13.5486 -13.4655 -13.4455
   -13.4216 -13.4011 -13.2673 -13.2338 -13.2193 -13.1963 -13.1865 -13.1473
   -13.1234 -13.1044 -13.0753 -13.0582 -12.9638 -12.8210 -12.8115 -12.7789
   -12.7225 -12.7193 -12.5647 -12.5068 -12.4959 -12.4277 -12.1604 -12.1136
   -11.9691 -11.9608 -11.9417 -11.9356 -11.9226 -11.9035 -11.8643 -11.8017
   -11.7852 -11.7531 -11.7034 -11.6957 -11.6811  -2.7690  -2.7316  -2.5680
    -2.5294  -2.2133  -2.1385  -1.9907  -1.8750  -1.8353  -1.7897  -1.7414
    -1.7186  -1.5934  -1.5504  -1.5321  -1.4512  -1.4177  -1.3959  -1.3698
    -1.3091  -1.2417  -1.2146  -1.1808  -1.0874  -1.0421  -0.9915  -0.9597
    -0.9383  -0.9074  -0.8603  -0.8356  -0.7917  -0.6921  -0.6225  -0.5500
    -0.4919  -0.3160  -0.2907  -0.2433  -0.1965  -0.1335  -0.1227   0.0183
     0.0447   0.0914   0.2523   0.3519   0.4010   0.4931   0.5747   0.6809
     0.6907   0.8282   0.8463   0.8998   0.9348   0.9657   0.9812   1.0220
     1.0486   1.1199   1.1651   1.2137   1.2198   1.5274   1.5344   1.5603
     1.5815   1.6779   1.6933   1.7079   1.7161   1.7450   1.7554   1.7979
     1.8110   1.8422   1.8889   1.9123   1.9594   1.9860   2.0371   2.1504
     2.2570   2.3144   2.3307   2.4098   2.4357   2.4600   2.5126   2.5407
     2.5466   2.5538   2.5808   2.6314   2.6395   2.6531   2.6970   2.7438
     2.7707   2.8109   2.8159   2.8162   2.8273   2.8440   2.8546   2.8684
     2.8739   2.8972   2.8999   2.9191   2.9388   2.9453   3.0760   3.0804
     3.8839   3.9545   4.0133   4.1519   4.6095   4.6932   4.8764   4.9143
     5.3628   5.3993   5.4847   5.5045   5.8539   5.8578   6.2017   6.7200
     6.7287   6.9403   7.1917   7.2510   7.5875   7.6203   7.6621   7.7108
     7.7521   7.8016   8.0881   8.2827   8.3582   8.4297   8.4959   8.5305
     8.6284   8.6911

     occupation numbers 
     1.0000   1.0000   1.0000   1.0000   1.0000   1.0000   1.0000   1.0000
     1.0000   1.0000   1.0000   1.0000   1.0000   1.0000   1.0000   1.0000
     1.0000   1.0000   1.0000   1.0000   1.0000   1.0000   1.0000   1.0000
     1.0000   1.0000   1.0000   1.0000   1.0000   1.0000   1.0000   1.0000
     1.0000   1.0000   1.0000   1.0000   1.0000   1.0000   1.0000   1.0000
     1.0000   1.0000   1.0000   1.0000   1.0000   1.0000   1.0000   1.0000
     1.0000   1.0000   1.0000   1.0000   1.0000   1.0000   1.0000   1.0000
     1.0000   1.0000   1.0000   1.0000   1.0000   1.0000   1.0000   1.0000
     1.0000   1.0000   1.0000   1.0000   1.0000   1.0000   1.0000   1.0000
     1.0000   1.0000   1.0000   1.0000   1.0000   1.0000   1.0000   1.0000
     1.0000   1.0000   1.0000   1.0000   1.0000   1.0000   1.0000   1.0000
     1.0000   1.0000   1.0000   1.0000   1.0000   1.0000   1.0000   1.0000
     1.0000   1.0000   1.0000   1.0000   1.0000   1.0000   1.0000   1.0000
     1.0000   1.0000   1.0000   1.0000   1.0000   1.0000   1.0000   1.0000
     1.0000   1.0000   1.0000   1.0000   1.0000   1.0000   1.0000   1.0000
     1.0000   1.0000   1.0000   1.0000   1.0000   1.0000   1.0000   1.0000
     1.0000   1.0000   1.0000   1.0000   1.0000   1.0000   1.0000   1.0000
     1.0000   1.0000   1.0000   1.0000   1.0000   1.0000   1.0000   1.0000
     1.0000   1.0000   1.0000   1.0000   1.0000   1.0000   1.0000   1.0000
     1.0000   1.0000   1.0000   1.0000   1.0000   1.0000   0.9999   0.9999
     0.9999   0.9997   0.9997   0.9995   0.9995   0.9994   0.9993   0.9992
     0.9990   0.9986   0.9983   0.9978   0.9978   0.9915   0.9913   0.9903
     0.9895   0.9848   0.9839   0.9830   0.9825   0.9805   0.9798   0.9765
     0.9754   0.9726   0.9679   0.9653   0.9596   0.9561   0.9485   0.9282
     0.9039   0.8886   0.8839   0.8594   0.8506   0.8420   0.8225   0.8114
     0.8090   0.8061   0.7949   0.7729   0.7692   0.7630   0.7425   0.7196
     0.7060   0.6851   0.6824   0.6822   0.6764   0.6674   0.6616   0.6541
     0.6511   0.6382   0.6367   0.6259   0.6148   0.6112   0.5351   0.5325
     0.1332   0.1119   0.0962   0.0656   0.0143   0.0104   0.0049   0.0041
     0.0005   0.0004   0.0002   0.0002   0.0000   0.0000   0.0000   0.0000
     0.0000   0.0000   0.0000   0.0000   0.0000   0.0000   0.0000   0.0000
     0.0000   0.0000   0.0000   0.0000   0.0000   0.0000   0.0000   0.0000
     0.0000   0.0000

          k =-0.2500 0.2500 0.0000 ( 65198 PWs)   bands (ev):

   -92.8934 -92.8430 -92.7476 -92.7024 -92.6443 -92.6002 -92.5824 -92.4630
   -56.2470 -56.2297 -56.1044 -56.0938 -56.0882 -56.0807 -56.0460 -56.0164
   -56.0013 -56.0002 -55.9934 -55.9511 -55.9337 -55.8947 -55.8745 -55.8439
   -55.8376 -55.7889 -55.7877 -55.7849 -55.7766 -55.7378 -55.7125 -55.6284
   -31.4553 -31.4381 -31.3069 -31.2949 -31.2074 -31.1565 -31.0512 -30.4626
   -30.0377 -29.9943 -29.9685 -29.8599 -15.2047 -15.1523 -15.0876 -14.9710
   -14.8531 -14.7257 -14.6485 -14.4360 -14.3011 -14.2715 -14.2551 -14.2092
   -14.1837 -14.1605 -14.1369 -14.1039 -14.0219 -14.0108 -13.8559 -13.8318
   -13.8004 -13.7801 -13.7200 -13.6822 -13.6166 -13.5955 -13.4700 -13.4403
   -13.4019 -13.3263 -13.2849 -13.2360 -13.2177 -13.1870 -13.1657 -13.1301
   -13.1064 -13.0929 -13.0658 -13.0027 -12.9803 -12.9502 -12.9187 -12.8719
   -12.7172 -12.6219 -12.5912 -12.5019 -12.4627 -12.4263 -12.1443 -12.0700
   -11.9872 -11.9659 -11.9555 -11.9356 -11.9244 -11.8847 -11.8487 -11.8272
   -11.8065 -11.7840 -11.6955 -11.6532 -11.6441  -2.8538  -2.6467  -2.5256
    -2.4356  -2.3189  -2.2533  -2.0481  -1.9049  -1.8879  -1.8559  -1.7644
    -1.7298  -1.6344  -1.6007  -1.5731  -1.4326  -1.3759  -1.3066  -1.2766
    -1.2180  -1.1994  -1.1596  -1.1310  -1.0901  -1.0266  -0.9782  -0.9117
    -0.8447  -0.8174  -0.7678  -0.7390  -0.6929  -0.6365  -0.5858  -0.5501
    -0.4442  -0.4165  -0.3994  -0.3608  -0.2956  -0.2087  -0.1746  -0.1415
    -0.0626  -0.0427   0.2068   0.3785   0.4144   0.4579   0.5242   0.5828
     0.6289   0.6971   0.7206   1.0019   1.1060   1.1462   1.1789   1.1861
     1.2283   1.2423   1.2888   1.3191   1.3318   1.3571   1.4079   1.4271
     1.4612   1.4837   1.5269   1.6309   1.6447   1.6592   1.7040   1.7243
     1.7676   1.8205   1.9235   2.0258   2.0478   2.0971   2.1175   2.1849
     2.2213   2.2471   2.2763   2.2948   2.3961   2.4320   2.5105   2.5259
     2.6325   2.6399   2.6947   2.7029   2.7163   2.7256   2.7374   2.7527
     2.7585   2.7764   2.7849   2.7989   2.8085   2.8208   2.8300   2.8385
     2.8711   2.8805   2.8892   2.9229   3.2137   3.2958   3.3646   3.4448
     3.4698   3.6577   3.7731   4.1255   4.3334   4.5471   4.8098   5.1232
     5.4941   5.5489   5.5954   5.6465   5.7132   6.0903   6.1019   6.1393
     6.8303   7.0626   7.1881   7.3755   7.4558   7.4783   7.5619   7.7617
     7.8523   8.1478   8.1927   8.2275   8.3158   8.3257   8.4520   8.4899
     8.5442   8.6715

     occupation numbers 
     1.0000   1.0000   1.0000   1.0000   1.0000   1.0000   1.0000   1.0000
     1.0000   1.0000   1.0000   1.0000   1.0000   1.0000   1.0000   1.0000
     1.0000   1.0000   1.0000   1.0000   1.0000   1.0000   1.0000   1.0000
     1.0000   1.0000   1.0000   1.0000   1.0000   1.0000   1.0000   1.0000
     1.0000   1.0000   1.0000   1.0000   1.0000   1.0000   1.0000   1.0000
     1.0000   1.0000   1.0000   1.0000   1.0000   1.0000   1.0000   1.0000
     1.0000   1.0000   1.0000   1.0000   1.0000   1.0000   1.0000   1.0000
     1.0000   1.0000   1.0000   1.0000   1.0000   1.0000   1.0000   1.0000
     1.0000   1.0000   1.0000   1.0000   1.0000   1.0000   1.0000   1.0000
     1.0000   1.0000   1.0000   1.0000   1.0000   1.0000   1.0000   1.0000
     1.0000   1.0000   1.0000   1.0000   1.0000   1.0000   1.0000   1.0000
     1.0000   1.0000   1.0000   1.0000   1.0000   1.0000   1.0000   1.0000
     1.0000   1.0000   1.0000   1.0000   1.0000   1.0000   1.0000   1.0000
     1.0000   1.0000   1.0000   1.0000   1.0000   1.0000   1.0000   1.0000
     1.0000   1.0000   1.0000   1.0000   1.0000   1.0000   1.0000   1.0000
     1.0000   1.0000   1.0000   1.0000   1.0000   1.0000   1.0000   1.0000
     1.0000   1.0000   1.0000   1.0000   1.0000   1.0000   1.0000   1.0000
     1.0000   1.0000   1.0000   1.0000   1.0000   1.0000   1.0000   1.0000
     1.0000   1.0000   1.0000   1.0000   1.0000   1.0000   1.0000   1.0000
     1.0000   1.0000   1.0000   1.0000   1.0000   1.0000   0.9999   0.9999
     0.9999   0.9999   0.9998   0.9992   0.9987   0.9984   0.9982   0.9981
     0.9977   0.9975   0.9969   0.9965   0.9963   0.9959   0.9948   0.9944
     0.9935   0.9929   0.9915   0.9873   0.9866   0.9858   0.9832   0.9819
     0.9789   0.9746   0.9640   0.9503   0.9468   0.9384   0.9347   0.9209
     0.9127   0.9064   0.8990   0.8940   0.8639   0.8519   0.8233   0.8173
     0.7724   0.7691   0.7436   0.7396   0.7332   0.7286   0.7227   0.7151
     0.7122   0.7030   0.6986   0.6914   0.6863   0.6798   0.6749   0.6703
     0.6526   0.6474   0.6427   0.6238   0.4537   0.4059   0.3668   0.3230
     0.3097   0.2190   0.1718   0.0708   0.0376   0.0180   0.0065   0.0016
     0.0002   0.0002   0.0001   0.0001   0.0001   0.0000   0.0000   0.0000
     0.0000   0.0000   0.0000   0.0000   0.0000   0.0000   0.0000   0.0000
     0.0000   0.0000   0.0000   0.0000   0.0000   0.0000   0.0000   0.0000
     0.0000   0.0000

          k =-0.5000 0.2500 0.0000 ( 65138 PWs)   bands (ev):

   -92.8934 -92.8430 -92.7476 -92.7024 -92.6443 -92.6002 -92.5824 -92.4630
   -56.2470 -56.2297 -56.1044 -56.0938 -56.0882 -56.0807 -56.0460 -56.0164
   -56.0013 -56.0002 -55.9934 -55.9511 -55.9337 -55.8947 -55.8745 -55.8439
   -55.8376 -55.7889 -55.7877 -55.7849 -55.7766 -55.7378 -55.7125 -55.6284
   -31.4534 -31.4400 -31.3068 -31.2946 -31.2078 -31.1565 -31.0513 -30.4626
   -30.0367 -29.9953 -29.9681 -29.8603 -15.1676 -15.1175 -15.0387 -14.9428
   -14.9015 -14.7781 -14.6795 -14.5574 -14.2518 -14.2204 -14.2083 -14.1593
   -14.1385 -14.1140 -14.0795 -14.0707 -14.0458 -14.0103 -14.0014 -13.8862
   -13.8221 -13.7739 -13.7661 -13.7428 -13.6513 -13.6312 -13.5094 -13.4729
   -13.3788 -13.3455 -13.2519 -13.2282 -13.2043 -13.1949 -13.1657 -13.1331
   -13.1188 -13.0966 -13.0699 -13.0097 -12.9694 -12.8411 -12.8054 -12.7995
   -12.7943 -12.7185 -12.5148 -12.5017 -12.4432 -12.4221 -12.1571 -12.1182
   -11.9618 -11.9556 -11.9458 -11.9309 -11.9213 -11.8974 -11.8691 -11.7892
   -11.7781 -11.7583 -11.7182 -11.6923 -11.6840  -2.6261  -2.5854  -2.4373
    -2.3955  -2.2328  -2.1569  -2.0149  -1.8812  -1.8233  -1.7974  -1.7578
    -1.7207  -1.6390  -1.5237  -1.4658  -1.4436  -1.4173  -1.3348  -1.3132
    -1.2717  -1.2565  -1.1954  -1.1629  -1.1281  -1.0925  -1.0633  -1.0043
    -0.9771  -0.9356  -0.9000  -0.7952  -0.7660  -0.6734  -0.6177  -0.5819
    -0.5249  -0.4441  -0.4075  -0.3102  -0.2596  -0.2095  -0.1515  -0.1267
    -0.0616  -0.0362  -0.0030   0.0442   0.0851   0.4056   0.4829   0.5372
     0.5606   0.8399   0.8969   0.9665   0.9968   1.1671   1.2029   1.2404
     1.2490   1.2675   1.2855   1.3572   1.4010   1.4471   1.4739   1.6091
     1.6431   1.6640   1.6753   1.7245   1.7431   1.7569   1.7693   1.7878
     1.8118   1.8566   1.8658   1.9049   1.9277   1.9648   2.0140   2.1393
     2.2357   2.2643   2.3299   2.3626   2.4261   2.4577   2.4666   2.5025
     2.5210   2.5479   2.5672   2.6321   2.6364   2.6532   2.6918   2.7063
     2.7115   2.7302   2.7532   2.7647   2.7824   2.7929   2.8159   2.8271
     2.8372   2.8440   2.8549   2.8670   3.3977   3.4515   3.5844   3.6071
     3.8913   3.9736   4.0189   4.2288   4.6018   4.7050   4.8704   4.9277
     5.2282   5.2573   5.4862   5.5625   5.6057   5.6357   6.2956   6.3286
     6.4507   6.8090   7.1962   7.5948   7.6644   7.7241   7.7439   7.8049
     7.9013   8.0844   8.1582   8.3099   8.3988   8.4201   8.5017   8.5571
     8.6900   8.7109

     occupation numbers 
     1.0000   1.0000   1.0000   1.0000   1.0000   1.0000   1.0000   1.0000
     1.0000   1.0000   1.0000   1.0000   1.0000   1.0000   1.0000   1.0000
     1.0000   1.0000   1.0000   1.0000   1.0000   1.0000   1.0000   1.0000
     1.0000   1.0000   1.0000   1.0000   1.0000   1.0000   1.0000   1.0000
     1.0000   1.0000   1.0000   1.0000   1.0000   1.0000   1.0000   1.0000
     1.0000   1.0000   1.0000   1.0000   1.0000   1.0000   1.0000   1.0000
     1.0000   1.0000   1.0000   1.0000   1.0000   1.0000   1.0000   1.0000
     1.0000   1.0000   1.0000   1.0000   1.0000   1.0000   1.0000   1.0000
     1.0000   1.0000   1.0000   1.0000   1.0000   1.0000   1.0000   1.0000
     1.0000   1.0000   1.0000   1.0000   1.0000   1.0000   1.0000   1.0000
     1.0000   1.0000   1.0000   1.0000   1.0000   1.0000   1.0000   1.0000
     1.0000   1.0000   1.0000   1.0000   1.0000   1.0000   1.0000   1.0000
     1.0000   1.0000   1.0000   1.0000   1.0000   1.0000   1.0000   1.0000
     1.0000   1.0000   1.0000   1.0000   1.0000   1.0000   1.0000   1.0000
     1.0000   1.0000   1.0000   1.0000   1.0000   1.0000   1.0000   1.0000
     1.0000   1.0000   1.0000   1.0000   1.0000   1.0000   1.0000   1.0000
     1.0000   1.0000   1.0000   1.0000   1.0000   1.0000   1.0000   1.0000
     1.0000   1.0000   1.0000   1.0000   1.0000   1.0000   1.0000   1.0000
     1.0000   1.0000   1.0000   1.0000   1.0000   1.0000   1.0000   1.0000
     1.0000   1.0000   1.0000   1.0000   1.0000   1.0000   1.0000   0.9999
     0.9999   0.9997   0.9996   0.9994   0.9993   0.9983   0.9979   0.9976
     0.9975   0.9972   0.9970   0.9959   0.9950   0.9939   0.9932   0.9883
     0.9867   0.9856   0.9849   0.9819   0.9807   0.9797   0.9787   0.9773
     0.9753   0.9712   0.9703   0.9662   0.9635   0.9589   0.9521   0.9304
     0.9092   0.9021   0.8842   0.8744   0.8539   0.8429   0.8397   0.8264
     0.8192   0.8085   0.8006   0.7726   0.7707   0.7630   0.7449   0.7380
     0.7355   0.7263   0.7148   0.7090   0.6999   0.6945   0.6824   0.6764
     0.6710   0.6674   0.6615   0.6549   0.3485   0.3194   0.2525   0.2418
     0.1308   0.1066   0.0948   0.0522   0.0147   0.0099   0.0050   0.0039
     0.0009   0.0008   0.0002   0.0002   0.0001   0.0001   0.0000   0.0000
     0.0000   0.0000   0.0000   0.0000   0.0000   0.0000   0.0000   0.0000
     0.0000   0.0000   0.0000   0.0000   0.0000   0.0000   0.0000   0.0000
     0.0000   0.0000

     the Fermi energy is     3.1354 ev

!    total energy              =   -4440.31316579 Ry
     estimated scf accuracy    <          6.7E-09 Ry
     smearing contrib. (-TS)   =      -1.20829708 Ry
     internal energy E=F+TS    =   -4439.10486872 Ry

     The total energy is F=E-TS. E is the sum of the following terms:
     one-electron contribution =  -20890.66266236 Ry
     hartree contribution      =   10574.23923707 Ry
     xc contribution           =    -693.25629196 Ry
     ewald contribution        =    6846.76547503 Ry
     one-center paw contrib.   =    -276.19062650 Ry
      -> PAW hartree energy AE =      25.11298033 Ry
      -> PAW hartree energy PS =     -24.99740370 Ry
      -> PAW xc energy AE      =     -16.51034312 Ry
      -> PAW xc energy PS      =       6.86948426 Ry
      -> total E_H with PAW    =   10574.35481370 Ry
      -> total E_XC with PAW   =    -702.89715081 Ry

     convergence has been achieved in  47 iterations

     Writing all to output data dir /bsuhome/zayahcortright/scratch/pwscf.save/
 
     init_run     :      7.48s CPU      8.55s WALL (       1 calls)
     electrons    :    671.87s CPU    704.69s WALL (       1 calls)

     Called by init_run:
     wfcinit      :      6.22s CPU      6.42s WALL (       1 calls)
     wfcinit:atom :      0.05s CPU      0.06s WALL (       5 calls)
     wfcinit:wfcr :      5.90s CPU      6.02s WALL (       5 calls)
     potinit      :      0.15s CPU      0.18s WALL (       1 calls)
     hinit0       :      0.25s CPU      0.81s WALL (       1 calls)

     Called by electrons:
     c_bands      :    534.40s CPU    541.25s WALL (      47 calls)
     sum_band     :    102.77s CPU    117.28s WALL (      47 calls)
     v_of_rho     :      5.12s CPU      5.44s WALL (      48 calls)
     v_h          :      0.44s CPU      0.44s WALL (      48 calls)
     v_xc         :      4.68s CPU      5.00s WALL (      48 calls)
     newd         :     15.61s CPU     26.43s WALL (      48 calls)
     PAW_pot      :      1.54s CPU      1.58s WALL (      48 calls)
     mix_rho      :     12.09s CPU     12.47s WALL (      47 calls)

     Called by c_bands:
     init_us_2    :      6.77s CPU      6.86s WALL (     475 calls)
     init_us_2:cp :      6.77s CPU      6.86s WALL (     475 calls)
     cegterg      :    502.84s CPU    509.33s WALL (     235 calls)

     Called by sum_band:
     sum_band:wei :      0.35s CPU      0.36s WALL (      47 calls)
     sum_band:loo :     86.54s CPU     87.19s WALL (      47 calls)
     sum_band:buf :      1.46s CPU      1.51s WALL (     235 calls)
     sum_band:ini :      3.16s CPU      3.17s WALL (     235 calls)
     sum_band:cal :     18.79s CPU     18.86s WALL (     235 calls)
     sum_band:bec :      0.53s CPU      0.53s WALL (     235 calls)
     addusdens    :     14.75s CPU     28.54s WALL (      47 calls)
                                        0.00s GPU  (      47 calls)
     addusd:skk   :      0.29s CPU      0.91s WALL (     141 calls)
                                        0.00s GPU  (     141 calls)

     Called by *egterg:
     cdiaghg      :     54.10s CPU     54.35s WALL (    1239 calls)
     cegterg:over :     35.93s CPU     36.09s WALL (    1004 calls)
     cegterg:upda :     26.70s CPU     27.21s WALL (    1004 calls)
     cegterg:last :     53.98s CPU     54.30s WALL (     412 calls)
     cdiaghg:chol :      3.19s CPU      3.21s WALL (    1239 calls)
     cdiaghg:inve :      2.79s CPU      2.81s WALL (    1239 calls)
     cdiaghg:para :      6.82s CPU      6.87s WALL (    2478 calls)
     h_psi        :    279.23s CPU    282.27s WALL (    1244 calls)
     s_psi        :     38.19s CPU     38.33s WALL (    1244 calls)
     g_psi        :      1.05s CPU      1.06s WALL (    1004 calls)

     Called by h_psi:
     h_psi:calbec :     42.57s CPU     42.78s WALL (    1244 calls)
     vloc_psi     :    195.65s CPU    197.63s WALL (    1244 calls)
     add_vuspsi   :     38.27s CPU     38.45s WALL (    1244 calls)

     General routines
     calbec       :     61.36s CPU     61.63s WALL (    1479 calls)
     fft          :      3.45s CPU      3.50s WALL (     622 calls)
     ffts         :      4.44s CPU      4.48s WALL (    5067 calls)
     fftw         :    164.57s CPU    166.00s WALL (  316042 calls)
     interpolate  :      0.39s CPU      0.40s WALL (      48 calls)
 
     Parallel routines

     PAW routines
     PAW_pot      :      1.54s CPU      1.58s WALL (      48 calls)
 
     PWSCF        :  11m21.13s CPU  11m57.66s WALL

 
   This run was terminated on:  18:17:51  21Jun2024            

=------------------------------------------------------------------------------=
   JOB DONE.
=------------------------------------------------------------------------------=
