
     Program PWSCF v.7.2 starts on 21Jun2024 at 16:12:11 

     This program is part of the open-source Quantum ESPRESSO suite
     for quantum simulation of materials; please cite
         "P. Giannozzi et al., J. Phys.:Condens. Matter 21 395502 (2009);
         "P. Giannozzi et al., J. Phys.:Condens. Matter 29 465901 (2017);
         "P. Giannozzi et al., J. Chem. Phys. 152 154105 (2020);
          URL http://www.quantum-espresso.org", 
     in publications or presentations arising from this work. More details at
     http://www.quantum-espresso.org/quote

     Parallel version (MPI & OpenMP), running on      48 processor cores
     Number of MPI processes:                48
     Threads/MPI process:                     1

     MPI processes distributed on     1 nodes
     60571 MiB available memory on the printing compute node when the environment starts
 
     Reading input from espresso.pwi
Warning: card &CELL ignored
Warning: card / ignored
Warning: card &FCP ignored
Warning: card / ignored
Warning: card &RISM ignored
Warning: card / ignored

     Current dimensions of program PWSCF are:
     Max number of different atomic species (ntypx) = 10
     Max number of k-points (npk) =  40000
     Max angular momentum in pseudopotentials (lmaxx) =  4
     file O.pbe-n-kjpaw_psl.0.1.UPF: wavefunction(s)  2P renormalized
     signal trapping enabled: kill the code with -SIGUSR1 to stop cleanly the simulation 
 
     K-points division:     npool     =       2
     R & G space division:  proc/nbgrp/npool/nimage =      24
     Subspace diagonalization in iterative solution of the eigenvalue problem:
     one sub-group per band group will be used
     scalapack distributed-memory algorithm (size of sub-group:  3*  3 procs)

 
     Parallelization info
     --------------------
     sticks:   dense  smooth     PW     G-vecs:    dense   smooth      PW
     Min         350     175     47                61430    21716    3036
     Max         351     177     48                61449    21727    3041
     Sum        8421    4205   1137              1474595   521381   72913
 
     Using Slab Decomposition
 


     bravais-lattice index     =            0
     lattice parameter (alat)  =      14.8599  a.u.
     unit-cell volume          =    8305.1283 (a.u.)^3
     number of atoms/cell      =           49
     number of atomic types    =            3
     number of electrons       =       430.00
     number of Kohn-Sham states=          258
     kinetic-energy cutoff     =      60.0000  Ry
     charge density cutoff     =     480.0000  Ry
     scf convergence threshold =      1.0E-08
     mixing beta               =       0.1500
     number of iterations used =            8  local-TF  mixing
     Exchange-correlation= SLA  PW   PBE  PBE
                           (   1   4   3   4   0   0   0)

     celldm(1)=  14.859904  celldm(2)=   0.000000  celldm(3)=   0.000000
     celldm(4)=   0.000000  celldm(5)=   0.000000  celldm(6)=   0.000000

     crystal axes: (cart. coord. in units of alat)
               a(1) = (   1.000000   0.000000   0.000000 )  
               a(2) = (   0.000000   1.000000   0.000000 )  
               a(3) = (   0.000000   0.000000   2.531036 )  

     reciprocal axes: (cart. coord. in units 2 pi/alat)
               b(1) = (  1.000000  0.000000  0.000000 )  
               b(2) = (  0.000000  1.000000  0.000000 )  
               b(3) = (  0.000000  0.000000  0.395095 )  


     PseudoPot. # 1 for Sr read from file:
     /bsuhome/zayahcortright/q-e/pseudo/Sr_pbe_v1.uspp.F.UPF
     MD5 check sum: 6b418c05fbe9db5448babca5e47b7a5b
     Pseudo is Ultrasoft + core correction, Zval = 10.0
     Generated by new atomic code, or converted to UPF format
     Using radial grid of  883 points,  6 beta functions with: 
                l(1) =   0
                l(2) =   0
                l(3) =   1
                l(4) =   1
                l(5) =   2
                l(6) =   2
     Q(r) pseudized with  6 coefficients,  rinner =    1.400   1.400   1.400
                                                       1.400   1.400

     PseudoPot. # 2 for O  read from file:
     /bsuhome/zayahcortright/q-e/pseudo/O.pbe-n-kjpaw_psl.0.1.UPF
     MD5 check sum: 0234752ac141de4415c5fc33072bef88
     Pseudo is Projector augmented-wave + core cor, Zval =  6.0
     Generated using "atomic" code by A. Dal Corso  v.5.0.99 svn rev. 10869
     Shape of augmentation charge: BESSEL
     Using radial grid of 1095 points,  4 beta functions with: 
                l(1) =   0
                l(2) =   0
                l(3) =   1
                l(4) =   1
     Q(r) pseudized with 0 coefficients 


     PseudoPot. # 3 for Co read from file:
     /bsuhome/zayahcortright/q-e/pseudo/Co_pbe_v1.2.uspp.F.UPF
     MD5 check sum: 5f91765df6ddd3222702df6e7b74a16d
     Pseudo is Ultrasoft + core correction, Zval = 17.0
     Generated by new atomic code, or converted to UPF format
     Using radial grid of  863 points,  6 beta functions with: 
                l(1) =   0
                l(2) =   0
                l(3) =   1
                l(4) =   1
                l(5) =   2
                l(6) =   2
     Q(r) pseudized with  8 coefficients,  rinner =    1.200   1.200   1.200
                                                       1.200   1.200

     atomic species   valence    mass     pseudopotential
        Sr            10.00    87.62000     Sr( 1.00)
        O              6.00    15.99900     O ( 1.00)
        Co            17.00    58.93319     Co( 1.00)

     No symmetry found


                                    s                        frac. trans.

      isym =  1     identity                                     

 cryst.   s( 1) = (     1          0          0      )
                  (     0          1          0      )
                  (     0          0          1      )

 cart.    s( 1) = (  1.0000000  0.0000000  0.0000000 )
                  (  0.0000000  1.0000000  0.0000000 )
                  (  0.0000000  0.0000000  1.0000000 )


   Cartesian axes

     site n.     atom                  positions (alat units)
         1           Sr  tau(   1) = (   0.2508693   0.7491307   1.7574407  )
         2           O   tau(   2) = (   0.4985141   0.5014859   1.7715967  )
         3           Sr  tau(   3) = (   0.7482398   0.7454518   1.7648669  )
         4           Sr  tau(   4) = (   0.7441748   0.2558252   1.7667843  )
         5           Sr  tau(   5) = (   0.2508693   0.7491307   1.2696799  )
         6           Sr  tau(   6) = (   0.2508693   0.7491307   0.7632319  )
         7           Co  tau(   7) = (   0.4998914   0.5001086   1.0164559  )
         8           Co  tau(   8) = (   0.4936915   0.5063085   1.5135603  )
         9           O   tau(   9) = (   0.4988895   0.7610401   1.0164559  )
        10           O   tau(  10) = (   0.2389599   0.5011105   1.0164559  )
        11           O   tau(  11) = (   0.0070918   0.7374880   1.0164559  )
        12           O   tau(  12) = (   0.0088340   0.7405089   1.5135603  )
        13           O   tau(  13) = (   0.5066944   0.7415376   1.5135603  )
        14           O   tau(  14) = (   0.2584624   0.4933056   1.5135603  )
        15           O   tau(  15) = (   0.4985141   0.5014859   0.7773880  )
        16           O   tau(  16) = (   0.4985141   0.5014859   1.2555238  )
        17           Sr  tau(  17) = (   0.7482398   0.7454518   0.7706582  )
        18           Sr  tau(  18) = (   0.7482398   0.7454518   1.2622536  )
        19           Sr  tau(  19) = (   0.7441748   0.2558252   0.7725755  )
        20           Sr  tau(  20) = (   0.7441748   0.2558252   1.2603363  )
        21           O   tau(  21) = (   0.7322655   0.0078049   1.5135603  )
        22           O   tau(  22) = (   0.7558175   0.4996027   1.5135603  )
        23           O   tau(  23) = (   0.5003973   0.2441825   1.5135603  )
        24           O   tau(  24) = (   0.7527966   0.4978604   1.0164559  )
        25           O   tau(  25) = (   0.5021396   0.2472034   1.0164559  )
        26           O   tau(  26) = (   0.7517679   0.0000000   1.0164559  )
        27           O   tau(  27) = (   0.0114961   0.4948124   1.7455321  )
        28           O   tau(  28) = (   0.0048226   0.0077944   1.7715967  )
        29           Sr  tau(  29) = (   0.2545482   0.2517602   1.7648669  )
        30           O   tau(  30) = (   0.5048017   0.0015068   1.7786929  )
        31           Co  tau(  31) = (   0.0056869   0.5006215   1.0164559  )
        32           Co  tau(  32) = (   0.0065315   0.4997770   1.5135603  )
        33           Co  tau(  33) = (   0.0061999   0.0064171   1.0164559  )
        34           Co  tau(  34) = (   0.0000000   0.0126169   1.5135603  )
        35           O   tau(  35) = (   0.0114961   0.4948124   1.2815885  )
        36           O   tau(  36) = (   0.0114961   0.4948124   0.7513233  )
        37           O   tau(  37) = (   0.0051979   0.2673486   1.0164559  )
        38           O   tau(  38) = (   0.0130029   0.2478461   1.5135603  )
        39           O   tau(  39) = (   0.0048226   0.0077944   0.7773880  )
        40           O   tau(  40) = (   0.0048226   0.0077944   1.2555238  )
        41           Sr  tau(  41) = (   0.2545482   0.2517602   0.7706582  )
        42           Sr  tau(  42) = (   0.2545482   0.2517602   1.2622536  )
        43           Co  tau(  43) = (   0.4989925   0.0073160   1.5135603  )
        44           Co  tau(  44) = (   0.4998370   0.0064714   1.0164559  )
        45           O   tau(  45) = (   0.5048017   0.0015068   0.7844841  )
        46           O   tau(  46) = (   0.5048017   0.0015068   1.2484277  )
        47           O   tau(  47) = (   0.2621260   0.0059111   1.5135603  )
        48           O   tau(  48) = (   0.2591051   0.0041689   1.0164559  )
        49           O   tau(  49) = (   0.1421646   0.1421646   2.1602013  )

   Crystallographic axes

     site n.     atom                  positions (cryst. coord.)
         1           Sr  tau(   1) = (  0.2508693  0.7491307  0.6943562  )
         2           O   tau(   2) = (  0.4985141  0.5014859  0.6999492  )
         3           Sr  tau(   3) = (  0.7482398  0.7454518  0.6972903  )
         4           Sr  tau(   4) = (  0.7441748  0.2558252  0.6980478  )
         5           Sr  tau(   5) = (  0.2508693  0.7491307  0.5016443  )
         6           Sr  tau(   6) = (  0.2508693  0.7491307  0.3015492  )
         7           Co  tau(   7) = (  0.4998914  0.5001086  0.4015968  )
         8           Co  tau(   8) = (  0.4936915  0.5063085  0.5980003  )
         9           O   tau(   9) = (  0.4988895  0.7610401  0.4015968  )
        10           O   tau(  10) = (  0.2389599  0.5011105  0.4015968  )
        11           O   tau(  11) = (  0.0070918  0.7374880  0.4015968  )
        12           O   tau(  12) = (  0.0088340  0.7405089  0.5980003  )
        13           O   tau(  13) = (  0.5066944  0.7415376  0.5980003  )
        14           O   tau(  14) = (  0.2584624  0.4933056  0.5980003  )
        15           O   tau(  15) = (  0.4985141  0.5014859  0.3071422  )
        16           O   tau(  16) = (  0.4985141  0.5014859  0.4960513  )
        17           Sr  tau(  17) = (  0.7482398  0.7454518  0.3044833  )
        18           Sr  tau(  18) = (  0.7482398  0.7454518  0.4987103  )
        19           Sr  tau(  19) = (  0.7441748  0.2558252  0.3052408  )
        20           Sr  tau(  20) = (  0.7441748  0.2558252  0.4979527  )
        21           O   tau(  21) = (  0.7322655  0.0078049  0.5980003  )
        22           O   tau(  22) = (  0.7558175  0.4996027  0.5980003  )
        23           O   tau(  23) = (  0.5003973  0.2441825  0.5980003  )
        24           O   tau(  24) = (  0.7527966  0.4978604  0.4015968  )
        25           O   tau(  25) = (  0.5021396  0.2472034  0.4015968  )
        26           O   tau(  26) = (  0.7517679  0.0000000  0.4015968  )
        27           O   tau(  27) = (  0.0114961  0.4948124  0.6896512  )
        28           O   tau(  28) = (  0.0048226  0.0077944  0.6999492  )
        29           Sr  tau(  29) = (  0.2545482  0.2517602  0.6972903  )
        30           O   tau(  30) = (  0.5048017  0.0015068  0.7027529  )
        31           Co  tau(  31) = (  0.0056869  0.5006215  0.4015968  )
        32           Co  tau(  32) = (  0.0065315  0.4997770  0.5980003  )
        33           Co  tau(  33) = (  0.0061999  0.0064171  0.4015968  )
        34           Co  tau(  34) = (  0.0000000  0.0126169  0.5980003  )
        35           O   tau(  35) = (  0.0114961  0.4948124  0.5063494  )
        36           O   tau(  36) = (  0.0114961  0.4948124  0.2968442  )
        37           O   tau(  37) = (  0.0051979  0.2673486  0.4015968  )
        38           O   tau(  38) = (  0.0130029  0.2478461  0.5980003  )
        39           O   tau(  39) = (  0.0048226  0.0077944  0.3071422  )
        40           O   tau(  40) = (  0.0048226  0.0077944  0.4960513  )
        41           Sr  tau(  41) = (  0.2545482  0.2517602  0.3044833  )
        42           Sr  tau(  42) = (  0.2545482  0.2517602  0.4987103  )
        43           Co  tau(  43) = (  0.4989925  0.0073160  0.5980003  )
        44           Co  tau(  44) = (  0.4998370  0.0064714  0.4015968  )
        45           O   tau(  45) = (  0.5048017  0.0015068  0.3099459  )
        46           O   tau(  46) = (  0.5048017  0.0015068  0.4932477  )
        47           O   tau(  47) = (  0.2621260  0.0059111  0.5980003  )
        48           O   tau(  48) = (  0.2591051  0.0041689  0.4015968  )
        49           O   tau(  49) = (  0.1421646  0.1421646  0.8534850  )

     number of k points=    10  Gaussian smearing, width (Ry)=  0.0700
                       cart. coord. in units 2pi/alat
        k(    1) = (   0.0000000   0.0000000   0.0000000), wk =   0.1250000
        k(    2) = (   0.0000000   0.2500000   0.0000000), wk =   0.2500000
        k(    3) = (   0.0000000  -0.5000000   0.0000000), wk =   0.1250000
        k(    4) = (   0.2500000   0.2500000   0.0000000), wk =   0.2500000
        k(    5) = (   0.2500000  -0.5000000   0.0000000), wk =   0.2500000
        k(    6) = (  -0.5000000  -0.5000000   0.0000000), wk =   0.1250000
        k(    7) = (   0.2500000   0.0000000   0.0000000), wk =   0.2500000
        k(    8) = (  -0.5000000   0.0000000   0.0000000), wk =   0.1250000
        k(    9) = (  -0.2500000   0.2500000   0.0000000), wk =   0.2500000
        k(   10) = (  -0.5000000   0.2500000   0.0000000), wk =   0.2500000

                       cryst. coord.
        k(    1) = (   0.0000000   0.0000000   0.0000000), wk =   0.1250000
        k(    2) = (   0.0000000   0.2500000   0.0000000), wk =   0.2500000
        k(    3) = (   0.0000000  -0.5000000   0.0000000), wk =   0.1250000
        k(    4) = (   0.2500000   0.2500000   0.0000000), wk =   0.2500000
        k(    5) = (   0.2500000  -0.5000000   0.0000000), wk =   0.2500000
        k(    6) = (  -0.5000000  -0.5000000   0.0000000), wk =   0.1250000
        k(    7) = (   0.2500000   0.0000000   0.0000000), wk =   0.2500000
        k(    8) = (  -0.5000000   0.0000000   0.0000000), wk =   0.1250000
        k(    9) = (  -0.2500000   0.2500000   0.0000000), wk =   0.2500000
        k(   10) = (  -0.5000000   0.2500000   0.0000000), wk =   0.2500000

     Dense  grid:  1474595 G-vectors     FFT dimensions: ( 108, 108, 270)

     Smooth grid:   521381 G-vectors     FFT dimensions: (  75,  75, 192)

     Dynamical RAM for                 wfc:      10.69 MB

     Dynamical RAM for     wfc (w. buffer):      64.13 MB

     Dynamical RAM for           str. fact:       2.81 MB

     Dynamical RAM for           local pot:       0.00 MB

     Dynamical RAM for          nlocal pot:      24.53 MB

     Dynamical RAM for                qrad:       5.27 MB

     Dynamical RAM for          rho,v,vnew:       6.02 MB

     Dynamical RAM for               rhoin:       2.01 MB

     Dynamical RAM for            rho*nmix:      15.00 MB

     Dynamical RAM for           G-vectors:       3.68 MB

     Dynamical RAM for          h,s,v(r/c):       1.35 MB

     Dynamical RAM for          <psi|beta>:       2.33 MB

     Dynamical RAM for                 psi:      21.38 MB

     Dynamical RAM for                hpsi:      21.38 MB

     Dynamical RAM for                spsi:      21.38 MB

     Dynamical RAM for      wfcinit/wfcrot:      34.39 MB

     Dynamical RAM for           addusdens:     101.26 MB

     Estimated static dynamical RAM per process >     117.53 MB

     Estimated max dynamical RAM per process >     233.79 MB

     Estimated total dynamical RAM >      10.61 GB

     Check: negative core charge=   -0.000004

     Initial potential from superposition of free atoms

     starting charge     421.5961, renormalised to     430.0000

     negative rho (up, down):  7.826E-01 0.000E+00
     Starting wfcs are  376 randomized atomic wfcs
     Checking if some PAW data can be deallocated... 
       PAW data deallocated on   19 nodes for type:  2

     total cpu time spent up to now is        8.8 secs

     Self-consistent Calculation

     iteration #  1     ecut=    60.00 Ry     beta= 0.15
     Davidson diagonalization with overlap

---- Real-time Memory Report at c_bands before calling an iterative solver
             0 MiB given to the printing process from OS
             0 MiB allocation reported by mallinfo(arena+hblkhd)
         51485 MiB available memory on the node where the printing process lives
------------------
     ethr =  1.00E-02,  avg # of iterations =  2.0

     negative rho (up, down):  7.717E-01 0.000E+00

     total cpu time spent up to now is       24.1 secs

     total energy              =   -4445.23198679 Ry
     estimated scf accuracy    <      53.84159065 Ry

     iteration #  2     ecut=    60.00 Ry     beta= 0.15
     Davidson diagonalization with overlap

---- Real-time Memory Report at c_bands before calling an iterative solver
             0 MiB given to the printing process from OS
             0 MiB allocation reported by mallinfo(arena+hblkhd)
         51848 MiB available memory on the node where the printing process lives
------------------
     ethr =  1.00E-02,  avg # of iterations =  1.0

     negative rho (up, down):  7.591E-01 0.000E+00

     total cpu time spent up to now is       37.3 secs

     total energy              =   -4441.94175146 Ry
     estimated scf accuracy    <      28.29592182 Ry

     iteration #  3     ecut=    60.00 Ry     beta= 0.15
     Davidson diagonalization with overlap

---- Real-time Memory Report at c_bands before calling an iterative solver
             0 MiB given to the printing process from OS
             0 MiB allocation reported by mallinfo(arena+hblkhd)
         51076 MiB available memory on the node where the printing process lives
------------------
     ethr =  6.58E-03,  avg # of iterations =  1.0

     negative rho (up, down):  7.530E-01 0.000E+00

     total cpu time spent up to now is       50.6 secs

     total energy              =   -4442.60046939 Ry
     estimated scf accuracy    <      29.91607860 Ry

     iteration #  4     ecut=    60.00 Ry     beta= 0.15
     Davidson diagonalization with overlap

---- Real-time Memory Report at c_bands before calling an iterative solver
             0 MiB given to the printing process from OS
             0 MiB allocation reported by mallinfo(arena+hblkhd)
         51024 MiB available memory on the node where the printing process lives
------------------
     ethr =  6.58E-03,  avg # of iterations =  1.0

     negative rho (up, down):  7.537E-01 0.000E+00

     total cpu time spent up to now is       63.3 secs

     total energy              =   -4442.64904411 Ry
     estimated scf accuracy    <      27.91588650 Ry

     iteration #  5     ecut=    60.00 Ry     beta= 0.15
     Davidson diagonalization with overlap

---- Real-time Memory Report at c_bands before calling an iterative solver
             0 MiB given to the printing process from OS
             0 MiB allocation reported by mallinfo(arena+hblkhd)
         51006 MiB available memory on the node where the printing process lives
------------------
     ethr =  6.49E-03,  avg # of iterations =  1.0

     negative rho (up, down):  7.394E-01 0.000E+00

     total cpu time spent up to now is       75.9 secs

     total energy              =   -4441.90075962 Ry
     estimated scf accuracy    <      22.12682182 Ry

     iteration #  6     ecut=    60.00 Ry     beta= 0.15
     Davidson diagonalization with overlap

---- Real-time Memory Report at c_bands before calling an iterative solver
             0 MiB given to the printing process from OS
             0 MiB allocation reported by mallinfo(arena+hblkhd)
         50986 MiB available memory on the node where the printing process lives
------------------
     ethr =  5.15E-03,  avg # of iterations =  1.0

     negative rho (up, down):  7.462E-01 0.000E+00

     total cpu time spent up to now is       88.5 secs

     total energy              =   -4442.15197015 Ry
     estimated scf accuracy    <      53.07293194 Ry

     iteration #  7     ecut=    60.00 Ry     beta= 0.15
     Davidson diagonalization with overlap

---- Real-time Memory Report at c_bands before calling an iterative solver
             0 MiB given to the printing process from OS
             0 MiB allocation reported by mallinfo(arena+hblkhd)
         50967 MiB available memory on the node where the printing process lives
------------------
     ethr =  5.15E-03,  avg # of iterations =  1.0

     negative rho (up, down):  7.482E-01 0.000E+00

     total cpu time spent up to now is      101.2 secs

     total energy              =   -4440.41628330 Ry
     estimated scf accuracy    <      30.60693614 Ry

     iteration #  8     ecut=    60.00 Ry     beta= 0.15
     Davidson diagonalization with overlap

---- Real-time Memory Report at c_bands before calling an iterative solver
             0 MiB given to the printing process from OS
             0 MiB allocation reported by mallinfo(arena+hblkhd)
         50953 MiB available memory on the node where the printing process lives
------------------
     ethr =  5.15E-03,  avg # of iterations =  1.0

     negative rho (up, down):  7.448E-01 0.000E+00

     total cpu time spent up to now is      114.0 secs

     total energy              =   -4440.90728362 Ry
     estimated scf accuracy    <       5.84912834 Ry

     iteration #  9     ecut=    60.00 Ry     beta= 0.15
     Davidson diagonalization with overlap

---- Real-time Memory Report at c_bands before calling an iterative solver
             0 MiB given to the printing process from OS
             0 MiB allocation reported by mallinfo(arena+hblkhd)
         50929 MiB available memory on the node where the printing process lives
------------------
     ethr =  1.36E-03,  avg # of iterations =  1.7

     negative rho (up, down):  7.594E-01 0.000E+00

     total cpu time spent up to now is      127.2 secs

     total energy              =   -4441.06851557 Ry
     estimated scf accuracy    <      13.75202605 Ry

     iteration # 10     ecut=    60.00 Ry     beta= 0.15
     Davidson diagonalization with overlap

---- Real-time Memory Report at c_bands before calling an iterative solver
             0 MiB given to the printing process from OS
             0 MiB allocation reported by mallinfo(arena+hblkhd)
         50908 MiB available memory on the node where the printing process lives
------------------
     ethr =  1.36E-03,  avg # of iterations =  2.0

     negative rho (up, down):  7.683E-01 0.000E+00

     total cpu time spent up to now is      141.2 secs

     total energy              =   -4439.67985782 Ry
     estimated scf accuracy    <      47.12172117 Ry

     iteration # 11     ecut=    60.00 Ry     beta= 0.15
     Davidson diagonalization with overlap

---- Real-time Memory Report at c_bands before calling an iterative solver
             0 MiB given to the printing process from OS
             0 MiB allocation reported by mallinfo(arena+hblkhd)
         50904 MiB available memory on the node where the printing process lives
------------------
     ethr =  1.36E-03,  avg # of iterations =  8.1

     negative rho (up, down):  7.756E-01 0.000E+00

     total cpu time spent up to now is      158.0 secs

     total energy              =   -4440.45904870 Ry
     estimated scf accuracy    <       2.70725894 Ry

     iteration # 12     ecut=    60.00 Ry     beta= 0.15
     Davidson diagonalization with overlap

---- Real-time Memory Report at c_bands before calling an iterative solver
             0 MiB given to the printing process from OS
             0 MiB allocation reported by mallinfo(arena+hblkhd)
         50724 MiB available memory on the node where the printing process lives
------------------
     ethr =  6.30E-04,  avg # of iterations =  9.1

     negative rho (up, down):  7.812E-01 0.000E+00

     total cpu time spent up to now is      175.6 secs

     total energy              =   -4440.49510991 Ry
     estimated scf accuracy    <       1.43605271 Ry

     iteration # 13     ecut=    60.00 Ry     beta= 0.15
     Davidson diagonalization with overlap

---- Real-time Memory Report at c_bands before calling an iterative solver
             0 MiB given to the printing process from OS
             0 MiB allocation reported by mallinfo(arena+hblkhd)
         50632 MiB available memory on the node where the printing process lives
------------------
     ethr =  3.34E-04,  avg # of iterations = 10.2

     negative rho (up, down):  7.985E-01 0.000E+00

     total cpu time spent up to now is      194.1 secs

     total energy              =   -4440.48963443 Ry
     estimated scf accuracy    <       1.17959486 Ry

     iteration # 14     ecut=    60.00 Ry     beta= 0.15
     Davidson diagonalization with overlap

---- Real-time Memory Report at c_bands before calling an iterative solver
             0 MiB given to the printing process from OS
             0 MiB allocation reported by mallinfo(arena+hblkhd)
         50484 MiB available memory on the node where the printing process lives
------------------
     ethr =  2.74E-04,  avg # of iterations =  1.4

     negative rho (up, down):  8.066E-01 0.000E+00

     total cpu time spent up to now is      207.4 secs

     total energy              =   -4440.35781416 Ry
     estimated scf accuracy    <       3.53258979 Ry

     iteration # 15     ecut=    60.00 Ry     beta= 0.15
     Davidson diagonalization with overlap

---- Real-time Memory Report at c_bands before calling an iterative solver
             0 MiB given to the printing process from OS
             0 MiB allocation reported by mallinfo(arena+hblkhd)
         50535 MiB available memory on the node where the printing process lives
------------------
     ethr =  2.74E-04,  avg # of iterations =  5.1

     negative rho (up, down):  8.188E-01 0.000E+00

     total cpu time spent up to now is      222.8 secs

     total energy              =   -4440.40999262 Ry
     estimated scf accuracy    <       0.74800439 Ry

     iteration # 16     ecut=    60.00 Ry     beta= 0.15
     Davidson diagonalization with overlap

---- Real-time Memory Report at c_bands before calling an iterative solver
             0 MiB given to the printing process from OS
             0 MiB allocation reported by mallinfo(arena+hblkhd)
         50570 MiB available memory on the node where the printing process lives
------------------
     ethr =  1.74E-04,  avg # of iterations =  7.3

     negative rho (up, down):  8.195E-01 0.000E+00

     total cpu time spent up to now is      239.7 secs

     total energy              =   -4440.38314807 Ry
     estimated scf accuracy    <       0.42820171 Ry

     iteration # 17     ecut=    60.00 Ry     beta= 0.15
     Davidson diagonalization with overlap

---- Real-time Memory Report at c_bands before calling an iterative solver
             0 MiB given to the printing process from OS
             0 MiB allocation reported by mallinfo(arena+hblkhd)
         50565 MiB available memory on the node where the printing process lives
------------------
     ethr =  9.96E-05,  avg # of iterations =  9.1

     negative rho (up, down):  8.184E-01 0.000E+00

     total cpu time spent up to now is      257.3 secs

     total energy              =   -4440.36420434 Ry
     estimated scf accuracy    <       0.31719796 Ry

     iteration # 18     ecut=    60.00 Ry     beta= 0.15
     Davidson diagonalization with overlap

---- Real-time Memory Report at c_bands before calling an iterative solver
             0 MiB given to the printing process from OS
             0 MiB allocation reported by mallinfo(arena+hblkhd)
         50558 MiB available memory on the node where the printing process lives
------------------
     ethr =  7.38E-05,  avg # of iterations =  3.7

     negative rho (up, down):  8.166E-01 0.000E+00

     total cpu time spent up to now is      272.6 secs

     total energy              =   -4440.35294235 Ry
     estimated scf accuracy    <       0.23403036 Ry

     iteration # 19     ecut=    60.00 Ry     beta= 0.15
     Davidson diagonalization with overlap

---- Real-time Memory Report at c_bands before calling an iterative solver
             0 MiB given to the printing process from OS
             0 MiB allocation reported by mallinfo(arena+hblkhd)
         50585 MiB available memory on the node where the printing process lives
------------------
     c_bands:  1 eigenvalues not converged
     ethr =  5.44E-05,  avg # of iterations =  6.9

     negative rho (up, down):  8.115E-01 0.000E+00

     total cpu time spent up to now is      289.0 secs

     total energy              =   -4440.33947587 Ry
     estimated scf accuracy    <       0.17011840 Ry

     iteration # 20     ecut=    60.00 Ry     beta= 0.15
     Davidson diagonalization with overlap

---- Real-time Memory Report at c_bands before calling an iterative solver
             0 MiB given to the printing process from OS
             0 MiB allocation reported by mallinfo(arena+hblkhd)
         50619 MiB available memory on the node where the printing process lives
------------------
     ethr =  3.96E-05,  avg # of iterations =  7.1

     negative rho (up, down):  8.106E-01 0.000E+00

     total cpu time spent up to now is      305.6 secs

     total energy              =   -4440.32053507 Ry
     estimated scf accuracy    <       0.11399867 Ry

     iteration # 21     ecut=    60.00 Ry     beta= 0.15
     Davidson diagonalization with overlap

---- Real-time Memory Report at c_bands before calling an iterative solver
             0 MiB given to the printing process from OS
             0 MiB allocation reported by mallinfo(arena+hblkhd)
         50579 MiB available memory on the node where the printing process lives
------------------
     ethr =  2.65E-05,  avg # of iterations = 11.1

     negative rho (up, down):  8.148E-01 0.000E+00

     total cpu time spent up to now is      323.8 secs

     total energy              =   -4440.31221179 Ry
     estimated scf accuracy    <       0.07979423 Ry

     iteration # 22     ecut=    60.00 Ry     beta= 0.15
     Davidson diagonalization with overlap

---- Real-time Memory Report at c_bands before calling an iterative solver
             0 MiB given to the printing process from OS
             0 MiB allocation reported by mallinfo(arena+hblkhd)
         50428 MiB available memory on the node where the printing process lives
------------------
     ethr =  1.86E-05,  avg # of iterations =  6.7

     negative rho (up, down):  8.237E-01 0.000E+00

     total cpu time spent up to now is      340.2 secs

     total energy              =   -4440.30865278 Ry
     estimated scf accuracy    <       0.04252399 Ry

     iteration # 23     ecut=    60.00 Ry     beta= 0.15
     Davidson diagonalization with overlap

---- Real-time Memory Report at c_bands before calling an iterative solver
             0 MiB given to the printing process from OS
             0 MiB allocation reported by mallinfo(arena+hblkhd)
         50430 MiB available memory on the node where the printing process lives
------------------
     ethr =  9.89E-06,  avg # of iterations =  9.1

     negative rho (up, down):  8.210E-01 0.000E+00

     total cpu time spent up to now is      358.2 secs

     total energy              =   -4440.30751215 Ry
     estimated scf accuracy    <       0.02572523 Ry

     iteration # 24     ecut=    60.00 Ry     beta= 0.15
     Davidson diagonalization with overlap

---- Real-time Memory Report at c_bands before calling an iterative solver
             0 MiB given to the printing process from OS
             0 MiB allocation reported by mallinfo(arena+hblkhd)
         50411 MiB available memory on the node where the printing process lives
------------------
     ethr =  5.98E-06,  avg # of iterations =  4.6

     negative rho (up, down):  8.038E-01 0.000E+00

     total cpu time spent up to now is      373.7 secs

     total energy              =   -4440.30458838 Ry
     estimated scf accuracy    <       0.01876790 Ry

     iteration # 25     ecut=    60.00 Ry     beta= 0.15
     Davidson diagonalization with overlap

---- Real-time Memory Report at c_bands before calling an iterative solver
             0 MiB given to the printing process from OS
             0 MiB allocation reported by mallinfo(arena+hblkhd)
         50395 MiB available memory on the node where the printing process lives
------------------
     ethr =  4.36E-06,  avg # of iterations =  8.3

     negative rho (up, down):  7.976E-01 0.000E+00

     total cpu time spent up to now is      390.5 secs

     total energy              =   -4440.30295974 Ry
     estimated scf accuracy    <       0.01080967 Ry

     iteration # 26     ecut=    60.00 Ry     beta= 0.15
     Davidson diagonalization with overlap

---- Real-time Memory Report at c_bands before calling an iterative solver
             0 MiB given to the printing process from OS
             0 MiB allocation reported by mallinfo(arena+hblkhd)
         50443 MiB available memory on the node where the printing process lives
------------------
     ethr =  2.51E-06,  avg # of iterations = 10.0

     negative rho (up, down):  7.933E-01 0.000E+00

     total cpu time spent up to now is      409.6 secs

     total energy              =   -4440.30240263 Ry
     estimated scf accuracy    <       0.00563342 Ry

     iteration # 27     ecut=    60.00 Ry     beta= 0.15
     Davidson diagonalization with overlap

---- Real-time Memory Report at c_bands before calling an iterative solver
             0 MiB given to the printing process from OS
             0 MiB allocation reported by mallinfo(arena+hblkhd)
         50376 MiB available memory on the node where the printing process lives
------------------
     c_bands:  1 eigenvalues not converged
     c_bands:  1 eigenvalues not converged
     ethr =  1.31E-06,  avg # of iterations = 11.2

     negative rho (up, down):  7.948E-01 0.000E+00

     total cpu time spent up to now is      427.7 secs

     total energy              =   -4440.30246059 Ry
     estimated scf accuracy    <       0.00227437 Ry

     iteration # 28     ecut=    60.00 Ry     beta= 0.15
     Davidson diagonalization with overlap

---- Real-time Memory Report at c_bands before calling an iterative solver
             0 MiB given to the printing process from OS
             0 MiB allocation reported by mallinfo(arena+hblkhd)
         50348 MiB available memory on the node where the printing process lives
------------------
     c_bands:  1 eigenvalues not converged
     ethr =  5.29E-07,  avg # of iterations =  8.7

     negative rho (up, down):  7.983E-01 0.000E+00

     total cpu time spent up to now is      445.1 secs

     total energy              =   -4440.30265496 Ry
     estimated scf accuracy    <       0.00087122 Ry

     iteration # 29     ecut=    60.00 Ry     beta= 0.15
     Davidson diagonalization with overlap

---- Real-time Memory Report at c_bands before calling an iterative solver
             0 MiB given to the printing process from OS
             0 MiB allocation reported by mallinfo(arena+hblkhd)
         50335 MiB available memory on the node where the printing process lives
------------------
     c_bands:  1 eigenvalues not converged
     ethr =  2.03E-07,  avg # of iterations =  9.3

     negative rho (up, down):  7.990E-01 0.000E+00

     total cpu time spent up to now is      462.4 secs

     total energy              =   -4440.30268866 Ry
     estimated scf accuracy    <       0.00056464 Ry

     iteration # 30     ecut=    60.00 Ry     beta= 0.15
     Davidson diagonalization with overlap

---- Real-time Memory Report at c_bands before calling an iterative solver
             0 MiB given to the printing process from OS
             0 MiB allocation reported by mallinfo(arena+hblkhd)
         50370 MiB available memory on the node where the printing process lives
------------------
     ethr =  1.31E-07,  avg # of iterations =  3.8

     negative rho (up, down):  7.981E-01 0.000E+00

     total cpu time spent up to now is      477.5 secs

     total energy              =   -4440.30269961 Ry
     estimated scf accuracy    <       0.00025283 Ry

     iteration # 31     ecut=    60.00 Ry     beta= 0.15
     Davidson diagonalization with overlap

---- Real-time Memory Report at c_bands before calling an iterative solver
             0 MiB given to the printing process from OS
             0 MiB allocation reported by mallinfo(arena+hblkhd)
         50348 MiB available memory on the node where the printing process lives
------------------
     ethr =  5.88E-08,  avg # of iterations =  4.7

     negative rho (up, down):  7.946E-01 0.000E+00

     total cpu time spent up to now is      493.1 secs

     total energy              =   -4440.30264354 Ry
     estimated scf accuracy    <       0.00012478 Ry

     iteration # 32     ecut=    60.00 Ry     beta= 0.15
     Davidson diagonalization with overlap

---- Real-time Memory Report at c_bands before calling an iterative solver
             0 MiB given to the printing process from OS
             0 MiB allocation reported by mallinfo(arena+hblkhd)
         50395 MiB available memory on the node where the printing process lives
------------------
     ethr =  2.90E-08,  avg # of iterations =  6.1

     negative rho (up, down):  7.929E-01 0.000E+00

     total cpu time spent up to now is      508.9 secs

     total energy              =   -4440.30262024 Ry
     estimated scf accuracy    <       0.00006703 Ry

     iteration # 33     ecut=    60.00 Ry     beta= 0.15
     Davidson diagonalization with overlap

---- Real-time Memory Report at c_bands before calling an iterative solver
             0 MiB given to the printing process from OS
             0 MiB allocation reported by mallinfo(arena+hblkhd)
         50410 MiB available memory on the node where the printing process lives
------------------
     ethr =  1.56E-08,  avg # of iterations =  3.4

     negative rho (up, down):  7.925E-01 0.000E+00

     total cpu time spent up to now is      524.5 secs

     total energy              =   -4440.30263133 Ry
     estimated scf accuracy    <       0.00002259 Ry

     iteration # 34     ecut=    60.00 Ry     beta= 0.15
     Davidson diagonalization with overlap

---- Real-time Memory Report at c_bands before calling an iterative solver
             0 MiB given to the printing process from OS
             0 MiB allocation reported by mallinfo(arena+hblkhd)
         50376 MiB available memory on the node where the printing process lives
------------------
     ethr =  5.25E-09,  avg # of iterations =  2.0

     negative rho (up, down):  7.925E-01 0.000E+00

     total cpu time spent up to now is      538.5 secs

     total energy              =   -4440.30263116 Ry
     estimated scf accuracy    <       0.00001250 Ry

     iteration # 35     ecut=    60.00 Ry     beta= 0.15
     Davidson diagonalization with overlap

---- Real-time Memory Report at c_bands before calling an iterative solver
             0 MiB given to the printing process from OS
             0 MiB allocation reported by mallinfo(arena+hblkhd)
         50467 MiB available memory on the node where the printing process lives
------------------
     ethr =  2.91E-09,  avg # of iterations =  1.9

     negative rho (up, down):  7.923E-01 0.000E+00

     total cpu time spent up to now is      552.4 secs

     total energy              =   -4440.30263325 Ry
     estimated scf accuracy    <       0.00001269 Ry

     iteration # 36     ecut=    60.00 Ry     beta= 0.15
     Davidson diagonalization with overlap

---- Real-time Memory Report at c_bands before calling an iterative solver
             0 MiB given to the printing process from OS
             0 MiB allocation reported by mallinfo(arena+hblkhd)
         50464 MiB available memory on the node where the printing process lives
------------------
     ethr =  2.91E-09,  avg # of iterations =  2.0

     negative rho (up, down):  7.923E-01 0.000E+00

     total cpu time spent up to now is      566.5 secs

     total energy              =   -4440.30263324 Ry
     estimated scf accuracy    <       0.00000785 Ry

     iteration # 37     ecut=    60.00 Ry     beta= 0.15
     Davidson diagonalization with overlap

---- Real-time Memory Report at c_bands before calling an iterative solver
             0 MiB given to the printing process from OS
             0 MiB allocation reported by mallinfo(arena+hblkhd)
         50472 MiB available memory on the node where the printing process lives
------------------
     ethr =  1.83E-09,  avg # of iterations =  2.0

     negative rho (up, down):  7.922E-01 0.000E+00

     total cpu time spent up to now is      580.6 secs

     total energy              =   -4440.30263274 Ry
     estimated scf accuracy    <       0.00000705 Ry

     iteration # 38     ecut=    60.00 Ry     beta= 0.15
     Davidson diagonalization with overlap

---- Real-time Memory Report at c_bands before calling an iterative solver
             0 MiB given to the printing process from OS
             0 MiB allocation reported by mallinfo(arena+hblkhd)
         50476 MiB available memory on the node where the printing process lives
------------------
     ethr =  1.64E-09,  avg # of iterations =  2.0

     negative rho (up, down):  7.923E-01 0.000E+00

     total cpu time spent up to now is      594.8 secs

     total energy              =   -4440.30263231 Ry
     estimated scf accuracy    <       0.00000610 Ry

     iteration # 39     ecut=    60.00 Ry     beta= 0.15
     Davidson diagonalization with overlap

---- Real-time Memory Report at c_bands before calling an iterative solver
             0 MiB given to the printing process from OS
             0 MiB allocation reported by mallinfo(arena+hblkhd)
         50481 MiB available memory on the node where the printing process lives
------------------
     ethr =  1.42E-09,  avg # of iterations =  2.0

     negative rho (up, down):  7.923E-01 0.000E+00

     total cpu time spent up to now is      608.9 secs

     total energy              =   -4440.30263342 Ry
     estimated scf accuracy    <       0.00000479 Ry

     iteration # 40     ecut=    60.00 Ry     beta= 0.15
     Davidson diagonalization with overlap

---- Real-time Memory Report at c_bands before calling an iterative solver
             0 MiB given to the printing process from OS
             0 MiB allocation reported by mallinfo(arena+hblkhd)
         50488 MiB available memory on the node where the printing process lives
------------------
     ethr =  1.11E-09,  avg # of iterations =  1.8

     negative rho (up, down):  7.926E-01 0.000E+00

     total cpu time spent up to now is      622.9 secs

     total energy              =   -4440.30263375 Ry
     estimated scf accuracy    <       0.00000380 Ry

     iteration # 41     ecut=    60.00 Ry     beta= 0.15
     Davidson diagonalization with overlap

---- Real-time Memory Report at c_bands before calling an iterative solver
             0 MiB given to the printing process from OS
             0 MiB allocation reported by mallinfo(arena+hblkhd)
         50490 MiB available memory on the node where the printing process lives
------------------
     ethr =  8.84E-10,  avg # of iterations =  2.8

     negative rho (up, down):  7.928E-01 0.000E+00

     total cpu time spent up to now is      637.5 secs

     total energy              =   -4440.30263350 Ry
     estimated scf accuracy    <       0.00000146 Ry

     iteration # 42     ecut=    60.00 Ry     beta= 0.15
     Davidson diagonalization with overlap

---- Real-time Memory Report at c_bands before calling an iterative solver
             0 MiB given to the printing process from OS
             0 MiB allocation reported by mallinfo(arena+hblkhd)
         50483 MiB available memory on the node where the printing process lives
------------------
     ethr =  3.40E-10,  avg # of iterations =  2.8

     negative rho (up, down):  7.928E-01 0.000E+00

     total cpu time spent up to now is      652.2 secs

     total energy              =   -4440.30263363 Ry
     estimated scf accuracy    <       0.00000067 Ry

     iteration # 43     ecut=    60.00 Ry     beta= 0.15
     Davidson diagonalization with overlap

---- Real-time Memory Report at c_bands before calling an iterative solver
             0 MiB given to the printing process from OS
             0 MiB allocation reported by mallinfo(arena+hblkhd)
         50485 MiB available memory on the node where the printing process lives
------------------
     ethr =  1.57E-10,  avg # of iterations =  1.5

     negative rho (up, down):  7.927E-01 0.000E+00

     total cpu time spent up to now is      665.8 secs

     total energy              =   -4440.30263407 Ry
     estimated scf accuracy    <       0.00000045 Ry

     iteration # 44     ecut=    60.00 Ry     beta= 0.15
     Davidson diagonalization with overlap

---- Real-time Memory Report at c_bands before calling an iterative solver
             0 MiB given to the printing process from OS
             0 MiB allocation reported by mallinfo(arena+hblkhd)
         50488 MiB available memory on the node where the printing process lives
------------------
     ethr =  1.04E-10,  avg # of iterations =  3.6

     negative rho (up, down):  7.926E-01 0.000E+00

     total cpu time spent up to now is      682.3 secs

     total energy              =   -4440.30263414 Ry
     estimated scf accuracy    <       0.00000007 Ry

     iteration # 45     ecut=    60.00 Ry     beta= 0.15
     Davidson diagonalization with overlap

---- Real-time Memory Report at c_bands before calling an iterative solver
             0 MiB given to the printing process from OS
             0 MiB allocation reported by mallinfo(arena+hblkhd)
         50423 MiB available memory on the node where the printing process lives
------------------
     ethr =  1.63E-11,  avg # of iterations =  2.8

     negative rho (up, down):  7.926E-01 0.000E+00

     total cpu time spent up to now is      697.8 secs

     total energy              =   -4440.30263419 Ry
     estimated scf accuracy    <       0.00000003 Ry

     iteration # 46     ecut=    60.00 Ry     beta= 0.15
     Davidson diagonalization with overlap

---- Real-time Memory Report at c_bands before calling an iterative solver
             0 MiB given to the printing process from OS
             0 MiB allocation reported by mallinfo(arena+hblkhd)
         50415 MiB available memory on the node where the printing process lives
------------------
     ethr =  7.54E-12,  avg # of iterations =  2.6

     negative rho (up, down):  7.926E-01 0.000E+00

     total cpu time spent up to now is      712.4 secs

     total energy              =   -4440.30263422 Ry
     estimated scf accuracy    <       0.00000002 Ry

     iteration # 47     ecut=    60.00 Ry     beta= 0.15
     Davidson diagonalization with overlap

---- Real-time Memory Report at c_bands before calling an iterative solver
             0 MiB given to the printing process from OS
             0 MiB allocation reported by mallinfo(arena+hblkhd)
         50416 MiB available memory on the node where the printing process lives
------------------
     ethr =  3.86E-12,  avg # of iterations =  2.2

     negative rho (up, down):  7.926E-01 0.000E+00

     total cpu time spent up to now is      726.9 secs

     End of self-consistent calculation

          k = 0.0000 0.0000 0.0000 ( 65197 PWs)   bands (ev):

   -92.8744 -92.8232 -92.7286 -92.6824 -92.6235 -92.5809 -92.5638 -92.4432
   -56.2280 -56.2100 -56.0854 -56.0748 -56.0691 -56.0617 -56.0272 -55.9974
   -55.9828 -55.9806 -55.9730 -55.9308 -55.9130 -55.8743 -55.8553 -55.8235
   -55.8179 -55.7689 -55.7688 -55.7658 -55.7574 -55.7170 -55.6938 -55.6096
   -31.4390 -31.4186 -31.2874 -31.2771 -31.1891 -31.1349 -31.0305 -30.6051
   -30.0203 -29.9756 -29.9500 -29.8410 -15.2507 -15.2007 -15.1251 -14.9945
   -14.7964 -14.6726 -14.3881 -14.3649 -14.3388 -14.2925 -14.2421 -14.2272
   -14.2242 -14.2032 -14.1878 -14.1528 -14.1011 -13.9476 -13.7634 -13.7357
   -13.7055 -13.6706 -13.6552 -13.5964 -13.5655 -13.4812 -13.4134 -13.2977
   -13.2764 -13.2711 -13.2515 -13.2367 -13.2181 -13.1653 -13.1618 -13.1370
   -13.1157 -13.0849 -13.0830 -13.0665 -13.0552 -13.0201 -12.9585 -12.9408
   -12.9192 -12.6641 -12.6586 -12.5484 -12.5044 -12.3585 -12.1167 -12.0465
   -12.0322 -11.9702 -11.9589 -11.9477 -11.9229 -11.9050 -11.8428 -11.8254
   -11.7912 -11.7627 -11.6481 -11.5705 -11.5667  -3.1116  -2.8800  -2.6504
    -2.5028  -2.4406  -2.2990  -1.9912  -1.9768  -1.9583  -1.8721  -1.8523
    -1.7843  -1.7672  -1.7278  -1.6823  -1.5009  -1.2753  -1.2461  -1.1018
    -1.0869  -1.0392  -1.0202  -0.9744  -0.9576  -0.9047  -0.8778  -0.8024
    -0.7888  -0.7180  -0.5832  -0.5695  -0.5420  -0.4625  -0.4363  -0.4174
    -0.3626  -0.2978  -0.2468  -0.1976  -0.1715  -0.1012  -0.0277   0.0103
     0.0387   0.0526   0.3071   0.3203   0.4948   0.5578   0.6239   0.6834
     0.7606   0.7726   0.7931   0.8541   0.8817   0.9152   0.9726   1.1024
     1.1639   1.1851   1.2119   1.2202   1.2807   1.3492   1.4617   1.4768
     1.5388   1.5487   1.5931   1.6123   1.6205   1.6767   1.7376   1.7488
     1.7873   1.8300   1.8594   1.9917   2.0770   2.1162   2.1447   2.2859
     2.3056   2.3401   2.3434   2.4534   2.4880   2.5149   2.5345   2.5440
     2.5734   2.6259   2.6491   2.6716   2.7385   2.7695   2.7809   2.7865
     2.8544   2.8589   2.8819   2.8898   2.8997   2.9140   2.9186   2.9326
     2.9388   2.9524   2.9600   2.9703   2.9858   3.0065   3.0120   3.0235
     3.0519   3.1640   3.2648   3.9489   4.2626   4.6168   4.8313   4.8808
     5.7729   5.7799   5.8265   5.8698   6.1428   6.1896   6.4380   6.4487
     6.9470   6.9772   7.0777   7.1658   7.3459   7.5277   7.5546   7.5744
     7.6693   7.7869   7.8786   7.9198   8.0375   8.1304   8.4286   8.5407
     8.7355   8.9382

     occupation numbers 
     1.0000   1.0000   1.0000   1.0000   1.0000   1.0000   1.0000   1.0000
     1.0000   1.0000   1.0000   1.0000   1.0000   1.0000   1.0000   1.0000
     1.0000   1.0000   1.0000   1.0000   1.0000   1.0000   1.0000   1.0000
     1.0000   1.0000   1.0000   1.0000   1.0000   1.0000   1.0000   1.0000
     1.0000   1.0000   1.0000   1.0000   1.0000   1.0000   1.0000   1.0000
     1.0000   1.0000   1.0000   1.0000   1.0000   1.0000   1.0000   1.0000
     1.0000   1.0000   1.0000   1.0000   1.0000   1.0000   1.0000   1.0000
     1.0000   1.0000   1.0000   1.0000   1.0000   1.0000   1.0000   1.0000
     1.0000   1.0000   1.0000   1.0000   1.0000   1.0000   1.0000   1.0000
     1.0000   1.0000   1.0000   1.0000   1.0000   1.0000   1.0000   1.0000
     1.0000   1.0000   1.0000   1.0000   1.0000   1.0000   1.0000   1.0000
     1.0000   1.0000   1.0000   1.0000   1.0000   1.0000   1.0000   1.0000
     1.0000   1.0000   1.0000   1.0000   1.0000   1.0000   1.0000   1.0000
     1.0000   1.0000   1.0000   1.0000   1.0000   1.0000   1.0000   1.0000
     1.0000   1.0000   1.0000   1.0000   1.0000   1.0000   1.0000   1.0000
     1.0000   1.0000   1.0000   1.0000   1.0000   1.0000   1.0000   1.0000
     1.0000   1.0000   1.0000   1.0000   1.0000   1.0000   1.0000   1.0000
     1.0000   1.0000   1.0000   1.0000   1.0000   1.0000   1.0000   1.0000
     1.0000   1.0000   1.0000   1.0000   1.0000   1.0000   1.0000   1.0000
     1.0000   1.0000   1.0000   1.0000   1.0000   0.9999   0.9999   0.9999
     0.9998   0.9998   0.9998   0.9997   0.9996   0.9996   0.9994   0.9988
     0.9984   0.9983   0.9980   0.9980   0.9973   0.9963   0.9940   0.9936
     0.9918   0.9914   0.9898   0.9890   0.9886   0.9859   0.9823   0.9816
     0.9788   0.9754   0.9727   0.9579   0.9452   0.9384   0.9331   0.9014
     0.8962   0.8867   0.8857   0.8510   0.8388   0.8288   0.8213   0.8176
     0.8058   0.7837   0.7734   0.7632   0.7315   0.7161   0.7104   0.7075
     0.6720   0.6695   0.6571   0.6528   0.6473   0.6394   0.6368   0.6290
     0.6255   0.6178   0.6135   0.6077   0.5988   0.5869   0.5836   0.5770
     0.5604   0.4943   0.4348   0.1190   0.0499   0.0149   0.0064   0.0052
     0.0001   0.0000   0.0000   0.0000   0.0000   0.0000   0.0000   0.0000
     0.0000   0.0000   0.0000   0.0000   0.0000   0.0000   0.0000   0.0000
     0.0000   0.0000   0.0000   0.0000   0.0000   0.0000   0.0000   0.0000
     0.0000   0.0000

          k = 0.0000 0.2500 0.0000 ( 65257 PWs)   bands (ev):

   -92.8744 -92.8232 -92.7286 -92.6824 -92.6235 -92.5809 -92.5638 -92.4432
   -56.2280 -56.2100 -56.0854 -56.0748 -56.0691 -56.0617 -56.0272 -55.9974
   -55.9828 -55.9806 -55.9730 -55.9308 -55.9130 -55.8743 -55.8553 -55.8235
   -55.8179 -55.7689 -55.7688 -55.7658 -55.7574 -55.7170 -55.6938 -55.6096
   -31.4388 -31.4185 -31.2872 -31.2773 -31.1893 -31.1352 -31.0305 -30.6052
   -30.0197 -29.9753 -29.9506 -29.8414 -15.2144 -15.1740 -15.0997 -14.9653
   -14.8390 -14.6643 -14.5321 -14.3533 -14.3153 -14.2958 -14.2682 -14.2089
   -14.2024 -14.1851 -14.1672 -14.1197 -14.0185 -13.9786 -13.8135 -13.7910
   -13.7463 -13.7084 -13.6592 -13.6188 -13.5717 -13.5071 -13.4675 -13.4024
   -13.3306 -13.3082 -13.2724 -13.2642 -13.2334 -13.1512 -13.1261 -13.0978
   -13.0839 -13.0632 -13.0301 -13.0262 -12.9953 -12.9650 -12.9542 -12.8757
   -12.8270 -12.6209 -12.5808 -12.5654 -12.5451 -12.4096 -12.1655 -12.1024
   -11.9974 -11.9709 -11.9557 -11.9263 -11.8983 -11.8816 -11.8346 -11.8235
   -11.8010 -11.7676 -11.6625 -11.6118 -11.6014  -2.9761  -2.7556  -2.6175
    -2.4357  -2.3923  -2.2290  -2.0083  -1.9257  -1.9127  -1.8530  -1.7515
    -1.7348  -1.7003  -1.6735  -1.6296  -1.4320  -1.3035  -1.2922  -1.2144
    -1.2055  -1.1019  -1.0724  -1.0125  -0.9873  -0.9486  -0.8832  -0.8560
    -0.8247  -0.7916  -0.7740  -0.7434  -0.6676  -0.6182  -0.5444  -0.4351
    -0.4121  -0.3719  -0.2592  -0.2212  -0.1536  -0.1119  -0.0406  -0.0228
    -0.0072   0.0519   0.3547   0.4409   0.4715   0.5632   0.6110   0.6418
     0.7432   0.7644   0.8569   0.8835   0.9071   1.0222   1.1202   1.1383
     1.1633   1.1857   1.2064   1.2650   1.2931   1.3206   1.3674   1.4070
     1.4366   1.5225   1.5587   1.5964   1.6454   1.7001   1.7455   1.7760
     1.8002   1.8128   1.9107   2.0252   2.1008   2.1254   2.1898   2.2386
     2.2793   2.2914   2.3493   2.3837   2.4698   2.5114   2.5251   2.5689
     2.6431   2.6575   2.6962   2.7198   2.7502   2.7722   2.7894   2.7960
     2.8032   2.8165   2.8428   2.8463   2.8646   2.8709   2.8778   2.8976
     2.9089   2.9153   2.9367   2.9481   2.9533   2.9877   3.0036   3.0660
     3.4369   3.4840   3.7140   4.1418   4.2604   4.5525   4.8987   4.9946
     5.5187   5.6455   5.8183   5.9114   5.9540   5.9911   6.0713   6.5528
     7.0253   7.0415   7.2066   7.2473   7.3521   7.4119   7.5483   7.5555
     7.7385   7.8359   8.0710   8.1541   8.2967   8.3077   8.3577   8.4418
     8.5729   8.8250

     occupation numbers 
     1.0000   1.0000   1.0000   1.0000   1.0000   1.0000   1.0000   1.0000
     1.0000   1.0000   1.0000   1.0000   1.0000   1.0000   1.0000   1.0000
     1.0000   1.0000   1.0000   1.0000   1.0000   1.0000   1.0000   1.0000
     1.0000   1.0000   1.0000   1.0000   1.0000   1.0000   1.0000   1.0000
     1.0000   1.0000   1.0000   1.0000   1.0000   1.0000   1.0000   1.0000
     1.0000   1.0000   1.0000   1.0000   1.0000   1.0000   1.0000   1.0000
     1.0000   1.0000   1.0000   1.0000   1.0000   1.0000   1.0000   1.0000
     1.0000   1.0000   1.0000   1.0000   1.0000   1.0000   1.0000   1.0000
     1.0000   1.0000   1.0000   1.0000   1.0000   1.0000   1.0000   1.0000
     1.0000   1.0000   1.0000   1.0000   1.0000   1.0000   1.0000   1.0000
     1.0000   1.0000   1.0000   1.0000   1.0000   1.0000   1.0000   1.0000
     1.0000   1.0000   1.0000   1.0000   1.0000   1.0000   1.0000   1.0000
     1.0000   1.0000   1.0000   1.0000   1.0000   1.0000   1.0000   1.0000
     1.0000   1.0000   1.0000   1.0000   1.0000   1.0000   1.0000   1.0000
     1.0000   1.0000   1.0000   1.0000   1.0000   1.0000   1.0000   1.0000
     1.0000   1.0000   1.0000   1.0000   1.0000   1.0000   1.0000   1.0000
     1.0000   1.0000   1.0000   1.0000   1.0000   1.0000   1.0000   1.0000
     1.0000   1.0000   1.0000   1.0000   1.0000   1.0000   1.0000   1.0000
     1.0000   1.0000   1.0000   1.0000   1.0000   1.0000   1.0000   1.0000
     1.0000   1.0000   1.0000   1.0000   1.0000   0.9999   0.9999   0.9999
     0.9998   0.9998   0.9997   0.9996   0.9996   0.9992   0.9987   0.9986
     0.9984   0.9983   0.9981   0.9975   0.9971   0.9968   0.9960   0.9953
     0.9946   0.9923   0.9911   0.9896   0.9875   0.9846   0.9818   0.9797
     0.9778   0.9768   0.9676   0.9532   0.9411   0.9367   0.9239   0.9130
     0.9031   0.9000   0.8840   0.8737   0.8453   0.8301   0.8249   0.8077
     0.7761   0.7697   0.7518   0.7406   0.7258   0.7147   0.7060   0.7027
     0.6990   0.6920   0.6781   0.6763   0.6665   0.6631   0.6593   0.6484
     0.6422   0.6387   0.6267   0.6203   0.6173   0.5977   0.5885   0.5521
     0.3374   0.3122   0.2030   0.0713   0.0502   0.0189   0.0048   0.0031
     0.0002   0.0001   0.0000   0.0000   0.0000   0.0000   0.0000   0.0000
     0.0000   0.0000   0.0000   0.0000   0.0000   0.0000   0.0000   0.0000
     0.0000   0.0000   0.0000   0.0000   0.0000   0.0000   0.0000   0.0000
     0.0000   0.0000

          k = 0.0000-0.5000 0.0000 ( 65180 PWs)   bands (ev):

   -92.8744 -92.8232 -92.7286 -92.6824 -92.6235 -92.5809 -92.5638 -92.4432
   -56.2280 -56.2100 -56.0854 -56.0748 -56.0691 -56.0617 -56.0272 -55.9974
   -55.9828 -55.9806 -55.9730 -55.9308 -55.9130 -55.8743 -55.8553 -55.8235
   -55.8179 -55.7689 -55.7688 -55.7658 -55.7574 -55.7170 -55.6938 -55.6096
   -31.4386 -31.4183 -31.2870 -31.2775 -31.1894 -31.1354 -31.0304 -30.6053
   -30.0191 -29.9750 -29.9512 -29.8417 -15.1767 -15.1290 -15.0710 -14.9472
   -14.8623 -14.7287 -14.5633 -14.4499 -14.3259 -14.2519 -14.2101 -14.2053
   -14.1528 -14.1383 -14.0870 -14.0643 -14.0408 -14.0092 -13.9716 -13.9231
   -13.7519 -13.6925 -13.6624 -13.6238 -13.5695 -13.5248 -13.4694 -13.4430
   -13.4184 -13.3775 -13.2745 -13.2654 -13.2219 -13.1452 -13.1258 -13.1050
   -13.0889 -13.0443 -13.0223 -12.9838 -12.9649 -12.8679 -12.8327 -12.8142
   -12.7881 -12.6764 -12.5585 -12.5292 -12.4847 -12.4469 -12.2409 -12.1871
   -11.9721 -11.9526 -11.9488 -11.9203 -11.8845 -11.8501 -11.8389 -11.7973
   -11.7933 -11.7490 -11.6843 -11.6718 -11.6582  -2.7614  -2.7022  -2.5522
    -2.4811  -2.1979  -2.1141  -1.9870  -1.8518  -1.8109  -1.7938  -1.7146
    -1.6852  -1.6005  -1.5666  -1.4875  -1.4488  -1.4118  -1.3845  -1.3199
    -1.2882  -1.2411  -1.2060  -1.1718  -1.1392  -1.0285  -0.9848  -0.9472
    -0.9444  -0.8592  -0.8277  -0.8067  -0.7539  -0.6686  -0.5965  -0.5076
    -0.4773  -0.3757  -0.3333  -0.1991  -0.1490  -0.1330  -0.0630   0.0609
     0.1034   0.2214   0.2926   0.2996   0.4259   0.4831   0.6086   0.7066
     0.8161   0.8461   0.8859   0.8957   0.9366   0.9478   0.9802   0.9980
     1.0085   1.1191   1.1829   1.2158   1.2380   1.5033   1.5327   1.5549
     1.6529   1.6838   1.7033   1.7182   1.7425   1.7629   1.7821   1.8048
     1.8334   1.8679   1.9004   1.9066   1.9327   1.9846   2.0712   2.1032
     2.2869   2.4314   2.4399   2.4612   2.4955   2.5036   2.5087   2.5615
     2.5726   2.5750   2.6257   2.6347   2.6430   2.6733   2.7294   2.7488
     2.8103   2.8237   2.8389   2.8421   2.8590   2.8680   2.8733   2.8754
     2.8789   2.8930   2.9074   2.9100   2.9731   2.9773   2.9932   3.0472
     3.9748   3.9942   4.0138   4.0981   4.5833   4.7399   4.9145   5.0091
     5.2939   5.3658   5.5007   5.5919   5.8642   5.8862   6.2175   6.6656
     6.7965   6.8983   7.1449   7.3172   7.5586   7.6015   7.6628   7.7306
     7.7861   7.8556   8.0451   8.1948   8.3499   8.3938   8.4875   8.5525
     8.6954   8.7266

     occupation numbers 
     1.0000   1.0000   1.0000   1.0000   1.0000   1.0000   1.0000   1.0000
     1.0000   1.0000   1.0000   1.0000   1.0000   1.0000   1.0000   1.0000
     1.0000   1.0000   1.0000   1.0000   1.0000   1.0000   1.0000   1.0000
     1.0000   1.0000   1.0000   1.0000   1.0000   1.0000   1.0000   1.0000
     1.0000   1.0000   1.0000   1.0000   1.0000   1.0000   1.0000   1.0000
     1.0000   1.0000   1.0000   1.0000   1.0000   1.0000   1.0000   1.0000
     1.0000   1.0000   1.0000   1.0000   1.0000   1.0000   1.0000   1.0000
     1.0000   1.0000   1.0000   1.0000   1.0000   1.0000   1.0000   1.0000
     1.0000   1.0000   1.0000   1.0000   1.0000   1.0000   1.0000   1.0000
     1.0000   1.0000   1.0000   1.0000   1.0000   1.0000   1.0000   1.0000
     1.0000   1.0000   1.0000   1.0000   1.0000   1.0000   1.0000   1.0000
     1.0000   1.0000   1.0000   1.0000   1.0000   1.0000   1.0000   1.0000
     1.0000   1.0000   1.0000   1.0000   1.0000   1.0000   1.0000   1.0000
     1.0000   1.0000   1.0000   1.0000   1.0000   1.0000   1.0000   1.0000
     1.0000   1.0000   1.0000   1.0000   1.0000   1.0000   1.0000   1.0000
     1.0000   1.0000   1.0000   1.0000   1.0000   1.0000   1.0000   1.0000
     1.0000   1.0000   1.0000   1.0000   1.0000   1.0000   1.0000   1.0000
     1.0000   1.0000   1.0000   1.0000   1.0000   1.0000   1.0000   1.0000
     1.0000   1.0000   1.0000   1.0000   1.0000   1.0000   1.0000   1.0000
     1.0000   1.0000   1.0000   1.0000   1.0000   1.0000   0.9999   0.9999
     0.9997   0.9997   0.9996   0.9996   0.9995   0.9995   0.9994   0.9993
     0.9993   0.9987   0.9983   0.9980   0.9978   0.9929   0.9920   0.9912
     0.9871   0.9855   0.9844   0.9835   0.9820   0.9806   0.9792   0.9775
     0.9751   0.9719   0.9687   0.9680   0.9652   0.9588   0.9461   0.9407
     0.9011   0.8585   0.8556   0.8483   0.8360   0.8330   0.8311   0.8106
     0.8062   0.8052   0.7838   0.7798   0.7761   0.7625   0.7360   0.7264
     0.6952   0.6882   0.6802   0.6785   0.6695   0.6647   0.6618   0.6606
     0.6587   0.6510   0.6431   0.6416   0.6061   0.6036   0.5945   0.5632
     0.1116   0.1062   0.1009   0.0805   0.0169   0.0093   0.0045   0.0029
     0.0007   0.0005   0.0002   0.0001   0.0000   0.0000   0.0000   0.0000
     0.0000   0.0000   0.0000   0.0000   0.0000   0.0000   0.0000   0.0000
     0.0000   0.0000   0.0000   0.0000   0.0000   0.0000   0.0000   0.0000
     0.0000   0.0000

          k = 0.2500 0.2500 0.0000 ( 65198 PWs)   bands (ev):

   -92.8744 -92.8232 -92.7286 -92.6824 -92.6235 -92.5809 -92.5638 -92.4432
   -56.2280 -56.2100 -56.0854 -56.0748 -56.0691 -56.0617 -56.0272 -55.9974
   -55.9828 -55.9806 -55.9730 -55.9308 -55.9130 -55.8743 -55.8553 -55.8235
   -55.8179 -55.7689 -55.7688 -55.7658 -55.7574 -55.7170 -55.6938 -55.6096
   -31.4372 -31.4201 -31.2871 -31.2769 -31.1897 -31.1351 -31.0306 -30.6053
   -30.0188 -29.9762 -29.9502 -29.8418 -15.1853 -15.1391 -15.0714 -14.9552
   -14.8322 -14.7050 -14.6390 -14.4303 -14.2765 -14.2618 -14.2266 -14.1973
   -14.1744 -14.1389 -14.1147 -14.0825 -14.0090 -13.9924 -13.8303 -13.8162
   -13.7865 -13.7669 -13.7053 -13.6768 -13.6071 -13.5905 -13.4558 -13.4056
   -13.3880 -13.3046 -13.2644 -13.2309 -13.2042 -13.1796 -13.1412 -13.1080
   -13.0959 -13.0783 -13.0235 -12.9615 -12.9465 -12.9068 -12.9052 -12.8754
   -12.7934 -12.6251 -12.6143 -12.5496 -12.4638 -12.4387 -12.1821 -12.1515
   -11.9742 -11.9669 -11.9385 -11.9271 -11.9206 -11.8577 -11.8224 -11.8162
   -11.7811 -11.7738 -11.6793 -11.6399 -11.6228  -2.8377  -2.6298  -2.5113
    -2.4168  -2.2967  -2.2322  -2.0328  -1.8900  -1.8716  -1.8400  -1.7465
    -1.7111  -1.6175  -1.5882  -1.5392  -1.4088  -1.3590  -1.2867  -1.2429
    -1.1972  -1.1751  -1.1514  -1.1080  -1.0934  -1.0024  -0.9520  -0.8844
    -0.8353  -0.8054  -0.7579  -0.7415  -0.6778  -0.6301  -0.5680  -0.5358
    -0.4482  -0.3985  -0.3678  -0.3323  -0.2757  -0.1968  -0.1638  -0.1332
    -0.0539  -0.0117   0.2415   0.3909   0.4233   0.4851   0.5256   0.6038
     0.6523   0.7029   0.7398   1.0101   1.0729   1.1462   1.1695   1.2233
     1.2503   1.2864   1.3234   1.3406   1.3669   1.4158   1.4221   1.4366
     1.4850   1.5258   1.5612   1.6239   1.6652   1.6687   1.7099   1.7417
     1.7997   1.8315   1.9498   2.0100   2.0419   2.0646   2.1400   2.2024
     2.2275   2.2618   2.2887   2.3031   2.4158   2.4490   2.5363   2.5688
     2.6435   2.6640   2.7062   2.7228   2.7282   2.7455   2.7601   2.7730
     2.7858   2.7928   2.8039   2.8171   2.8298   2.8484   2.8570   2.8655
     2.8889   2.9000   2.9083   2.9399   3.2395   3.3342   3.3798   3.4537
     3.4836   3.6968   3.7837   4.1433   4.3538   4.5626   4.8178   5.1333
     5.5071   5.5681   5.6098   5.6684   5.7306   6.0758   6.1154   6.1620
     6.8417   7.0337   7.2021   7.3657   7.4603   7.4876   7.5982   7.7665
     7.8406   8.0430   8.1325   8.2114   8.3321   8.4060   8.4536   8.4984
     8.5524   8.6329

     occupation numbers 
     1.0000   1.0000   1.0000   1.0000   1.0000   1.0000   1.0000   1.0000
     1.0000   1.0000   1.0000   1.0000   1.0000   1.0000   1.0000   1.0000
     1.0000   1.0000   1.0000   1.0000   1.0000   1.0000   1.0000   1.0000
     1.0000   1.0000   1.0000   1.0000   1.0000   1.0000   1.0000   1.0000
     1.0000   1.0000   1.0000   1.0000   1.0000   1.0000   1.0000   1.0000
     1.0000   1.0000   1.0000   1.0000   1.0000   1.0000   1.0000   1.0000
     1.0000   1.0000   1.0000   1.0000   1.0000   1.0000   1.0000   1.0000
     1.0000   1.0000   1.0000   1.0000   1.0000   1.0000   1.0000   1.0000
     1.0000   1.0000   1.0000   1.0000   1.0000   1.0000   1.0000   1.0000
     1.0000   1.0000   1.0000   1.0000   1.0000   1.0000   1.0000   1.0000
     1.0000   1.0000   1.0000   1.0000   1.0000   1.0000   1.0000   1.0000
     1.0000   1.0000   1.0000   1.0000   1.0000   1.0000   1.0000   1.0000
     1.0000   1.0000   1.0000   1.0000   1.0000   1.0000   1.0000   1.0000
     1.0000   1.0000   1.0000   1.0000   1.0000   1.0000   1.0000   1.0000
     1.0000   1.0000   1.0000   1.0000   1.0000   1.0000   1.0000   1.0000
     1.0000   1.0000   1.0000   1.0000   1.0000   1.0000   1.0000   1.0000
     1.0000   1.0000   1.0000   1.0000   1.0000   1.0000   1.0000   1.0000
     1.0000   1.0000   1.0000   1.0000   1.0000   1.0000   1.0000   1.0000
     1.0000   1.0000   1.0000   1.0000   1.0000   1.0000   1.0000   1.0000
     1.0000   1.0000   1.0000   1.0000   1.0000   1.0000   1.0000   0.9999
     0.9999   0.9999   0.9998   0.9993   0.9990   0.9986   0.9984   0.9979
     0.9977   0.9972   0.9967   0.9965   0.9960   0.9951   0.9949   0.9946
     0.9934   0.9922   0.9910   0.9885   0.9865   0.9863   0.9840   0.9820
     0.9779   0.9753   0.9632   0.9554   0.9507   0.9472   0.9340   0.9212
     0.9156   0.9075   0.9007   0.8969   0.8636   0.8525   0.8206   0.8077
     0.7759   0.7667   0.7471   0.7392   0.7366   0.7281   0.7208   0.7144
     0.7079   0.7043   0.6986   0.6917   0.6850   0.6752   0.6705   0.6660
     0.6532   0.6471   0.6425   0.6249   0.4497   0.3947   0.3688   0.3283
     0.3124   0.2102   0.1750   0.0710   0.0374   0.0183   0.0068   0.0016
     0.0002   0.0002   0.0001   0.0001   0.0001   0.0000   0.0000   0.0000
     0.0000   0.0000   0.0000   0.0000   0.0000   0.0000   0.0000   0.0000
     0.0000   0.0000   0.0000   0.0000   0.0000   0.0000   0.0000   0.0000
     0.0000   0.0000

          k = 0.2500-0.5000 0.0000 ( 65138 PWs)   bands (ev):

   -92.8744 -92.8232 -92.7286 -92.6824 -92.6235 -92.5809 -92.5638 -92.4432
   -56.2280 -56.2100 -56.0854 -56.0748 -56.0691 -56.0617 -56.0272 -55.9974
   -55.9828 -55.9806 -55.9730 -55.9308 -55.9130 -55.8743 -55.8553 -55.8235
   -55.8179 -55.7689 -55.7688 -55.7658 -55.7574 -55.7170 -55.6938 -55.6096
   -31.4370 -31.4200 -31.2869 -31.2771 -31.1898 -31.1353 -31.0305 -30.6054
   -30.0182 -29.9759 -29.9508 -29.8421 -15.1456 -15.1020 -15.0276 -14.9188
   -14.8845 -14.7686 -14.6701 -14.5464 -14.2416 -14.1862 -14.1620 -14.1374
   -14.1232 -14.1099 -14.0712 -14.0520 -14.0238 -13.9855 -13.9617 -13.9162
   -13.8330 -13.7843 -13.7217 -13.7042 -13.6335 -13.6179 -13.5103 -13.4628
   -13.3683 -13.3031 -13.2862 -13.2125 -13.1874 -13.1518 -13.1387 -13.1077
   -13.0919 -13.0725 -13.0120 -12.9757 -12.9522 -12.8662 -12.8365 -12.8179
   -12.7864 -12.6830 -12.5591 -12.4984 -12.4819 -12.4128 -12.2330 -12.1915
   -11.9719 -11.9456 -11.9334 -11.9223 -11.8951 -11.8644 -11.8352 -11.7950
   -11.7660 -11.7452 -11.6976 -11.6733 -11.6624  -2.6193  -2.5536  -2.4258
    -2.3496  -2.2183  -2.1336  -2.0113  -1.8625  -1.8066  -1.7859  -1.7233
    -1.7104  -1.6113  -1.5464  -1.4620  -1.4096  -1.4007  -1.3389  -1.2926
    -1.2618  -1.2140  -1.1769  -1.1420  -1.1024  -1.0885  -1.0454  -1.0155
    -0.9734  -0.9420  -0.8751  -0.7716  -0.7303  -0.6531  -0.5876  -0.5350
    -0.4950  -0.4769  -0.4194  -0.2597  -0.2508  -0.1383  -0.1102  -0.0995
    -0.0533  -0.0243   0.0182   0.0417   0.1055   0.3855   0.4824   0.5723
     0.6232   0.8729   0.8960   0.9814   1.0095   1.1698   1.2069   1.2465
     1.2668   1.2820   1.3026   1.3675   1.4165   1.4488   1.5345   1.6242
     1.6646   1.6816   1.6952   1.7280   1.7420   1.7471   1.7957   1.8037
     1.8249   1.8677   1.8764   1.8922   1.9318   1.9851   2.0252   2.1064
     2.2452   2.3832   2.4021   2.4194   2.4489   2.4705   2.4968   2.5194
     2.5301   2.5531   2.5804   2.6366   2.6435   2.6791   2.7068   2.7250
     2.7366   2.7441   2.7624   2.7767   2.7958   2.8028   2.8376   2.8500
     2.8617   2.8717   2.8840   2.8904   3.4249   3.4303   3.5710   3.6224
     3.9794   4.0189   4.0340   4.1522   4.6010   4.7609   4.9338   4.9730
     5.1435   5.3105   5.5123   5.5360   5.6349   5.6785   6.3091   6.3458
     6.4543   6.7635   7.2039   7.5910   7.6663   7.7185   7.7669   7.7988
     7.9184   7.9830   8.1316   8.2720   8.4052   8.4495   8.5614   8.5963
     8.6444   8.6988

     occupation numbers 
     1.0000   1.0000   1.0000   1.0000   1.0000   1.0000   1.0000   1.0000
     1.0000   1.0000   1.0000   1.0000   1.0000   1.0000   1.0000   1.0000
     1.0000   1.0000   1.0000   1.0000   1.0000   1.0000   1.0000   1.0000
     1.0000   1.0000   1.0000   1.0000   1.0000   1.0000   1.0000   1.0000
     1.0000   1.0000   1.0000   1.0000   1.0000   1.0000   1.0000   1.0000
     1.0000   1.0000   1.0000   1.0000   1.0000   1.0000   1.0000   1.0000
     1.0000   1.0000   1.0000   1.0000   1.0000   1.0000   1.0000   1.0000
     1.0000   1.0000   1.0000   1.0000   1.0000   1.0000   1.0000   1.0000
     1.0000   1.0000   1.0000   1.0000   1.0000   1.0000   1.0000   1.0000
     1.0000   1.0000   1.0000   1.0000   1.0000   1.0000   1.0000   1.0000
     1.0000   1.0000   1.0000   1.0000   1.0000   1.0000   1.0000   1.0000
     1.0000   1.0000   1.0000   1.0000   1.0000   1.0000   1.0000   1.0000
     1.0000   1.0000   1.0000   1.0000   1.0000   1.0000   1.0000   1.0000
     1.0000   1.0000   1.0000   1.0000   1.0000   1.0000   1.0000   1.0000
     1.0000   1.0000   1.0000   1.0000   1.0000   1.0000   1.0000   1.0000
     1.0000   1.0000   1.0000   1.0000   1.0000   1.0000   1.0000   1.0000
     1.0000   1.0000   1.0000   1.0000   1.0000   1.0000   1.0000   1.0000
     1.0000   1.0000   1.0000   1.0000   1.0000   1.0000   1.0000   1.0000
     1.0000   1.0000   1.0000   1.0000   1.0000   1.0000   1.0000   1.0000
     1.0000   1.0000   1.0000   1.0000   1.0000   1.0000   1.0000   0.9999
     0.9999   0.9996   0.9996   0.9994   0.9993   0.9984   0.9981   0.9977
     0.9975   0.9973   0.9970   0.9960   0.9951   0.9943   0.9919   0.9885
     0.9865   0.9856   0.9849   0.9829   0.9820   0.9817   0.9782   0.9775
     0.9758   0.9720   0.9711   0.9695   0.9653   0.9587   0.9532   0.9401
     0.9115   0.8739   0.8680   0.8624   0.8526   0.8450   0.8355   0.8271
     0.8230   0.8140   0.8029   0.7790   0.7759   0.7598   0.7468   0.7381
     0.7325   0.7288   0.7197   0.7125   0.7027   0.6991   0.6809   0.6743
     0.6680   0.6626   0.6559   0.6524   0.3439   0.3410   0.2680   0.2435
     0.1103   0.0996   0.0957   0.0692   0.0159   0.0085   0.0041   0.0035
     0.0016   0.0007   0.0002   0.0002   0.0001   0.0001   0.0000   0.0000
     0.0000   0.0000   0.0000   0.0000   0.0000   0.0000   0.0000   0.0000
     0.0000   0.0000   0.0000   0.0000   0.0000   0.0000   0.0000   0.0000
     0.0000   0.0000

          k =-0.5000-0.5000 0.0000 ( 65132 PWs)   bands (ev):

   -92.8744 -92.8232 -92.7286 -92.6824 -92.6235 -92.5809 -92.5638 -92.4432
   -56.2280 -56.2100 -56.0854 -56.0748 -56.0691 -56.0617 -56.0272 -55.9974
   -55.9828 -55.9806 -55.9730 -55.9308 -55.9130 -55.8743 -55.8553 -55.8235
   -55.8179 -55.7689 -55.7688 -55.7658 -55.7574 -55.7170 -55.6938 -55.6096
   -31.4350 -31.4219 -31.2868 -31.2768 -31.1902 -31.1352 -31.0307 -30.6054
   -30.0172 -29.9769 -29.9504 -29.8425 -15.0973 -15.0747 -14.9584 -14.9405
   -14.8472 -14.8137 -14.7796 -14.6455 -14.1524 -14.1401 -14.1053 -14.0885
   -14.0684 -14.0475 -14.0296 -14.0149 -13.9995 -13.9947 -13.9794 -13.9001
   -13.8914 -13.8652 -13.8275 -13.8027 -13.7195 -13.6846 -13.5469 -13.5010
   -13.3187 -13.2844 -13.2115 -13.1880 -13.1827 -13.1527 -13.1453 -13.1356
   -13.1182 -13.0693 -12.9805 -12.9713 -12.9334 -12.9082 -12.8907 -12.7677
   -12.7598 -12.6993 -12.5622 -12.4795 -12.4689 -12.3815 -12.2259 -12.1956
   -11.9715 -11.9418 -11.9301 -11.9127 -11.8952 -11.8608 -11.8422 -11.8073
   -11.7450 -11.7275 -11.7207 -11.6715 -11.6683  -2.3940  -2.3201  -2.3101
    -2.2354  -2.1990  -2.1212  -2.0530  -1.9271  -1.8129  -1.7829  -1.7418
    -1.6856  -1.6147  -1.5983  -1.5297  -1.4861  -1.3688  -1.3367  -1.2911
    -1.2640  -1.1994  -1.1507  -1.1335  -1.1199  -1.0653  -1.0240  -1.0065
    -0.8943  -0.8363  -0.7874  -0.7408  -0.7106  -0.6978  -0.6645  -0.6205
    -0.5835  -0.5770  -0.4898  -0.4253  -0.3807  -0.3515  -0.2806  -0.2193
    -0.2037  -0.1486  -0.1148  -0.1092  -0.0857   0.3597   0.4036   0.5143
     0.5527   0.9036   0.9164   0.9488   0.9888   1.2576   1.2764   1.2839
     1.3246   1.4486   1.5426   1.5700   1.6065   1.6319   1.6555   1.6635
     1.6914   1.7060   1.7256   1.7354   1.7805   1.7819   1.8114   1.8408
     1.8531   1.8660   1.9055   1.9276   1.9447   1.9748   2.0076   2.0628
     2.1309   2.3956   2.4265   2.4478   2.4655   2.4665   2.5028   2.5104
     2.5299   2.5400   2.5491   2.5645   2.5875   2.6072   2.6366   2.6395
     2.6594   2.6658   2.6863   2.7043   2.7134   2.7293   2.7367   2.7497
     2.8472   2.8509   2.8781   2.8911   3.8689   3.8788   3.9047   3.9107
     4.1491   4.2263   4.2463   4.4871   4.6097   4.6921   4.8252   4.9296
     4.9443   5.0361   5.1755   5.2617   5.8054   5.8543   5.8984   6.0195
     6.4781   6.8672   6.9129   7.6331   7.8463   7.8570   7.9375   8.0799
     8.1135   8.1652   8.1976   8.2487   8.3526   8.4592   8.4750   8.5090
     8.5389   8.6437

     occupation numbers 
     1.0000   1.0000   1.0000   1.0000   1.0000   1.0000   1.0000   1.0000
     1.0000   1.0000   1.0000   1.0000   1.0000   1.0000   1.0000   1.0000
     1.0000   1.0000   1.0000   1.0000   1.0000   1.0000   1.0000   1.0000
     1.0000   1.0000   1.0000   1.0000   1.0000   1.0000   1.0000   1.0000
     1.0000   1.0000   1.0000   1.0000   1.0000   1.0000   1.0000   1.0000
     1.0000   1.0000   1.0000   1.0000   1.0000   1.0000   1.0000   1.0000
     1.0000   1.0000   1.0000   1.0000   1.0000   1.0000   1.0000   1.0000
     1.0000   1.0000   1.0000   1.0000   1.0000   1.0000   1.0000   1.0000
     1.0000   1.0000   1.0000   1.0000   1.0000   1.0000   1.0000   1.0000
     1.0000   1.0000   1.0000   1.0000   1.0000   1.0000   1.0000   1.0000
     1.0000   1.0000   1.0000   1.0000   1.0000   1.0000   1.0000   1.0000
     1.0000   1.0000   1.0000   1.0000   1.0000   1.0000   1.0000   1.0000
     1.0000   1.0000   1.0000   1.0000   1.0000   1.0000   1.0000   1.0000
     1.0000   1.0000   1.0000   1.0000   1.0000   1.0000   1.0000   1.0000
     1.0000   1.0000   1.0000   1.0000   1.0000   1.0000   1.0000   1.0000
     1.0000   1.0000   1.0000   1.0000   1.0000   1.0000   1.0000   1.0000
     1.0000   1.0000   1.0000   1.0000   1.0000   1.0000   1.0000   1.0000
     1.0000   1.0000   1.0000   1.0000   1.0000   1.0000   1.0000   1.0000
     1.0000   1.0000   1.0000   1.0000   1.0000   1.0000   1.0000   1.0000
     1.0000   1.0000   1.0000   1.0000   1.0000   1.0000   1.0000   1.0000
     0.9999   0.9996   0.9996   0.9995   0.9993   0.9976   0.9974   0.9973
     0.9967   0.9943   0.9917   0.9907   0.9892   0.9881   0.9870   0.9866
     0.9851   0.9842   0.9831   0.9824   0.9793   0.9792   0.9769   0.9744
     0.9733   0.9721   0.9682   0.9657   0.9638   0.9601   0.9557   0.9475
     0.9357   0.8700   0.8601   0.8529   0.8468   0.8464   0.8333   0.8305
     0.8231   0.8192   0.8156   0.8094   0.8000   0.7917   0.7790   0.7777
     0.7688   0.7659   0.7564   0.7480   0.7437   0.7360   0.7324   0.7260
     0.6758   0.6738   0.6591   0.6520   0.1443   0.1410   0.1326   0.1307
     0.0698   0.0557   0.0524   0.0239   0.0153   0.0112   0.0065   0.0042
     0.0039   0.0026   0.0013   0.0009   0.0000   0.0000   0.0000   0.0000
     0.0000   0.0000   0.0000   0.0000   0.0000   0.0000   0.0000   0.0000
     0.0000   0.0000   0.0000   0.0000   0.0000   0.0000   0.0000   0.0000
     0.0000   0.0000

          k = 0.2500 0.0000 0.0000 ( 65257 PWs)   bands (ev):

   -92.8744 -92.8232 -92.7286 -92.6824 -92.6235 -92.5809 -92.5638 -92.4432
   -56.2280 -56.2100 -56.0854 -56.0748 -56.0691 -56.0617 -56.0272 -55.9974
   -55.9828 -55.9806 -55.9730 -55.9308 -55.9130 -55.8743 -55.8553 -55.8235
   -55.8179 -55.7689 -55.7688 -55.7658 -55.7574 -55.7170 -55.6938 -55.6096
   -31.4374 -31.4202 -31.2872 -31.2767 -31.1895 -31.1349 -31.0307 -30.6052
   -30.0194 -29.9766 -29.9496 -29.8414 -15.2181 -15.1689 -15.1059 -14.9580
   -14.8485 -14.6498 -14.5255 -14.3431 -14.3267 -14.2964 -14.2628 -14.2392
   -14.2036 -14.1873 -14.1695 -14.1238 -14.0099 -13.9782 -13.8263 -13.7607
   -13.7442 -13.6810 -13.6608 -13.6448 -13.5846 -13.5099 -13.4718 -13.3812
   -13.3201 -13.3093 -13.2584 -13.2219 -13.2046 -13.1872 -13.1713 -13.1354
   -13.1060 -13.0884 -13.0538 -13.0314 -12.9816 -12.9511 -12.9322 -12.8314
   -12.7838 -12.6381 -12.6051 -12.5678 -12.5473 -12.4106 -12.1626 -12.1010
   -11.9974 -11.9706 -11.9457 -11.9283 -11.9135 -11.8869 -11.8372 -11.8142
   -11.8058 -11.7559 -11.6642 -11.6101 -11.6043  -2.9757  -2.7547  -2.6246
    -2.4518  -2.3878  -2.2188  -2.0094  -1.9345  -1.8911  -1.8541  -1.7538
    -1.7393  -1.7033  -1.6843  -1.6152  -1.4350  -1.3253  -1.2878  -1.1906
    -1.1772  -1.1003  -1.0733  -1.0208  -0.9802  -0.9287  -0.8971  -0.8501
    -0.8234  -0.8038  -0.7497  -0.7324  -0.6428  -0.6345  -0.5653  -0.4659
    -0.4118  -0.2966  -0.2850  -0.2178  -0.1757  -0.1230  -0.0976  -0.0607
     0.0124   0.0538   0.3306   0.4634   0.4996   0.5815   0.6137   0.6563
     0.6684   0.7377   0.8521   0.8972   0.9242   0.9603   1.1150   1.1422
     1.1789   1.1843   1.2221   1.2685   1.3131   1.3446   1.4009   1.4496
     1.4647   1.5235   1.5698   1.6075   1.6298   1.7194   1.7251   1.7546
[...]
     0.6340   0.6202   0.6183   0.6142   0.6102   0.6046   0.5988   0.5253
     0.3460   0.3165   0.2040   0.0761   0.0444   0.0205   0.0049   0.0031
     0.0002   0.0001   0.0000   0.0000   0.0000   0.0000   0.0000   0.0000
     0.0000   0.0000   0.0000   0.0000   0.0000   0.0000   0.0000   0.0000
     0.0000   0.0000   0.0000   0.0000   0.0000   0.0000   0.0000   0.0000
     0.0000   0.0000

          k =-0.5000 0.0000 0.0000 ( 65180 PWs)   bands (ev):

   -92.8744 -92.8232 -92.7286 -92.6824 -92.6235 -92.5809 -92.5638 -92.4432
   -56.2280 -56.2100 -56.0854 -56.0748 -56.0691 -56.0617 -56.0272 -55.9974
   -55.9828 -55.9806 -55.9730 -55.9308 -55.9130 -55.8743 -55.8553 -55.8235
   -55.8179 -55.7689 -55.7688 -55.7658 -55.7574 -55.7170 -55.6938 -55.6096
   -31.4354 -31.4222 -31.2871 -31.2764 -31.1899 -31.1348 -31.0308 -30.6053
   -30.0184 -29.9776 -29.9492 -29.8418 -15.1835 -15.1274 -15.0662 -14.9597
   -14.8559 -14.7128 -14.5589 -14.4246 -14.3007 -14.2853 -14.2773 -14.2138
   -14.1568 -14.1243 -14.0757 -14.0694 -14.0506 -14.0038 -13.9883 -13.8740
   -13.7230 -13.6872 -13.6621 -13.6556 -13.5889 -13.5305 -13.4518 -13.4276
   -13.4036 -13.3798 -13.2509 -13.2157 -13.2014 -13.1782 -13.1686 -13.1313
   -13.1052 -13.0866 -13.0536 -13.0371 -12.9437 -12.8028 -12.7933 -12.7752
   -12.7339 -12.7024 -12.5756 -12.5506 -12.4889 -12.4827 -12.2300 -12.1812
   -11.9720 -11.9501 -11.9262 -11.9215 -11.9054 -11.8876 -11.8467 -11.7840
   -11.7669 -11.7345 -11.6870 -11.6783 -11.6635  -2.7513  -2.7135  -2.5499
    -2.5112  -2.1960  -2.1208  -1.9730  -1.8570  -1.8174  -1.7705  -1.7234
    -1.7000  -1.5754  -1.5320  -1.5144  -1.4329  -1.3990  -1.3791  -1.3515
    -1.2920  -1.2243  -1.1961  -1.1642  -1.0710  -1.0243  -0.9743  -0.9422
    -0.9208  -0.8897  -0.8426  -0.8179  -0.7774  -0.6763  -0.6038  -0.5354
    -0.4758  -0.3091  -0.2673  -0.2256  -0.1828  -0.1234  -0.1119   0.0318
     0.0602   0.1187   0.2699   0.3695   0.4169   0.5185   0.5826   0.6993
     0.7111   0.8409   0.8628   0.9176   0.9541   0.9861   0.9953   1.0395
     1.0652   1.1330   1.1831   1.2315   1.2377   1.5424   1.5466   1.5716
     1.5864   1.6891   1.7073   1.7209   1.7302   1.7606   1.7707   1.8124
     1.8311   1.8586   1.9073   1.9283   1.9766   2.0053   2.0540   2.1723
     2.2664   2.3321   2.3466   2.4278   2.4546   2.4787   2.5529   2.5599
     2.5677   2.5745   2.5984   2.6454   2.6461   2.6916   2.7136   2.7617
     2.7855   2.8297   2.8336   2.8365   2.8456   2.8641   2.8733   2.8866
     2.8948   2.9139   2.9215   2.9373   2.9576   2.9627   3.0932   3.1000
     3.9317   3.9641   4.0222   4.1658   4.6263   4.7054   4.8979   4.9285
     5.3808   5.4130   5.4961   5.5195   5.8695   5.8747   6.2290   6.6405
     6.7373   6.9552   7.2035   7.2643   7.5847   7.6337   7.6701   7.6971
     7.7744   7.8411   8.0517   8.2011   8.3553   8.3756   8.4974   8.5781
     8.6442   8.7225

     occupation numbers 
     1.0000   1.0000   1.0000   1.0000   1.0000   1.0000   1.0000   1.0000
     1.0000   1.0000   1.0000   1.0000   1.0000   1.0000   1.0000   1.0000
     1.0000   1.0000   1.0000   1.0000   1.0000   1.0000   1.0000   1.0000
     1.0000   1.0000   1.0000   1.0000   1.0000   1.0000   1.0000   1.0000
     1.0000   1.0000   1.0000   1.0000   1.0000   1.0000   1.0000   1.0000
     1.0000   1.0000   1.0000   1.0000   1.0000   1.0000   1.0000   1.0000
     1.0000   1.0000   1.0000   1.0000   1.0000   1.0000   1.0000   1.0000
     1.0000   1.0000   1.0000   1.0000   1.0000   1.0000   1.0000   1.0000
     1.0000   1.0000   1.0000   1.0000   1.0000   1.0000   1.0000   1.0000
     1.0000   1.0000   1.0000   1.0000   1.0000   1.0000   1.0000   1.0000
     1.0000   1.0000   1.0000   1.0000   1.0000   1.0000   1.0000   1.0000
     1.0000   1.0000   1.0000   1.0000   1.0000   1.0000   1.0000   1.0000
     1.0000   1.0000   1.0000   1.0000   1.0000   1.0000   1.0000   1.0000
     1.0000   1.0000   1.0000   1.0000   1.0000   1.0000   1.0000   1.0000
     1.0000   1.0000   1.0000   1.0000   1.0000   1.0000   1.0000   1.0000
     1.0000   1.0000   1.0000   1.0000   1.0000   1.0000   1.0000   1.0000
     1.0000   1.0000   1.0000   1.0000   1.0000   1.0000   1.0000   1.0000
     1.0000   1.0000   1.0000   1.0000   1.0000   1.0000   1.0000   1.0000
     1.0000   1.0000   1.0000   1.0000   1.0000   1.0000   1.0000   1.0000
     1.0000   1.0000   1.0000   1.0000   1.0000   1.0000   0.9999   0.9999
     0.9999   0.9997   0.9997   0.9996   0.9995   0.9994   0.9993   0.9992
     0.9990   0.9987   0.9983   0.9978   0.9978   0.9917   0.9915   0.9906
     0.9900   0.9852   0.9842   0.9834   0.9828   0.9808   0.9800   0.9768
     0.9753   0.9728   0.9680   0.9657   0.9598   0.9560   0.9488   0.9276
     0.9063   0.8889   0.8848   0.8596   0.8506   0.8421   0.8141   0.8113
     0.8082   0.8053   0.7954   0.7751   0.7748   0.7540   0.7436   0.7200
     0.7080   0.6851   0.6830   0.6815   0.6767   0.6667   0.6618   0.6545
     0.6500   0.6394   0.6352   0.6264   0.6149   0.6120   0.5361   0.5321
     0.1242   0.1146   0.0987   0.0666   0.0144   0.0106   0.0048   0.0042
     0.0005   0.0004   0.0003   0.0002   0.0000   0.0000   0.0000   0.0000
     0.0000   0.0000   0.0000   0.0000   0.0000   0.0000   0.0000   0.0000
     0.0000   0.0000   0.0000   0.0000   0.0000   0.0000   0.0000   0.0000
     0.0000   0.0000

          k =-0.2500 0.2500 0.0000 ( 65198 PWs)   bands (ev):

   -92.8744 -92.8232 -92.7286 -92.6824 -92.6235 -92.5809 -92.5638 -92.4432
   -56.2280 -56.2100 -56.0854 -56.0748 -56.0691 -56.0617 -56.0272 -55.9974
   -55.9828 -55.9806 -55.9730 -55.9308 -55.9130 -55.8743 -55.8553 -55.8235
   -55.8179 -55.7689 -55.7688 -55.7658 -55.7574 -55.7170 -55.6938 -55.6096
   -31.4372 -31.4201 -31.2871 -31.2769 -31.1897 -31.1351 -31.0306 -30.6053
   -30.0188 -29.9762 -29.9502 -29.8418 -15.1865 -15.1379 -15.0705 -14.9534
   -14.8378 -14.7109 -14.6306 -14.4203 -14.2832 -14.2535 -14.2380 -14.1921
   -14.1674 -14.1446 -14.1244 -14.0891 -14.0039 -13.9932 -13.8379 -13.8139
   -13.7837 -13.7623 -13.7078 -13.6641 -13.5992 -13.5970 -13.4606 -13.4130
   -13.3837 -13.3082 -13.2667 -13.2176 -13.1997 -13.1685 -13.1476 -13.1118
   -13.0884 -13.0736 -13.0477 -12.9859 -12.9654 -12.9321 -12.9014 -12.8539
   -12.7378 -12.6038 -12.5863 -12.5557 -12.5193 -12.4444 -12.2023 -12.1268
   -11.9731 -11.9677 -11.9476 -11.9195 -11.9086 -11.8671 -11.8321 -11.8097
   -11.7884 -11.7659 -11.6791 -11.6354 -11.6260  -2.8361  -2.6287  -2.5074
    -2.4182  -2.3010  -2.2351  -2.0303  -1.8869  -1.8692  -1.8381  -1.7471
    -1.7099  -1.6168  -1.5828  -1.5559  -1.4146  -1.3584  -1.2890  -1.2601
    -1.2007  -1.1814  -1.1413  -1.1127  -1.0722  -1.0086  -0.9607  -0.8954
    -0.8274  -0.8015  -0.7508  -0.7218  -0.6760  -0.6194  -0.5707  -0.5322
    -0.4293  -0.3996  -0.3848  -0.3442  -0.2782  -0.2029  -0.1593  -0.1255
    -0.0510  -0.0137   0.2232   0.3936   0.4308   0.4722   0.5339   0.6066
     0.6524   0.7114   0.7366   1.0183   1.1228   1.1630   1.1959   1.2035
     1.2450   1.2599   1.3056   1.3356   1.3494   1.3747   1.4227   1.4405
     1.4802   1.5022   1.5458   1.6349   1.6578   1.6704   1.7175   1.7366
     1.7801   1.8386   1.9394   2.0380   2.0643   2.1143   2.1358   2.2031
     2.2391   2.2640   2.2894   2.3124   2.4128   2.4495   2.5387   2.5680
     2.6425   2.6645   2.7124   2.7215   2.7345   2.7439   2.7557   2.7700
     2.7758   2.7945   2.8034   2.8165   2.8270   2.8389   2.8491   2.8601
     2.8902   2.8997   2.9073   2.9428   3.2330   3.3156   3.3821   3.4690
     3.4814   3.6821   3.7923   4.1425   4.3511   4.5644   4.8276   5.1336
     5.5087   5.5640   5.6129   5.6647   5.7315   6.0862   6.1187   6.1486
     6.8424   7.0756   7.1487   7.3669   7.4691   7.4940   7.5745   7.7763
     7.8371   8.0535   8.2103   8.2343   8.2933   8.3375   8.4467   8.4596
     8.5346   8.7224

     occupation numbers 
     1.0000   1.0000   1.0000   1.0000   1.0000   1.0000   1.0000   1.0000
     1.0000   1.0000   1.0000   1.0000   1.0000   1.0000   1.0000   1.0000
     1.0000   1.0000   1.0000   1.0000   1.0000   1.0000   1.0000   1.0000
     1.0000   1.0000   1.0000   1.0000   1.0000   1.0000   1.0000   1.0000
     1.0000   1.0000   1.0000   1.0000   1.0000   1.0000   1.0000   1.0000
     1.0000   1.0000   1.0000   1.0000   1.0000   1.0000   1.0000   1.0000
     1.0000   1.0000   1.0000   1.0000   1.0000   1.0000   1.0000   1.0000
     1.0000   1.0000   1.0000   1.0000   1.0000   1.0000   1.0000   1.0000
     1.0000   1.0000   1.0000   1.0000   1.0000   1.0000   1.0000   1.0000
     1.0000   1.0000   1.0000   1.0000   1.0000   1.0000   1.0000   1.0000
     1.0000   1.0000   1.0000   1.0000   1.0000   1.0000   1.0000   1.0000
     1.0000   1.0000   1.0000   1.0000   1.0000   1.0000   1.0000   1.0000
     1.0000   1.0000   1.0000   1.0000   1.0000   1.0000   1.0000   1.0000
     1.0000   1.0000   1.0000   1.0000   1.0000   1.0000   1.0000   1.0000
     1.0000   1.0000   1.0000   1.0000   1.0000   1.0000   1.0000   1.0000
     1.0000   1.0000   1.0000   1.0000   1.0000   1.0000   1.0000   1.0000
     1.0000   1.0000   1.0000   1.0000   1.0000   1.0000   1.0000   1.0000
     1.0000   1.0000   1.0000   1.0000   1.0000   1.0000   1.0000   1.0000
     1.0000   1.0000   1.0000   1.0000   1.0000   1.0000   1.0000   1.0000
     1.0000   1.0000   1.0000   1.0000   1.0000   1.0000   1.0000   0.9999
     0.9999   0.9999   0.9998   0.9992   0.9987   0.9984   0.9982   0.9981
     0.9977   0.9975   0.9970   0.9965   0.9963   0.9959   0.9949   0.9945
     0.9935   0.9929   0.9915   0.9880   0.9869   0.9862   0.9836   0.9824
     0.9794   0.9746   0.9644   0.9513   0.9472   0.9387   0.9348   0.9211
     0.9129   0.9069   0.9005   0.8944   0.8646   0.8524   0.8197   0.8080
     0.7763   0.7665   0.7441   0.7398   0.7335   0.7288   0.7230   0.7159
     0.7129   0.7034   0.6989   0.6920   0.6865   0.6802   0.6748   0.6689
     0.6525   0.6473   0.6431   0.6233   0.4535   0.4054   0.3676   0.3201
     0.3136   0.2166   0.1717   0.0711   0.0378   0.0181   0.0065   0.0016
     0.0002   0.0002   0.0001   0.0001   0.0001   0.0000   0.0000   0.0000
     0.0000   0.0000   0.0000   0.0000   0.0000   0.0000   0.0000   0.0000
     0.0000   0.0000   0.0000   0.0000   0.0000   0.0000   0.0000   0.0000
     0.0000   0.0000

          k =-0.5000 0.2500 0.0000 ( 65138 PWs)   bands (ev):

   -92.8744 -92.8232 -92.7286 -92.6824 -92.6235 -92.5809 -92.5638 -92.4432
   -56.2280 -56.2100 -56.0854 -56.0748 -56.0691 -56.0617 -56.0272 -55.9974
   -55.9828 -55.9806 -55.9730 -55.9308 -55.9130 -55.8743 -55.8553 -55.8235
   -55.8179 -55.7689 -55.7688 -55.7658 -55.7574 -55.7170 -55.6938 -55.6096
   -31.4352 -31.4221 -31.2869 -31.2766 -31.1900 -31.1350 -31.0307 -30.6054
   -30.0178 -29.9772 -29.9498 -29.8422 -15.1499 -15.1015 -15.0230 -14.9263
   -14.8847 -14.7599 -14.6654 -14.5409 -14.2338 -14.2028 -14.1908 -14.1431
   -14.1224 -14.0974 -14.0623 -14.0554 -14.0295 -13.9933 -13.9839 -13.8703
   -13.8039 -13.7556 -13.7485 -13.7310 -13.6383 -13.6314 -13.4964 -13.4486
   -13.3608 -13.3272 -13.2337 -13.2102 -13.1862 -13.1768 -13.1475 -13.1150
   -13.1011 -13.0812 -13.0504 -12.9907 -12.9519 -12.8359 -12.8086 -12.7844
   -12.7768 -12.7006 -12.5597 -12.5119 -12.4838 -12.4274 -12.2270 -12.1885
   -11.9718 -11.9421 -11.9289 -11.9149 -11.9035 -11.8811 -11.8514 -11.7712
   -11.7614 -11.7399 -11.7015 -11.6746 -11.6661  -2.6087  -2.5674  -2.4193
    -2.3775  -2.2153  -2.1391  -1.9973  -1.8629  -1.8055  -1.7785  -1.7399
    -1.7021  -1.6208  -1.5056  -1.4477  -1.4253  -1.3991  -1.3183  -1.2949
    -1.2545  -1.2386  -1.1775  -1.1464  -1.1100  -1.0744  -1.0455  -0.9866
    -0.9598  -0.9186  -0.8827  -0.7778  -0.7508  -0.6581  -0.5993  -0.5655
    -0.5092  -0.4261  -0.3922  -0.2928  -0.2514  -0.1913  -0.1413  -0.1149
    -0.0476  -0.0157   0.0222   0.0632   0.1014   0.4225   0.4795   0.5593
     0.5914   0.8518   0.9146   0.9821   1.0120   1.1845   1.2201   1.2577
     1.2673   1.2857   1.3035   1.3740   1.4180   1.4609   1.4908   1.6136
     1.6507   1.6797   1.6962   1.7351   1.7536   1.7705   1.7864   1.8039
     1.8248   1.8739   1.8836   1.9225   1.9457   1.9818   2.0337   2.1582
     2.2529   2.2793   2.3452   2.3815   2.4433   2.4794   2.4851   2.5271
     2.5576   2.5648   2.5865   2.6409   2.6437   2.6913   2.7126   2.7247
     2.7274   2.7478   2.7713   2.7836   2.7999   2.8099   2.8328   2.8466
     2.8549   2.8629   2.8757   2.8903   3.4219   3.4598   3.6054   3.6246
     3.9344   3.9815   4.0340   4.2445   4.6190   4.7178   4.8934   4.9433
     5.2454   5.2742   5.4965   5.5782   5.6181   5.6530   6.3157   6.3391
     6.4641   6.7356   7.2363   7.6080   7.6799   7.7213   7.7460   7.7821
     7.9027   7.9786   8.1180   8.3030   8.4221   8.4437   8.5179   8.5705
     8.6998   8.7165

     occupation numbers 
     1.0000   1.0000   1.0000   1.0000   1.0000   1.0000   1.0000   1.0000
     1.0000   1.0000   1.0000   1.0000   1.0000   1.0000   1.0000   1.0000
     1.0000   1.0000   1.0000   1.0000   1.0000   1.0000   1.0000   1.0000
     1.0000   1.0000   1.0000   1.0000   1.0000   1.0000   1.0000   1.0000
     1.0000   1.0000   1.0000   1.0000   1.0000   1.0000   1.0000   1.0000
     1.0000   1.0000   1.0000   1.0000   1.0000   1.0000   1.0000   1.0000
     1.0000   1.0000   1.0000   1.0000   1.0000   1.0000   1.0000   1.0000
     1.0000   1.0000   1.0000   1.0000   1.0000   1.0000   1.0000   1.0000
     1.0000   1.0000   1.0000   1.0000   1.0000   1.0000   1.0000   1.0000
     1.0000   1.0000   1.0000   1.0000   1.0000   1.0000   1.0000   1.0000
     1.0000   1.0000   1.0000   1.0000   1.0000   1.0000   1.0000   1.0000
     1.0000   1.0000   1.0000   1.0000   1.0000   1.0000   1.0000   1.0000
     1.0000   1.0000   1.0000   1.0000   1.0000   1.0000   1.0000   1.0000
     1.0000   1.0000   1.0000   1.0000   1.0000   1.0000   1.0000   1.0000
     1.0000   1.0000   1.0000   1.0000   1.0000   1.0000   1.0000   1.0000
     1.0000   1.0000   1.0000   1.0000   1.0000   1.0000   1.0000   1.0000
     1.0000   1.0000   1.0000   1.0000   1.0000   1.0000   1.0000   1.0000
     1.0000   1.0000   1.0000   1.0000   1.0000   1.0000   1.0000   1.0000
     1.0000   1.0000   1.0000   1.0000   1.0000   1.0000   1.0000   1.0000
     1.0000   1.0000   1.0000   1.0000   1.0000   1.0000   1.0000   0.9999
     0.9999   0.9997   0.9996   0.9994   0.9993   0.9983   0.9980   0.9976
     0.9975   0.9972   0.9970   0.9959   0.9950   0.9940   0.9932   0.9889
     0.9872   0.9857   0.9848   0.9825   0.9812   0.9800   0.9789   0.9775
     0.9758   0.9714   0.9704   0.9663   0.9636   0.9592   0.9519   0.9304
     0.9096   0.9031   0.8852   0.8744   0.8544   0.8419   0.8398   0.8242
     0.8122   0.8093   0.8004   0.7771   0.7758   0.7541   0.7440   0.7383
     0.7369   0.7269   0.7152   0.7090   0.7006   0.6955   0.6835   0.6761
     0.6717   0.6674   0.6604   0.6525   0.3456   0.3250   0.2515   0.2425
     0.1233   0.1097   0.0957   0.0527   0.0148   0.0101   0.0049   0.0039
     0.0010   0.0008   0.0003   0.0002   0.0001   0.0001   0.0000   0.0000
     0.0000   0.0000   0.0000   0.0000   0.0000   0.0000   0.0000   0.0000
     0.0000   0.0000   0.0000   0.0000   0.0000   0.0000   0.0000   0.0000
     0.0000   0.0000

     the Fermi energy is     3.1543 ev

!    total energy              =   -4440.30263422 Ry
     estimated scf accuracy    <          5.8E-09 Ry
     smearing contrib. (-TS)   =      -1.20760485 Ry
     internal energy E=F+TS    =   -4439.09502936 Ry

     The total energy is F=E-TS. E is the sum of the following terms:
     one-electron contribution =  -20890.29357897 Ry
     hartree contribution      =   10574.28375890 Ry
     xc contribution           =    -693.24894000 Ry
     ewald contribution        =    6846.35505940 Ry
     one-center paw contrib.   =    -276.19132870 Ry
      -> PAW hartree energy AE =      25.16323982 Ry
      -> PAW hartree energy PS =     -25.04712278 Ry
      -> PAW xc energy AE      =     -16.51756041 Ry
      -> PAW xc energy PS      =       6.87702017 Ry
      -> total E_H with PAW    =   10574.39987594 Ry
      -> total E_XC with PAW   =    -702.88948023 Ry

     convergence has been achieved in  47 iterations

     Writing all to output data dir /bsuhome/zayahcortright/scratch/pwscf.save/
 
     init_run     :      7.63s CPU      8.38s WALL (       1 calls)
     electrons    :    685.56s CPU    718.30s WALL (       1 calls)

     Called by init_run:
     wfcinit      :      6.05s CPU      6.25s WALL (       1 calls)
     wfcinit:atom :      0.04s CPU      0.06s WALL (       5 calls)
     wfcinit:wfcr :      5.74s CPU      5.86s WALL (       5 calls)
     potinit      :      0.15s CPU      0.18s WALL (       1 calls)
     hinit0       :      0.45s CPU      0.69s WALL (       1 calls)

     Called by electrons:
     c_bands      :    548.02s CPU    554.96s WALL (      47 calls)
     sum_band     :    103.00s CPU    117.31s WALL (      47 calls)
     v_of_rho     :      5.07s CPU      5.48s WALL (      48 calls)
     v_h          :      0.45s CPU      0.45s WALL (      48 calls)
     v_xc         :      4.62s CPU      5.03s WALL (      48 calls)
     newd         :     15.67s CPU     26.42s WALL (      48 calls)
     PAW_pot      :      1.52s CPU      1.56s WALL (      48 calls)
     mix_rho      :     11.99s CPU     12.35s WALL (      47 calls)

     Called by c_bands:
     init_us_2    :      6.60s CPU      6.67s WALL (     475 calls)
     init_us_2:cp :      6.59s CPU      6.67s WALL (     475 calls)
     cegterg      :    513.08s CPU    519.50s WALL (     235 calls)

     Called by sum_band:
     sum_band:wei :      0.34s CPU      0.34s WALL (      47 calls)
     sum_band:loo :     86.28s CPU     87.07s WALL (      47 calls)
     sum_band:buf :      1.40s CPU      1.49s WALL (     235 calls)
     sum_band:ini :      3.02s CPU      3.04s WALL (     235 calls)
     sum_band:cal :     18.64s CPU     18.75s WALL (     235 calls)
     sum_band:bec :      0.52s CPU      0.54s WALL (     235 calls)
     addusdens    :     14.90s CPU     28.35s WALL (      47 calls)
                                        0.00s GPU  (      47 calls)
     addusd:skk   :      0.29s CPU      0.93s WALL (     141 calls)
                                        0.00s GPU  (     141 calls)

     Called by *egterg:
     cdiaghg      :     55.45s CPU     55.73s WALL (    1299 calls)
     cegterg:over :     37.08s CPU     37.28s WALL (    1064 calls)
     cegterg:upda :     27.50s CPU     27.99s WALL (    1064 calls)
     cegterg:last :     55.94s CPU     56.21s WALL (     423 calls)
     cdiaghg:chol :      3.21s CPU      3.23s WALL (    1299 calls)
     cdiaghg:inve :      2.81s CPU      2.83s WALL (    1299 calls)
     cdiaghg:para :      7.07s CPU      7.11s WALL (    2598 calls)
     h_psi        :    283.55s CPU    286.59s WALL (    1304 calls)
     s_psi        :     38.63s CPU     38.78s WALL (    1304 calls)
     g_psi        :      1.03s CPU      1.03s WALL (    1064 calls)

     Called by h_psi:
     h_psi:calbec :     43.11s CPU     43.31s WALL (    1304 calls)
     vloc_psi     :    199.05s CPU    201.04s WALL (    1304 calls)
     add_vuspsi   :     38.64s CPU     38.88s WALL (    1304 calls)

     General routines
     calbec       :     61.74s CPU     62.05s WALL (    1539 calls)
     fft          :      3.57s CPU      3.61s WALL (     622 calls)
     ffts         :      4.42s CPU      4.46s WALL (    5029 calls)
     fftw         :    168.91s CPU    170.28s WALL (  318154 calls)
     interpolate  :      0.39s CPU      0.40s WALL (      48 calls)
 
     Parallel routines

     PAW routines
     PAW_pot      :      1.52s CPU      1.56s WALL (      48 calls)
 
     PWSCF        :  11m34.87s CPU  12m11.65s WALL

 
   This run was terminated on:  16:24:23  21Jun2024            

=------------------------------------------------------------------------------=
   JOB DONE.
=------------------------------------------------------------------------------=
