
     Program PWSCF v.7.2 starts on 21Jun2024 at 23: 9: 4 

     This program is part of the open-source Quantum ESPRESSO suite
     for quantum simulation of materials; please cite
         "P. Giannozzi et al., J. Phys.:Condens. Matter 21 395502 (2009);
         "P. Giannozzi et al., J. Phys.:Condens. Matter 29 465901 (2017);
         "P. Giannozzi et al., J. Chem. Phys. 152 154105 (2020);
          URL http://www.quantum-espresso.org", 
     in publications or presentations arising from this work. More details at
     http://www.quantum-espresso.org/quote

     Parallel version (MPI & OpenMP), running on      48 processor cores
     Number of MPI processes:                48
     Threads/MPI process:                     1

     MPI processes distributed on     1 nodes
     60571 MiB available memory on the printing compute node when the environment starts
 
     Reading input from espresso.pwi
Warning: card &CELL ignored
Warning: card / ignored
Warning: card &FCP ignored
Warning: card / ignored
Warning: card &RISM ignored
Warning: card / ignored

     Current dimensions of program PWSCF are:
     Max number of different atomic species (ntypx) = 10
     Max number of k-points (npk) =  40000
     Max angular momentum in pseudopotentials (lmaxx) =  4
     file O.pbe-n-kjpaw_psl.0.1.UPF: wavefunction(s)  2P renormalized
     signal trapping enabled: kill the code with -SIGUSR1 to stop cleanly the simulation 
 
     K-points division:     npool     =       2
     R & G space division:  proc/nbgrp/npool/nimage =      24
     Subspace diagonalization in iterative solution of the eigenvalue problem:
     one sub-group per band group will be used
     scalapack distributed-memory algorithm (size of sub-group:  3*  3 procs)

 
     Parallelization info
     --------------------
     sticks:   dense  smooth     PW     G-vecs:    dense   smooth      PW
     Min         350     175     47                61430    21716    3036
     Max         351     177     48                61449    21727    3041
     Sum        8421    4205   1137              1474595   521381   72913
 
     Using Slab Decomposition
 


     bravais-lattice index     =            0
     lattice parameter (alat)  =      14.8599  a.u.
     unit-cell volume          =    8305.1283 (a.u.)^3
     number of atoms/cell      =           49
     number of atomic types    =            3
     number of electrons       =       430.00
     number of Kohn-Sham states=          258
     kinetic-energy cutoff     =      60.0000  Ry
     charge density cutoff     =     480.0000  Ry
     scf convergence threshold =      1.0E-08
     mixing beta               =       0.1500
     number of iterations used =            8  local-TF  mixing
     Exchange-correlation= SLA  PW   PBE  PBE
                           (   1   4   3   4   0   0   0)

     celldm(1)=  14.859904  celldm(2)=   0.000000  celldm(3)=   0.000000
     celldm(4)=   0.000000  celldm(5)=   0.000000  celldm(6)=   0.000000

     crystal axes: (cart. coord. in units of alat)
               a(1) = (   1.000000   0.000000   0.000000 )  
               a(2) = (   0.000000   1.000000   0.000000 )  
               a(3) = (   0.000000   0.000000   2.531036 )  

     reciprocal axes: (cart. coord. in units 2 pi/alat)
               b(1) = (  1.000000  0.000000  0.000000 )  
               b(2) = (  0.000000  1.000000  0.000000 )  
               b(3) = (  0.000000  0.000000  0.395095 )  


     PseudoPot. # 1 for Sr read from file:
     /bsuhome/zayahcortright/q-e/pseudo/Sr_pbe_v1.uspp.F.UPF
     MD5 check sum: 6b418c05fbe9db5448babca5e47b7a5b
     Pseudo is Ultrasoft + core correction, Zval = 10.0
     Generated by new atomic code, or converted to UPF format
     Using radial grid of  883 points,  6 beta functions with: 
                l(1) =   0
                l(2) =   0
                l(3) =   1
                l(4) =   1
                l(5) =   2
                l(6) =   2
     Q(r) pseudized with  6 coefficients,  rinner =    1.400   1.400   1.400
                                                       1.400   1.400

     PseudoPot. # 2 for O  read from file:
     /bsuhome/zayahcortright/q-e/pseudo/O.pbe-n-kjpaw_psl.0.1.UPF
     MD5 check sum: 0234752ac141de4415c5fc33072bef88
     Pseudo is Projector augmented-wave + core cor, Zval =  6.0
     Generated using "atomic" code by A. Dal Corso  v.5.0.99 svn rev. 10869
     Shape of augmentation charge: BESSEL
     Using radial grid of 1095 points,  4 beta functions with: 
                l(1) =   0
                l(2) =   0
                l(3) =   1
                l(4) =   1
     Q(r) pseudized with 0 coefficients 


     PseudoPot. # 3 for Co read from file:
     /bsuhome/zayahcortright/q-e/pseudo/Co_pbe_v1.2.uspp.F.UPF
     MD5 check sum: 5f91765df6ddd3222702df6e7b74a16d
     Pseudo is Ultrasoft + core correction, Zval = 17.0
     Generated by new atomic code, or converted to UPF format
     Using radial grid of  863 points,  6 beta functions with: 
                l(1) =   0
                l(2) =   0
                l(3) =   1
                l(4) =   1
                l(5) =   2
                l(6) =   2
     Q(r) pseudized with  8 coefficients,  rinner =    1.200   1.200   1.200
                                                       1.200   1.200

     atomic species   valence    mass     pseudopotential
        Sr            10.00    87.62000     Sr( 1.00)
        O              6.00    15.99900     O ( 1.00)
        Co            17.00    58.93319     Co( 1.00)

     No symmetry found


                                    s                        frac. trans.

      isym =  1     identity                                     

 cryst.   s( 1) = (     1          0          0      )
                  (     0          1          0      )
                  (     0          0          1      )

 cart.    s( 1) = (  1.0000000  0.0000000  0.0000000 )
                  (  0.0000000  1.0000000  0.0000000 )
                  (  0.0000000  0.0000000  1.0000000 )


   Cartesian axes

     site n.     atom                  positions (alat units)
         1           Sr  tau(   1) = (   0.2508693   0.7491307   1.7574407  )
         2           O   tau(   2) = (   0.4985141   0.5014859   1.7715967  )
         3           Sr  tau(   3) = (   0.7482398   0.7454518   1.7648669  )
         4           Sr  tau(   4) = (   0.7441748   0.2558252   1.7667843  )
         5           Sr  tau(   5) = (   0.2508693   0.7491307   1.2696799  )
         6           Sr  tau(   6) = (   0.2508693   0.7491307   0.7632319  )
         7           Co  tau(   7) = (   0.4998914   0.5001086   1.0164559  )
         8           Co  tau(   8) = (   0.4936915   0.5063085   1.5135603  )
         9           O   tau(   9) = (   0.4988895   0.7610401   1.0164559  )
        10           O   tau(  10) = (   0.2389599   0.5011105   1.0164559  )
        11           O   tau(  11) = (   0.0070918   0.7374880   1.0164559  )
        12           O   tau(  12) = (   0.0088340   0.7405089   1.5135603  )
        13           O   tau(  13) = (   0.5066944   0.7415376   1.5135603  )
        14           O   tau(  14) = (   0.2584624   0.4933056   1.5135603  )
        15           O   tau(  15) = (   0.4985141   0.5014859   0.7773880  )
        16           O   tau(  16) = (   0.4985141   0.5014859   1.2555238  )
        17           Sr  tau(  17) = (   0.7482398   0.7454518   0.7706582  )
        18           Sr  tau(  18) = (   0.7482398   0.7454518   1.2622536  )
        19           Sr  tau(  19) = (   0.7441748   0.2558252   0.7725755  )
        20           Sr  tau(  20) = (   0.7441748   0.2558252   1.2603363  )
        21           O   tau(  21) = (   0.7322655   0.0078049   1.5135603  )
        22           O   tau(  22) = (   0.7558175   0.4996027   1.5135603  )
        23           O   tau(  23) = (   0.5003973   0.2441825   1.5135603  )
        24           O   tau(  24) = (   0.7527966   0.4978604   1.0164559  )
        25           O   tau(  25) = (   0.5021396   0.2472034   1.0164559  )
        26           O   tau(  26) = (   0.7517679   0.0000000   1.0164559  )
        27           O   tau(  27) = (   0.0114961   0.4948124   1.7455321  )
        28           O   tau(  28) = (   0.0048226   0.0077944   1.7715967  )
        29           Sr  tau(  29) = (   0.2545482   0.2517602   1.7648669  )
        30           O   tau(  30) = (   0.5048017   0.0015068   1.7786929  )
        31           Co  tau(  31) = (   0.0056869   0.5006215   1.0164559  )
        32           Co  tau(  32) = (   0.0065315   0.4997770   1.5135603  )
        33           Co  tau(  33) = (   0.0061999   0.0064171   1.0164559  )
        34           Co  tau(  34) = (   0.0000000   0.0126169   1.5135603  )
        35           O   tau(  35) = (   0.0114961   0.4948124   1.2815885  )
        36           O   tau(  36) = (   0.0114961   0.4948124   0.7513233  )
        37           O   tau(  37) = (   0.0051979   0.2673486   1.0164559  )
        38           O   tau(  38) = (   0.0130029   0.2478461   1.5135603  )
        39           O   tau(  39) = (   0.0048226   0.0077944   0.7773880  )
        40           O   tau(  40) = (   0.0048226   0.0077944   1.2555238  )
        41           Sr  tau(  41) = (   0.2545482   0.2517602   0.7706582  )
        42           Sr  tau(  42) = (   0.2545482   0.2517602   1.2622536  )
        43           Co  tau(  43) = (   0.4989925   0.0073160   1.5135603  )
        44           Co  tau(  44) = (   0.4998370   0.0064714   1.0164559  )
        45           O   tau(  45) = (   0.5048017   0.0015068   0.7844841  )
        46           O   tau(  46) = (   0.5048017   0.0015068   1.2484277  )
        47           O   tau(  47) = (   0.2621260   0.0059111   1.5135603  )
        48           O   tau(  48) = (   0.2591051   0.0041689   1.0164559  )
        49           O   tau(  49) = (   0.7108228   0.2843291   2.1602013  )

   Crystallographic axes

     site n.     atom                  positions (cryst. coord.)
         1           Sr  tau(   1) = (  0.2508693  0.7491307  0.6943562  )
         2           O   tau(   2) = (  0.4985141  0.5014859  0.6999492  )
         3           Sr  tau(   3) = (  0.7482398  0.7454518  0.6972903  )
         4           Sr  tau(   4) = (  0.7441748  0.2558252  0.6980478  )
         5           Sr  tau(   5) = (  0.2508693  0.7491307  0.5016443  )
         6           Sr  tau(   6) = (  0.2508693  0.7491307  0.3015492  )
         7           Co  tau(   7) = (  0.4998914  0.5001086  0.4015968  )
         8           Co  tau(   8) = (  0.4936915  0.5063085  0.5980003  )
         9           O   tau(   9) = (  0.4988895  0.7610401  0.4015968  )
        10           O   tau(  10) = (  0.2389599  0.5011105  0.4015968  )
        11           O   tau(  11) = (  0.0070918  0.7374880  0.4015968  )
        12           O   tau(  12) = (  0.0088340  0.7405089  0.5980003  )
        13           O   tau(  13) = (  0.5066944  0.7415376  0.5980003  )
        14           O   tau(  14) = (  0.2584624  0.4933056  0.5980003  )
        15           O   tau(  15) = (  0.4985141  0.5014859  0.3071422  )
        16           O   tau(  16) = (  0.4985141  0.5014859  0.4960513  )
        17           Sr  tau(  17) = (  0.7482398  0.7454518  0.3044833  )
        18           Sr  tau(  18) = (  0.7482398  0.7454518  0.4987103  )
        19           Sr  tau(  19) = (  0.7441748  0.2558252  0.3052408  )
        20           Sr  tau(  20) = (  0.7441748  0.2558252  0.4979527  )
        21           O   tau(  21) = (  0.7322655  0.0078049  0.5980003  )
        22           O   tau(  22) = (  0.7558175  0.4996027  0.5980003  )
        23           O   tau(  23) = (  0.5003973  0.2441825  0.5980003  )
        24           O   tau(  24) = (  0.7527966  0.4978604  0.4015968  )
        25           O   tau(  25) = (  0.5021396  0.2472034  0.4015968  )
        26           O   tau(  26) = (  0.7517679  0.0000000  0.4015968  )
        27           O   tau(  27) = (  0.0114961  0.4948124  0.6896512  )
        28           O   tau(  28) = (  0.0048226  0.0077944  0.6999492  )
        29           Sr  tau(  29) = (  0.2545482  0.2517602  0.6972903  )
        30           O   tau(  30) = (  0.5048017  0.0015068  0.7027529  )
        31           Co  tau(  31) = (  0.0056869  0.5006215  0.4015968  )
        32           Co  tau(  32) = (  0.0065315  0.4997770  0.5980003  )
        33           Co  tau(  33) = (  0.0061999  0.0064171  0.4015968  )
        34           Co  tau(  34) = (  0.0000000  0.0126169  0.5980003  )
        35           O   tau(  35) = (  0.0114961  0.4948124  0.5063494  )
        36           O   tau(  36) = (  0.0114961  0.4948124  0.2968442  )
        37           O   tau(  37) = (  0.0051979  0.2673486  0.4015968  )
        38           O   tau(  38) = (  0.0130029  0.2478461  0.5980003  )
        39           O   tau(  39) = (  0.0048226  0.0077944  0.3071422  )
        40           O   tau(  40) = (  0.0048226  0.0077944  0.4960513  )
        41           Sr  tau(  41) = (  0.2545482  0.2517602  0.3044833  )
        42           Sr  tau(  42) = (  0.2545482  0.2517602  0.4987103  )
        43           Co  tau(  43) = (  0.4989925  0.0073160  0.5980003  )
        44           Co  tau(  44) = (  0.4998370  0.0064714  0.4015968  )
        45           O   tau(  45) = (  0.5048017  0.0015068  0.3099459  )
        46           O   tau(  46) = (  0.5048017  0.0015068  0.4932477  )
        47           O   tau(  47) = (  0.2621260  0.0059111  0.5980003  )
        48           O   tau(  48) = (  0.2591051  0.0041689  0.4015968  )
        49           O   tau(  49) = (  0.7108228  0.2843291  0.8534850  )

     number of k points=    10  Gaussian smearing, width (Ry)=  0.0700
                       cart. coord. in units 2pi/alat
        k(    1) = (   0.0000000   0.0000000   0.0000000), wk =   0.1250000
        k(    2) = (   0.0000000   0.2500000   0.0000000), wk =   0.2500000
        k(    3) = (   0.0000000  -0.5000000   0.0000000), wk =   0.1250000
        k(    4) = (   0.2500000   0.2500000   0.0000000), wk =   0.2500000
        k(    5) = (   0.2500000  -0.5000000   0.0000000), wk =   0.2500000
        k(    6) = (  -0.5000000  -0.5000000   0.0000000), wk =   0.1250000
        k(    7) = (   0.2500000   0.0000000   0.0000000), wk =   0.2500000
        k(    8) = (  -0.5000000   0.0000000   0.0000000), wk =   0.1250000
        k(    9) = (  -0.2500000   0.2500000   0.0000000), wk =   0.2500000
        k(   10) = (  -0.5000000   0.2500000   0.0000000), wk =   0.2500000

                       cryst. coord.
        k(    1) = (   0.0000000   0.0000000   0.0000000), wk =   0.1250000
        k(    2) = (   0.0000000   0.2500000   0.0000000), wk =   0.2500000
        k(    3) = (   0.0000000  -0.5000000   0.0000000), wk =   0.1250000
        k(    4) = (   0.2500000   0.2500000   0.0000000), wk =   0.2500000
        k(    5) = (   0.2500000  -0.5000000   0.0000000), wk =   0.2500000
        k(    6) = (  -0.5000000  -0.5000000   0.0000000), wk =   0.1250000
        k(    7) = (   0.2500000   0.0000000   0.0000000), wk =   0.2500000
        k(    8) = (  -0.5000000   0.0000000   0.0000000), wk =   0.1250000
        k(    9) = (  -0.2500000   0.2500000   0.0000000), wk =   0.2500000
        k(   10) = (  -0.5000000   0.2500000   0.0000000), wk =   0.2500000

     Dense  grid:  1474595 G-vectors     FFT dimensions: ( 108, 108, 270)

     Smooth grid:   521381 G-vectors     FFT dimensions: (  75,  75, 192)

     Dynamical RAM for                 wfc:      10.69 MB

     Dynamical RAM for     wfc (w. buffer):      64.13 MB

     Dynamical RAM for           str. fact:       2.81 MB

     Dynamical RAM for           local pot:       0.00 MB

     Dynamical RAM for          nlocal pot:      24.53 MB

     Dynamical RAM for                qrad:       5.27 MB

     Dynamical RAM for          rho,v,vnew:       6.02 MB

     Dynamical RAM for               rhoin:       2.01 MB

     Dynamical RAM for            rho*nmix:      15.00 MB

     Dynamical RAM for           G-vectors:       3.68 MB

     Dynamical RAM for          h,s,v(r/c):       1.35 MB

     Dynamical RAM for          <psi|beta>:       2.33 MB

     Dynamical RAM for                 psi:      21.38 MB

     Dynamical RAM for                hpsi:      21.38 MB

     Dynamical RAM for                spsi:      21.38 MB

     Dynamical RAM for      wfcinit/wfcrot:      34.39 MB

     Dynamical RAM for           addusdens:     101.26 MB

     Estimated static dynamical RAM per process >     117.53 MB

     Estimated max dynamical RAM per process >     233.79 MB

     Estimated total dynamical RAM >      10.61 GB

     Check: negative core charge=   -0.000004

     Initial potential from superposition of free atoms

     starting charge     421.5961, renormalised to     430.0000

     negative rho (up, down):  7.826E-01 0.000E+00
     Starting wfcs are  376 randomized atomic wfcs
     Checking if some PAW data can be deallocated... 
       PAW data deallocated on   19 nodes for type:  2

     total cpu time spent up to now is        9.0 secs

     Self-consistent Calculation

     iteration #  1     ecut=    60.00 Ry     beta= 0.15
     Davidson diagonalization with overlap

---- Real-time Memory Report at c_bands before calling an iterative solver
             0 MiB given to the printing process from OS
             0 MiB allocation reported by mallinfo(arena+hblkhd)
         51476 MiB available memory on the node where the printing process lives
------------------
     ethr =  1.00E-02,  avg # of iterations =  2.0

     negative rho (up, down):  7.715E-01 0.000E+00

     total cpu time spent up to now is       24.1 secs

     total energy              =   -4445.17182736 Ry
     estimated scf accuracy    <      53.68190760 Ry

     iteration #  2     ecut=    60.00 Ry     beta= 0.15
     Davidson diagonalization with overlap

---- Real-time Memory Report at c_bands before calling an iterative solver
             0 MiB given to the printing process from OS
             0 MiB allocation reported by mallinfo(arena+hblkhd)
         51840 MiB available memory on the node where the printing process lives
------------------
     ethr =  1.00E-02,  avg # of iterations =  1.0

     negative rho (up, down):  7.598E-01 0.000E+00

     total cpu time spent up to now is       37.0 secs

     total energy              =   -4442.13605927 Ry
     estimated scf accuracy    <      27.78205664 Ry

     iteration #  3     ecut=    60.00 Ry     beta= 0.15
     Davidson diagonalization with overlap

---- Real-time Memory Report at c_bands before calling an iterative solver
             0 MiB given to the printing process from OS
             0 MiB allocation reported by mallinfo(arena+hblkhd)
         51081 MiB available memory on the node where the printing process lives
------------------
     ethr =  6.46E-03,  avg # of iterations =  1.0

     negative rho (up, down):  7.526E-01 0.000E+00

     total cpu time spent up to now is       49.8 secs

     total energy              =   -4442.49920786 Ry
     estimated scf accuracy    <      31.00196909 Ry

     iteration #  4     ecut=    60.00 Ry     beta= 0.15
     Davidson diagonalization with overlap

---- Real-time Memory Report at c_bands before calling an iterative solver
             0 MiB given to the printing process from OS
             0 MiB allocation reported by mallinfo(arena+hblkhd)
         51030 MiB available memory on the node where the printing process lives
------------------
     ethr =  6.46E-03,  avg # of iterations =  1.0

     negative rho (up, down):  7.508E-01 0.000E+00

     total cpu time spent up to now is       62.7 secs

     total energy              =   -4443.22119082 Ry
     estimated scf accuracy    <      29.90902500 Ry

     iteration #  5     ecut=    60.00 Ry     beta= 0.15
     Davidson diagonalization with overlap

---- Real-time Memory Report at c_bands before calling an iterative solver
             0 MiB given to the printing process from OS
             0 MiB allocation reported by mallinfo(arena+hblkhd)
         51007 MiB available memory on the node where the printing process lives
------------------
     ethr =  6.46E-03,  avg # of iterations =  1.0

     negative rho (up, down):  7.366E-01 0.000E+00

     total cpu time spent up to now is       75.2 secs

     total energy              =   -4441.78449870 Ry
     estimated scf accuracy    <      52.81889851 Ry

     iteration #  6     ecut=    60.00 Ry     beta= 0.15
     Davidson diagonalization with overlap

---- Real-time Memory Report at c_bands before calling an iterative solver
             0 MiB given to the printing process from OS
             0 MiB allocation reported by mallinfo(arena+hblkhd)
         50995 MiB available memory on the node where the printing process lives
------------------
     ethr =  6.46E-03,  avg # of iterations =  1.0

     negative rho (up, down):  7.390E-01 0.000E+00

     total cpu time spent up to now is       87.9 secs

     total energy              =   -4442.31239223 Ry
     estimated scf accuracy    <      26.91821308 Ry

     iteration #  7     ecut=    60.00 Ry     beta= 0.15
     Davidson diagonalization with overlap

---- Real-time Memory Report at c_bands before calling an iterative solver
             0 MiB given to the printing process from OS
             0 MiB allocation reported by mallinfo(arena+hblkhd)
         50974 MiB available memory on the node where the printing process lives
------------------
     ethr =  6.26E-03,  avg # of iterations =  1.0

     negative rho (up, down):  7.459E-01 0.000E+00

     total cpu time spent up to now is      100.4 secs

     total energy              =   -4439.40110803 Ry
     estimated scf accuracy    <      25.26601535 Ry

     iteration #  8     ecut=    60.00 Ry     beta= 0.15
     Davidson diagonalization with overlap

---- Real-time Memory Report at c_bands before calling an iterative solver
             0 MiB given to the printing process from OS
             0 MiB allocation reported by mallinfo(arena+hblkhd)
         50966 MiB available memory on the node where the printing process lives
------------------
     ethr =  5.88E-03,  avg # of iterations =  2.0

     negative rho (up, down):  7.468E-01 0.000E+00

     total cpu time spent up to now is      114.2 secs

     total energy              =   -4440.82276270 Ry
     estimated scf accuracy    <       4.78702998 Ry

     iteration #  9     ecut=    60.00 Ry     beta= 0.15
     Davidson diagonalization with overlap

---- Real-time Memory Report at c_bands before calling an iterative solver
             0 MiB given to the printing process from OS
             0 MiB allocation reported by mallinfo(arena+hblkhd)
         50938 MiB available memory on the node where the printing process lives
------------------
     ethr =  1.11E-03,  avg # of iterations =  6.1

     negative rho (up, down):  7.592E-01 0.000E+00

     total cpu time spent up to now is      129.7 secs

     total energy              =   -4440.66889017 Ry
     estimated scf accuracy    <       3.24794910 Ry

     iteration # 10     ecut=    60.00 Ry     beta= 0.15
     Davidson diagonalization with overlap

---- Real-time Memory Report at c_bands before calling an iterative solver
             0 MiB given to the printing process from OS
             0 MiB allocation reported by mallinfo(arena+hblkhd)
         50833 MiB available memory on the node where the printing process lives
------------------
     ethr =  7.55E-04,  avg # of iterations =  6.7

     negative rho (up, down):  7.797E-01 0.000E+00

     total cpu time spent up to now is      146.0 secs

     total energy              =   -4440.41041155 Ry
     estimated scf accuracy    <       1.69792681 Ry

     iteration # 11     ecut=    60.00 Ry     beta= 0.15
     Davidson diagonalization with overlap

---- Real-time Memory Report at c_bands before calling an iterative solver
             0 MiB given to the printing process from OS
             0 MiB allocation reported by mallinfo(arena+hblkhd)
         50759 MiB available memory on the node where the printing process lives
------------------
     ethr =  3.95E-04,  avg # of iterations = 12.2

     negative rho (up, down):  7.812E-01 0.000E+00

     total cpu time spent up to now is      166.6 secs

     total energy              =   -4440.49746781 Ry
     estimated scf accuracy    <       0.88904134 Ry

     iteration # 12     ecut=    60.00 Ry     beta= 0.15
     Davidson diagonalization with overlap

---- Real-time Memory Report at c_bands before calling an iterative solver
             0 MiB given to the printing process from OS
             0 MiB allocation reported by mallinfo(arena+hblkhd)
         50251 MiB available memory on the node where the printing process lives
------------------
     ethr =  2.07E-04,  avg # of iterations =  1.4

     negative rho (up, down):  7.928E-01 0.000E+00

     total cpu time spent up to now is      179.8 secs

     total energy              =   -4440.50453055 Ry
     estimated scf accuracy    <       0.71925525 Ry

     iteration # 13     ecut=    60.00 Ry     beta= 0.15
     Davidson diagonalization with overlap

---- Real-time Memory Report at c_bands before calling an iterative solver
             0 MiB given to the printing process from OS
             0 MiB allocation reported by mallinfo(arena+hblkhd)
         50147 MiB available memory on the node where the printing process lives
------------------
     ethr =  1.67E-04,  avg # of iterations =  2.3

     negative rho (up, down):  7.960E-01 0.000E+00

     total cpu time spent up to now is      193.3 secs

     total energy              =   -4440.48625431 Ry
     estimated scf accuracy    <       0.99891253 Ry

     iteration # 14     ecut=    60.00 Ry     beta= 0.15
     Davidson diagonalization with overlap

---- Real-time Memory Report at c_bands before calling an iterative solver
             0 MiB given to the printing process from OS
             0 MiB allocation reported by mallinfo(arena+hblkhd)
         50172 MiB available memory on the node where the printing process lives
------------------
     ethr =  1.67E-04,  avg # of iterations =  1.5

     negative rho (up, down):  8.150E-01 0.000E+00

     total cpu time spent up to now is      206.5 secs

     total energy              =   -4440.41790907 Ry
     estimated scf accuracy    <       0.43373829 Ry

     iteration # 15     ecut=    60.00 Ry     beta= 0.15
     Davidson diagonalization with overlap

---- Real-time Memory Report at c_bands before calling an iterative solver
             0 MiB given to the printing process from OS
             0 MiB allocation reported by mallinfo(arena+hblkhd)
         50176 MiB available memory on the node where the printing process lives
------------------
     c_bands:  1 eigenvalues not converged
     ethr =  1.01E-04,  avg # of iterations = 11.3

     negative rho (up, down):  8.261E-01 0.000E+00

     total cpu time spent up to now is      225.3 secs

     total energy              =   -4440.38780566 Ry
     estimated scf accuracy    <       0.52555124 Ry

     iteration # 16     ecut=    60.00 Ry     beta= 0.15
     Davidson diagonalization with overlap

---- Real-time Memory Report at c_bands before calling an iterative solver
             0 MiB given to the printing process from OS
             0 MiB allocation reported by mallinfo(arena+hblkhd)
         50186 MiB available memory on the node where the printing process lives
------------------
     ethr =  1.01E-04,  avg # of iterations =  3.2

     negative rho (up, down):  8.324E-01 0.000E+00

     total cpu time spent up to now is      239.8 secs

     total energy              =   -4440.37760760 Ry
     estimated scf accuracy    <       0.29989873 Ry

     iteration # 17     ecut=    60.00 Ry     beta= 0.15
     Davidson diagonalization with overlap

---- Real-time Memory Report at c_bands before calling an iterative solver
             0 MiB given to the printing process from OS
             0 MiB allocation reported by mallinfo(arena+hblkhd)
         50173 MiB available memory on the node where the printing process lives
------------------
     ethr =  6.97E-05,  avg # of iterations =  8.3

     negative rho (up, down):  8.155E-01 0.000E+00

     total cpu time spent up to now is      256.5 secs

     total energy              =   -4440.36258001 Ry
     estimated scf accuracy    <       0.26957106 Ry

     iteration # 18     ecut=    60.00 Ry     beta= 0.15
     Davidson diagonalization with overlap

---- Real-time Memory Report at c_bands before calling an iterative solver
             0 MiB given to the printing process from OS
             0 MiB allocation reported by mallinfo(arena+hblkhd)
         50185 MiB available memory on the node where the printing process lives
------------------
     ethr =  6.27E-05,  avg # of iterations =  2.0

     negative rho (up, down):  8.153E-01 0.000E+00

     total cpu time spent up to now is      270.5 secs

     total energy              =   -4440.35031496 Ry
     estimated scf accuracy    <       0.15155193 Ry

     iteration # 19     ecut=    60.00 Ry     beta= 0.15
     Davidson diagonalization with overlap

---- Real-time Memory Report at c_bands before calling an iterative solver
             0 MiB given to the printing process from OS
             0 MiB allocation reported by mallinfo(arena+hblkhd)
         50208 MiB available memory on the node where the printing process lives
------------------
     ethr =  3.52E-05,  avg # of iterations =  6.8

     negative rho (up, down):  8.161E-01 0.000E+00

     total cpu time spent up to now is      287.0 secs

     total energy              =   -4440.33790386 Ry
     estimated scf accuracy    <       0.11154282 Ry

     iteration # 20     ecut=    60.00 Ry     beta= 0.15
     Davidson diagonalization with overlap

---- Real-time Memory Report at c_bands before calling an iterative solver
             0 MiB given to the printing process from OS
             0 MiB allocation reported by mallinfo(arena+hblkhd)
         50208 MiB available memory on the node where the printing process lives
------------------
     ethr =  2.59E-05,  avg # of iterations =  7.8

     negative rho (up, down):  8.256E-01 0.000E+00

     total cpu time spent up to now is      304.5 secs

     total energy              =   -4440.32104847 Ry
     estimated scf accuracy    <       0.13022610 Ry

     iteration # 21     ecut=    60.00 Ry     beta= 0.15
     Davidson diagonalization with overlap

---- Real-time Memory Report at c_bands before calling an iterative solver
             0 MiB given to the printing process from OS
             0 MiB allocation reported by mallinfo(arena+hblkhd)
         50208 MiB available memory on the node where the printing process lives
------------------
     ethr =  2.59E-05,  avg # of iterations =  8.4

     negative rho (up, down):  8.331E-01 0.000E+00

     total cpu time spent up to now is      322.4 secs

     total energy              =   -4440.32337238 Ry
     estimated scf accuracy    <       0.03533804 Ry

     iteration # 22     ecut=    60.00 Ry     beta= 0.15
     Davidson diagonalization with overlap

---- Real-time Memory Report at c_bands before calling an iterative solver
             0 MiB given to the printing process from OS
             0 MiB allocation reported by mallinfo(arena+hblkhd)
         50124 MiB available memory on the node where the printing process lives
------------------
     c_bands:  2 eigenvalues not converged
     ethr =  8.22E-06,  avg # of iterations =  8.1

     negative rho (up, down):  8.278E-01 0.000E+00

     total cpu time spent up to now is      339.6 secs

     total energy              =   -4440.32273557 Ry
     estimated scf accuracy    <       0.02308713 Ry

     iteration # 23     ecut=    60.00 Ry     beta= 0.15
     Davidson diagonalization with overlap

---- Real-time Memory Report at c_bands before calling an iterative solver
             0 MiB given to the printing process from OS
             0 MiB allocation reported by mallinfo(arena+hblkhd)
         50142 MiB available memory on the node where the printing process lives
------------------
     c_bands:  1 eigenvalues not converged
     ethr =  5.37E-06,  avg # of iterations =  5.1

     negative rho (up, down):  8.169E-01 0.000E+00

     total cpu time spent up to now is      355.0 secs

     total energy              =   -4440.32124312 Ry
     estimated scf accuracy    <       0.02019670 Ry

     iteration # 24     ecut=    60.00 Ry     beta= 0.15
     Davidson diagonalization with overlap

---- Real-time Memory Report at c_bands before calling an iterative solver
             0 MiB given to the printing process from OS
             0 MiB allocation reported by mallinfo(arena+hblkhd)
         50159 MiB available memory on the node where the printing process lives
------------------
     ethr =  4.70E-06,  avg # of iterations =  1.2

     negative rho (up, down):  7.985E-01 0.000E+00

     total cpu time spent up to now is      368.2 secs

     total energy              =   -4440.31879977 Ry
     estimated scf accuracy    <       0.01723070 Ry

     iteration # 25     ecut=    60.00 Ry     beta= 0.15
     Davidson diagonalization with overlap

---- Real-time Memory Report at c_bands before calling an iterative solver
             0 MiB given to the printing process from OS
             0 MiB allocation reported by mallinfo(arena+hblkhd)
         50180 MiB available memory on the node where the printing process lives
------------------
     ethr =  4.01E-06,  avg # of iterations =  5.7

     negative rho (up, down):  7.958E-01 0.000E+00

     total cpu time spent up to now is      384.2 secs

     total energy              =   -4440.31742493 Ry
     estimated scf accuracy    <       0.01249848 Ry

     iteration # 26     ecut=    60.00 Ry     beta= 0.15
     Davidson diagonalization with overlap

---- Real-time Memory Report at c_bands before calling an iterative solver
             0 MiB given to the printing process from OS
             0 MiB allocation reported by mallinfo(arena+hblkhd)
         50198 MiB available memory on the node where the printing process lives
------------------
     c_bands:  1 eigenvalues not converged
     ethr =  2.91E-06,  avg # of iterations = 11.4

     negative rho (up, down):  7.932E-01 0.000E+00

     total cpu time spent up to now is      402.7 secs

     total energy              =   -4440.31717802 Ry
     estimated scf accuracy    <       0.00525795 Ry

     iteration # 27     ecut=    60.00 Ry     beta= 0.15
     Davidson diagonalization with overlap

---- Real-time Memory Report at c_bands before calling an iterative solver
             0 MiB given to the printing process from OS
             0 MiB allocation reported by mallinfo(arena+hblkhd)
         50215 MiB available memory on the node where the printing process lives
------------------
     c_bands:  1 eigenvalues not converged
     c_bands:  1 eigenvalues not converged
     ethr =  1.22E-06,  avg # of iterations =  8.5

     negative rho (up, down):  7.936E-01 0.000E+00

     total cpu time spent up to now is      420.1 secs

     total energy              =   -4440.31734374 Ry
     estimated scf accuracy    <       0.00321392 Ry

     iteration # 28     ecut=    60.00 Ry     beta= 0.15
     Davidson diagonalization with overlap

---- Real-time Memory Report at c_bands before calling an iterative solver
             0 MiB given to the printing process from OS
             0 MiB allocation reported by mallinfo(arena+hblkhd)
         50220 MiB available memory on the node where the printing process lives
------------------
     c_bands:  1 eigenvalues not converged
     c_bands:  1 eigenvalues not converged
     ethr =  7.47E-07,  avg # of iterations =  9.4

     negative rho (up, down):  7.967E-01 0.000E+00

     total cpu time spent up to now is      437.8 secs

     total energy              =   -4440.31750356 Ry
     estimated scf accuracy    <       0.00183551 Ry

     iteration # 29     ecut=    60.00 Ry     beta= 0.15
     Davidson diagonalization with overlap

---- Real-time Memory Report at c_bands before calling an iterative solver
             0 MiB given to the printing process from OS
             0 MiB allocation reported by mallinfo(arena+hblkhd)
         50192 MiB available memory on the node where the printing process lives
------------------
     c_bands:  1 eigenvalues not converged
     ethr =  4.27E-07,  avg # of iterations =  8.0

     negative rho (up, down):  7.987E-01 0.000E+00

     total cpu time spent up to now is      454.6 secs

     total energy              =   -4440.31757599 Ry
     estimated scf accuracy    <       0.00113737 Ry

     iteration # 30     ecut=    60.00 Ry     beta= 0.15
     Davidson diagonalization with overlap

---- Real-time Memory Report at c_bands before calling an iterative solver
             0 MiB given to the printing process from OS
             0 MiB allocation reported by mallinfo(arena+hblkhd)
         50176 MiB available memory on the node where the printing process lives
------------------
     ethr =  2.65E-07,  avg # of iterations =  3.0

     negative rho (up, down):  7.974E-01 0.000E+00

     total cpu time spent up to now is      469.1 secs

     total energy              =   -4440.31757427 Ry
     estimated scf accuracy    <       0.00053624 Ry

     iteration # 31     ecut=    60.00 Ry     beta= 0.15
     Davidson diagonalization with overlap

---- Real-time Memory Report at c_bands before calling an iterative solver
             0 MiB given to the printing process from OS
             0 MiB allocation reported by mallinfo(arena+hblkhd)
         50175 MiB available memory on the node where the printing process lives
------------------
     ethr =  1.25E-07,  avg # of iterations =  2.0

     negative rho (up, down):  7.968E-01 0.000E+00

     total cpu time spent up to now is      483.1 secs

     total energy              =   -4440.31754114 Ry
     estimated scf accuracy    <       0.00022981 Ry

     iteration # 32     ecut=    60.00 Ry     beta= 0.15
     Davidson diagonalization with overlap

---- Real-time Memory Report at c_bands before calling an iterative solver
             0 MiB given to the printing process from OS
             0 MiB allocation reported by mallinfo(arena+hblkhd)
         50231 MiB available memory on the node where the printing process lives
------------------
     ethr =  5.34E-08,  avg # of iterations =  1.8

     negative rho (up, down):  7.938E-01 0.000E+00

     total cpu time spent up to now is      497.2 secs

     total energy              =   -4440.31749066 Ry
     estimated scf accuracy    <       0.00008105 Ry

     iteration # 33     ecut=    60.00 Ry     beta= 0.15
     Davidson diagonalization with overlap

---- Real-time Memory Report at c_bands before calling an iterative solver
             0 MiB given to the printing process from OS
             0 MiB allocation reported by mallinfo(arena+hblkhd)
         50218 MiB available memory on the node where the printing process lives
------------------
     ethr =  1.88E-08,  avg # of iterations =  3.7

     negative rho (up, down):  7.929E-01 0.000E+00

     total cpu time spent up to now is      512.2 secs

     total energy              =   -4440.31750097 Ry
     estimated scf accuracy    <       0.00002485 Ry

     iteration # 34     ecut=    60.00 Ry     beta= 0.15
     Davidson diagonalization with overlap

---- Real-time Memory Report at c_bands before calling an iterative solver
             0 MiB given to the printing process from OS
             0 MiB allocation reported by mallinfo(arena+hblkhd)
         50229 MiB available memory on the node where the printing process lives
------------------
     ethr =  5.78E-09,  avg # of iterations =  2.9

     negative rho (up, down):  7.928E-01 0.000E+00

     total cpu time spent up to now is      527.3 secs

     total energy              =   -4440.31750532 Ry
     estimated scf accuracy    <       0.00001243 Ry

     iteration # 35     ecut=    60.00 Ry     beta= 0.15
     Davidson diagonalization with overlap

---- Real-time Memory Report at c_bands before calling an iterative solver
             0 MiB given to the printing process from OS
             0 MiB allocation reported by mallinfo(arena+hblkhd)
         50241 MiB available memory on the node where the printing process lives
------------------
     ethr =  2.89E-09,  avg # of iterations =  3.4

     negative rho (up, down):  7.926E-01 0.000E+00

     total cpu time spent up to now is      542.7 secs

     total energy              =   -4440.31750615 Ry
     estimated scf accuracy    <       0.00000719 Ry

     iteration # 36     ecut=    60.00 Ry     beta= 0.15
     Davidson diagonalization with overlap

---- Real-time Memory Report at c_bands before calling an iterative solver
             0 MiB given to the printing process from OS
             0 MiB allocation reported by mallinfo(arena+hblkhd)
         50235 MiB available memory on the node where the printing process lives
------------------
     ethr =  1.67E-09,  avg # of iterations =  2.0

     negative rho (up, down):  7.926E-01 0.000E+00

     total cpu time spent up to now is      557.2 secs

     total energy              =   -4440.31750590 Ry
     estimated scf accuracy    <       0.00000353 Ry

     iteration # 37     ecut=    60.00 Ry     beta= 0.15
     Davidson diagonalization with overlap

---- Real-time Memory Report at c_bands before calling an iterative solver
             0 MiB given to the printing process from OS
             0 MiB allocation reported by mallinfo(arena+hblkhd)
         50242 MiB available memory on the node where the printing process lives
------------------
     ethr =  8.21E-10,  avg # of iterations =  3.2

     negative rho (up, down):  7.926E-01 0.000E+00

     total cpu time spent up to now is      572.3 secs

     total energy              =   -4440.31750592 Ry
     estimated scf accuracy    <       0.00000245 Ry

     iteration # 38     ecut=    60.00 Ry     beta= 0.15
     Davidson diagonalization with overlap

---- Real-time Memory Report at c_bands before calling an iterative solver
             0 MiB given to the printing process from OS
             0 MiB allocation reported by mallinfo(arena+hblkhd)
         50242 MiB available memory on the node where the printing process lives
------------------
     ethr =  5.69E-10,  avg # of iterations =  2.0

     negative rho (up, down):  7.927E-01 0.000E+00

     total cpu time spent up to now is      586.8 secs

     total energy              =   -4440.31750585 Ry
     estimated scf accuracy    <       0.00000113 Ry

     iteration # 39     ecut=    60.00 Ry     beta= 0.15
     Davidson diagonalization with overlap

---- Real-time Memory Report at c_bands before calling an iterative solver
             0 MiB given to the printing process from OS
             0 MiB allocation reported by mallinfo(arena+hblkhd)
         50237 MiB available memory on the node where the printing process lives
------------------
     ethr =  2.63E-10,  avg # of iterations =  2.0

     negative rho (up, down):  7.927E-01 0.000E+00

     total cpu time spent up to now is      601.4 secs

     total energy              =   -4440.31750591 Ry
     estimated scf accuracy    <       0.00000080 Ry

     iteration # 40     ecut=    60.00 Ry     beta= 0.15
     Davidson diagonalization with overlap

---- Real-time Memory Report at c_bands before calling an iterative solver
             0 MiB given to the printing process from OS
             0 MiB allocation reported by mallinfo(arena+hblkhd)
         50238 MiB available memory on the node where the printing process lives
------------------
     ethr =  1.87E-10,  avg # of iterations =  1.0

     negative rho (up, down):  7.926E-01 0.000E+00

     total cpu time spent up to now is      614.6 secs

     total energy              =   -4440.31750605 Ry
     estimated scf accuracy    <       0.00000044 Ry

     iteration # 41     ecut=    60.00 Ry     beta= 0.15
     Davidson diagonalization with overlap

---- Real-time Memory Report at c_bands before calling an iterative solver
             0 MiB given to the printing process from OS
             0 MiB allocation reported by mallinfo(arena+hblkhd)
         50240 MiB available memory on the node where the printing process lives
------------------
     ethr =  1.03E-10,  avg # of iterations =  2.0

     negative rho (up, down):  7.926E-01 0.000E+00

     total cpu time spent up to now is      629.2 secs

     total energy              =   -4440.31750625 Ry
     estimated scf accuracy    <       0.00000031 Ry

     iteration # 42     ecut=    60.00 Ry     beta= 0.15
     Davidson diagonalization with overlap

---- Real-time Memory Report at c_bands before calling an iterative solver
             0 MiB given to the printing process from OS
             0 MiB allocation reported by mallinfo(arena+hblkhd)
         50239 MiB available memory on the node where the printing process lives
------------------
     ethr =  7.30E-11,  avg # of iterations =  3.1

     negative rho (up, down):  7.926E-01 0.000E+00

     total cpu time spent up to now is      643.6 secs

     total energy              =   -4440.31750628 Ry
     estimated scf accuracy    <       0.00000018 Ry

     iteration # 43     ecut=    60.00 Ry     beta= 0.15
     Davidson diagonalization with overlap

---- Real-time Memory Report at c_bands before calling an iterative solver
             0 MiB given to the printing process from OS
             0 MiB allocation reported by mallinfo(arena+hblkhd)
         50244 MiB available memory on the node where the printing process lives
------------------
     ethr =  4.24E-11,  avg # of iterations =  1.6

     negative rho (up, down):  7.926E-01 0.000E+00

     total cpu time spent up to now is      657.2 secs

     total energy              =   -4440.31750626 Ry
     estimated scf accuracy    <       0.00000015 Ry

     iteration # 44     ecut=    60.00 Ry     beta= 0.15
     Davidson diagonalization with overlap

---- Real-time Memory Report at c_bands before calling an iterative solver
             0 MiB given to the printing process from OS
             0 MiB allocation reported by mallinfo(arena+hblkhd)
         50237 MiB available memory on the node where the printing process lives
------------------
     ethr =  3.45E-11,  avg # of iterations =  2.0

     negative rho (up, down):  7.926E-01 0.000E+00

     total cpu time spent up to now is      671.1 secs

     total energy              =   -4440.31750625 Ry
     estimated scf accuracy    <       0.00000009 Ry

     iteration # 45     ecut=    60.00 Ry     beta= 0.15
     Davidson diagonalization with overlap

---- Real-time Memory Report at c_bands before calling an iterative solver
             0 MiB given to the printing process from OS
             0 MiB allocation reported by mallinfo(arena+hblkhd)
         50249 MiB available memory on the node where the printing process lives
------------------
     ethr =  2.15E-11,  avg # of iterations =  2.0

     negative rho (up, down):  7.926E-01 0.000E+00

     total cpu time spent up to now is      685.4 secs

     total energy              =   -4440.31750624 Ry
     estimated scf accuracy    <       0.00000003 Ry

     iteration # 46     ecut=    60.00 Ry     beta= 0.15
     Davidson diagonalization with overlap

---- Real-time Memory Report at c_bands before calling an iterative solver
             0 MiB given to the printing process from OS
             0 MiB allocation reported by mallinfo(arena+hblkhd)
         50251 MiB available memory on the node where the printing process lives
------------------
     ethr =  7.14E-12,  avg # of iterations =  2.0

     negative rho (up, down):  7.926E-01 0.000E+00

     total cpu time spent up to now is      699.7 secs

     total energy              =   -4440.31750623 Ry
     estimated scf accuracy    <       0.00000002 Ry

     iteration # 47     ecut=    60.00 Ry     beta= 0.15
     Davidson diagonalization with overlap

---- Real-time Memory Report at c_bands before calling an iterative solver
             0 MiB given to the printing process from OS
             0 MiB allocation reported by mallinfo(arena+hblkhd)
         50248 MiB available memory on the node where the printing process lives
------------------
     ethr =  4.35E-12,  avg # of iterations =  2.0

     negative rho (up, down):  7.926E-01 0.000E+00

     total cpu time spent up to now is      713.7 secs

     End of self-consistent calculation

          k = 0.0000 0.0000 0.0000 ( 65197 PWs)   bands (ev):

   -92.9020 -92.8522 -92.7560 -92.7116 -92.6521 -92.6089 -92.5909 -92.4712
   -56.2556 -56.2391 -56.1128 -56.1023 -56.0972 -56.0892 -56.0546 -56.0249
   -56.0098 -56.0089 -56.0030 -55.9583 -55.9430 -55.9029 -55.8828 -55.8521
   -55.8467 -55.7968 -55.7962 -55.7936 -55.7852 -55.7461 -55.7210 -55.6368
   -31.4647 -31.4454 -31.3019 -31.2476 -31.2162 -31.1151 -30.9377 -30.6640
   -30.0450 -30.0039 -29.9757 -29.8678 -15.2777 -15.2296 -15.1502 -15.0211
   -14.8192 -14.6988 -14.4120 -14.3934 -14.3649 -14.3148 -14.2674 -14.2517
   -14.2444 -14.2266 -14.2098 -14.1468 -14.1266 -13.9714 -13.7863 -13.7590
   -13.7291 -13.6922 -13.6805 -13.6165 -13.5803 -13.5071 -13.4395 -13.2999
   -13.2910 -13.2857 -13.2625 -13.2440 -13.2285 -13.1889 -13.1759 -13.1618
   -13.1355 -13.1096 -13.0884 -13.0456 -13.0319 -13.0130 -12.9054 -12.8948
   -12.8863 -12.6806 -12.6536 -12.5923 -12.5307 -12.3849 -12.1366 -12.0683
   -12.0587 -11.9850 -11.9737 -11.9698 -11.9501 -11.9328 -11.8694 -11.8513
   -11.8178 -11.7869 -11.6747 -11.5970 -11.5934  -3.1381  -2.9069  -2.6773
    -2.5294  -2.4675  -2.3263  -2.0181  -2.0035  -1.9856  -1.8989  -1.8784
    -1.8105  -1.7941  -1.7532  -1.7113  -1.5272  -1.3022  -1.2711  -1.1286
    -1.1134  -1.0658  -1.0425  -0.9988  -0.9822  -0.9321  -0.9035  -0.8243
    -0.8153  -0.7442  -0.6081  -0.5954  -0.5678  -0.4872  -0.4571  -0.4425
    -0.3913  -0.3239  -0.2568  -0.2232  -0.1912  -0.1175  -0.0593  -0.0154
     0.0107   0.0220   0.2810   0.2991   0.4718   0.5335   0.6034   0.6508
     0.7367   0.7466   0.7644   0.8314   0.8566   0.8915   0.9478   1.0763
     1.1383   1.1594   1.1846   1.2007   1.2590   1.3221   1.4403   1.4555
     1.5198   1.5275   1.5729   1.5865   1.5983   1.6562   1.7175   1.7280
     1.7724   1.8017   1.8358   1.9669   2.0599   2.0938   2.1156   2.2663
     2.2790   2.3130   2.3239   2.4290   2.4635   2.4846   2.4973   2.5119
     2.5230   2.6030   2.6289   2.6297   2.7118   2.7443   2.7540   2.7588
     2.8274   2.8341   2.8557   2.8623   2.8722   2.8851   2.8923   2.9065
     2.9128   2.9251   2.9316   2.9397   2.9585   2.9801   2.9846   2.9970
     3.0283   3.1376   3.2308   3.9203   4.2402   4.5926   4.8177   4.8552
     5.7492   5.7979   5.8115   5.8741   6.1167   6.1622   6.4239   6.4314
     6.9283   6.9770   7.0798   7.1442   7.3896   7.5209   7.5367   7.5664
     7.7986   7.8346   7.9160   7.9630   8.0187   8.1619   8.3773   8.5411
     8.7595   8.9150

     occupation numbers 
     1.0000   1.0000   1.0000   1.0000   1.0000   1.0000   1.0000   1.0000
     1.0000   1.0000   1.0000   1.0000   1.0000   1.0000   1.0000   1.0000
     1.0000   1.0000   1.0000   1.0000   1.0000   1.0000   1.0000   1.0000
     1.0000   1.0000   1.0000   1.0000   1.0000   1.0000   1.0000   1.0000
     1.0000   1.0000   1.0000   1.0000   1.0000   1.0000   1.0000   1.0000
     1.0000   1.0000   1.0000   1.0000   1.0000   1.0000   1.0000   1.0000
     1.0000   1.0000   1.0000   1.0000   1.0000   1.0000   1.0000   1.0000
     1.0000   1.0000   1.0000   1.0000   1.0000   1.0000   1.0000   1.0000
     1.0000   1.0000   1.0000   1.0000   1.0000   1.0000   1.0000   1.0000
     1.0000   1.0000   1.0000   1.0000   1.0000   1.0000   1.0000   1.0000
     1.0000   1.0000   1.0000   1.0000   1.0000   1.0000   1.0000   1.0000
     1.0000   1.0000   1.0000   1.0000   1.0000   1.0000   1.0000   1.0000
     1.0000   1.0000   1.0000   1.0000   1.0000   1.0000   1.0000   1.0000
     1.0000   1.0000   1.0000   1.0000   1.0000   1.0000   1.0000   1.0000
     1.0000   1.0000   1.0000   1.0000   1.0000   1.0000   1.0000   1.0000
     1.0000   1.0000   1.0000   1.0000   1.0000   1.0000   1.0000   1.0000
     1.0000   1.0000   1.0000   1.0000   1.0000   1.0000   1.0000   1.0000
     1.0000   1.0000   1.0000   1.0000   1.0000   1.0000   1.0000   1.0000
     1.0000   1.0000   1.0000   1.0000   1.0000   1.0000   1.0000   1.0000
     1.0000   1.0000   1.0000   1.0000   1.0000   0.9999   0.9999   0.9999
     0.9998   0.9998   0.9998   0.9997   0.9996   0.9995   0.9994   0.9988
     0.9984   0.9983   0.9980   0.9979   0.9972   0.9963   0.9939   0.9935
     0.9915   0.9912   0.9895   0.9889   0.9884   0.9855   0.9818   0.9811
     0.9779   0.9755   0.9724   0.9575   0.9435   0.9375   0.9334   0.8994
     0.8960   0.8866   0.8834   0.8500   0.8377   0.8299   0.8251   0.8194
     0.8151   0.7817   0.7702   0.7698   0.7312   0.7150   0.7101   0.7077
     0.6717   0.6682   0.6564   0.6528   0.6474   0.6402   0.6362   0.6283
     0.6247   0.6178   0.6141   0.6095   0.5988   0.5863   0.5837   0.5765
     0.5582   0.4936   0.4387   0.1194   0.0491   0.0148   0.0060   0.0051
     0.0000   0.0000   0.0000   0.0000   0.0000   0.0000   0.0000   0.0000
     0.0000   0.0000   0.0000   0.0000   0.0000   0.0000   0.0000   0.0000
     0.0000   0.0000   0.0000   0.0000   0.0000   0.0000   0.0000   0.0000
     0.0000   0.0000

          k = 0.0000 0.2500 0.0000 ( 65257 PWs)   bands (ev):

   -92.9020 -92.8522 -92.7560 -92.7116 -92.6521 -92.6089 -92.5909 -92.4712
   -56.2556 -56.2391 -56.1128 -56.1023 -56.0972 -56.0892 -56.0546 -56.0249
   -56.0098 -56.0089 -56.0030 -55.9583 -55.9430 -55.9029 -55.8828 -55.8521
   -55.8467 -55.7968 -55.7962 -55.7936 -55.7852 -55.7461 -55.7210 -55.6368
   -31.4645 -31.4452 -31.3022 -31.2475 -31.2163 -31.1149 -30.9379 -30.6640
   -30.0444 -30.0036 -29.9763 -29.8681 -15.2414 -15.2034 -15.1248 -14.9917
   -14.8638 -14.6878 -14.5583 -14.3789 -14.3412 -14.3217 -14.2888 -14.2361
   -14.2220 -14.2080 -14.1892 -14.1158 -14.0450 -14.0035 -13.8397 -13.8089
   -13.7712 -13.7332 -13.6825 -13.6428 -13.5720 -13.5329 -13.4929 -13.3889
   -13.3374 -13.3310 -13.2962 -13.2809 -13.2177 -13.1695 -13.1450 -13.1203
   -13.0906 -13.0597 -13.0498 -13.0351 -13.0197 -12.9858 -12.8883 -12.7776
   -12.7306 -12.6603 -12.6282 -12.5940 -12.5901 -12.4360 -12.1863 -12.1258
   -12.0239 -11.9827 -11.9734 -11.9481 -11.9250 -11.9089 -11.8612 -11.8496
   -11.8262 -11.7936 -11.6889 -11.6384 -11.6281  -3.0027  -2.7826  -2.6445
    -2.4626  -2.4189  -2.2560  -2.0348  -1.9528  -1.9397  -1.8800  -1.7774
    -1.7608  -1.7292  -1.6999  -1.6559  -1.4582  -1.3294  -1.3182  -1.2413
    -1.2323  -1.1287  -1.0988  -1.0361  -1.0109  -0.9746  -0.9097  -0.8814
    -0.8504  -0.8151  -0.7986  -0.7675  -0.6924  -0.6445  -0.5714  -0.4569
    -0.4378  -0.3951  -0.2810  -0.2330  -0.1793  -0.1316  -0.0689  -0.0605
    -0.0324   0.0311   0.3311   0.4178   0.4528   0.5385   0.5873   0.6118
     0.7153   0.7346   0.8370   0.8589   0.8820   0.9949   1.0944   1.1150
     1.1407   1.1590   1.1800   1.2397   1.2683   1.2982   1.3423   1.3830
     1.4157   1.5061   1.5390   1.5772   1.6229   1.6824   1.7374   1.7538
     1.7689   1.7861   1.8875   2.0055   2.0806   2.0973   2.1642   2.2140
     2.2606   2.2674   2.3232   2.3573   2.4446   2.4803   2.5005   2.5032
     2.6233   2.6295   2.6671   2.6904   2.7242   2.7470   2.7611   2.7693
     2.7765   2.7854   2.8157   2.8175   2.8354   2.8414   2.8506   2.8707
     2.8825   2.8896   2.9101   2.9205   2.9255   2.9618   2.9775   3.0374
     3.4188   3.4527   3.6826   4.1117   4.2389   4.5316   4.8706   4.9795
     5.4996   5.6193   5.7913   5.8958   5.9394   6.0269   6.0546   6.5358
     7.0122   7.0966   7.2204   7.2404   7.3312   7.3931   7.5325   7.6684
     7.7237   7.8641   8.0543   8.2668   8.2964   8.3423   8.3675   8.4321
     8.5586   8.8031

     occupation numbers 
     1.0000   1.0000   1.0000   1.0000   1.0000   1.0000   1.0000   1.0000
     1.0000   1.0000   1.0000   1.0000   1.0000   1.0000   1.0000   1.0000
     1.0000   1.0000   1.0000   1.0000   1.0000   1.0000   1.0000   1.0000
     1.0000   1.0000   1.0000   1.0000   1.0000   1.0000   1.0000   1.0000
     1.0000   1.0000   1.0000   1.0000   1.0000   1.0000   1.0000   1.0000
     1.0000   1.0000   1.0000   1.0000   1.0000   1.0000   1.0000   1.0000
     1.0000   1.0000   1.0000   1.0000   1.0000   1.0000   1.0000   1.0000
     1.0000   1.0000   1.0000   1.0000   1.0000   1.0000   1.0000   1.0000
     1.0000   1.0000   1.0000   1.0000   1.0000   1.0000   1.0000   1.0000
     1.0000   1.0000   1.0000   1.0000   1.0000   1.0000   1.0000   1.0000
     1.0000   1.0000   1.0000   1.0000   1.0000   1.0000   1.0000   1.0000
     1.0000   1.0000   1.0000   1.0000   1.0000   1.0000   1.0000   1.0000
     1.0000   1.0000   1.0000   1.0000   1.0000   1.0000   1.0000   1.0000
     1.0000   1.0000   1.0000   1.0000   1.0000   1.0000   1.0000   1.0000
     1.0000   1.0000   1.0000   1.0000   1.0000   1.0000   1.0000   1.0000
     1.0000   1.0000   1.0000   1.0000   1.0000   1.0000   1.0000   1.0000
     1.0000   1.0000   1.0000   1.0000   1.0000   1.0000   1.0000   1.0000
     1.0000   1.0000   1.0000   1.0000   1.0000   1.0000   1.0000   1.0000
     1.0000   1.0000   1.0000   1.0000   1.0000   1.0000   1.0000   1.0000
     1.0000   1.0000   1.0000   1.0000   1.0000   0.9999   0.9999   0.9999
     0.9998   0.9998   0.9997   0.9996   0.9996   0.9992   0.9987   0.9986
     0.9984   0.9983   0.9981   0.9975   0.9971   0.9967   0.9960   0.9952
     0.9945   0.9920   0.9908   0.9893   0.9872   0.9840   0.9805   0.9793
     0.9781   0.9768   0.9671   0.9521   0.9399   0.9368   0.9236   0.9124
     0.9008   0.8991   0.8836   0.8734   0.8445   0.8315   0.8238   0.8228
     0.7727   0.7699   0.7526   0.7416   0.7251   0.7137   0.7065   0.7023
     0.6986   0.6940   0.6780   0.6770   0.6674   0.6642   0.6592   0.6482
     0.6417   0.6377   0.6263   0.6204   0.6176   0.5968   0.5878   0.5529
     0.3323   0.3143   0.2046   0.0718   0.0494   0.0185   0.0048   0.0030
     0.0002   0.0001   0.0000   0.0000   0.0000   0.0000   0.0000   0.0000
     0.0000   0.0000   0.0000   0.0000   0.0000   0.0000   0.0000   0.0000
     0.0000   0.0000   0.0000   0.0000   0.0000   0.0000   0.0000   0.0000
     0.0000   0.0000

          k = 0.0000-0.5000 0.0000 ( 65180 PWs)   bands (ev):

   -92.9020 -92.8522 -92.7560 -92.7116 -92.6521 -92.6089 -92.5909 -92.4712
   -56.2556 -56.2391 -56.1128 -56.1023 -56.0972 -56.0892 -56.0546 -56.0249
   -56.0098 -56.0089 -56.0030 -55.9583 -55.9430 -55.9029 -55.8828 -55.8521
   -55.8467 -55.7968 -55.7962 -55.7936 -55.7852 -55.7461 -55.7210 -55.6368
   -31.4643 -31.4451 -31.3024 -31.2475 -31.2165 -31.1147 -30.9381 -30.6641
   -30.0438 -30.0033 -29.9769 -29.8684 -15.2046 -15.1568 -15.0989 -14.9713
   -14.8871 -14.7561 -14.5840 -14.4764 -14.3528 -14.2671 -14.2356 -14.2236
   -14.1773 -14.1644 -14.1086 -14.0882 -14.0660 -14.0355 -13.9896 -13.9245
   -13.7781 -13.7192 -13.6852 -13.6510 -13.5528 -13.5437 -13.4693 -13.4677
   -13.4317 -13.4032 -13.2972 -13.2822 -13.2129 -13.1553 -13.1421 -13.1152
   -13.0758 -13.0694 -13.0407 -13.0158 -12.8949 -12.8854 -12.8404 -12.7108
   -12.7028 -12.6778 -12.6142 -12.5948 -12.5110 -12.4843 -12.2664 -12.2115
   -11.9819 -11.9779 -11.9691 -11.9420 -11.9108 -11.8759 -11.8643 -11.8243
   -11.8197 -11.7760 -11.7102 -11.6984 -11.6850  -2.7878  -2.7292  -2.5795
    -2.5082  -2.2242  -2.1411  -2.0133  -1.8789  -1.8378  -1.8205  -1.7432
    -1.7115  -1.6265  -1.5926  -1.5129  -1.4756  -1.4392  -1.4114  -1.3500
    -1.3124  -1.2672  -1.2308  -1.1969  -1.1658  -1.0541  -1.0112  -0.9726
    -0.9669  -0.8836  -0.8552  -0.8316  -0.7807  -0.6954  -0.6184  -0.5292
    -0.5003  -0.3889  -0.3582  -0.2264  -0.1765  -0.1516  -0.0992   0.0328
     0.0923   0.1946   0.2676   0.2771   0.4006   0.4671   0.5684   0.6832
     0.7883   0.8203   0.8633   0.8742   0.9068   0.9221   0.9566   0.9742
     0.9916   1.0964   1.1601   1.1887   1.2097   1.4861   1.5139   1.5388
     1.6326   1.6526   1.6842   1.7027   1.7177   1.7529   1.7630   1.7778
     1.8097   1.8433   1.8733   1.8753   1.9063   1.9585   2.0499   2.0907
     2.2576   2.4037   2.4123   2.4370   2.4603   2.4741   2.4828   2.5175
     2.5414   2.5467   2.6014   2.6158   2.6222   2.6388   2.7007   2.7171
     2.7863   2.7896   2.8145   2.8160   2.8316   2.8378   2.8413   2.8469
     2.8490   2.8651   2.8788   2.8849   2.9480   2.9490   2.9668   3.0225
     3.9374   3.9663   4.0073   4.0731   4.5433   4.7225   4.8894   4.9868
     5.2674   5.3498   5.4792   5.5709   5.8393   5.8585   6.2732   6.7453
     6.7763   6.8841   7.1234   7.3011   7.5548   7.6447   7.7074   7.7412
     7.7734   7.8703   8.0946   8.2503   8.3287   8.3833   8.5110   8.5825
     8.6740   8.7520

     occupation numbers 
     1.0000   1.0000   1.0000   1.0000   1.0000   1.0000   1.0000   1.0000
     1.0000   1.0000   1.0000   1.0000   1.0000   1.0000   1.0000   1.0000
     1.0000   1.0000   1.0000   1.0000   1.0000   1.0000   1.0000   1.0000
     1.0000   1.0000   1.0000   1.0000   1.0000   1.0000   1.0000   1.0000
     1.0000   1.0000   1.0000   1.0000   1.0000   1.0000   1.0000   1.0000
     1.0000   1.0000   1.0000   1.0000   1.0000   1.0000   1.0000   1.0000
     1.0000   1.0000   1.0000   1.0000   1.0000   1.0000   1.0000   1.0000
     1.0000   1.0000   1.0000   1.0000   1.0000   1.0000   1.0000   1.0000
     1.0000   1.0000   1.0000   1.0000   1.0000   1.0000   1.0000   1.0000
     1.0000   1.0000   1.0000   1.0000   1.0000   1.0000   1.0000   1.0000
     1.0000   1.0000   1.0000   1.0000   1.0000   1.0000   1.0000   1.0000
     1.0000   1.0000   1.0000   1.0000   1.0000   1.0000   1.0000   1.0000
     1.0000   1.0000   1.0000   1.0000   1.0000   1.0000   1.0000   1.0000
     1.0000   1.0000   1.0000   1.0000   1.0000   1.0000   1.0000   1.0000
     1.0000   1.0000   1.0000   1.0000   1.0000   1.0000   1.0000   1.0000
     1.0000   1.0000   1.0000   1.0000   1.0000   1.0000   1.0000   1.0000
     1.0000   1.0000   1.0000   1.0000   1.0000   1.0000   1.0000   1.0000
     1.0000   1.0000   1.0000   1.0000   1.0000   1.0000   1.0000   1.0000
     1.0000   1.0000   1.0000   1.0000   1.0000   1.0000   1.0000   1.0000
     1.0000   1.0000   1.0000   1.0000   1.0000   1.0000   0.9999   0.9999
     0.9997   0.9997   0.9996   0.9996   0.9995   0.9995   0.9994   0.9993
     0.9992   0.9987   0.9983   0.9980   0.9978   0.9926   0.9917   0.9908
     0.9868   0.9857   0.9839   0.9828   0.9818   0.9793   0.9786   0.9774
     0.9748   0.9717   0.9687   0.9685   0.9650   0.9586   0.9451   0.9381
     0.9016   0.8586   0.8557   0.8472   0.8389   0.8338   0.8306   0.8172
     0.8077   0.8055   0.7824   0.7761   0.7732   0.7657   0.7366   0.7286
     0.6935   0.6918   0.6786   0.6778   0.6695   0.6661   0.6642   0.6612
     0.6601   0.6513   0.6437   0.6403   0.6047   0.6042   0.5939   0.5616
     0.1144   0.1063   0.0956   0.0800   0.0177   0.0089   0.0044   0.0029
     0.0007   0.0005   0.0002   0.0001   0.0000   0.0000   0.0000   0.0000
     0.0000   0.0000   0.0000   0.0000   0.0000   0.0000   0.0000   0.0000
     0.0000   0.0000   0.0000   0.0000   0.0000   0.0000   0.0000   0.0000
     0.0000   0.0000

          k = 0.2500 0.2500 0.0000 ( 65198 PWs)   bands (ev):

   -92.9020 -92.8522 -92.7560 -92.7116 -92.6521 -92.6089 -92.5909 -92.4712
   -56.2556 -56.2391 -56.1128 -56.1023 -56.0972 -56.0892 -56.0546 -56.0249
   -56.0098 -56.0089 -56.0030 -55.9583 -55.9430 -55.9029 -55.8828 -55.8521
   -55.8467 -55.7968 -55.7962 -55.7936 -55.7852 -55.7461 -55.7210 -55.6368
   -31.4628 -31.4470 -31.3018 -31.2473 -31.2167 -31.1152 -30.9378 -30.6642
   -30.0434 -30.0046 -29.9759 -29.8685 -15.2123 -15.1699 -15.0965 -14.9813
   -14.8555 -14.7307 -14.6640 -14.4509 -14.3022 -14.2881 -14.2490 -14.2241
   -14.1953 -14.1694 -14.1350 -14.0802 -14.0321 -14.0161 -13.8538 -13.8397
   -13.8090 -13.7916 -13.7293 -13.7026 -13.6170 -13.5852 -13.4603 -13.4277
   -13.4062 -13.3296 -13.2886 -13.2393 -13.2065 -13.1905 -13.1557 -13.1339
   -13.1028 -13.0586 -13.0101 -12.9742 -12.9329 -12.9024 -12.8891 -12.8316
   -12.7613 -12.6405 -12.5984 -12.5709 -12.5214 -12.4651 -12.2304 -12.1571
   -11.9966 -11.9734 -11.9650 -11.9517 -11.9443 -11.8847 -11.8491 -11.8430
   -11.8071 -11.7976 -11.7062 -11.6668 -11.6494  -2.8643  -2.6568  -2.5382
    -2.4432  -2.3236  -2.2595  -2.0594  -1.9169  -1.8988  -1.8671  -1.7725
    -1.7397  -1.6435  -1.6161  -1.5648  -1.4355  -1.3862  -1.3122  -1.2684
    -1.2238  -1.2011  -1.1779  -1.1322  -1.1195  -1.0282  -0.9771  -0.9080
    -0.8611  -0.8295  -0.7834  -0.7645  -0.7033  -0.6554  -0.5925  -0.5636
    -0.4735  -0.4218  -0.3922  -0.3562  -0.3008  -0.2053  -0.1882  -0.1597
    -0.0751  -0.0480   0.2184   0.3693   0.3992   0.4640   0.5071   0.5730
     0.6153   0.6861   0.7146   0.9854   1.0477   1.1199   1.1455   1.1988
     1.2242   1.2607   1.2991   1.3149   1.3424   1.3933   1.4005   1.4145
     1.4591   1.4973   1.5372   1.6090   1.6471   1.6525   1.7002   1.7196
     1.7788   1.8039   1.9254   1.9877   2.0210   2.0374   2.1133   2.1788
     2.2031   2.2365   2.2674   2.2780   2.3883   2.4241   2.4952   2.5157
     2.6216   2.6297   2.6791   2.6963   2.7015   2.7198   2.7339   2.7478
     2.7590   2.7651   2.7774   2.7895   2.8031   2.8197   2.8277   2.8384
     2.8618   2.8720   2.8822   2.9127   3.2119   3.3065   3.3535   3.4294
     3.4572   3.6648   3.7560   4.1194   4.3287   4.5371   4.7933   5.1188
     5.4857   5.5456   5.5836   5.6418   5.7040   6.0790   6.1385   6.1657
     6.8242   7.1060   7.2338   7.3902   7.4391   7.4703   7.5787   7.7455
     7.9027   8.1298   8.1988   8.2458   8.3128   8.3858   8.4449   8.4915
     8.5600   8.6472

     occupation numbers 
     1.0000   1.0000   1.0000   1.0000   1.0000   1.0000   1.0000   1.0000
     1.0000   1.0000   1.0000   1.0000   1.0000   1.0000   1.0000   1.0000
     1.0000   1.0000   1.0000   1.0000   1.0000   1.0000   1.0000   1.0000
     1.0000   1.0000   1.0000   1.0000   1.0000   1.0000   1.0000   1.0000
     1.0000   1.0000   1.0000   1.0000   1.0000   1.0000   1.0000   1.0000
     1.0000   1.0000   1.0000   1.0000   1.0000   1.0000   1.0000   1.0000
     1.0000   1.0000   1.0000   1.0000   1.0000   1.0000   1.0000   1.0000
     1.0000   1.0000   1.0000   1.0000   1.0000   1.0000   1.0000   1.0000
     1.0000   1.0000   1.0000   1.0000   1.0000   1.0000   1.0000   1.0000
     1.0000   1.0000   1.0000   1.0000   1.0000   1.0000   1.0000   1.0000
     1.0000   1.0000   1.0000   1.0000   1.0000   1.0000   1.0000   1.0000
     1.0000   1.0000   1.0000   1.0000   1.0000   1.0000   1.0000   1.0000
     1.0000   1.0000   1.0000   1.0000   1.0000   1.0000   1.0000   1.0000
     1.0000   1.0000   1.0000   1.0000   1.0000   1.0000   1.0000   1.0000
     1.0000   1.0000   1.0000   1.0000   1.0000   1.0000   1.0000   1.0000
     1.0000   1.0000   1.0000   1.0000   1.0000   1.0000   1.0000   1.0000
     1.0000   1.0000   1.0000   1.0000   1.0000   1.0000   1.0000   1.0000
     1.0000   1.0000   1.0000   1.0000   1.0000   1.0000   1.0000   1.0000
     1.0000   1.0000   1.0000   1.0000   1.0000   1.0000   1.0000   1.0000
     1.0000   1.0000   1.0000   1.0000   1.0000   1.0000   0.9999   0.9999
     0.9999   0.9999   0.9998   0.9993   0.9990   0.9986   0.9984   0.9979
     0.9976   0.9972   0.9967   0.9964   0.9960   0.9950   0.9948   0.9945
     0.9934   0.9922   0.9909   0.9879   0.9860   0.9857   0.9829   0.9817
     0.9774   0.9753   0.9628   0.9546   0.9497   0.9471   0.9338   0.9204
     0.9149   0.9069   0.8991   0.8963   0.8636   0.8517   0.8259   0.8180
     0.7735   0.7698   0.7470   0.7387   0.7362   0.7273   0.7202   0.7133
     0.7076   0.7045   0.6981   0.6918   0.6847   0.6759   0.6716   0.6658
     0.6531   0.6475   0.6418   0.6248   0.4498   0.3948   0.3683   0.3266
     0.3119   0.2122   0.1751   0.0703   0.0372   0.0181   0.0067   0.0015
     0.0002   0.0002   0.0001   0.0001   0.0001   0.0000   0.0000   0.0000
     0.0000   0.0000   0.0000   0.0000   0.0000   0.0000   0.0000   0.0000
     0.0000   0.0000   0.0000   0.0000   0.0000   0.0000   0.0000   0.0000
     0.0000   0.0000

          k = 0.2500-0.5000 0.0000 ( 65138 PWs)   bands (ev):

   -92.9020 -92.8522 -92.7560 -92.7116 -92.6521 -92.6089 -92.5909 -92.4712
   -56.2556 -56.2391 -56.1128 -56.1023 -56.0972 -56.0892 -56.0546 -56.0249
   -56.0098 -56.0089 -56.0030 -55.9583 -55.9430 -55.9029 -55.8828 -55.8521
   -55.8467 -55.7968 -55.7962 -55.7936 -55.7852 -55.7461 -55.7210 -55.6368
   -31.4626 -31.4468 -31.3020 -31.2472 -31.2168 -31.1150 -30.9380 -30.6642
   -30.0428 -30.0043 -29.9765 -29.8689 -15.1740 -15.1301 -15.0566 -14.9440
   -14.9073 -14.7958 -14.6893 -14.5708 -14.2669 -14.2079 -14.1875 -14.1601
   -14.1475 -14.1353 -14.0915 -14.0757 -14.0496 -14.0121 -13.9840 -13.9152
   -13.8590 -13.8104 -13.7425 -13.7309 -13.6583 -13.5934 -13.5040 -13.4726
   -13.3949 -13.3289 -13.3092 -13.2241 -13.1805 -13.1758 -13.1597 -13.1310
   -13.0998 -13.0554 -13.0274 -12.9938 -12.8929 -12.8439 -12.8125 -12.7749
   -12.7556 -12.7095 -12.5999 -12.5373 -12.5083 -12.4203 -12.2590 -12.2234
   -11.9784 -11.9683 -11.9572 -11.9472 -11.9201 -11.8905 -11.8605 -11.8212
   -11.7938 -11.7720 -11.7237 -11.6991 -11.6894  -2.6455  -2.5805  -2.4532
    -2.3765  -2.2444  -2.1609  -2.0377  -1.8897  -1.8336  -1.8127  -1.7508
    -1.7377  -1.6369  -1.5728  -1.4888  -1.4357  -1.4271  -1.3663  -1.3211
    -1.2882  -1.2396  -1.2026  -1.1670  -1.1292  -1.1117  -1.0711  -1.0414
    -0.9980  -0.9668  -0.9014  -0.7975  -0.7567  -0.6783  -0.6113  -0.5584
    -0.5194  -0.5025  -0.4370  -0.2809  -0.2704  -0.1651  -0.1374  -0.1266
    -0.0856  -0.0442  -0.0085   0.0213   0.0801   0.3736   0.4689   0.5369
     0.5867   0.8544   0.8715   0.9567   0.9872   1.1456   1.1807   1.2210
     1.2451   1.2554   1.2775   1.3423   1.3925   1.4253   1.5044   1.6129
     1.6457   1.6580   1.6714   1.7098   1.7155   1.7370   1.7753   1.7819
     1.8091   1.8358   1.8514   1.8681   1.9036   1.9593   2.0040   2.0868
     2.2184   2.3567   2.3747   2.3931   2.4205   2.4409   2.4648   2.4894
     2.5078   2.5121   2.5430   2.6210   2.6223   2.6375   2.6799   2.6986
     2.7047   2.7151   2.7356   2.7489   2.7696   2.7754   2.8136   2.8227
     2.8371   2.8433   2.8533   2.8628   3.3883   3.4072   3.5438   3.6005
     3.9466   3.9997   4.0108   4.1278   4.5623   4.7422   4.9071   4.9505
     5.1170   5.2881   5.4894   5.5162   5.6117   5.6615   6.3235   6.3749
     6.4407   6.8420   7.2419   7.5687   7.6527   7.7048   7.7673   7.8308
     7.9067   8.0898   8.2215   8.2912   8.3847   8.4307   8.5379   8.5771
     8.6221   8.7158

     occupation numbers 
     1.0000   1.0000   1.0000   1.0000   1.0000   1.0000   1.0000   1.0000
     1.0000   1.0000   1.0000   1.0000   1.0000   1.0000   1.0000   1.0000
     1.0000   1.0000   1.0000   1.0000   1.0000   1.0000   1.0000   1.0000
     1.0000   1.0000   1.0000   1.0000   1.0000   1.0000   1.0000   1.0000
     1.0000   1.0000   1.0000   1.0000   1.0000   1.0000   1.0000   1.0000
     1.0000   1.0000   1.0000   1.0000   1.0000   1.0000   1.0000   1.0000
     1.0000   1.0000   1.0000   1.0000   1.0000   1.0000   1.0000   1.0000
     1.0000   1.0000   1.0000   1.0000   1.0000   1.0000   1.0000   1.0000
     1.0000   1.0000   1.0000   1.0000   1.0000   1.0000   1.0000   1.0000
     1.0000   1.0000   1.0000   1.0000   1.0000   1.0000   1.0000   1.0000
     1.0000   1.0000   1.0000   1.0000   1.0000   1.0000   1.0000   1.0000
     1.0000   1.0000   1.0000   1.0000   1.0000   1.0000   1.0000   1.0000
     1.0000   1.0000   1.0000   1.0000   1.0000   1.0000   1.0000   1.0000
     1.0000   1.0000   1.0000   1.0000   1.0000   1.0000   1.0000   1.0000
     1.0000   1.0000   1.0000   1.0000   1.0000   1.0000   1.0000   1.0000
     1.0000   1.0000   1.0000   1.0000   1.0000   1.0000   1.0000   1.0000
     1.0000   1.0000   1.0000   1.0000   1.0000   1.0000   1.0000   1.0000
     1.0000   1.0000   1.0000   1.0000   1.0000   1.0000   1.0000   1.0000
     1.0000   1.0000   1.0000   1.0000   1.0000   1.0000   1.0000   1.0000
     1.0000   1.0000   1.0000   1.0000   1.0000   1.0000   1.0000   0.9999
     0.9999   0.9996   0.9996   0.9994   0.9993   0.9984   0.9981   0.9977
     0.9974   0.9973   0.9970   0.9960   0.9950   0.9942   0.9920   0.9877
     0.9861   0.9854   0.9847   0.9823   0.9819   0.9805   0.9776   0.9771
     0.9748   0.9724   0.9709   0.9692   0.9653   0.9585   0.9523   0.9388
     0.9113   0.8736   0.8680   0.8621   0.8529   0.8458   0.8372   0.8281
     0.8210   0.8194   0.8070   0.7738   0.7732   0.7663   0.7466   0.7376
     0.7347   0.7296   0.7194   0.7127   0.7021   0.6991   0.6791   0.6742
     0.6665   0.6632   0.6577   0.6525   0.3489   0.3386   0.2679   0.2409
     0.1118   0.0975   0.0947   0.0686   0.0165   0.0082   0.0041   0.0034
     0.0016   0.0007   0.0002   0.0002   0.0001   0.0001   0.0000   0.0000
     0.0000   0.0000   0.0000   0.0000   0.0000   0.0000   0.0000   0.0000
     0.0000   0.0000   0.0000   0.0000   0.0000   0.0000   0.0000   0.0000
     0.0000   0.0000

          k =-0.5000-0.5000 0.0000 ( 65132 PWs)   bands (ev):

   -92.9020 -92.8522 -92.7560 -92.7116 -92.6521 -92.6089 -92.5909 -92.4712
   -56.2556 -56.2391 -56.1128 -56.1023 -56.0972 -56.0892 -56.0546 -56.0249
   -56.0098 -56.0089 -56.0030 -55.9583 -55.9430 -55.9029 -55.8828 -55.8521
   -55.8467 -55.7968 -55.7962 -55.7936 -55.7852 -55.7461 -55.7210 -55.6368
   -31.4604 -31.4490 -31.3016 -31.2470 -31.2172 -31.1152 -30.9379 -30.6643
   -30.0417 -30.0054 -29.9761 -29.8693 -15.1276 -15.1028 -14.9860 -14.9704
   -14.8664 -14.8435 -14.7950 -14.6681 -14.1780 -14.1643 -14.1351 -14.1117
   -14.0948 -14.0715 -14.0562 -14.0428 -14.0198 -14.0146 -14.0004 -13.9240
   -13.9178 -13.8679 -13.8522 -13.8286 -13.7455 -13.6535 -13.5357 -13.5080
   -13.3463 -13.3065 -13.2361 -13.2130 -13.1767 -13.1720 -13.1624 -13.1498
   -13.1434 -13.0570 -12.9872 -12.9743 -12.9021 -12.8323 -12.8031 -12.7932
   -12.7847 -12.7263 -12.6037 -12.5057 -12.4905 -12.3686 -12.2507 -12.2402
   -11.9733 -11.9683 -11.9547 -11.9370 -11.9206 -11.8856 -11.8708 -11.8312
   -11.7740 -11.7539 -11.7473 -11.6972 -11.6947  -2.4201  -2.3460  -2.3356
    -2.2645  -2.2268  -2.1479  -2.0798  -1.9535  -1.8400  -1.8099  -1.7696
    -1.7134  -1.6413  -1.6235  -1.5564  -1.5127  -1.3940  -1.3643  -1.3149
    -1.2909  -1.2262  -1.1773  -1.1590  -1.1469  -1.0904  -1.0510  -1.0303
    -0.9196  -0.8643  -0.8171  -0.7664  -0.7353  -0.7232  -0.6886  -0.6440
    -0.6076  -0.5988  -0.5157  -0.4464  -0.4072  -0.3738  -0.3058  -0.2369
    -0.2258  -0.1674  -0.1396  -0.1335  -0.1230   0.3437   0.4024   0.4879
     0.5044   0.8803   0.8963   0.9312   0.9616   1.2328   1.2526   1.2579
     1.2958   1.4239   1.5138   1.5439   1.5801   1.6183   1.6317   1.6385
     1.6704   1.6897   1.7084   1.7208   1.7531   1.7580   1.7873   1.8237
     1.8270   1.8463   1.8846   1.9036   1.9191   1.9490   1.9816   2.0383
     2.1052   2.3676   2.4001   2.4186   2.4373   2.4453   2.4597   2.4810
     2.5020   2.5087   2.5290   2.5377   2.5592   2.5640   2.6180   2.6279
     2.6325   2.6335   2.6582   2.6687   2.6859   2.7040   2.7055   2.7186
     2.8194   2.8261   2.8498   2.8606   3.8158   3.8493   3.8854   3.9149
     4.1201   4.1947   4.2188   4.4607   4.5824   4.6644   4.7984   4.9051
     4.9178   5.0100   5.1531   5.2397   5.7991   5.8270   5.8877   6.0025
     6.5761   6.8731   6.9746   7.7509   7.8221   7.8357   7.9159   8.0597
     8.1550   8.1647   8.2380   8.3232   8.4258   8.4480   8.4713   8.4875
     8.5373   8.5902

     occupation numbers 
     1.0000   1.0000   1.0000   1.0000   1.0000   1.0000   1.0000   1.0000
     1.0000   1.0000   1.0000   1.0000   1.0000   1.0000   1.0000   1.0000
     1.0000   1.0000   1.0000   1.0000   1.0000   1.0000   1.0000   1.0000
     1.0000   1.0000   1.0000   1.0000   1.0000   1.0000   1.0000   1.0000
     1.0000   1.0000   1.0000   1.0000   1.0000   1.0000   1.0000   1.0000
     1.0000   1.0000   1.0000   1.0000   1.0000   1.0000   1.0000   1.0000
     1.0000   1.0000   1.0000   1.0000   1.0000   1.0000   1.0000   1.0000
     1.0000   1.0000   1.0000   1.0000   1.0000   1.0000   1.0000   1.0000
     1.0000   1.0000   1.0000   1.0000   1.0000   1.0000   1.0000   1.0000
     1.0000   1.0000   1.0000   1.0000   1.0000   1.0000   1.0000   1.0000
     1.0000   1.0000   1.0000   1.0000   1.0000   1.0000   1.0000   1.0000
     1.0000   1.0000   1.0000   1.0000   1.0000   1.0000   1.0000   1.0000
     1.0000   1.0000   1.0000   1.0000   1.0000   1.0000   1.0000   1.0000
     1.0000   1.0000   1.0000   1.0000   1.0000   1.0000   1.0000   1.0000
     1.0000   1.0000   1.0000   1.0000   1.0000   1.0000   1.0000   1.0000
     1.0000   1.0000   1.0000   1.0000   1.0000   1.0000   1.0000   1.0000
     1.0000   1.0000   1.0000   1.0000   1.0000   1.0000   1.0000   1.0000
     1.0000   1.0000   1.0000   1.0000   1.0000   1.0000   1.0000   1.0000
     1.0000   1.0000   1.0000   1.0000   1.0000   1.0000   1.0000   1.0000
     1.0000   1.0000   1.0000   1.0000   1.0000   1.0000   1.0000   1.0000
     1.0000   0.9996   0.9995   0.9994   0.9993   0.9975   0.9973   0.9972
     0.9967   0.9943   0.9917   0.9906   0.9892   0.9875   0.9868   0.9865
     0.9847   0.9836   0.9824   0.9816   0.9793   0.9790   0.9767   0.9735
     0.9732   0.9714   0.9675   0.9654   0.9636   0.9599   0.9555   0.9470
     0.9354   0.8702   0.8598   0.8535   0.8471   0.8443   0.8391   0.8312
     0.8233   0.8207   0.8127   0.8092   0.8004   0.7984   0.7751   0.7707
     0.7685   0.7681   0.7568   0.7519   0.7437   0.7350   0.7343   0.7278
     0.6760   0.6724   0.6596   0.6537   0.1532   0.1417   0.1300   0.1210
     0.0701   0.0564   0.0525   0.0238   0.0153   0.0112   0.0065   0.0041
     0.0039   0.0026   0.0013   0.0009   0.0000   0.0000   0.0000   0.0000
     0.0000   0.0000   0.0000   0.0000   0.0000   0.0000   0.0000   0.0000
     0.0000   0.0000   0.0000   0.0000   0.0000   0.0000   0.0000   0.0000
     0.0000   0.0000

          k = 0.2500 0.0000 0.0000 ( 65257 PWs)   bands (ev):

   -92.9020 -92.8522 -92.7560 -92.7116 -92.6521 -92.6089 -92.5909 -92.4712
   -56.2556 -56.2391 -56.1128 -56.1023 -56.0972 -56.0892 -56.0546 -56.0249
   -56.0098 -56.0089 -56.0030 -55.9583 -55.9430 -55.9029 -55.8828 -55.8521
   -55.8467 -55.7968 -55.7962 -55.7936 -55.7852 -55.7461 -55.7210 -55.6368
   -31.4629 -31.4471 -31.3016 -31.2473 -31.2166 -31.1153 -30.9376 -30.6641
   -30.0440 -30.0049 -29.9753 -29.8682 -15.2450 -15.1995 -15.1305 -14.9846
   -14.8699 -14.6798 -14.5473 -14.3685 -14.3515 -14.3197 -14.2863 -14.2649
   -14.2280 -14.2116 -14.1876 -14.1246 -14.0323 -13.9995 -13.8524 -13.7774
   -13.7689 -13.7051 -13.6864 -13.6709 -13.5853 -13.5350 -13.4976 -13.3906
   -13.3460 -13.3320 -13.2477 -13.2340 -13.2210 -13.2077 -13.1862 -13.1547
   -13.1192 -13.0603 -13.0078 -12.9645 -12.9562 -12.9352 -12.8985 -12.8893
   -12.8721 -12.6169 -12.5944 -12.5881 -12.5467 -12.4370 -12.1902 -12.1348
   -12.0237 -11.9720 -11.9697 -11.9542 -11.9415 -11.9145 -11.8633 -11.8403
   -11.8316 -11.7793 -11.6913 -11.6369 -11.6310  -3.0023  -2.7816  -2.6512
    -2.4785  -2.4147  -2.2463  -2.0360  -1.9616  -1.9185  -1.8811  -1.7799
    -1.7655  -1.7312  -1.7118  -1.6413  -1.4617  -1.3523  -1.3139  -1.2153
    -1.2008  -1.1272  -1.1002  -1.0469  -1.0067  -0.9544  -0.9214  -0.8750
    -0.8485  -0.8257  -0.7737  -0.7585  -0.6686  -0.6606  -0.5884  -0.4916
    -0.4363  -0.3194  -0.3105  -0.2376  -0.1958  -0.1484  -0.1127  -0.0810
    -0.0199   0.0212   0.3094   0.4388   0.4723   0.5601   0.5951   0.6248
     0.6409   0.7121   0.8251   0.8724   0.8995   0.9356   1.0880   1.1181
[...]
     0.6337   0.6207   0.6184   0.6135   0.6102   0.6043   0.5988   0.5230
     0.3492   0.3189   0.2027   0.0755   0.0439   0.0205   0.0048   0.0029
     0.0002   0.0001   0.0000   0.0000   0.0000   0.0000   0.0000   0.0000
     0.0000   0.0000   0.0000   0.0000   0.0000   0.0000   0.0000   0.0000
     0.0000   0.0000   0.0000   0.0000   0.0000   0.0000   0.0000   0.0000
     0.0000   0.0000

          k =-0.5000 0.0000 0.0000 ( 65180 PWs)   bands (ev):

   -92.9020 -92.8522 -92.7560 -92.7116 -92.6521 -92.6089 -92.5909 -92.4712
   -56.2556 -56.2391 -56.1128 -56.1023 -56.0972 -56.0892 -56.0546 -56.0249
   -56.0098 -56.0089 -56.0030 -55.9583 -55.9430 -55.9029 -55.8828 -55.8521
   -55.8467 -55.7968 -55.7962 -55.7936 -55.7852 -55.7461 -55.7210 -55.6368
   -31.4607 -31.4493 -31.3012 -31.2471 -31.2170 -31.1156 -30.9375 -30.6642
   -30.0429 -30.0061 -29.9749 -29.8686 -15.2107 -15.1580 -15.0961 -14.9758
   -14.8839 -14.7383 -14.5937 -14.4291 -14.3279 -14.3084 -14.3039 -14.2402
   -14.1835 -14.1537 -14.1030 -14.0834 -14.0706 -14.0278 -13.9859 -13.8865
   -13.7500 -13.7138 -13.6891 -13.6817 -13.5746 -13.5571 -13.4839 -13.4532
   -13.4301 -13.3960 -13.2413 -13.2310 -13.2117 -13.2002 -13.1697 -13.1340
   -13.1157 -13.0934 -12.9460 -12.9047 -12.8953 -12.8811 -12.8552 -12.8285
   -12.8192 -12.7291 -12.5953 -12.5151 -12.4947 -12.3577 -12.2903 -12.2697
   -11.9758 -11.9716 -11.9534 -11.9457 -11.9341 -11.9151 -11.8733 -11.8101
   -11.7907 -11.7561 -11.7153 -11.7065 -11.6906  -2.7782  -2.7398  -2.5774
    -2.5374  -2.2225  -2.1478  -2.0020  -1.8830  -1.8440  -1.7984  -1.7516
    -1.7271  -1.6012  -1.5588  -1.5414  -1.4606  -1.4243  -1.4077  -1.3778
    -1.3160  -1.2504  -1.2235  -1.1877  -1.0911  -1.0505  -1.0016  -0.9679
    -0.9473  -0.9143  -0.8674  -0.8426  -0.8003  -0.7017  -0.6305  -0.5598
    -0.4999  -0.3230  -0.2989  -0.2512  -0.2044  -0.1414  -0.1314   0.0123
     0.0393   0.0784   0.2438   0.3437   0.3960   0.4855   0.5673   0.6694
     0.6855   0.8200   0.8391   0.8916   0.9259   0.9574   0.9722   1.0184
     1.0374   1.1099   1.1590   1.2033   1.2156   1.5166   1.5299   1.5486
     1.5776   1.6708   1.6834   1.7050   1.7089   1.7377   1.7515   1.7883
     1.8023   1.8388   1.8807   1.9050   1.9532   1.9797   2.0281   2.1416
     2.2509   2.3081   2.3242   2.3989   2.4271   2.4556   2.5072   2.5264
     2.5336   2.5413   2.5706   2.6217   2.6298   2.6438   2.6871   2.7373
     2.7614   2.8019   2.8080   2.8100   2.8198   2.8348   2.8466   2.8589
     2.8644   2.8880   2.8897   2.9126   2.9305   2.9367   3.0663   3.0732
     3.8741   3.9414   4.0119   4.1478   4.5997   4.6855   4.8675   4.9123
     5.3548   5.3927   5.4700   5.5066   5.8431   5.8527   6.3061   6.6637
     6.7247   6.9343   7.1902   7.2407   7.6055   7.6443   7.6676   7.7474
     7.7990   7.9646   8.1225   8.2395   8.3490   8.3765   8.4639   8.4961
     8.6212   8.8030

     occupation numbers 
     1.0000   1.0000   1.0000   1.0000   1.0000   1.0000   1.0000   1.0000
     1.0000   1.0000   1.0000   1.0000   1.0000   1.0000   1.0000   1.0000
     1.0000   1.0000   1.0000   1.0000   1.0000   1.0000   1.0000   1.0000
     1.0000   1.0000   1.0000   1.0000   1.0000   1.0000   1.0000   1.0000
     1.0000   1.0000   1.0000   1.0000   1.0000   1.0000   1.0000   1.0000
     1.0000   1.0000   1.0000   1.0000   1.0000   1.0000   1.0000   1.0000
     1.0000   1.0000   1.0000   1.0000   1.0000   1.0000   1.0000   1.0000
     1.0000   1.0000   1.0000   1.0000   1.0000   1.0000   1.0000   1.0000
     1.0000   1.0000   1.0000   1.0000   1.0000   1.0000   1.0000   1.0000
     1.0000   1.0000   1.0000   1.0000   1.0000   1.0000   1.0000   1.0000
     1.0000   1.0000   1.0000   1.0000   1.0000   1.0000   1.0000   1.0000
     1.0000   1.0000   1.0000   1.0000   1.0000   1.0000   1.0000   1.0000
     1.0000   1.0000   1.0000   1.0000   1.0000   1.0000   1.0000   1.0000
     1.0000   1.0000   1.0000   1.0000   1.0000   1.0000   1.0000   1.0000
     1.0000   1.0000   1.0000   1.0000   1.0000   1.0000   1.0000   1.0000
     1.0000   1.0000   1.0000   1.0000   1.0000   1.0000   1.0000   1.0000
     1.0000   1.0000   1.0000   1.0000   1.0000   1.0000   1.0000   1.0000
     1.0000   1.0000   1.0000   1.0000   1.0000   1.0000   1.0000   1.0000
     1.0000   1.0000   1.0000   1.0000   1.0000   1.0000   1.0000   1.0000
     1.0000   1.0000   1.0000   1.0000   1.0000   1.0000   0.9999   0.9999
     0.9999   0.9997   0.9997   0.9995   0.9995   0.9994   0.9993   0.9991
     0.9990   0.9986   0.9983   0.9979   0.9977   0.9916   0.9911   0.9905
     0.9893   0.9847   0.9840   0.9826   0.9824   0.9804   0.9794   0.9766
     0.9754   0.9721   0.9679   0.9652   0.9593   0.9558   0.9486   0.9283
     0.9033   0.8880   0.8834   0.8601   0.8506   0.8406   0.8213   0.8137
     0.8108   0.8077   0.7956   0.7734   0.7698   0.7634   0.7432   0.7185
     0.7063   0.6853   0.6821   0.6810   0.6758   0.6678   0.6614   0.6547
     0.6517   0.6386   0.6377   0.6248   0.6147   0.6112   0.5359   0.5318
     0.1336   0.1132   0.0944   0.0648   0.0144   0.0103   0.0049   0.0040
     0.0005   0.0004   0.0003   0.0002   0.0000   0.0000   0.0000   0.0000
     0.0000   0.0000   0.0000   0.0000   0.0000   0.0000   0.0000   0.0000
     0.0000   0.0000   0.0000   0.0000   0.0000   0.0000   0.0000   0.0000
     0.0000   0.0000

          k =-0.2500 0.2500 0.0000 ( 65198 PWs)   bands (ev):

   -92.9020 -92.8522 -92.7560 -92.7116 -92.6521 -92.6089 -92.5909 -92.4712
   -56.2556 -56.2391 -56.1128 -56.1023 -56.0972 -56.0892 -56.0546 -56.0249
   -56.0098 -56.0089 -56.0030 -55.9583 -55.9430 -55.9029 -55.8828 -55.8521
   -55.8467 -55.7968 -55.7962 -55.7936 -55.7852 -55.7461 -55.7210 -55.6368
   -31.4628 -31.4470 -31.3018 -31.2473 -31.2167 -31.1152 -30.9378 -30.6642
   -30.0434 -30.0046 -29.9759 -29.8685 -15.2136 -15.1685 -15.0956 -14.9796
   -14.8609 -14.7361 -14.6554 -14.4421 -14.3078 -14.2804 -14.2635 -14.2175
   -14.1942 -14.1673 -14.1438 -14.0895 -14.0267 -14.0165 -13.8635 -13.8368
   -13.8057 -13.7863 -13.7292 -13.6906 -13.6250 -13.5938 -13.4571 -13.4171
   -13.3988 -13.3339 -13.2903 -13.2283 -13.2012 -13.1792 -13.1657 -13.1308
   -13.1140 -13.0620 -13.0131 -12.9784 -12.9587 -12.8913 -12.8780 -12.8136
   -12.7940 -12.6316 -12.6291 -12.5861 -12.4708 -12.4568 -12.2062 -12.1898
   -11.9956 -11.9775 -11.9682 -11.9460 -11.9338 -11.8939 -11.8590 -11.8366
   -11.8130 -11.7911 -11.7059 -11.6624 -11.6524  -2.8626  -2.6556  -2.5341
    -2.4450  -2.3279  -2.2623  -2.0570  -1.9139  -1.8964  -1.8653  -1.7731
    -1.7385  -1.6429  -1.6087  -1.5830  -1.4409  -1.3839  -1.3161  -1.2881
    -1.2264  -1.2066  -1.1666  -1.1384  -1.0978  -1.0347  -0.9844  -0.9208
    -0.8518  -0.8248  -0.7775  -0.7484  -0.7003  -0.6445  -0.5954  -0.5584
    -0.4529  -0.4249  -0.4092  -0.3685  -0.3021  -0.2138  -0.1830  -0.1498
    -0.0698  -0.0510   0.1984   0.3710   0.4071   0.4510   0.5171   0.5708
     0.6225   0.6851   0.7169   0.9940   1.0963   1.1390   1.1706   1.1787
     1.2199   1.2351   1.2797   1.3128   1.3247   1.3494   1.4001   1.4172
     1.4548   1.4760   1.5223   1.6283   1.6362   1.6521   1.6953   1.7196
     1.7589   1.8159   1.9149   2.0191   2.0405   2.0887   2.1089   2.1758
     2.2140   2.2394   2.2692   2.2889   2.3877   2.4224   2.4961   2.5152
     2.6231   2.6269   2.6864   2.6941   2.7082   2.7169   2.7293   2.7440
     2.7500   2.7691   2.7763   2.7900   2.7990   2.8113   2.8206   2.8307
     2.8633   2.8730   2.8816   2.9142   3.2053   3.2876   3.3568   3.4365
     3.4621   3.6501   3.7649   4.1187   4.3262   4.5384   4.8028   5.1190
     5.4874   5.5421   5.5868   5.6379   5.7050   6.0944   6.1254   6.1624
     6.8252   7.0843   7.2597   7.3910   7.4515   7.4729   7.5553   7.7558
     7.9034   8.1279   8.1866   8.2264   8.3136   8.4214   8.4631   8.4880
     8.5525   8.6393

     occupation numbers 
     1.0000   1.0000   1.0000   1.0000   1.0000   1.0000   1.0000   1.0000
     1.0000   1.0000   1.0000   1.0000   1.0000   1.0000   1.0000   1.0000
     1.0000   1.0000   1.0000   1.0000   1.0000   1.0000   1.0000   1.0000
     1.0000   1.0000   1.0000   1.0000   1.0000   1.0000   1.0000   1.0000
     1.0000   1.0000   1.0000   1.0000   1.0000   1.0000   1.0000   1.0000
     1.0000   1.0000   1.0000   1.0000   1.0000   1.0000   1.0000   1.0000
     1.0000   1.0000   1.0000   1.0000   1.0000   1.0000   1.0000   1.0000
     1.0000   1.0000   1.0000   1.0000   1.0000   1.0000   1.0000   1.0000
     1.0000   1.0000   1.0000   1.0000   1.0000   1.0000   1.0000   1.0000
     1.0000   1.0000   1.0000   1.0000   1.0000   1.0000   1.0000   1.0000
     1.0000   1.0000   1.0000   1.0000   1.0000   1.0000   1.0000   1.0000
     1.0000   1.0000   1.0000   1.0000   1.0000   1.0000   1.0000   1.0000
     1.0000   1.0000   1.0000   1.0000   1.0000   1.0000   1.0000   1.0000
     1.0000   1.0000   1.0000   1.0000   1.0000   1.0000   1.0000   1.0000
     1.0000   1.0000   1.0000   1.0000   1.0000   1.0000   1.0000   1.0000
     1.0000   1.0000   1.0000   1.0000   1.0000   1.0000   1.0000   1.0000
     1.0000   1.0000   1.0000   1.0000   1.0000   1.0000   1.0000   1.0000
     1.0000   1.0000   1.0000   1.0000   1.0000   1.0000   1.0000   1.0000
     1.0000   1.0000   1.0000   1.0000   1.0000   1.0000   1.0000   1.0000
     1.0000   1.0000   1.0000   1.0000   1.0000   1.0000   0.9999   0.9999
     0.9999   0.9999   0.9998   0.9992   0.9987   0.9984   0.9982   0.9981
     0.9977   0.9975   0.9970   0.9965   0.9963   0.9958   0.9948   0.9944
     0.9935   0.9929   0.9914   0.9870   0.9866   0.9857   0.9832   0.9817
     0.9789   0.9742   0.9640   0.9500   0.9466   0.9384   0.9347   0.9211
     0.9124   0.9062   0.8986   0.8933   0.8638   0.8522   0.8255   0.8182
     0.7728   0.7711   0.7435   0.7398   0.7329   0.7287   0.7225   0.7152
     0.7121   0.7024   0.6987   0.6916   0.6868   0.6803   0.6754   0.6700
     0.6522   0.6469   0.6422   0.6239   0.4536   0.4057   0.3664   0.3229
     0.3094   0.2186   0.1717   0.0704   0.0375   0.0180   0.0064   0.0015
     0.0002   0.0002   0.0001   0.0001   0.0001   0.0000   0.0000   0.0000
     0.0000   0.0000   0.0000   0.0000   0.0000   0.0000   0.0000   0.0000
     0.0000   0.0000   0.0000   0.0000   0.0000   0.0000   0.0000   0.0000
     0.0000   0.0000

          k =-0.5000 0.2500 0.0000 ( 65138 PWs)   bands (ev):

   -92.9020 -92.8522 -92.7560 -92.7116 -92.6521 -92.6089 -92.5909 -92.4712
   -56.2556 -56.2391 -56.1128 -56.1023 -56.0972 -56.0892 -56.0546 -56.0249
   -56.0098 -56.0089 -56.0030 -55.9583 -55.9430 -55.9029 -55.8828 -55.8521
   -55.8467 -55.7968 -55.7962 -55.7936 -55.7852 -55.7461 -55.7210 -55.6368
   -31.4606 -31.4492 -31.3014 -31.2471 -31.2171 -31.1154 -30.9377 -30.6643
   -30.0423 -30.0057 -29.9755 -29.8690 -15.1778 -15.1316 -15.0533 -14.9469
   -14.9065 -14.7864 -14.6958 -14.5552 -14.2593 -14.2291 -14.2165 -14.1724
   -14.1470 -14.1244 -14.0894 -14.0683 -14.0519 -14.0152 -13.9889 -13.8835
   -13.8300 -13.7814 -13.7741 -13.7563 -13.6591 -13.6148 -13.5098 -13.4520
   -13.3878 -13.3520 -13.2541 -13.2154 -13.2038 -13.1829 -13.1577 -13.1319
   -13.1250 -13.0793 -12.9797 -12.9452 -12.8863 -12.8536 -12.8269 -12.8097
   -12.8021 -12.7273 -12.5976 -12.5106 -12.4937 -12.3666 -12.2684 -12.2546
   -11.9753 -11.9646 -11.9550 -11.9414 -11.9280 -11.9087 -11.8785 -11.7952
   -11.7886 -11.7641 -11.7292 -11.7021 -11.6925  -2.6351  -2.5938  -2.4468
    -2.4037  -2.2417  -2.1663  -2.0260  -1.8885  -1.8329  -1.8058  -1.7677
    -1.7294  -1.6477  -1.5316  -1.4744  -1.4509  -1.4253  -1.3478  -1.3197
    -1.2803  -1.2643  -1.2042  -1.1712  -1.1358  -1.1010  -1.0718  -1.0131
    -0.9835  -0.9405  -0.9070  -0.8032  -0.7746  -0.6830  -0.6222  -0.5944
    -0.5348  -0.4528  -0.4138  -0.3194  -0.2665  -0.2171  -0.1581  -0.1374
    -0.0691  -0.0429  -0.0102   0.0352   0.0781   0.3982   0.4756   0.5332
     0.5490   0.8325   0.8886   0.9630   0.9850   1.1594   1.1945   1.2323
     1.2400   1.2591   1.2779   1.3463   1.3950   1.4395   1.4654   1.6040
     1.6360   1.6559   1.6686   1.7183   1.7346   1.7501   1.7625   1.7804
     1.8057   1.8510   1.8589   1.8974   1.9231   1.9572   2.0054   2.1307
     2.2282   2.2568   2.3240   2.3543   2.4166   2.4496   2.4592   2.4982
     2.5084   2.5319   2.5570   2.6204   2.6276   2.6430   2.6845   2.6955
     2.7027   2.7228   2.7436   2.7558   2.7705   2.7885   2.8072   2.8196
     2.8281   2.8360   2.8466   2.8590   3.3895   3.4440   3.5763   3.5986
     3.8809   3.9638   4.0153   4.2234   4.5922   4.6979   4.8597   4.9258
     5.2185   5.2496   5.4790   5.5579   5.6000   5.6281   6.3250   6.4006
     6.4464   6.7512   7.3185   7.5894   7.6571   7.7152   7.7662   7.7996
     7.8977   8.0794   8.2650   8.2983   8.4106   8.4358   8.4886   8.5480
     8.6485   8.6883

     occupation numbers 
     1.0000   1.0000   1.0000   1.0000   1.0000   1.0000   1.0000   1.0000
     1.0000   1.0000   1.0000   1.0000   1.0000   1.0000   1.0000   1.0000
     1.0000   1.0000   1.0000   1.0000   1.0000   1.0000   1.0000   1.0000
     1.0000   1.0000   1.0000   1.0000   1.0000   1.0000   1.0000   1.0000
     1.0000   1.0000   1.0000   1.0000   1.0000   1.0000   1.0000   1.0000
     1.0000   1.0000   1.0000   1.0000   1.0000   1.0000   1.0000   1.0000
     1.0000   1.0000   1.0000   1.0000   1.0000   1.0000   1.0000   1.0000
     1.0000   1.0000   1.0000   1.0000   1.0000   1.0000   1.0000   1.0000
     1.0000   1.0000   1.0000   1.0000   1.0000   1.0000   1.0000   1.0000
     1.0000   1.0000   1.0000   1.0000   1.0000   1.0000   1.0000   1.0000
     1.0000   1.0000   1.0000   1.0000   1.0000   1.0000   1.0000   1.0000
     1.0000   1.0000   1.0000   1.0000   1.0000   1.0000   1.0000   1.0000
     1.0000   1.0000   1.0000   1.0000   1.0000   1.0000   1.0000   1.0000
     1.0000   1.0000   1.0000   1.0000   1.0000   1.0000   1.0000   1.0000
     1.0000   1.0000   1.0000   1.0000   1.0000   1.0000   1.0000   1.0000
     1.0000   1.0000   1.0000   1.0000   1.0000   1.0000   1.0000   1.0000
     1.0000   1.0000   1.0000   1.0000   1.0000   1.0000   1.0000   1.0000
     1.0000   1.0000   1.0000   1.0000   1.0000   1.0000   1.0000   1.0000
     1.0000   1.0000   1.0000   1.0000   1.0000   1.0000   1.0000   1.0000
     1.0000   1.0000   1.0000   1.0000   1.0000   1.0000   1.0000   0.9999
     0.9999   0.9997   0.9996   0.9993   0.9993   0.9983   0.9979   0.9975
     0.9975   0.9972   0.9970   0.9959   0.9949   0.9939   0.9932   0.9881
     0.9866   0.9855   0.9848   0.9818   0.9807   0.9795   0.9786   0.9772
     0.9751   0.9709   0.9701   0.9661   0.9631   0.9588   0.9521   0.9305
     0.9090   0.9018   0.8834   0.8744   0.8542   0.8427   0.8393   0.8247
     0.8208   0.8115   0.8013   0.7740   0.7708   0.7638   0.7444   0.7391
     0.7356   0.7257   0.7154   0.7092   0.7017   0.6924   0.6825   0.6759
     0.6714   0.6671   0.6614   0.6546   0.3483   0.3189   0.2523   0.2418
     0.1314   0.1070   0.0936   0.0517   0.0148   0.0098   0.0050   0.0038
     0.0009   0.0008   0.0002   0.0002   0.0001   0.0001   0.0000   0.0000
     0.0000   0.0000   0.0000   0.0000   0.0000   0.0000   0.0000   0.0000
     0.0000   0.0000   0.0000   0.0000   0.0000   0.0000   0.0000   0.0000
     0.0000   0.0000

     the Fermi energy is     3.1269 ev

!    total energy              =   -4440.31750621 Ry
     estimated scf accuracy    <          7.1E-09 Ry
     smearing contrib. (-TS)   =      -1.20817493 Ry
     internal energy E=F+TS    =   -4439.10933128 Ry

     The total energy is F=E-TS. E is the sum of the following terms:
     one-electron contribution =  -20890.17368922 Ry
     hartree contribution      =   10573.88347973 Ry
     xc contribution           =    -693.25837073 Ry
     ewald contribution        =    6846.62968149 Ry
     one-center paw contrib.   =    -276.19043255 Ry
      -> PAW hartree energy AE =      25.11203166 Ry
      -> PAW hartree energy PS =     -24.99645967 Ry
      -> PAW xc energy AE      =     -16.51023023 Ry
      -> PAW xc energy PS      =       6.86935718 Ry
      -> total E_H with PAW    =   10573.99905171 Ry
      -> total E_XC with PAW   =    -702.89924377 Ry

     convergence has been achieved in  47 iterations

     Writing all to output data dir /bsuhome/zayahcortright/scratch/pwscf.save/
 
     init_run     :      7.82s CPU      8.45s WALL (       1 calls)
     electrons    :    673.37s CPU    704.98s WALL (       1 calls)

     Called by init_run:
     wfcinit      :      6.21s CPU      6.43s WALL (       1 calls)
     wfcinit:atom :      0.05s CPU      0.06s WALL (       5 calls)
     wfcinit:wfcr :      5.87s CPU      6.02s WALL (       5 calls)
     potinit      :      0.21s CPU      0.23s WALL (       1 calls)
     hinit0       :      0.54s CPU      0.65s WALL (       1 calls)

     Called by electrons:
     c_bands      :    533.05s CPU    539.35s WALL (      47 calls)
     sum_band     :    105.46s CPU    119.34s WALL (      47 calls)
     v_of_rho     :      5.14s CPU      5.49s WALL (      48 calls)
     v_h          :      0.41s CPU      0.41s WALL (      48 calls)
     v_xc         :      4.73s CPU      5.08s WALL (      48 calls)
     newd         :     15.65s CPU     26.39s WALL (      48 calls)
     PAW_pot      :      1.53s CPU      1.55s WALL (      48 calls)
     mix_rho      :     12.16s CPU     12.50s WALL (      47 calls)

     Called by c_bands:
     init_us_2    :      6.47s CPU      6.56s WALL (     475 calls)
     init_us_2:cp :      6.46s CPU      6.56s WALL (     475 calls)
     cegterg      :    504.45s CPU    510.49s WALL (     235 calls)

     Called by sum_band:
     sum_band:wei :      0.35s CPU      0.35s WALL (      47 calls)
     sum_band:loo :     88.63s CPU     89.34s WALL (      47 calls)
     sum_band:buf :      1.33s CPU      1.40s WALL (     235 calls)
     sum_band:ini :      2.95s CPU      2.98s WALL (     235 calls)
     sum_band:cal :     18.61s CPU     18.66s WALL (     235 calls)
     sum_band:bec :      0.52s CPU      0.53s WALL (     235 calls)
     addusdens    :     15.15s CPU     28.26s WALL (      47 calls)
                                        0.00s GPU  (      47 calls)
     addusd:skk   :      0.30s CPU      0.90s WALL (     141 calls)
                                        0.00s GPU  (     141 calls)

     Called by *egterg:
     cdiaghg      :     52.21s CPU     52.43s WALL (    1211 calls)
     cegterg:over :     36.96s CPU     37.11s WALL (     976 calls)
     cegterg:upda :     26.63s CPU     27.15s WALL (     976 calls)
     cegterg:last :     55.15s CPU     55.39s WALL (     421 calls)
     cdiaghg:chol :      3.01s CPU      3.03s WALL (    1211 calls)
     cdiaghg:inve :      2.82s CPU      2.83s WALL (    1211 calls)
     cdiaghg:para :      6.84s CPU      6.87s WALL (    2422 calls)
     h_psi        :    281.16s CPU    284.13s WALL (    1216 calls)
     s_psi        :     37.57s CPU     37.68s WALL (    1216 calls)
     g_psi        :      0.99s CPU      0.99s WALL (     976 calls)

     Called by h_psi:
     h_psi:calbec :     42.58s CPU     42.77s WALL (    1216 calls)
     vloc_psi     :    198.36s CPU    200.32s WALL (    1216 calls)
     add_vuspsi   :     37.52s CPU     37.72s WALL (    1216 calls)

     General routines
     calbec       :     61.18s CPU     61.42s WALL (    1451 calls)
     fft          :      3.84s CPU      3.88s WALL (     622 calls)
     ffts         :      4.49s CPU      4.54s WALL (    5009 calls)
     fftw         :    173.01s CPU    174.44s WALL (  315904 calls)
     interpolate  :      0.40s CPU      0.41s WALL (      48 calls)
 
     Parallel routines

     PAW routines
     PAW_pot      :      1.53s CPU      1.55s WALL (      48 calls)
 
     PWSCF        :  11m22.84s CPU  11m58.27s WALL

 
   This run was terminated on:  23:21: 2  21Jun2024            

=------------------------------------------------------------------------------=
   JOB DONE.
=------------------------------------------------------------------------------=
