
     Program PWSCF v.7.2 starts on 22Jun2024 at  0:52: 7 

     This program is part of the open-source Quantum ESPRESSO suite
     for quantum simulation of materials; please cite
         "P. Giannozzi et al., J. Phys.:Condens. Matter 21 395502 (2009);
         "P. Giannozzi et al., J. Phys.:Condens. Matter 29 465901 (2017);
         "P. Giannozzi et al., J. Chem. Phys. 152 154105 (2020);
          URL http://www.quantum-espresso.org", 
     in publications or presentations arising from this work. More details at
     http://www.quantum-espresso.org/quote

     Parallel version (MPI & OpenMP), running on      48 processor cores
     Number of MPI processes:                48
     Threads/MPI process:                     1

     MPI processes distributed on     1 nodes
     33221 MiB available memory on the printing compute node when the environment starts
 
     Reading input from espresso.pwi
Warning: card &CELL ignored
Warning: card / ignored
Warning: card &FCP ignored
Warning: card / ignored
Warning: card &RISM ignored
Warning: card / ignored

     Current dimensions of program PWSCF are:
     Max number of different atomic species (ntypx) = 10
     Max number of k-points (npk) =  40000
     Max angular momentum in pseudopotentials (lmaxx) =  4
     file O.pbe-n-kjpaw_psl.0.1.UPF: wavefunction(s)  2P renormalized
     signal trapping enabled: kill the code with -SIGUSR1 to stop cleanly the simulation 
 
     K-points division:     npool     =       2
     R & G space division:  proc/nbgrp/npool/nimage =      24
     Subspace diagonalization in iterative solution of the eigenvalue problem:
     one sub-group per band group will be used
     scalapack distributed-memory algorithm (size of sub-group:  3*  3 procs)

 
     Parallelization info
     --------------------
     sticks:   dense  smooth     PW     G-vecs:    dense   smooth      PW
     Min         350     175     47                61430    21716    3036
     Max         351     177     48                61449    21727    3041
     Sum        8421    4205   1137              1474595   521381   72913
 
     Using Slab Decomposition
 


     bravais-lattice index     =            0
     lattice parameter (alat)  =      14.8599  a.u.
     unit-cell volume          =    8305.1283 (a.u.)^3
     number of atoms/cell      =           50
     number of atomic types    =            4
     number of electrons       =       431.00
     number of Kohn-Sham states=          259
     kinetic-energy cutoff     =      60.0000  Ry
     charge density cutoff     =     480.0000  Ry
     scf convergence threshold =      1.0E-08
     mixing beta               =       0.1500
     number of iterations used =            8  local-TF  mixing
     Exchange-correlation= PBE
                           (   1   4   3   4   0   0   0)

     celldm(1)=  14.859904  celldm(2)=   0.000000  celldm(3)=   0.000000
     celldm(4)=   0.000000  celldm(5)=   0.000000  celldm(6)=   0.000000

     crystal axes: (cart. coord. in units of alat)
               a(1) = (   1.000000   0.000000   0.000000 )  
               a(2) = (   0.000000   1.000000   0.000000 )  
               a(3) = (   0.000000   0.000000   2.531036 )  

     reciprocal axes: (cart. coord. in units 2 pi/alat)
               b(1) = (  1.000000  0.000000  0.000000 )  
               b(2) = (  0.000000  1.000000  0.000000 )  
               b(3) = (  0.000000  0.000000  0.395095 )  


     PseudoPot. # 1 for Sr read from file:
     /bsuhome/zayahcortright/q-e/pseudo/Sr_pbe_v1.uspp.F.UPF
     MD5 check sum: 6b418c05fbe9db5448babca5e47b7a5b
     Pseudo is Ultrasoft + core correction, Zval = 10.0
     Generated by new atomic code, or converted to UPF format
     Using radial grid of  883 points,  6 beta functions with: 
                l(1) =   0
                l(2) =   0
                l(3) =   1
                l(4) =   1
                l(5) =   2
                l(6) =   2
     Q(r) pseudized with  6 coefficients,  rinner =    1.400   1.400   1.400
                                                       1.400   1.400

     PseudoPot. # 2 for O  read from file:
     /bsuhome/zayahcortright/q-e/pseudo/O.pbe-n-kjpaw_psl.0.1.UPF
     MD5 check sum: 0234752ac141de4415c5fc33072bef88
     Pseudo is Projector augmented-wave + core cor, Zval =  6.0
     Generated using "atomic" code by A. Dal Corso  v.5.0.99 svn rev. 10869
     Shape of augmentation charge: BESSEL
     Using radial grid of 1095 points,  4 beta functions with: 
                l(1) =   0
                l(2) =   0
                l(3) =   1
                l(4) =   1
     Q(r) pseudized with 0 coefficients 


     PseudoPot. # 3 for Co read from file:
     /bsuhome/zayahcortright/q-e/pseudo/Co_pbe_v1.2.uspp.F.UPF
     MD5 check sum: 5f91765df6ddd3222702df6e7b74a16d
     Pseudo is Ultrasoft + core correction, Zval = 17.0
     Generated by new atomic code, or converted to UPF format
     Using radial grid of  863 points,  6 beta functions with: 
                l(1) =   0
                l(2) =   0
                l(3) =   1
                l(4) =   1
                l(5) =   2
                l(6) =   2
     Q(r) pseudized with  8 coefficients,  rinner =    1.200   1.200   1.200
                                                       1.200   1.200

     PseudoPot. # 4 for H  read from file:
     /bsuhome/zayahcortright/q-e/pseudo/H.pbe-rrkjus_psl.1.0.0.UPF
     MD5 check sum: f52b6d4d1c606e5624b1dc7b2218f220
     Pseudo is Ultrasoft, Zval =  1.0
     Generated using "atomic" code by A. Dal Corso  v.5.1
     Using radial grid of  929 points,  2 beta functions with: 
                l(1) =   0
                l(2) =   0
     Q(r) pseudized with 0 coefficients 


     atomic species   valence    mass     pseudopotential
        Sr            10.00    87.62000     Sr( 1.00)
        O              6.00    15.99900     O ( 1.00)
        Co            17.00    58.93319     Co( 1.00)
        H              1.00     1.00800     H ( 1.00)

     No symmetry found


                                    s                        frac. trans.

      isym =  1     identity                                     

 cryst.   s( 1) = (     1          0          0      )
                  (     0          1          0      )
                  (     0          0          1      )

 cart.    s( 1) = (  1.0000000  0.0000000  0.0000000 )
                  (  0.0000000  1.0000000  0.0000000 )
                  (  0.0000000  0.0000000  1.0000000 )


   Cartesian axes

     site n.     atom                  positions (alat units)
         1           Sr  tau(   1) = (   0.2508693   0.7491307   1.7574407  )
         2           O   tau(   2) = (   0.4985141   0.5014859   1.7715967  )
         3           Sr  tau(   3) = (   0.7482398   0.7454518   1.7648669  )
         4           Sr  tau(   4) = (   0.7441748   0.2558252   1.7667843  )
         5           Sr  tau(   5) = (   0.2508693   0.7491307   1.2696799  )
         6           Sr  tau(   6) = (   0.2508693   0.7491307   0.7632319  )
         7           Co  tau(   7) = (   0.4998914   0.5001086   1.0164559  )
         8           Co  tau(   8) = (   0.4936915   0.5063085   1.5135603  )
         9           O   tau(   9) = (   0.4988895   0.7610401   1.0164559  )
        10           O   tau(  10) = (   0.2389599   0.5011105   1.0164559  )
        11           O   tau(  11) = (   0.0070918   0.7374880   1.0164559  )
        12           O   tau(  12) = (   0.0088340   0.7405089   1.5135603  )
        13           O   tau(  13) = (   0.5066944   0.7415376   1.5135603  )
        14           O   tau(  14) = (   0.2584624   0.4933056   1.5135603  )
        15           O   tau(  15) = (   0.4985141   0.5014859   0.7773880  )
        16           O   tau(  16) = (   0.4985141   0.5014859   1.2555238  )
        17           Sr  tau(  17) = (   0.7482398   0.7454518   0.7706582  )
        18           Sr  tau(  18) = (   0.7482398   0.7454518   1.2622536  )
        19           Sr  tau(  19) = (   0.7441748   0.2558252   0.7725755  )
        20           Sr  tau(  20) = (   0.7441748   0.2558252   1.2603363  )
        21           O   tau(  21) = (   0.7322655   0.0078049   1.5135603  )
        22           O   tau(  22) = (   0.7558175   0.4996027   1.5135603  )
        23           O   tau(  23) = (   0.5003973   0.2441825   1.5135603  )
        24           O   tau(  24) = (   0.7527966   0.4978604   1.0164559  )
        25           O   tau(  25) = (   0.5021396   0.2472034   1.0164559  )
        26           O   tau(  26) = (   0.7517679   0.0000000   1.0164559  )
        27           O   tau(  27) = (   0.0114961   0.4948124   1.7455321  )
        28           O   tau(  28) = (   0.0048226   0.0077944   1.7715967  )
        29           Sr  tau(  29) = (   0.2545482   0.2517602   1.7648669  )
        30           O   tau(  30) = (   0.5048017   0.0015068   1.7786929  )
        31           Co  tau(  31) = (   0.0056869   0.5006215   1.0164559  )
        32           Co  tau(  32) = (   0.0065315   0.4997770   1.5135603  )
        33           Co  tau(  33) = (   0.0061999   0.0064171   1.0164559  )
        34           Co  tau(  34) = (   0.0000000   0.0126169   1.5135603  )
        35           O   tau(  35) = (   0.0114961   0.4948124   1.2815885  )
        36           O   tau(  36) = (   0.0114961   0.4948124   0.7513233  )
        37           O   tau(  37) = (   0.0051979   0.2673486   1.0164559  )
        38           O   tau(  38) = (   0.0130029   0.2478461   1.5135603  )
        39           O   tau(  39) = (   0.0048226   0.0077944   0.7773880  )
        40           O   tau(  40) = (   0.0048226   0.0077944   1.2555238  )
        41           Sr  tau(  41) = (   0.2545482   0.2517602   0.7706582  )
        42           Sr  tau(  42) = (   0.2545482   0.2517602   1.2622536  )
        43           Co  tau(  43) = (   0.4989925   0.0073160   1.5135603  )
        44           Co  tau(  44) = (   0.4998370   0.0064714   1.0164559  )
        45           O   tau(  45) = (   0.5048017   0.0015068   0.7844841  )
        46           O   tau(  46) = (   0.5048017   0.0015068   1.2484277  )
        47           O   tau(  47) = (   0.2621260   0.0059111   1.5135603  )
        48           O   tau(  48) = (   0.2591051   0.0041689   1.0164559  )
        49           O   tau(  49) = (   0.7108228   0.5686583   2.1602013  )
        50           H   tau(  50) = (   0.7108228   0.5686583   2.2847091  )

   Crystallographic axes

     site n.     atom                  positions (cryst. coord.)
         1           Sr  tau(   1) = (  0.2508693  0.7491307  0.6943562  )
         2           O   tau(   2) = (  0.4985141  0.5014859  0.6999492  )
         3           Sr  tau(   3) = (  0.7482398  0.7454518  0.6972903  )
         4           Sr  tau(   4) = (  0.7441748  0.2558252  0.6980478  )
         5           Sr  tau(   5) = (  0.2508693  0.7491307  0.5016443  )
         6           Sr  tau(   6) = (  0.2508693  0.7491307  0.3015492  )
         7           Co  tau(   7) = (  0.4998914  0.5001086  0.4015968  )
         8           Co  tau(   8) = (  0.4936915  0.5063085  0.5980003  )
         9           O   tau(   9) = (  0.4988895  0.7610401  0.4015968  )
        10           O   tau(  10) = (  0.2389599  0.5011105  0.4015968  )
        11           O   tau(  11) = (  0.0070918  0.7374880  0.4015968  )
        12           O   tau(  12) = (  0.0088340  0.7405089  0.5980003  )
        13           O   tau(  13) = (  0.5066944  0.7415376  0.5980003  )
        14           O   tau(  14) = (  0.2584624  0.4933056  0.5980003  )
        15           O   tau(  15) = (  0.4985141  0.5014859  0.3071422  )
        16           O   tau(  16) = (  0.4985141  0.5014859  0.4960513  )
        17           Sr  tau(  17) = (  0.7482398  0.7454518  0.3044833  )
        18           Sr  tau(  18) = (  0.7482398  0.7454518  0.4987103  )
        19           Sr  tau(  19) = (  0.7441748  0.2558252  0.3052408  )
        20           Sr  tau(  20) = (  0.7441748  0.2558252  0.4979527  )
        21           O   tau(  21) = (  0.7322655  0.0078049  0.5980003  )
        22           O   tau(  22) = (  0.7558175  0.4996027  0.5980003  )
        23           O   tau(  23) = (  0.5003973  0.2441825  0.5980003  )
        24           O   tau(  24) = (  0.7527966  0.4978604  0.4015968  )
        25           O   tau(  25) = (  0.5021396  0.2472034  0.4015968  )
        26           O   tau(  26) = (  0.7517679  0.0000000  0.4015968  )
        27           O   tau(  27) = (  0.0114961  0.4948124  0.6896512  )
        28           O   tau(  28) = (  0.0048226  0.0077944  0.6999492  )
        29           Sr  tau(  29) = (  0.2545482  0.2517602  0.6972903  )
        30           O   tau(  30) = (  0.5048017  0.0015068  0.7027529  )
        31           Co  tau(  31) = (  0.0056869  0.5006215  0.4015968  )
        32           Co  tau(  32) = (  0.0065315  0.4997770  0.5980003  )
        33           Co  tau(  33) = (  0.0061999  0.0064171  0.4015968  )
        34           Co  tau(  34) = (  0.0000000  0.0126169  0.5980003  )
        35           O   tau(  35) = (  0.0114961  0.4948124  0.5063494  )
        36           O   tau(  36) = (  0.0114961  0.4948124  0.2968442  )
        37           O   tau(  37) = (  0.0051979  0.2673486  0.4015968  )
        38           O   tau(  38) = (  0.0130029  0.2478461  0.5980003  )
        39           O   tau(  39) = (  0.0048226  0.0077944  0.3071422  )
        40           O   tau(  40) = (  0.0048226  0.0077944  0.4960513  )
        41           Sr  tau(  41) = (  0.2545482  0.2517602  0.3044833  )
        42           Sr  tau(  42) = (  0.2545482  0.2517602  0.4987103  )
        43           Co  tau(  43) = (  0.4989925  0.0073160  0.5980003  )
        44           Co  tau(  44) = (  0.4998370  0.0064714  0.4015968  )
        45           O   tau(  45) = (  0.5048017  0.0015068  0.3099459  )
        46           O   tau(  46) = (  0.5048017  0.0015068  0.4932477  )
        47           O   tau(  47) = (  0.2621260  0.0059111  0.5980003  )
        48           O   tau(  48) = (  0.2591051  0.0041689  0.4015968  )
        49           O   tau(  49) = (  0.7108228  0.5686583  0.8534850  )
        50           H   tau(  50) = (  0.7108228  0.5686583  0.9026774  )

     number of k points=    10  Gaussian smearing, width (Ry)=  0.0700
                       cart. coord. in units 2pi/alat
        k(    1) = (   0.0000000   0.0000000   0.0000000), wk =   0.1250000
        k(    2) = (   0.0000000   0.2500000   0.0000000), wk =   0.2500000
        k(    3) = (   0.0000000  -0.5000000   0.0000000), wk =   0.1250000
        k(    4) = (   0.2500000   0.2500000   0.0000000), wk =   0.2500000
        k(    5) = (   0.2500000  -0.5000000   0.0000000), wk =   0.2500000
        k(    6) = (  -0.5000000  -0.5000000   0.0000000), wk =   0.1250000
        k(    7) = (   0.2500000   0.0000000   0.0000000), wk =   0.2500000
        k(    8) = (  -0.5000000   0.0000000   0.0000000), wk =   0.1250000
        k(    9) = (  -0.2500000   0.2500000   0.0000000), wk =   0.2500000
        k(   10) = (  -0.5000000   0.2500000   0.0000000), wk =   0.2500000

                       cryst. coord.
        k(    1) = (   0.0000000   0.0000000   0.0000000), wk =   0.1250000
        k(    2) = (   0.0000000   0.2500000   0.0000000), wk =   0.2500000
        k(    3) = (   0.0000000  -0.5000000   0.0000000), wk =   0.1250000
        k(    4) = (   0.2500000   0.2500000   0.0000000), wk =   0.2500000
        k(    5) = (   0.2500000  -0.5000000   0.0000000), wk =   0.2500000
        k(    6) = (  -0.5000000  -0.5000000   0.0000000), wk =   0.1250000
        k(    7) = (   0.2500000   0.0000000   0.0000000), wk =   0.2500000
        k(    8) = (  -0.5000000   0.0000000   0.0000000), wk =   0.1250000
        k(    9) = (  -0.2500000   0.2500000   0.0000000), wk =   0.2500000
        k(   10) = (  -0.5000000   0.2500000   0.0000000), wk =   0.2500000

     Dense  grid:  1474595 G-vectors     FFT dimensions: ( 108, 108, 270)

     Smooth grid:   521381 G-vectors     FFT dimensions: (  75,  75, 192)

     Dynamical RAM for                 wfc:      10.73 MB

     Dynamical RAM for     wfc (w. buffer):      64.38 MB

     Dynamical RAM for           str. fact:       3.75 MB

     Dynamical RAM for           local pot:       0.00 MB

     Dynamical RAM for          nlocal pot:      24.61 MB

     Dynamical RAM for                qrad:       7.03 MB

     Dynamical RAM for          rho,v,vnew:       6.02 MB

     Dynamical RAM for               rhoin:       2.01 MB

     Dynamical RAM for            rho*nmix:      15.00 MB

     Dynamical RAM for           G-vectors:       3.68 MB

     Dynamical RAM for          h,s,v(r/c):       1.35 MB

     Dynamical RAM for          <psi|beta>:       2.35 MB

     Dynamical RAM for                 psi:      21.46 MB

     Dynamical RAM for                hpsi:      21.46 MB

     Dynamical RAM for                spsi:      21.46 MB

     Dynamical RAM for      wfcinit/wfcrot:      34.49 MB

     Dynamical RAM for           addusdens:     101.26 MB

     Estimated static dynamical RAM per process >     121.50 MB

     Estimated max dynamical RAM per process >     237.76 MB

     Estimated total dynamical RAM >      10.79 GB

     Check: negative core charge=   -0.000004

     Initial potential from superposition of free atoms

     starting charge     422.5961, renormalised to     431.0000

     negative rho (up, down):  7.820E-01 0.000E+00
     Starting wfcs are  377 randomized atomic wfcs
     Checking if some PAW data can be deallocated... 
       PAW data deallocated on   19 nodes for type:  2

     total cpu time spent up to now is        9.1 secs

     Self-consistent Calculation

     iteration #  1     ecut=    60.00 Ry     beta= 0.15
     Davidson diagonalization with overlap

---- Real-time Memory Report at c_bands before calling an iterative solver
             0 MiB given to the printing process from OS
             0 MiB allocation reported by mallinfo(arena+hblkhd)
         24008 MiB available memory on the node where the printing process lives
------------------
     ethr =  1.00E-02,  avg # of iterations =  2.0

     negative rho (up, down):  7.718E-01 0.000E+00

     total cpu time spent up to now is       25.6 secs

     total energy              =   -4446.66581476 Ry
     estimated scf accuracy    <      44.68149811 Ry

     iteration #  2     ecut=    60.00 Ry     beta= 0.15
     Davidson diagonalization with overlap

---- Real-time Memory Report at c_bands before calling an iterative solver
             0 MiB given to the printing process from OS
             0 MiB allocation reported by mallinfo(arena+hblkhd)
         24248 MiB available memory on the node where the printing process lives
------------------
     ethr =  1.00E-02,  avg # of iterations =  1.0

     negative rho (up, down):  7.586E-01 0.000E+00

     total cpu time spent up to now is       40.1 secs

     total energy              =   -4443.36153661 Ry
     estimated scf accuracy    <      29.91460406 Ry

     iteration #  3     ecut=    60.00 Ry     beta= 0.15
     Davidson diagonalization with overlap

---- Real-time Memory Report at c_bands before calling an iterative solver
             0 MiB given to the printing process from OS
             0 MiB allocation reported by mallinfo(arena+hblkhd)
         23415 MiB available memory on the node where the printing process lives
------------------
     ethr =  6.94E-03,  avg # of iterations =  1.0

     negative rho (up, down):  7.555E-01 0.000E+00

     total cpu time spent up to now is       54.8 secs

     total energy              =   -4444.26788186 Ry
     estimated scf accuracy    <      27.66285438 Ry

     iteration #  4     ecut=    60.00 Ry     beta= 0.15
     Davidson diagonalization with overlap

---- Real-time Memory Report at c_bands before calling an iterative solver
             0 MiB given to the printing process from OS
             0 MiB allocation reported by mallinfo(arena+hblkhd)
         23391 MiB available memory on the node where the printing process lives
------------------
     ethr =  6.42E-03,  avg # of iterations =  1.0

     negative rho (up, down):  7.504E-01 0.000E+00

     total cpu time spent up to now is       69.3 secs

     total energy              =   -4443.08493642 Ry
     estimated scf accuracy    <      20.39076415 Ry

     iteration #  5     ecut=    60.00 Ry     beta= 0.15
     Davidson diagonalization with overlap

---- Real-time Memory Report at c_bands before calling an iterative solver
             0 MiB given to the printing process from OS
             0 MiB allocation reported by mallinfo(arena+hblkhd)
         23374 MiB available memory on the node where the printing process lives
------------------
     ethr =  4.73E-03,  avg # of iterations =  1.0

     negative rho (up, down):  7.395E-01 0.000E+00

     total cpu time spent up to now is       83.9 secs

     total energy              =   -4442.46458952 Ry
     estimated scf accuracy    <      12.31566976 Ry

     iteration #  6     ecut=    60.00 Ry     beta= 0.15
     Davidson diagonalization with overlap

---- Real-time Memory Report at c_bands before calling an iterative solver
             0 MiB given to the printing process from OS
             0 MiB allocation reported by mallinfo(arena+hblkhd)
         23355 MiB available memory on the node where the printing process lives
------------------
     ethr =  2.86E-03,  avg # of iterations =  1.0

     negative rho (up, down):  7.425E-01 0.000E+00

     total cpu time spent up to now is       98.3 secs

     total energy              =   -4442.82779781 Ry
     estimated scf accuracy    <       5.08090500 Ry

     iteration #  7     ecut=    60.00 Ry     beta= 0.15
     Davidson diagonalization with overlap

---- Real-time Memory Report at c_bands before calling an iterative solver
             0 MiB given to the printing process from OS
             0 MiB allocation reported by mallinfo(arena+hblkhd)
         23339 MiB available memory on the node where the printing process lives
------------------
     ethr =  1.18E-03,  avg # of iterations =  1.8

     negative rho (up, down):  7.640E-01 0.000E+00

     total cpu time spent up to now is      113.5 secs

     total energy              =   -4441.66673924 Ry
     estimated scf accuracy    <       3.97804836 Ry

     iteration #  8     ecut=    60.00 Ry     beta= 0.15
     Davidson diagonalization with overlap

---- Real-time Memory Report at c_bands before calling an iterative solver
             0 MiB given to the printing process from OS
             0 MiB allocation reported by mallinfo(arena+hblkhd)
         23314 MiB available memory on the node where the printing process lives
------------------
     ethr =  9.23E-04,  avg # of iterations =  4.1

     negative rho (up, down):  7.734E-01 0.000E+00

     total cpu time spent up to now is      132.3 secs

     total energy              =   -4441.27855816 Ry
     estimated scf accuracy    <      21.91309788 Ry

     iteration #  9     ecut=    60.00 Ry     beta= 0.15
     Davidson diagonalization with overlap

---- Real-time Memory Report at c_bands before calling an iterative solver
             0 MiB given to the printing process from OS
             0 MiB allocation reported by mallinfo(arena+hblkhd)
         23196 MiB available memory on the node where the printing process lives
------------------
     ethr =  9.23E-04,  avg # of iterations =  9.9

     negative rho (up, down):  7.704E-01 0.000E+00

     total cpu time spent up to now is      154.2 secs

     total energy              =   -4441.71731468 Ry
     estimated scf accuracy    <       3.93182317 Ry

     iteration # 10     ecut=    60.00 Ry     beta= 0.15
     Davidson diagonalization with overlap

---- Real-time Memory Report at c_bands before calling an iterative solver
             0 MiB given to the printing process from OS
             0 MiB allocation reported by mallinfo(arena+hblkhd)
         22838 MiB available memory on the node where the printing process lives
------------------
     ethr =  9.12E-04,  avg # of iterations =  1.1

     negative rho (up, down):  7.745E-01 0.000E+00

     total cpu time spent up to now is      169.1 secs

     total energy              =   -4441.88755829 Ry
     estimated scf accuracy    <       1.61100941 Ry

     iteration # 11     ecut=    60.00 Ry     beta= 0.15
     Davidson diagonalization with overlap

---- Real-time Memory Report at c_bands before calling an iterative solver
             0 MiB given to the printing process from OS
             0 MiB allocation reported by mallinfo(arena+hblkhd)
         22818 MiB available memory on the node where the printing process lives
------------------
     ethr =  3.74E-04,  avg # of iterations =  2.0

     negative rho (up, down):  8.012E-01 0.000E+00

     total cpu time spent up to now is      185.1 secs

     total energy              =   -4441.76890605 Ry
     estimated scf accuracy    <       1.06217343 Ry

     iteration # 12     ecut=    60.00 Ry     beta= 0.15
     Davidson diagonalization with overlap

---- Real-time Memory Report at c_bands before calling an iterative solver
             0 MiB given to the printing process from OS
             0 MiB allocation reported by mallinfo(arena+hblkhd)
         22820 MiB available memory on the node where the printing process lives
------------------
     ethr =  2.46E-04,  avg # of iterations =  5.6

     negative rho (up, down):  8.148E-01 0.000E+00

     total cpu time spent up to now is      204.2 secs

     total energy              =   -4441.88392036 Ry
     estimated scf accuracy    <       1.48403488 Ry

     iteration # 13     ecut=    60.00 Ry     beta= 0.15
     Davidson diagonalization with overlap

---- Real-time Memory Report at c_bands before calling an iterative solver
             0 MiB given to the printing process from OS
             0 MiB allocation reported by mallinfo(arena+hblkhd)
         22812 MiB available memory on the node where the printing process lives
------------------
     ethr =  2.46E-04,  avg # of iterations =  7.2

     negative rho (up, down):  8.191E-01 0.000E+00

     total cpu time spent up to now is      223.9 secs

     total energy              =   -4441.81649611 Ry
     estimated scf accuracy    <       1.07263835 Ry

     iteration # 14     ecut=    60.00 Ry     beta= 0.15
     Davidson diagonalization with overlap

---- Real-time Memory Report at c_bands before calling an iterative solver
             0 MiB given to the printing process from OS
             0 MiB allocation reported by mallinfo(arena+hblkhd)
         22788 MiB available memory on the node where the printing process lives
------------------
     ethr =  2.46E-04,  avg # of iterations =  2.9

     negative rho (up, down):  8.170E-01 0.000E+00

     total cpu time spent up to now is      240.5 secs

     total energy              =   -4441.76410029 Ry
     estimated scf accuracy    <       0.46043697 Ry

     iteration # 15     ecut=    60.00 Ry     beta= 0.15
     Davidson diagonalization with overlap

---- Real-time Memory Report at c_bands before calling an iterative solver
             0 MiB given to the printing process from OS
             0 MiB allocation reported by mallinfo(arena+hblkhd)
         22790 MiB available memory on the node where the printing process lives
------------------
     ethr =  1.07E-04,  avg # of iterations =  7.0

     negative rho (up, down):  8.262E-01 0.000E+00

     total cpu time spent up to now is      259.7 secs

     total energy              =   -4441.73953823 Ry
     estimated scf accuracy    <       0.31186019 Ry

     iteration # 16     ecut=    60.00 Ry     beta= 0.15
     Davidson diagonalization with overlap

---- Real-time Memory Report at c_bands before calling an iterative solver
             0 MiB given to the printing process from OS
             0 MiB allocation reported by mallinfo(arena+hblkhd)
         22781 MiB available memory on the node where the printing process lives
------------------
     ethr =  7.24E-05,  avg # of iterations = 11.7

     negative rho (up, down):  8.296E-01 0.000E+00

     total cpu time spent up to now is      282.5 secs

     total energy              =   -4441.73663321 Ry
     estimated scf accuracy    <       0.33098585 Ry

     iteration # 17     ecut=    60.00 Ry     beta= 0.15
     Davidson diagonalization with overlap

---- Real-time Memory Report at c_bands before calling an iterative solver
             0 MiB given to the printing process from OS
             0 MiB allocation reported by mallinfo(arena+hblkhd)
         22762 MiB available memory on the node where the printing process lives
------------------
     c_bands:  1 eigenvalues not converged
     ethr =  7.24E-05,  avg # of iterations =  2.9

     negative rho (up, down):  8.268E-01 0.000E+00

     total cpu time spent up to now is      298.5 secs

     total energy              =   -4441.71557100 Ry
     estimated scf accuracy    <       0.25518516 Ry

     iteration # 18     ecut=    60.00 Ry     beta= 0.15
     Davidson diagonalization with overlap

---- Real-time Memory Report at c_bands before calling an iterative solver
             0 MiB given to the printing process from OS
             0 MiB allocation reported by mallinfo(arena+hblkhd)
         22763 MiB available memory on the node where the printing process lives
------------------
     ethr =  5.92E-05,  avg # of iterations =  3.8

     negative rho (up, down):  8.156E-01 0.000E+00

     total cpu time spent up to now is      316.1 secs

     total energy              =   -4441.68791374 Ry
     estimated scf accuracy    <       0.16035894 Ry

     iteration # 19     ecut=    60.00 Ry     beta= 0.15
     Davidson diagonalization with overlap

---- Real-time Memory Report at c_bands before calling an iterative solver
             0 MiB given to the printing process from OS
             0 MiB allocation reported by mallinfo(arena+hblkhd)
         22762 MiB available memory on the node where the printing process lives
------------------
     ethr =  3.72E-05,  avg # of iterations =  9.7

     negative rho (up, down):  8.314E-01 0.000E+00

     total cpu time spent up to now is      337.8 secs

     total energy              =   -4441.67597676 Ry
     estimated scf accuracy    <       0.11594826 Ry

     iteration # 20     ecut=    60.00 Ry     beta= 0.15
     Davidson diagonalization with overlap

---- Real-time Memory Report at c_bands before calling an iterative solver
             0 MiB given to the printing process from OS
             0 MiB allocation reported by mallinfo(arena+hblkhd)
         22681 MiB available memory on the node where the printing process lives
------------------
     ethr =  2.69E-05,  avg # of iterations =  4.1

     negative rho (up, down):  8.196E-01 0.000E+00

     total cpu time spent up to now is      356.0 secs

     total energy              =   -4441.67690116 Ry
     estimated scf accuracy    <       0.04802808 Ry

     iteration # 21     ecut=    60.00 Ry     beta= 0.15
     Davidson diagonalization with overlap

---- Real-time Memory Report at c_bands before calling an iterative solver
             0 MiB given to the printing process from OS
             0 MiB allocation reported by mallinfo(arena+hblkhd)
         22701 MiB available memory on the node where the printing process lives
------------------
     ethr =  1.11E-05,  avg # of iterations = 11.6

     negative rho (up, down):  8.110E-01 0.000E+00

     total cpu time spent up to now is      378.0 secs

     total energy              =   -4441.67556635 Ry
     estimated scf accuracy    <       0.03088644 Ry

     iteration # 22     ecut=    60.00 Ry     beta= 0.15
     Davidson diagonalization with overlap

---- Real-time Memory Report at c_bands before calling an iterative solver
             0 MiB given to the printing process from OS
             0 MiB allocation reported by mallinfo(arena+hblkhd)
         22643 MiB available memory on the node where the printing process lives
------------------
     ethr =  7.17E-06,  avg # of iterations =  3.5

     negative rho (up, down):  8.089E-01 0.000E+00

     total cpu time spent up to now is      395.5 secs

     total energy              =   -4441.67424128 Ry
     estimated scf accuracy    <       0.02222623 Ry

     iteration # 23     ecut=    60.00 Ry     beta= 0.15
     Davidson diagonalization with overlap

---- Real-time Memory Report at c_bands before calling an iterative solver
             0 MiB given to the printing process from OS
             0 MiB allocation reported by mallinfo(arena+hblkhd)
         22661 MiB available memory on the node where the printing process lives
------------------
     ethr =  5.16E-06,  avg # of iterations =  9.2

     negative rho (up, down):  7.933E-01 0.000E+00

     total cpu time spent up to now is      416.2 secs

     total energy              =   -4441.67040008 Ry
     estimated scf accuracy    <       0.01650894 Ry

     iteration # 24     ecut=    60.00 Ry     beta= 0.15
     Davidson diagonalization with overlap

---- Real-time Memory Report at c_bands before calling an iterative solver
             0 MiB given to the printing process from OS
             0 MiB allocation reported by mallinfo(arena+hblkhd)
         22655 MiB available memory on the node where the printing process lives
------------------
     ethr =  3.83E-06,  avg # of iterations =  7.3

     negative rho (up, down):  8.016E-01 0.000E+00

     total cpu time spent up to now is      436.6 secs

     total energy              =   -4441.67004910 Ry
     estimated scf accuracy    <       0.01032690 Ry

     iteration # 25     ecut=    60.00 Ry     beta= 0.15
     Davidson diagonalization with overlap

---- Real-time Memory Report at c_bands before calling an iterative solver
             0 MiB given to the printing process from OS
             0 MiB allocation reported by mallinfo(arena+hblkhd)
         22655 MiB available memory on the node where the printing process lives
------------------
     ethr =  2.40E-06,  avg # of iterations = 11.1

     negative rho (up, down):  7.978E-01 0.000E+00

     total cpu time spent up to now is      459.8 secs

     total energy              =   -4441.66953200 Ry
     estimated scf accuracy    <       0.00369826 Ry

     iteration # 26     ecut=    60.00 Ry     beta= 0.15
     Davidson diagonalization with overlap

---- Real-time Memory Report at c_bands before calling an iterative solver
             0 MiB given to the printing process from OS
             0 MiB allocation reported by mallinfo(arena+hblkhd)
         22569 MiB available memory on the node where the printing process lives
------------------
     c_bands:  1 eigenvalues not converged
     ethr =  8.58E-07,  avg # of iterations = 10.6

     negative rho (up, down):  7.960E-01 0.000E+00

     total cpu time spent up to now is      482.7 secs

     total energy              =   -4441.66956141 Ry
     estimated scf accuracy    <       0.00141324 Ry

     iteration # 27     ecut=    60.00 Ry     beta= 0.15
     Davidson diagonalization with overlap

---- Real-time Memory Report at c_bands before calling an iterative solver
             0 MiB given to the printing process from OS
             0 MiB allocation reported by mallinfo(arena+hblkhd)
         22553 MiB available memory on the node where the printing process lives
------------------
     c_bands:  1 eigenvalues not converged
     ethr =  3.28E-07,  avg # of iterations = 10.8

     negative rho (up, down):  7.954E-01 0.000E+00

     total cpu time spent up to now is      507.2 secs

     total energy              =   -4441.66969427 Ry
     estimated scf accuracy    <       0.00054906 Ry

     iteration # 28     ecut=    60.00 Ry     beta= 0.15
     Davidson diagonalization with overlap

---- Real-time Memory Report at c_bands before calling an iterative solver
             0 MiB given to the printing process from OS
             0 MiB allocation reported by mallinfo(arena+hblkhd)
         22413 MiB available memory on the node where the printing process lives
------------------
     ethr =  1.27E-07,  avg # of iterations =  3.7

     negative rho (up, down):  7.942E-01 0.000E+00

     total cpu time spent up to now is      524.9 secs

     total energy              =   -4441.66970703 Ry
     estimated scf accuracy    <       0.00038778 Ry

     iteration # 29     ecut=    60.00 Ry     beta= 0.15
     Davidson diagonalization with overlap

---- Real-time Memory Report at c_bands before calling an iterative solver
             0 MiB given to the printing process from OS
             0 MiB allocation reported by mallinfo(arena+hblkhd)
         22412 MiB available memory on the node where the printing process lives
------------------
     ethr =  9.00E-08,  avg # of iterations =  5.8

     negative rho (up, down):  7.935E-01 0.000E+00

     total cpu time spent up to now is      543.6 secs

     total energy              =   -4441.66972005 Ry
     estimated scf accuracy    <       0.00014920 Ry

     iteration # 30     ecut=    60.00 Ry     beta= 0.15
     Davidson diagonalization with overlap

---- Real-time Memory Report at c_bands before calling an iterative solver
             0 MiB given to the printing process from OS
             0 MiB allocation reported by mallinfo(arena+hblkhd)
         22422 MiB available memory on the node where the printing process lives
------------------
     ethr =  3.46E-08,  avg # of iterations =  2.7

     negative rho (up, down):  7.931E-01 0.000E+00

     total cpu time spent up to now is      560.8 secs

     total energy              =   -4441.66972585 Ry
     estimated scf accuracy    <       0.00008030 Ry

     iteration # 31     ecut=    60.00 Ry     beta= 0.15
     Davidson diagonalization with overlap

---- Real-time Memory Report at c_bands before calling an iterative solver
             0 MiB given to the printing process from OS
             0 MiB allocation reported by mallinfo(arena+hblkhd)
         22449 MiB available memory on the node where the printing process lives
------------------
     ethr =  1.86E-08,  avg # of iterations =  2.1

     negative rho (up, down):  7.926E-01 0.000E+00

     total cpu time spent up to now is      577.5 secs

     total energy              =   -4441.66973127 Ry
     estimated scf accuracy    <       0.00005063 Ry

     iteration # 32     ecut=    60.00 Ry     beta= 0.15
     Davidson diagonalization with overlap

---- Real-time Memory Report at c_bands before calling an iterative solver
             0 MiB given to the printing process from OS
             0 MiB allocation reported by mallinfo(arena+hblkhd)
         22448 MiB available memory on the node where the printing process lives
------------------
     ethr =  1.17E-08,  avg # of iterations =  2.6

     negative rho (up, down):  7.921E-01 0.000E+00

     total cpu time spent up to now is      594.4 secs

     total energy              =   -4441.66973747 Ry
     estimated scf accuracy    <       0.00002493 Ry

     iteration # 33     ecut=    60.00 Ry     beta= 0.15
     Davidson diagonalization with overlap

---- Real-time Memory Report at c_bands before calling an iterative solver
             0 MiB given to the printing process from OS
             0 MiB allocation reported by mallinfo(arena+hblkhd)
         22478 MiB available memory on the node where the printing process lives
------------------
     ethr =  5.78E-09,  avg # of iterations =  2.2

     negative rho (up, down):  7.922E-01 0.000E+00

     total cpu time spent up to now is      611.1 secs

     total energy              =   -4441.66973942 Ry
     estimated scf accuracy    <       0.00001059 Ry

     iteration # 34     ecut=    60.00 Ry     beta= 0.15
     Davidson diagonalization with overlap

---- Real-time Memory Report at c_bands before calling an iterative solver
             0 MiB given to the printing process from OS
             0 MiB allocation reported by mallinfo(arena+hblkhd)
         22489 MiB available memory on the node where the printing process lives
------------------
     ethr =  2.46E-09,  avg # of iterations =  2.1

     negative rho (up, down):  7.924E-01 0.000E+00

     total cpu time spent up to now is      627.8 secs

     total energy              =   -4441.66973974 Ry
     estimated scf accuracy    <       0.00000723 Ry

     iteration # 35     ecut=    60.00 Ry     beta= 0.15
     Davidson diagonalization with overlap

---- Real-time Memory Report at c_bands before calling an iterative solver
             0 MiB given to the printing process from OS
             0 MiB allocation reported by mallinfo(arena+hblkhd)
         22500 MiB available memory on the node where the printing process lives
------------------
     ethr =  1.68E-09,  avg # of iterations =  2.1

     negative rho (up, down):  7.925E-01 0.000E+00

     total cpu time spent up to now is      644.5 secs

     total energy              =   -4441.66974031 Ry
     estimated scf accuracy    <       0.00000457 Ry

     iteration # 36     ecut=    60.00 Ry     beta= 0.15
     Davidson diagonalization with overlap

---- Real-time Memory Report at c_bands before calling an iterative solver
             0 MiB given to the printing process from OS
             0 MiB allocation reported by mallinfo(arena+hblkhd)
         22503 MiB available memory on the node where the printing process lives
------------------
     ethr =  1.06E-09,  avg # of iterations =  2.2

     negative rho (up, down):  7.925E-01 0.000E+00

     total cpu time spent up to now is      661.3 secs

     total energy              =   -4441.66974022 Ry
     estimated scf accuracy    <       0.00000301 Ry

     iteration # 37     ecut=    60.00 Ry     beta= 0.15
     Davidson diagonalization with overlap

---- Real-time Memory Report at c_bands before calling an iterative solver
             0 MiB given to the printing process from OS
             0 MiB allocation reported by mallinfo(arena+hblkhd)
         22511 MiB available memory on the node where the printing process lives
------------------
     ethr =  6.98E-10,  avg # of iterations =  2.2

     negative rho (up, down):  7.926E-01 0.000E+00

     total cpu time spent up to now is      678.0 secs

     total energy              =   -4441.66973986 Ry
     estimated scf accuracy    <       0.00000175 Ry

     iteration # 38     ecut=    60.00 Ry     beta= 0.15
     Davidson diagonalization with overlap

---- Real-time Memory Report at c_bands before calling an iterative solver
             0 MiB given to the printing process from OS
             0 MiB allocation reported by mallinfo(arena+hblkhd)
         22512 MiB available memory on the node where the printing process lives
------------------
     ethr =  4.07E-10,  avg # of iterations =  2.8

     negative rho (up, down):  7.926E-01 0.000E+00

     total cpu time spent up to now is      695.1 secs

     total energy              =   -4441.66973954 Ry
     estimated scf accuracy    <       0.00000085 Ry

     iteration # 39     ecut=    60.00 Ry     beta= 0.15
     Davidson diagonalization with overlap

---- Real-time Memory Report at c_bands before calling an iterative solver
             0 MiB given to the printing process from OS
             0 MiB allocation reported by mallinfo(arena+hblkhd)
         22531 MiB available memory on the node where the printing process lives
------------------
     ethr =  1.98E-10,  avg # of iterations =  2.2

     negative rho (up, down):  7.925E-01 0.000E+00

     total cpu time spent up to now is      712.0 secs

     total energy              =   -4441.66973952 Ry
     estimated scf accuracy    <       0.00000050 Ry

     iteration # 40     ecut=    60.00 Ry     beta= 0.15
     Davidson diagonalization with overlap

---- Real-time Memory Report at c_bands before calling an iterative solver
             0 MiB given to the printing process from OS
             0 MiB allocation reported by mallinfo(arena+hblkhd)
         22537 MiB available memory on the node where the printing process lives
------------------
     ethr =  1.17E-10,  avg # of iterations =  1.7

     negative rho (up, down):  7.925E-01 0.000E+00

     total cpu time spent up to now is      728.2 secs

     total energy              =   -4441.66973956 Ry
     estimated scf accuracy    <       0.00000033 Ry

     iteration # 41     ecut=    60.00 Ry     beta= 0.15
     Davidson diagonalization with overlap

---- Real-time Memory Report at c_bands before calling an iterative solver
             0 MiB given to the printing process from OS
             0 MiB allocation reported by mallinfo(arena+hblkhd)
         22536 MiB available memory on the node where the printing process lives
------------------
     ethr =  7.58E-11,  avg # of iterations =  1.7

     negative rho (up, down):  7.925E-01 0.000E+00

     total cpu time spent up to now is      744.3 secs

     total energy              =   -4441.66973970 Ry
     estimated scf accuracy    <       0.00000024 Ry

     iteration # 42     ecut=    60.00 Ry     beta= 0.15
     Davidson diagonalization with overlap

---- Real-time Memory Report at c_bands before calling an iterative solver
             0 MiB given to the printing process from OS
             0 MiB allocation reported by mallinfo(arena+hblkhd)
         22548 MiB available memory on the node where the printing process lives
------------------
     ethr =  5.65E-11,  avg # of iterations =  2.2

     negative rho (up, down):  7.925E-01 0.000E+00

     total cpu time spent up to now is      761.0 secs

     total energy              =   -4441.66973992 Ry
     estimated scf accuracy    <       0.00000021 Ry

     iteration # 43     ecut=    60.00 Ry     beta= 0.15
     Davidson diagonalization with overlap

---- Real-time Memory Report at c_bands before calling an iterative solver
             0 MiB given to the printing process from OS
             0 MiB allocation reported by mallinfo(arena+hblkhd)
         22552 MiB available memory on the node where the printing process lives
------------------
     ethr =  4.85E-11,  avg # of iterations =  3.8

     negative rho (up, down):  7.925E-01 0.000E+00

     total cpu time spent up to now is      778.6 secs

     total energy              =   -4441.66973985 Ry
     estimated scf accuracy    <       0.00000014 Ry

     iteration # 44     ecut=    60.00 Ry     beta= 0.15
     Davidson diagonalization with overlap

---- Real-time Memory Report at c_bands before calling an iterative solver
             0 MiB given to the printing process from OS
             0 MiB allocation reported by mallinfo(arena+hblkhd)
         22551 MiB available memory on the node where the printing process lives
------------------
     ethr =  3.28E-11,  avg # of iterations =  4.5

     negative rho (up, down):  7.925E-01 0.000E+00

     total cpu time spent up to now is      797.2 secs

     total energy              =   -4441.66973987 Ry
     estimated scf accuracy    <       0.00000003 Ry

     iteration # 45     ecut=    60.00 Ry     beta= 0.15
     Davidson diagonalization with overlap

---- Real-time Memory Report at c_bands before calling an iterative solver
             0 MiB given to the printing process from OS
             0 MiB allocation reported by mallinfo(arena+hblkhd)
         22556 MiB available memory on the node where the printing process lives
------------------
     ethr =  6.19E-12,  avg # of iterations =  2.1

     negative rho (up, down):  7.925E-01 0.000E+00

     total cpu time spent up to now is      814.0 secs

     total energy              =   -4441.66973987 Ry
     estimated scf accuracy    <       0.00000002 Ry

     iteration # 46     ecut=    60.00 Ry     beta= 0.15
     Davidson diagonalization with overlap

---- Real-time Memory Report at c_bands before calling an iterative solver
             0 MiB given to the printing process from OS
             0 MiB allocation reported by mallinfo(arena+hblkhd)
         22494 MiB available memory on the node where the printing process lives
------------------
     ethr =  4.35E-12,  avg # of iterations =  2.0

     negative rho (up, down):  7.925E-01 0.000E+00

     total cpu time spent up to now is      830.8 secs

     total energy              =   -4441.66973990 Ry
     estimated scf accuracy    <       0.00000001 Ry

     iteration # 47     ecut=    60.00 Ry     beta= 0.15
     Davidson diagonalization with overlap

---- Real-time Memory Report at c_bands before calling an iterative solver
             0 MiB given to the printing process from OS
             0 MiB allocation reported by mallinfo(arena+hblkhd)
         22487 MiB available memory on the node where the printing process lives
------------------
     ethr =  2.61E-12,  avg # of iterations =  3.4

     negative rho (up, down):  7.925E-01 0.000E+00

     total cpu time spent up to now is      848.2 secs

     End of self-consistent calculation

          k = 0.0000 0.0000 0.0000 ( 65197 PWs)   bands (ev):

   -92.7079 -92.6591 -92.5622 -92.5158 -92.4596 -92.4150 -92.3968 -92.2751
   -56.0614 -56.0461 -55.9194 -55.9086 -55.9026 -55.8954 -55.8614 -55.8313
   -55.8153 -55.8148 -55.8101 -55.7662 -55.7467 -55.7099 -55.6887 -55.6594
   -55.6514 -55.6026 -55.6017 -55.6000 -55.5916 -55.5500 -55.5272 -55.4411
   -31.2848 -31.2655 -31.1237 -31.0372 -30.9116 -30.9078 -30.8259 -30.8158
   -29.8539 -29.8108 -29.7849 -29.6780 -15.0882 -15.0421 -14.9618 -14.8327
   -14.6351 -14.5145 -14.2248 -14.1990 -14.1748 -14.1270 -14.0810 -14.0725
   -14.0609 -14.0393 -14.0164 -13.9856 -13.9633 -13.9351 -13.7823 -13.6009
   -13.5692 -13.5414 -13.5035 -13.4909 -13.4338 -13.3968 -13.3294 -13.2570
   -13.1191 -13.1097 -13.1044 -13.0816 -13.0634 -13.0082 -13.0027 -12.9861
   -12.9614 -12.9496 -12.9297 -12.9063 -12.8127 -12.7893 -12.7729 -12.7489
   -12.7183 -12.7087 -12.7003 -12.6860 -12.6704 -12.3494 -12.2037 -12.0227
   -11.9415 -11.8674 -11.7933 -11.7822 -11.7596 -11.7419 -11.6785 -11.6612
   -11.6261 -11.5965 -11.4864 -11.4063 -11.4027  -2.9473  -2.7157  -2.4859
    -2.3384  -2.2761  -2.1346  -1.8267  -1.8121  -1.7934  -1.7076  -1.6884
    -1.6204  -1.6038  -1.5627  -1.5204  -1.3379  -1.2103  -1.1121  -1.0777
    -0.9375  -0.9225  -0.8751  -0.8546  -0.8077  -0.7937  -0.7403  -0.7128
    -0.6361  -0.6277  -0.5530  -0.4207  -0.4088  -0.3776  -0.2978  -0.2717
    -0.2495  -0.2072  -0.1331  -0.0739  -0.0333  -0.0094   0.0747   0.1230
     0.1755   0.1951   0.2116   0.4713   0.4837   0.6585   0.7202   0.7880
     0.8358   0.9240   0.9333   0.9502   1.0181   1.0457   1.0788   1.1369
     1.2677   1.3275   1.3482   1.3696   1.3884   1.4487   1.5146   1.6309
     1.6434   1.7033   1.7123   1.7575   1.7726   1.7843   1.8430   1.9091
     1.9102   1.9480   1.9759   2.0230   2.1550   2.2477   2.2833   2.2959
     2.4099   2.4465   2.4617   2.4669   2.5057   2.5208   2.6176   2.6529
     2.6784   2.6980   2.7150   2.7962   2.9006   2.9359   2.9456   2.9510
     3.0184   3.0237   3.0470   3.0540   3.0635   3.0754   3.0835   3.0978
     3.1036   3.1140   3.1222   3.1310   3.1502   3.1718   3.1761   3.1889
     3.2148   3.3298   3.4087   4.1015   4.4263   4.7624   4.8616   5.0446
     5.8334   5.9410   5.9796   5.9978   6.3077   6.3541   6.4774   6.4856
     6.7597   7.0008   7.0970   7.3131   7.5242   7.6492   7.6613   7.7021
     7.7149   7.9320   7.9842   8.0859   8.1075   8.1960   8.4168   8.4398
     8.7263   8.8551   8.8680

     occupation numbers 
     1.0000   1.0000   1.0000   1.0000   1.0000   1.0000   1.0000   1.0000
     1.0000   1.0000   1.0000   1.0000   1.0000   1.0000   1.0000   1.0000
     1.0000   1.0000   1.0000   1.0000   1.0000   1.0000   1.0000   1.0000
     1.0000   1.0000   1.0000   1.0000   1.0000   1.0000   1.0000   1.0000
     1.0000   1.0000   1.0000   1.0000   1.0000   1.0000   1.0000   1.0000
     1.0000   1.0000   1.0000   1.0000   1.0000   1.0000   1.0000   1.0000
     1.0000   1.0000   1.0000   1.0000   1.0000   1.0000   1.0000   1.0000
     1.0000   1.0000   1.0000   1.0000   1.0000   1.0000   1.0000   1.0000
     1.0000   1.0000   1.0000   1.0000   1.0000   1.0000   1.0000   1.0000
     1.0000   1.0000   1.0000   1.0000   1.0000   1.0000   1.0000   1.0000
     1.0000   1.0000   1.0000   1.0000   1.0000   1.0000   1.0000   1.0000
     1.0000   1.0000   1.0000   1.0000   1.0000   1.0000   1.0000   1.0000
     1.0000   1.0000   1.0000   1.0000   1.0000   1.0000   1.0000   1.0000
     1.0000   1.0000   1.0000   1.0000   1.0000   1.0000   1.0000   1.0000
     1.0000   1.0000   1.0000   1.0000   1.0000   1.0000   1.0000   1.0000
     1.0000   1.0000   1.0000   1.0000   1.0000   1.0000   1.0000   1.0000
     1.0000   1.0000   1.0000   1.0000   1.0000   1.0000   1.0000   1.0000
     1.0000   1.0000   1.0000   1.0000   1.0000   1.0000   1.0000   1.0000
     1.0000   1.0000   1.0000   1.0000   1.0000   1.0000   1.0000   1.0000
     1.0000   1.0000   1.0000   1.0000   1.0000   1.0000   0.9999   0.9999
     0.9999   0.9998   0.9998   0.9998   0.9997   0.9996   0.9996   0.9994
     0.9988   0.9985   0.9983   0.9981   0.9979   0.9973   0.9963   0.9939
     0.9936   0.9918   0.9915   0.9898   0.9892   0.9887   0.9858   0.9819
     0.9818   0.9792   0.9770   0.9729   0.9581   0.9443   0.9381   0.9358
     0.9116   0.9026   0.8987   0.8973   0.8866   0.8822   0.8514   0.8390
     0.8295   0.8220   0.8154   0.7815   0.7331   0.7157   0.7108   0.7080
     0.6727   0.6699   0.6573   0.6534   0.6482   0.6416   0.6371   0.6291
     0.6259   0.6200   0.6153   0.6104   0.5994   0.5869   0.5844   0.5770
     0.5619   0.4941   0.4474   0.1228   0.0502   0.0161   0.0110   0.0052
     0.0001   0.0000   0.0000   0.0000   0.0000   0.0000   0.0000   0.0000
     0.0000   0.0000   0.0000   0.0000   0.0000   0.0000   0.0000   0.0000
     0.0000   0.0000   0.0000   0.0000   0.0000   0.0000   0.0000   0.0000
     0.0000   0.0000   0.0000

          k = 0.0000 0.2500 0.0000 ( 65257 PWs)   bands (ev):

   -92.7079 -92.6591 -92.5622 -92.5158 -92.4596 -92.4150 -92.3968 -92.2751
   -56.0614 -56.0461 -55.9194 -55.9086 -55.9026 -55.8954 -55.8614 -55.8313
   -55.8153 -55.8148 -55.8101 -55.7662 -55.7467 -55.7099 -55.6887 -55.6594
   -55.6514 -55.6026 -55.6017 -55.6000 -55.5916 -55.5500 -55.5272 -55.4411
   -31.2846 -31.2654 -31.1240 -31.0373 -30.9108 -30.9079 -30.8262 -30.8162
   -29.8533 -29.8104 -29.7856 -29.6783 -15.0516 -15.0163 -14.9369 -14.8028
   -14.6777 -14.5026 -14.3703 -14.1908 -14.1512 -14.1317 -14.1027 -14.0449
   -14.0381 -14.0259 -13.9993 -13.9844 -13.9357 -13.8544 -13.8127 -13.6541
   -13.6225 -13.5824 -13.5467 -13.4925 -13.4560 -13.3931 -13.3487 -13.3143
   -13.2207 -13.1579 -13.1516 -13.1154 -13.0952 -12.9926 -12.9708 -12.9523
   -12.9410 -12.9080 -12.8732 -12.8471 -12.8059 -12.7664 -12.7537 -12.7325
   -12.7141 -12.6999 -12.6637 -12.5855 -12.4927 -12.4108 -12.2549 -12.0801
   -12.0094 -11.8329 -11.7901 -11.7620 -11.7340 -11.7175 -11.6701 -11.6589
   -11.6360 -11.6015 -11.5009 -11.4480 -11.4374  -2.8119  -2.5915  -2.4533
    -2.2713  -2.2278  -2.0647  -1.8441  -1.7610  -1.7479  -1.6881  -1.5859
    -1.5709  -1.5384  -1.5103  -1.4663  -1.2702  -1.2110  -1.1346  -1.1265
    -1.0513  -1.0413  -0.9364  -0.9079  -0.8471  -0.8208  -0.7837  -0.7195
    -0.6915  -0.6592  -0.6264  -0.6111  -0.5775  -0.5052  -0.4545  -0.3831
    -0.2705  -0.2499  -0.2088  -0.0911  -0.0414   0.0023   0.0596   0.1082
     0.1268   0.1569   0.2179   0.5180   0.6041   0.6446   0.7251   0.7689
     0.7913   0.9032   0.9216   1.0250   1.0467   1.0722   1.1845   1.2821
     1.3045   1.3308   1.3457   1.3688   1.4301   1.4579   1.4870   1.5322
     1.5688   1.6040   1.6959   1.7241   1.7554   1.8069   1.8660   1.9138
     1.9321   1.9502   1.9685   2.0732   2.1984   2.2677   2.2816   2.3545
     2.3971   2.4099   2.4424   2.4486   2.4785   2.5125   2.5482   2.6320
     2.6774   2.6919   2.8590   2.8804   2.9148   2.9384   2.9523   2.9613
     2.9682   2.9760   3.0063   3.0082   3.0263   3.0319   3.0409   3.0615
     3.0717   3.0801   3.1009   3.1121   3.1171   3.1527   3.1695   3.2289
     3.6059   3.6300   3.8725   4.2934   4.4198   4.7098   5.0164   5.0626
     5.6420   5.8104   5.9716   5.9947   6.0801   6.1026   6.1779   6.5932
     6.8982   7.0879   7.1123   7.3243   7.4815   7.4943   7.6387   7.7357
     7.8862   7.9962   8.0659   8.1927   8.3080   8.3873   8.4125   8.4365
     8.5566   8.8381   8.9457

     occupation numbers 
     1.0000   1.0000   1.0000   1.0000   1.0000   1.0000   1.0000   1.0000
     1.0000   1.0000   1.0000   1.0000   1.0000   1.0000   1.0000   1.0000
     1.0000   1.0000   1.0000   1.0000   1.0000   1.0000   1.0000   1.0000
     1.0000   1.0000   1.0000   1.0000   1.0000   1.0000   1.0000   1.0000
     1.0000   1.0000   1.0000   1.0000   1.0000   1.0000   1.0000   1.0000
     1.0000   1.0000   1.0000   1.0000   1.0000   1.0000   1.0000   1.0000
     1.0000   1.0000   1.0000   1.0000   1.0000   1.0000   1.0000   1.0000
     1.0000   1.0000   1.0000   1.0000   1.0000   1.0000   1.0000   1.0000
     1.0000   1.0000   1.0000   1.0000   1.0000   1.0000   1.0000   1.0000
     1.0000   1.0000   1.0000   1.0000   1.0000   1.0000   1.0000   1.0000
     1.0000   1.0000   1.0000   1.0000   1.0000   1.0000   1.0000   1.0000
     1.0000   1.0000   1.0000   1.0000   1.0000   1.0000   1.0000   1.0000
     1.0000   1.0000   1.0000   1.0000   1.0000   1.0000   1.0000   1.0000
     1.0000   1.0000   1.0000   1.0000   1.0000   1.0000   1.0000   1.0000
     1.0000   1.0000   1.0000   1.0000   1.0000   1.0000   1.0000   1.0000
     1.0000   1.0000   1.0000   1.0000   1.0000   1.0000   1.0000   1.0000
     1.0000   1.0000   1.0000   1.0000   1.0000   1.0000   1.0000   1.0000
     1.0000   1.0000   1.0000   1.0000   1.0000   1.0000   1.0000   1.0000
     1.0000   1.0000   1.0000   1.0000   1.0000   1.0000   1.0000   1.0000
     1.0000   1.0000   1.0000   1.0000   1.0000   1.0000   0.9999   0.9999
     0.9999   0.9998   0.9998   0.9997   0.9996   0.9996   0.9992   0.9988
     0.9986   0.9984   0.9983   0.9981   0.9975   0.9972   0.9968   0.9960
     0.9953   0.9946   0.9920   0.9911   0.9899   0.9877   0.9846   0.9816
     0.9803   0.9790   0.9776   0.9679   0.9521   0.9409   0.9384   0.9241
     0.9147   0.9117   0.9037   0.9021   0.8942   0.8847   0.8740   0.8464
     0.8299   0.8244   0.7530   0.7429   0.7261   0.7144   0.7073   0.7027
     0.6992   0.6951   0.6792   0.6782   0.6685   0.6654   0.6606   0.6493
     0.6437   0.6390   0.6274   0.6211   0.6183   0.5979   0.5883   0.5537
     0.3354   0.3225   0.2059   0.0741   0.0512   0.0195   0.0059   0.0048
     0.0003   0.0001   0.0000   0.0000   0.0000   0.0000   0.0000   0.0000
     0.0000   0.0000   0.0000   0.0000   0.0000   0.0000   0.0000   0.0000
     0.0000   0.0000   0.0000   0.0000   0.0000   0.0000   0.0000   0.0000
     0.0000   0.0000   0.0000

          k = 0.0000-0.5000 0.0000 ( 65180 PWs)   bands (ev):

   -92.7079 -92.6591 -92.5622 -92.5158 -92.4596 -92.4150 -92.3968 -92.2751
   -56.0614 -56.0461 -55.9194 -55.9086 -55.9026 -55.8954 -55.8614 -55.8313
   -55.8153 -55.8148 -55.8101 -55.7662 -55.7467 -55.7099 -55.6887 -55.6594
   -55.6514 -55.6026 -55.6017 -55.6000 -55.5916 -55.5500 -55.5272 -55.4411
   -31.2844 -31.2653 -31.1242 -31.0374 -30.9096 -30.9084 -30.8265 -30.8166
   -29.8526 -29.8101 -29.7862 -29.6786 -15.0157 -14.9672 -14.9142 -14.7805
   -14.7011 -14.5628 -14.4084 -14.2816 -14.1642 -14.0813 -14.0469 -14.0356
   -13.9901 -13.9844 -13.9748 -13.9285 -13.9003 -13.8806 -13.8447 -13.7858
   -13.7598 -13.5898 -13.5309 -13.4953 -13.4636 -13.3664 -13.3653 -13.3084
   -13.2901 -13.2499 -13.2249 -13.1162 -13.0956 -12.9769 -12.9657 -12.9366
   -12.9203 -12.9143 -12.8866 -12.7683 -12.7467 -12.7201 -12.7134 -12.7096
   -12.6982 -12.6693 -12.6587 -12.5217 -12.4254 -12.3299 -12.2702 -12.1795
   -12.1488 -11.7870 -11.7844 -11.7570 -11.7202 -11.6854 -11.6740 -11.6315
   -11.6275 -11.5831 -11.5228 -11.5090 -11.4949  -2.5968  -2.5387  -2.3883
    -2.3165  -2.0330  -1.9512  -1.8234  -1.6868  -1.6465  -1.6293  -1.5523
    -1.5181  -1.4382  -1.4021  -1.3233  -1.2853  -1.2469  -1.2195  -1.2138
    -1.1592  -1.1216  -1.0727  -1.0369  -1.0080  -0.9723  -0.8639  -0.8201
    -0.7833  -0.7789  -0.6933  -0.6649  -0.6402  -0.5942  -0.5066  -0.4327
    -0.3406  -0.3112  -0.1977  -0.1780  -0.0366   0.0123   0.0417   0.0772
     0.2040   0.2841   0.3853   0.4570   0.4682   0.5917   0.6615   0.7343
     0.8746   0.9744   1.0090   1.0493   1.0617   1.0913   1.1089   1.1455
     1.1628   1.1863   1.2855   1.3426   1.3730   1.3992   1.6764   1.6996
     1.7279   1.8085   1.8260   1.8706   1.8902   1.9088   1.9333   1.9465
     1.9588   2.0004   2.0245   2.0594   2.0612   2.0923   2.1462   2.2387
     2.2830   2.4050   2.4352   2.4655   2.5979   2.6122   2.6226   2.6650
     2.6746   2.6774   2.7269   2.7382   2.7924   2.8137   2.8933   2.9058
     2.9771   2.9799   3.0053   3.0083   3.0232   3.0265   3.0303   3.0377
     3.0409   3.0538   3.0715   3.0730   3.1379   3.1420   3.1590   3.2150
     4.1174   4.1363   4.2025   4.2553   4.7272   4.9068   5.0199   5.1684
     5.4089   5.4584   5.5809   5.7271   6.0267   6.0405   6.4009   6.4875
     6.8475   6.9487   7.2192   7.2924   7.3841   7.4813   7.7442   7.9024
     7.9229   8.0982   8.2150   8.2786   8.3785   8.4270   8.4973   8.6622
     8.8072   8.8585   8.8851

     occupation numbers 
     1.0000   1.0000   1.0000   1.0000   1.0000   1.0000   1.0000   1.0000
     1.0000   1.0000   1.0000   1.0000   1.0000   1.0000   1.0000   1.0000
     1.0000   1.0000   1.0000   1.0000   1.0000   1.0000   1.0000   1.0000
     1.0000   1.0000   1.0000   1.0000   1.0000   1.0000   1.0000   1.0000
     1.0000   1.0000   1.0000   1.0000   1.0000   1.0000   1.0000   1.0000
     1.0000   1.0000   1.0000   1.0000   1.0000   1.0000   1.0000   1.0000
     1.0000   1.0000   1.0000   1.0000   1.0000   1.0000   1.0000   1.0000
     1.0000   1.0000   1.0000   1.0000   1.0000   1.0000   1.0000   1.0000
     1.0000   1.0000   1.0000   1.0000   1.0000   1.0000   1.0000   1.0000
     1.0000   1.0000   1.0000   1.0000   1.0000   1.0000   1.0000   1.0000
     1.0000   1.0000   1.0000   1.0000   1.0000   1.0000   1.0000   1.0000
     1.0000   1.0000   1.0000   1.0000   1.0000   1.0000   1.0000   1.0000
     1.0000   1.0000   1.0000   1.0000   1.0000   1.0000   1.0000   1.0000
     1.0000   1.0000   1.0000   1.0000   1.0000   1.0000   1.0000   1.0000
     1.0000   1.0000   1.0000   1.0000   1.0000   1.0000   1.0000   1.0000
     1.0000   1.0000   1.0000   1.0000   1.0000   1.0000   1.0000   1.0000
     1.0000   1.0000   1.0000   1.0000   1.0000   1.0000   1.0000   1.0000
     1.0000   1.0000   1.0000   1.0000   1.0000   1.0000   1.0000   1.0000
     1.0000   1.0000   1.0000   1.0000   1.0000   1.0000   1.0000   1.0000
     1.0000   1.0000   1.0000   1.0000   1.0000   1.0000   1.0000   0.9999
     0.9999   0.9998   0.9997   0.9996   0.9996   0.9995   0.9995   0.9994
     0.9993   0.9992   0.9987   0.9983   0.9981   0.9978   0.9927   0.9919
     0.9910   0.9876   0.9867   0.9843   0.9831   0.9819   0.9802   0.9793
     0.9783   0.9749   0.9728   0.9694   0.9692   0.9658   0.9593   0.9458
     0.9381   0.9128   0.9055   0.8977   0.8581   0.8533   0.8497   0.8345
     0.8310   0.8299   0.8106   0.8061   0.7832   0.7738   0.7367   0.7306
     0.6946   0.6931   0.6797   0.6781   0.6701   0.6684   0.6663   0.6623
     0.6606   0.6535   0.6438   0.6429   0.6064   0.6041   0.5943   0.5618
     0.1181   0.1126   0.0949   0.0824   0.0183   0.0092   0.0058   0.0030
     0.0010   0.0007   0.0004   0.0002   0.0000   0.0000   0.0000   0.0000
     0.0000   0.0000   0.0000   0.0000   0.0000   0.0000   0.0000   0.0000
     0.0000   0.0000   0.0000   0.0000   0.0000   0.0000   0.0000   0.0000
     0.0000   0.0000   0.0000

          k = 0.2500 0.2500 0.0000 ( 65198 PWs)   bands (ev):

   -92.7079 -92.6591 -92.5622 -92.5158 -92.4596 -92.4150 -92.3968 -92.2751
   -56.0614 -56.0461 -55.9194 -55.9086 -55.9026 -55.8954 -55.8614 -55.8313
   -55.8153 -55.8148 -55.8101 -55.7662 -55.7467 -55.7099 -55.6887 -55.6594
   -55.6514 -55.6026 -55.6017 -55.6000 -55.5916 -55.5500 -55.5272 -55.4411
   -31.2829 -31.2671 -31.1236 -31.0377 -30.9101 -30.9079 -30.8266 -30.8166
   -29.8523 -29.8114 -29.7852 -29.6787 -15.0227 -14.9822 -14.9088 -14.7921
   -14.6697 -14.5446 -14.4752 -14.2634 -14.1138 -14.0992 -14.0624 -14.0321
   -14.0114 -13.9877 -13.9826 -13.9430 -13.8988 -13.8436 -13.8261 -13.6686
   -13.6532 -13.6231 -13.6054 -13.5359 -13.5158 -13.4335 -13.4124 -13.2803
   -13.2461 -13.2295 -13.1484 -13.1078 -13.0551 -13.0247 -12.9816 -12.9549
   -12.9228 -12.9015 -12.8581 -12.7866 -12.7747 -12.7506 -12.7356 -12.7213
   -12.7091 -12.6996 -12.6585 -12.5178 -12.4592 -12.3712 -12.2840 -12.1083
   -12.0645 -11.8051 -11.7737 -11.7627 -11.7553 -11.6931 -11.6580 -11.6517
   -11.6165 -11.6076 -11.5176 -11.4761 -11.4590  -2.6735  -2.4657  -2.3471
    -2.2527  -2.1326  -2.0682  -1.8688  -1.7255  -1.7067  -1.6754  -1.5806
    -1.5488  -1.4536  -1.4261  -1.3759  -1.2456  -1.2123  -1.1906  -1.1226
    -1.0779  -1.0320  -1.0093  -0.9862  -0.9426  -0.9283  -0.8374  -0.7866
    -0.7187  -0.6704  -0.6402  -0.5940  -0.5791  -0.5149  -0.4652  -0.4033
    -0.3750  -0.2845  -0.2323  -0.2051  -0.1672  -0.1121  -0.0180  -0.0001
     0.0277   0.1080   0.1329   0.4067   0.5594   0.5900   0.6537   0.6993
     0.7457   0.7936   0.8656   0.9024   1.1723   1.2367   1.3091   1.3347
     1.3878   1.4142   1.4511   1.4892   1.5052   1.5333   1.5815   1.5862
     1.6026   1.6465   1.6830   1.7249   1.7977   1.8246   1.8370   1.8736
     1.9039   1.9588   1.9788   2.1101   2.1770   2.2141   2.2287   2.2978
     2.3614   2.3893   2.4068   2.4267   2.4495   2.4602   2.4837   2.5747
     2.6168   2.7052   2.8700   2.8877   2.8930   2.9095   2.9258   2.9380
     2.9504   2.9560   2.9678   2.9806   2.9941   3.0110   3.0174   3.0295
     3.0530   3.0633   3.0730   3.1039   3.4042   3.4969   3.5426   3.6143
     3.6366   3.8527   3.9473   4.3065   4.5038   4.7125   4.9826   5.1630
     5.6462   5.6998   5.7727   5.8306   5.8903   6.1419   6.1528   6.2129
     6.8929   6.9879   7.1509   7.3263   7.5466   7.6015   7.7078   7.8535
     7.9199   8.0652   8.2033   8.2533   8.3364   8.3781   8.4413   8.5310
     8.6166   8.6773   8.9225

     occupation numbers 
     1.0000   1.0000   1.0000   1.0000   1.0000   1.0000   1.0000   1.0000
     1.0000   1.0000   1.0000   1.0000   1.0000   1.0000   1.0000   1.0000
     1.0000   1.0000   1.0000   1.0000   1.0000   1.0000   1.0000   1.0000
     1.0000   1.0000   1.0000   1.0000   1.0000   1.0000   1.0000   1.0000
     1.0000   1.0000   1.0000   1.0000   1.0000   1.0000   1.0000   1.0000
     1.0000   1.0000   1.0000   1.0000   1.0000   1.0000   1.0000   1.0000
     1.0000   1.0000   1.0000   1.0000   1.0000   1.0000   1.0000   1.0000
     1.0000   1.0000   1.0000   1.0000   1.0000   1.0000   1.0000   1.0000
     1.0000   1.0000   1.0000   1.0000   1.0000   1.0000   1.0000   1.0000
     1.0000   1.0000   1.0000   1.0000   1.0000   1.0000   1.0000   1.0000
     1.0000   1.0000   1.0000   1.0000   1.0000   1.0000   1.0000   1.0000
     1.0000   1.0000   1.0000   1.0000   1.0000   1.0000   1.0000   1.0000
     1.0000   1.0000   1.0000   1.0000   1.0000   1.0000   1.0000   1.0000
     1.0000   1.0000   1.0000   1.0000   1.0000   1.0000   1.0000   1.0000
     1.0000   1.0000   1.0000   1.0000   1.0000   1.0000   1.0000   1.0000
     1.0000   1.0000   1.0000   1.0000   1.0000   1.0000   1.0000   1.0000
     1.0000   1.0000   1.0000   1.0000   1.0000   1.0000   1.0000   1.0000
     1.0000   1.0000   1.0000   1.0000   1.0000   1.0000   1.0000   1.0000
     1.0000   1.0000   1.0000   1.0000   1.0000   1.0000   1.0000   1.0000
     1.0000   1.0000   1.0000   1.0000   1.0000   1.0000   1.0000   1.0000
     0.9999   0.9999   0.9999   0.9998   0.9993   0.9990   0.9986   0.9984
     0.9979   0.9977   0.9972   0.9967   0.9965   0.9960   0.9951   0.9950
     0.9946   0.9935   0.9925   0.9911   0.9881   0.9868   0.9862   0.9841
     0.9822   0.9784   0.9768   0.9638   0.9551   0.9497   0.9474   0.9354
     0.9226   0.9165   0.9124   0.9076   0.9019   0.8991   0.8928   0.8657
     0.8517   0.8192   0.7478   0.7394   0.7368   0.7288   0.7207   0.7146
     0.7083   0.7054   0.6994   0.6927   0.6856   0.6767   0.6733   0.6667
     0.6540   0.6483   0.6429   0.6257   0.4501   0.3962   0.3703   0.3309
     0.3190   0.2144   0.1757   0.0714   0.0394   0.0193   0.0068   0.0031
     0.0003   0.0002   0.0001   0.0001   0.0001   0.0000   0.0000   0.0000
     0.0000   0.0000   0.0000   0.0000   0.0000   0.0000   0.0000   0.0000
     0.0000   0.0000   0.0000   0.0000   0.0000   0.0000   0.0000   0.0000
     0.0000   0.0000   0.0000

          k = 0.2500-0.5000 0.0000 ( 65138 PWs)   bands (ev):

   -92.7079 -92.6591 -92.5622 -92.5158 -92.4596 -92.4150 -92.3968 -92.2751
   -56.0614 -56.0461 -55.9194 -55.9086 -55.9026 -55.8954 -55.8614 -55.8313
   -55.8153 -55.8148 -55.8101 -55.7662 -55.7467 -55.7099 -55.6887 -55.6594
   -55.6514 -55.6026 -55.6017 -55.6000 -55.5916 -55.5500 -55.5272 -55.4411
   -31.2827 -31.2670 -31.1238 -31.0378 -30.9092 -30.9081 -30.8269 -30.8170
   -29.8517 -29.8111 -29.7858 -29.6790 -14.9853 -14.9405 -14.8715 -14.7514
   -14.7225 -14.6042 -14.5096 -14.3789 -14.0784 -14.0207 -13.9975 -13.9846
   -13.9741 -13.9549 -13.9487 -13.9122 -13.8895 -13.8556 -13.8252 -13.7879
   -13.7414 -13.6720 -13.6237 -13.5524 -13.5449 -13.4749 -13.4067 -13.3407
   -13.3068 -13.2139 -13.1491 -13.1246 -13.0397 -12.9975 -12.9810 -12.9509
   -12.9190 -12.8859 -12.8755 -12.7814 -12.7589 -12.7474 -12.7181 -12.6910
   -12.6735 -12.6615 -12.6308 -12.5282 -12.4068 -12.3274 -12.2521 -12.1661
   -12.1463 -11.7808 -11.7687 -11.7579 -11.7306 -11.6988 -11.6706 -11.6287
   -11.6024 -11.5796 -11.5359 -11.5100 -11.4990  -2.4544  -2.3906  -2.2621
    -2.1852  -2.0534  -1.9712  -1.8478  -1.6979  -1.6427  -1.6209  -1.5589
    -1.5460  -1.4487  -1.3807  -1.2969  -1.2465  -1.2385  -1.2063  -1.1741
    -1.1313  -1.0973  -1.0484  -1.0103  -0.9753  -0.9377  -0.9244  -0.8801
    -0.8506  -0.8057  -0.7771  -0.7104  -0.6065  -0.5709  -0.4901  -0.4228
    -0.3697  -0.3328  -0.3141  -0.2464  -0.0970  -0.0796   0.0241   0.0475
     0.0580   0.1002   0.1446   0.1742   0.2099   0.2710   0.5689   0.6648
     0.7015   0.7592   1.0427   1.0552   1.1458   1.1699   1.3334   1.3702
     1.4083   1.4365   1.4450   1.4674   1.5310   1.5816   1.6158   1.6857
     1.8021   1.8252   1.8465   1.8524   1.8940   1.9036   1.9211   1.9601
     1.9680   1.9899   2.0146   2.0332   2.0553   2.0880   2.1469   2.1930
     2.2777   2.3963   2.4107   2.4625   2.5501   2.5662   2.5853   2.6191
     2.6410   2.6650   2.6855   2.6997   2.7230   2.8194   2.8715   2.8892
     2.8943   2.9065   2.9267   2.9401   2.9598   2.9677   3.0057   3.0124
     3.0266   3.0340   3.0429   3.0540   3.5690   3.5971   3.7360   3.7938
     4.1232   4.1799   4.2026   4.3140   4.7473   4.9272   5.0559   5.1379
     5.2984   5.4277   5.6028   5.6422   5.7647   5.7868   6.3928   6.4797
     6.5130   6.6091   7.3112   7.4193   7.5982   7.6960   7.7931   7.8560
     7.9087   8.0345   8.4065   8.4491   8.4878   8.5417   8.5634   8.5916
     8.7043   8.7326   8.7722

     occupation numbers 
     1.0000   1.0000   1.0000   1.0000   1.0000   1.0000   1.0000   1.0000
     1.0000   1.0000   1.0000   1.0000   1.0000   1.0000   1.0000   1.0000
     1.0000   1.0000   1.0000   1.0000   1.0000   1.0000   1.0000   1.0000
     1.0000   1.0000   1.0000   1.0000   1.0000   1.0000   1.0000   1.0000
     1.0000   1.0000   1.0000   1.0000   1.0000   1.0000   1.0000   1.0000
     1.0000   1.0000   1.0000   1.0000   1.0000   1.0000   1.0000   1.0000
     1.0000   1.0000   1.0000   1.0000   1.0000   1.0000   1.0000   1.0000
     1.0000   1.0000   1.0000   1.0000   1.0000   1.0000   1.0000   1.0000
     1.0000   1.0000   1.0000   1.0000   1.0000   1.0000   1.0000   1.0000
     1.0000   1.0000   1.0000   1.0000   1.0000   1.0000   1.0000   1.0000
     1.0000   1.0000   1.0000   1.0000   1.0000   1.0000   1.0000   1.0000
     1.0000   1.0000   1.0000   1.0000   1.0000   1.0000   1.0000   1.0000
     1.0000   1.0000   1.0000   1.0000   1.0000   1.0000   1.0000   1.0000
     1.0000   1.0000   1.0000   1.0000   1.0000   1.0000   1.0000   1.0000
     1.0000   1.0000   1.0000   1.0000   1.0000   1.0000   1.0000   1.0000
     1.0000   1.0000   1.0000   1.0000   1.0000   1.0000   1.0000   1.0000
     1.0000   1.0000   1.0000   1.0000   1.0000   1.0000   1.0000   1.0000
     1.0000   1.0000   1.0000   1.0000   1.0000   1.0000   1.0000   1.0000
     1.0000   1.0000   1.0000   1.0000   1.0000   1.0000   1.0000   1.0000
     1.0000   1.0000   1.0000   1.0000   1.0000   1.0000   1.0000   1.0000
     0.9999   0.9999   0.9996   0.9996   0.9994   0.9993   0.9984   0.9981
     0.9977   0.9974   0.9973   0.9970   0.9960   0.9951   0.9943   0.9924
     0.9879   0.9868   0.9856   0.9853   0.9829   0.9823   0.9811   0.9783
     0.9776   0.9758   0.9737   0.9720   0.9698   0.9663   0.9592   0.9528
     0.9391   0.9148   0.9115   0.8985   0.8734   0.8684   0.8623   0.8509
     0.8432   0.8345   0.8268   0.8214   0.8122   0.7712   0.7472   0.7387
     0.7362   0.7303   0.7203   0.7135   0.7035   0.6994   0.6795   0.6759
     0.6683   0.6643   0.6595   0.6534   0.3557   0.3402   0.2682   0.2407
     0.1164   0.1008   0.0949   0.0699   0.0170   0.0085   0.0050   0.0035
     0.0017   0.0009   0.0003   0.0003   0.0001   0.0001   0.0000   0.0000
     0.0000   0.0000   0.0000   0.0000   0.0000   0.0000   0.0000   0.0000
     0.0000   0.0000   0.0000   0.0000   0.0000   0.0000   0.0000   0.0000
     0.0000   0.0000   0.0000

          k =-0.5000-0.5000 0.0000 ( 65132 PWs)   bands (ev):

   -92.7079 -92.6591 -92.5622 -92.5158 -92.4596 -92.4150 -92.3968 -92.2751
   -56.0614 -56.0461 -55.9194 -55.9086 -55.9026 -55.8954 -55.8614 -55.8313
   -55.8153 -55.8148 -55.8101 -55.7662 -55.7467 -55.7099 -55.6887 -55.6594
   -55.6514 -55.6026 -55.6017 -55.6000 -55.5916 -55.5500 -55.5272 -55.4411
   -31.2805 -31.2692 -31.1234 -31.0382 -30.9088 -30.9078 -30.8273 -30.8173
   -29.8506 -29.8122 -29.7854 -29.6795 -14.9395 -14.9136 -14.7954 -14.7832
   -14.6830 -14.6539 -14.6090 -14.4781 -13.9894 -13.9847 -13.9745 -13.9420
   -13.9230 -13.9081 -13.8870 -13.8662 -13.8555 -13.8363 -13.8266 -13.8044
   -13.7375 -13.7327 -13.6870 -13.6659 -13.6433 -13.5643 -13.4530 -13.3773
   -13.3543 -13.1650 -13.1207 -13.0564 -13.0322 -12.9965 -12.9912 -12.9815
   -12.9624 -12.8551 -12.8386 -12.7868 -12.7847 -12.7419 -12.7300 -12.6968
   -12.6889 -12.6121 -12.6041 -12.5445 -12.3895 -12.3238 -12.2333 -12.1521
   -12.1447 -11.7776 -11.7649 -11.7468 -11.7302 -11.6949 -11.6775 -11.6423
   -11.5830 -11.5619 -11.5582 -11.5077 -11.5050  -2.2289  -2.1550  -2.1465
    -2.0754  -2.0361  -1.9574  -1.8894  -1.7631  -1.6484  -1.6185  -1.5773
    -1.5219  -1.4489  -1.4345  -1.3639  -1.3217  -1.2081  -1.2022  -1.1732
    -1.1250  -1.0990  -1.0343  -0.9869  -0.9682  -0.9554  -0.9020  -0.8594
    -0.8387  -0.7280  -0.6727  -0.6271  -0.5752  -0.5479  -0.5329  -0.5001
    -0.4584  -0.4202  -0.4108  -0.3280  -0.2523  -0.2166  -0.1851  -0.1155
    -0.0468  -0.0429   0.0203   0.0449   0.0506   0.0595   0.5344   0.6067
     0.6512   0.6679   1.0719   1.0804   1.1126   1.1484   1.4185   1.4377
     1.4455   1.4854   1.6123   1.7064   1.7345   1.7711   1.8083   1.8150
     1.8264   1.8572   1.8730   1.8942   1.9042   1.9416   1.9486   1.9742
     2.0000   2.0098   2.0215   2.0653   2.0876   2.1030   2.1346   2.1682
     2.2285   2.2948   2.4026   2.4594   2.5680   2.5939   2.6165   2.6312
     2.6459   2.6732   2.6785   2.6957   2.7061   2.7219   2.7437   2.7554
     2.8202   2.8245   2.8450   2.8586   2.8759   2.8932   2.8964   2.9070
     3.0094   3.0176   3.0387   3.0509   3.9918   4.0367   4.0540   4.1076
     4.3118   4.3856   4.4114   4.6523   4.7746   4.8569   4.9866   5.0771
     5.0944   5.2015   5.2935   5.4285   5.8494   5.8836   5.9547   6.0293
     6.7137   6.8496   7.0207   7.1414   7.9281   7.9450   7.9682   7.9763
     8.0040   8.0255   8.0857   8.2684   8.5844   8.6135   8.6167   8.6562
     8.6727   8.7983   8.8171

     occupation numbers 
     1.0000   1.0000   1.0000   1.0000   1.0000   1.0000   1.0000   1.0000
     1.0000   1.0000   1.0000   1.0000   1.0000   1.0000   1.0000   1.0000
     1.0000   1.0000   1.0000   1.0000   1.0000   1.0000   1.0000   1.0000
     1.0000   1.0000   1.0000   1.0000   1.0000   1.0000   1.0000   1.0000
     1.0000   1.0000   1.0000   1.0000   1.0000   1.0000   1.0000   1.0000
     1.0000   1.0000   1.0000   1.0000   1.0000   1.0000   1.0000   1.0000
     1.0000   1.0000   1.0000   1.0000   1.0000   1.0000   1.0000   1.0000
     1.0000   1.0000   1.0000   1.0000   1.0000   1.0000   1.0000   1.0000
     1.0000   1.0000   1.0000   1.0000   1.0000   1.0000   1.0000   1.0000
     1.0000   1.0000   1.0000   1.0000   1.0000   1.0000   1.0000   1.0000
     1.0000   1.0000   1.0000   1.0000   1.0000   1.0000   1.0000   1.0000
     1.0000   1.0000   1.0000   1.0000   1.0000   1.0000   1.0000   1.0000
     1.0000   1.0000   1.0000   1.0000   1.0000   1.0000   1.0000   1.0000
     1.0000   1.0000   1.0000   1.0000   1.0000   1.0000   1.0000   1.0000
     1.0000   1.0000   1.0000   1.0000   1.0000   1.0000   1.0000   1.0000
     1.0000   1.0000   1.0000   1.0000   1.0000   1.0000   1.0000   1.0000
     1.0000   1.0000   1.0000   1.0000   1.0000   1.0000   1.0000   1.0000
     1.0000   1.0000   1.0000   1.0000   1.0000   1.0000   1.0000   1.0000
     1.0000   1.0000   1.0000   1.0000   1.0000   1.0000   1.0000   1.0000
     1.0000   1.0000   1.0000   1.0000   1.0000   1.0000   1.0000   1.0000
     1.0000   1.0000   0.9996   0.9996   0.9995   0.9994   0.9976   0.9974
     0.9973   0.9968   0.9944   0.9917   0.9907   0.9893   0.9876   0.9873
     0.9867   0.9851   0.9842   0.9829   0.9822   0.9796   0.9791   0.9771
     0.9750   0.9741   0.9731   0.9687   0.9663   0.9646   0.9608   0.9564
     0.9474   0.9360   0.9134   0.8993   0.8678   0.8594   0.8518   0.8467
     0.8415   0.8315   0.8295   0.8229   0.8189   0.8126   0.8038   0.7990
     0.7709   0.7690   0.7596   0.7532   0.7451   0.7367   0.7352   0.7300
     0.6775   0.6732   0.6618   0.6551   0.1592   0.1435   0.1378   0.1210
     0.0704   0.0568   0.0525   0.0239   0.0154   0.0112   0.0067   0.0045
     0.0042   0.0026   0.0017   0.0009   0.0001   0.0001   0.0000   0.0000
     0.0000   0.0000   0.0000   0.0000   0.0000   0.0000   0.0000   0.0000
     0.0000   0.0000   0.0000   0.0000   0.0000   0.0000   0.0000   0.0000
     0.0000   0.0000   0.0000

          k = 0.2500 0.0000 0.0000 ( 65257 PWs)   bands (ev):

   -92.7079 -92.6591 -92.5622 -92.5158 -92.4596 -92.4150 -92.3968 -92.2751
   -56.0614 -56.0461 -55.9194 -55.9086 -55.9026 -55.8954 -55.8614 -55.8313
   -55.8153 -55.8148 -55.8101 -55.7662 -55.7467 -55.7099 -55.6887 -55.6594
   -55.6514 -55.6026 -55.6017 -55.6000 -55.5916 -55.5500 -55.5272 -55.4411
   -31.2831 -31.2672 -31.1234 -31.0375 -30.9108 -30.9080 -30.8262 -30.8162
   -29.8529 -29.8118 -29.7845 -29.6784 -15.0553 -15.0121 -14.9419 -14.7962
   -14.6846 -14.4952 -14.3586 -14.1772 -14.1635 -14.1319 -14.1010 -14.0748
   -14.0452 -14.0239 -13.9980 -13.9832 -13.9441 -13.8434 -13.8110 -13.6659
   -13.5917 -13.5823 -13.5157 -13.4974 -13.4833 -13.4005 -13.3509 -13.3197
   -13.2105 -13.1658 -13.1459 -13.0675 -13.0505 -13.0323 -13.0146 -12.9794
   -12.9627 -12.9390 -12.8461 -12.8270 -12.7793 -12.7716 -12.7462 -12.7332
   -12.7181 -12.7000 -12.6614 -12.5811 -12.4946 -12.4129 -12.2559 -12.0800
   -12.0105 -11.8322 -11.7801 -11.7631 -11.7500 -11.7229 -11.6728 -11.6493
   -11.6412 -11.5897 -11.5024 -11.4463 -11.4404  -2.8115  -2.5905  -2.4600
    -2.2875  -2.2236  -2.0548  -1.8451  -1.7700  -1.7262  -1.6894  -1.5887
[...]
     0.3551   0.3252   0.2031   0.0772   0.0461   0.0219   0.0059   0.0047
     0.0003   0.0001   0.0000   0.0000   0.0000   0.0000   0.0000   0.0000
     0.0000   0.0000   0.0000   0.0000   0.0000   0.0000   0.0000   0.0000
     0.0000   0.0000   0.0000   0.0000   0.0000   0.0000   0.0000   0.0000
     0.0000   0.0000   0.0000

          k =-0.5000 0.0000 0.0000 ( 65180 PWs)   bands (ev):

   -92.7079 -92.6591 -92.5622 -92.5158 -92.4596 -92.4150 -92.3968 -92.2751
   -56.0614 -56.0461 -55.9194 -55.9086 -55.9026 -55.8954 -55.8614 -55.8313
   -55.8153 -55.8148 -55.8101 -55.7662 -55.7467 -55.7099 -55.6887 -55.6594
   -55.6514 -55.6026 -55.6017 -55.6000 -55.5916 -55.5500 -55.5272 -55.4411
   -31.2809 -31.2695 -31.1230 -31.0379 -30.9096 -30.9085 -30.8265 -30.8166
   -29.8519 -29.8128 -29.7841 -29.6788 -15.0213 -14.9696 -14.9074 -14.7905
   -14.6951 -14.5501 -14.4073 -14.2475 -14.1388 -14.1177 -14.1142 -14.0471
   -13.9975 -13.9844 -13.9656 -13.9144 -13.8959 -13.8874 -13.8417 -13.8015
   -13.7105 -13.5619 -13.5229 -13.5006 -13.4920 -13.3783 -13.3699 -13.3130
   -13.2747 -13.2514 -13.2178 -13.0613 -13.0483 -13.0227 -13.0125 -12.9574
   -12.9394 -12.9275 -12.9042 -12.7707 -12.7365 -12.7200 -12.7148 -12.7087
   -12.6613 -12.6473 -12.6381 -12.5479 -12.4212 -12.3338 -12.2641 -12.1859
   -12.1510 -11.7841 -11.7628 -11.7558 -11.7419 -11.7233 -11.6818 -11.6194
   -11.6009 -11.5673 -11.5255 -11.5162 -11.5003  -2.5872  -2.5489  -2.3862
    -2.3463  -2.0323  -1.9568  -1.8111  -1.6918  -1.6526  -1.6071  -1.5601
    -1.5351  -1.4113  -1.3672  -1.3512  -1.2698  -1.2332  -1.2229  -1.2037
    -1.1871  -1.1245  -1.0596  -1.0324  -0.9980  -0.9011  -0.8595  -0.8105
    -0.7778  -0.7573  -0.7247  -0.6776  -0.6524  -0.6111  -0.5119  -0.4455
    -0.3726  -0.3135  -0.1402  -0.1181  -0.0620  -0.0141   0.0482   0.0576
     0.2000   0.2300   0.2586   0.4348   0.5348   0.5855   0.6683   0.7473
     0.8523   0.8746   1.0035   1.0278   1.0802   1.1096   1.1464   1.1605
     1.2100   1.2275   1.2999   1.3434   1.3878   1.4043   1.7019   1.7209
     1.7336   1.7594   1.8605   1.8677   1.8842   1.8930   1.9186   1.9369
     1.9728   1.9910   2.0211   2.0712   2.0889   2.1403   2.1609   2.2169
     2.3207   2.4104   2.4278   2.4620   2.5060   2.5172   2.5956   2.6195
     2.6531   2.7197   2.7257   2.7340   2.7633   2.8294   2.8764   2.9276
     2.9508   2.9937   2.9990   3.0005   3.0108   3.0256   3.0378   3.0514
     3.0561   3.0770   3.0796   3.1044   3.1225   3.1279   3.2576   3.2635
     4.0530   4.1287   4.2011   4.3169   4.7858   4.8667   5.0383   5.0531
     5.4816   5.5050   5.5996   5.6502   6.0288   6.0409   6.3337   6.5518
     6.7935   7.0002   7.2731   7.3190   7.3988   7.4779   7.7450   7.7724
     7.8818   8.0587   8.2326   8.3181   8.3923   8.4521   8.5308   8.6232
     8.7564   8.8110   8.9071

     occupation numbers 
     1.0000   1.0000   1.0000   1.0000   1.0000   1.0000   1.0000   1.0000
     1.0000   1.0000   1.0000   1.0000   1.0000   1.0000   1.0000   1.0000
     1.0000   1.0000   1.0000   1.0000   1.0000   1.0000   1.0000   1.0000
     1.0000   1.0000   1.0000   1.0000   1.0000   1.0000   1.0000   1.0000
     1.0000   1.0000   1.0000   1.0000   1.0000   1.0000   1.0000   1.0000
     1.0000   1.0000   1.0000   1.0000   1.0000   1.0000   1.0000   1.0000
     1.0000   1.0000   1.0000   1.0000   1.0000   1.0000   1.0000   1.0000
     1.0000   1.0000   1.0000   1.0000   1.0000   1.0000   1.0000   1.0000
     1.0000   1.0000   1.0000   1.0000   1.0000   1.0000   1.0000   1.0000
     1.0000   1.0000   1.0000   1.0000   1.0000   1.0000   1.0000   1.0000
     1.0000   1.0000   1.0000   1.0000   1.0000   1.0000   1.0000   1.0000
     1.0000   1.0000   1.0000   1.0000   1.0000   1.0000   1.0000   1.0000
     1.0000   1.0000   1.0000   1.0000   1.0000   1.0000   1.0000   1.0000
     1.0000   1.0000   1.0000   1.0000   1.0000   1.0000   1.0000   1.0000
     1.0000   1.0000   1.0000   1.0000   1.0000   1.0000   1.0000   1.0000
     1.0000   1.0000   1.0000   1.0000   1.0000   1.0000   1.0000   1.0000
     1.0000   1.0000   1.0000   1.0000   1.0000   1.0000   1.0000   1.0000
     1.0000   1.0000   1.0000   1.0000   1.0000   1.0000   1.0000   1.0000
     1.0000   1.0000   1.0000   1.0000   1.0000   1.0000   1.0000   1.0000
     1.0000   1.0000   1.0000   1.0000   1.0000   1.0000   1.0000   0.9999
     0.9999   0.9999   0.9997   0.9997   0.9996   0.9995   0.9994   0.9993
     0.9991   0.9991   0.9986   0.9983   0.9979   0.9978   0.9919   0.9912
     0.9907   0.9897   0.9849   0.9845   0.9835   0.9829   0.9813   0.9800
     0.9772   0.9758   0.9731   0.9681   0.9662   0.9600   0.9573   0.9492
     0.9310   0.9115   0.9073   0.8986   0.8865   0.8833   0.8589   0.8508
     0.8389   0.8135   0.8111   0.8078   0.7957   0.7667   0.7448   0.7198
     0.7081   0.6859   0.6831   0.6823   0.6768   0.6688   0.6623   0.6549
     0.6523   0.6407   0.6393   0.6254   0.6152   0.6121   0.5368   0.5333
     0.1381   0.1148   0.0953   0.0694   0.0147   0.0108   0.0054   0.0050
     0.0007   0.0006   0.0004   0.0003   0.0000   0.0000   0.0000   0.0000
     0.0000   0.0000   0.0000   0.0000   0.0000   0.0000   0.0000   0.0000
     0.0000   0.0000   0.0000   0.0000   0.0000   0.0000   0.0000   0.0000
     0.0000   0.0000   0.0000

          k =-0.2500 0.2500 0.0000 ( 65198 PWs)   bands (ev):

   -92.7079 -92.6591 -92.5622 -92.5158 -92.4596 -92.4150 -92.3968 -92.2751
   -56.0614 -56.0461 -55.9194 -55.9086 -55.9026 -55.8954 -55.8614 -55.8313
   -55.8153 -55.8148 -55.8101 -55.7662 -55.7467 -55.7099 -55.6887 -55.6594
   -55.6514 -55.6026 -55.6017 -55.6000 -55.5916 -55.5500 -55.5272 -55.4411
   -31.2829 -31.2671 -31.1236 -31.0377 -30.9101 -30.9079 -30.8266 -30.8166
   -29.8523 -29.8114 -29.7852 -29.6787 -15.0240 -14.9812 -14.9071 -14.7911
   -14.6748 -14.5503 -14.4670 -14.2537 -14.1198 -14.0918 -14.0740 -14.0293
   -14.0035 -13.9853 -13.9829 -13.9602 -13.9036 -13.8390 -13.8258 -13.6781
   -13.6495 -13.6188 -13.6010 -13.5425 -13.5025 -13.4420 -13.3976 -13.2852
   -13.2524 -13.2279 -13.1528 -13.1087 -13.0466 -13.0133 -12.9917 -12.9533
   -12.9346 -12.9098 -12.8491 -12.7924 -12.7800 -12.7702 -12.7309 -12.7087
   -12.6993 -12.6914 -12.6650 -12.4832 -12.4490 -12.4082 -12.2897 -12.1190
   -12.0505 -11.8043 -11.7829 -11.7559 -11.7435 -11.7025 -11.6677 -11.6448
   -11.6230 -11.6007 -11.5174 -11.4717 -11.4622  -2.6719  -2.4646  -2.3431
    -2.2541  -2.1367  -2.0709  -1.8664  -1.7224  -1.7043  -1.6734  -1.5812
    -1.5478  -1.4533  -1.4193  -1.3935  -1.2512  -1.2129  -1.1891  -1.1243
    -1.0975  -1.0358  -1.0152  -0.9758  -0.9473  -0.9071  -0.8426  -0.7953
    -0.7284  -0.6633  -0.6364  -0.5875  -0.5587  -0.5130  -0.4549  -0.4053
    -0.3708  -0.2651  -0.2366  -0.2218  -0.1790  -0.1144  -0.0229  -0.0001
     0.0380   0.1151   0.1285   0.3866   0.5625   0.5985   0.6439   0.7037
     0.7454   0.7980   0.8750   0.8980   1.1796   1.2883   1.3282   1.3612
     1.3661   1.4070   1.4237   1.4706   1.5023   1.5141   1.5404   1.5895
     1.6045   1.6422   1.6632   1.7078   1.8099   1.8146   1.8394   1.8722
     1.9023   1.9444   1.9860   2.1000   2.2092   2.2301   2.2771   2.2950
     2.3604   2.3997   2.4083   2.4308   2.4495   2.4655   2.4882   2.5753
     2.6160   2.7041   2.8770   2.8858   2.8991   2.9086   2.9197   2.9337
     2.9422   2.9593   2.9672   2.9813   2.9916   3.0030   3.0120   3.0195
     3.0536   3.0640   3.0717   3.1058   3.3974   3.4788   3.5453   3.6137
     3.6499   3.8374   3.9561   4.3056   4.5019   4.7136   4.9917   5.1630
     5.6475   5.6973   5.7759   5.8272   5.8911   6.1425   6.1664   6.1980
     6.8934   6.9905   7.1436   7.3356   7.5598   7.6088   7.6684   7.8716
     7.9229   8.0514   8.2151   8.2649   8.3345   8.3959   8.4436   8.4899
     8.5631   8.7363   8.9410

     occupation numbers 
     1.0000   1.0000   1.0000   1.0000   1.0000   1.0000   1.0000   1.0000
     1.0000   1.0000   1.0000   1.0000   1.0000   1.0000   1.0000   1.0000
     1.0000   1.0000   1.0000   1.0000   1.0000   1.0000   1.0000   1.0000
     1.0000   1.0000   1.0000   1.0000   1.0000   1.0000   1.0000   1.0000
     1.0000   1.0000   1.0000   1.0000   1.0000   1.0000   1.0000   1.0000
     1.0000   1.0000   1.0000   1.0000   1.0000   1.0000   1.0000   1.0000
     1.0000   1.0000   1.0000   1.0000   1.0000   1.0000   1.0000   1.0000
     1.0000   1.0000   1.0000   1.0000   1.0000   1.0000   1.0000   1.0000
     1.0000   1.0000   1.0000   1.0000   1.0000   1.0000   1.0000   1.0000
     1.0000   1.0000   1.0000   1.0000   1.0000   1.0000   1.0000   1.0000
     1.0000   1.0000   1.0000   1.0000   1.0000   1.0000   1.0000   1.0000
     1.0000   1.0000   1.0000   1.0000   1.0000   1.0000   1.0000   1.0000
     1.0000   1.0000   1.0000   1.0000   1.0000   1.0000   1.0000   1.0000
     1.0000   1.0000   1.0000   1.0000   1.0000   1.0000   1.0000   1.0000
     1.0000   1.0000   1.0000   1.0000   1.0000   1.0000   1.0000   1.0000
     1.0000   1.0000   1.0000   1.0000   1.0000   1.0000   1.0000   1.0000
     1.0000   1.0000   1.0000   1.0000   1.0000   1.0000   1.0000   1.0000
     1.0000   1.0000   1.0000   1.0000   1.0000   1.0000   1.0000   1.0000
     1.0000   1.0000   1.0000   1.0000   1.0000   1.0000   1.0000   1.0000
     1.0000   1.0000   1.0000   1.0000   1.0000   1.0000   1.0000   0.9999
     0.9999   0.9999   0.9999   0.9998   0.9993   0.9987   0.9984   0.9982
     0.9981   0.9977   0.9976   0.9970   0.9965   0.9963   0.9959   0.9949
     0.9946   0.9936   0.9930   0.9917   0.9875   0.9873   0.9860   0.9842
     0.9823   0.9794   0.9762   0.9649   0.9504   0.9472   0.9392   0.9359
     0.9228   0.9140   0.9120   0.9066   0.9018   0.8977   0.8915   0.8655
     0.8520   0.8197   0.7445   0.7403   0.7339   0.7292   0.7237   0.7167
     0.7125   0.7037   0.6997   0.6923   0.6869   0.6809   0.6762   0.6721
     0.6536   0.6479   0.6437   0.6246   0.4541   0.4067   0.3688   0.3312
     0.3120   0.2210   0.1723   0.0716   0.0396   0.0192   0.0065   0.0031
     0.0003   0.0002   0.0001   0.0001   0.0001   0.0000   0.0000   0.0000
     0.0000   0.0000   0.0000   0.0000   0.0000   0.0000   0.0000   0.0000
     0.0000   0.0000   0.0000   0.0000   0.0000   0.0000   0.0000   0.0000
     0.0000   0.0000   0.0000

          k =-0.5000 0.2500 0.0000 ( 65138 PWs)   bands (ev):

   -92.7079 -92.6591 -92.5622 -92.5158 -92.4596 -92.4150 -92.3968 -92.2751
   -56.0614 -56.0461 -55.9194 -55.9086 -55.9026 -55.8954 -55.8614 -55.8313
   -55.8153 -55.8148 -55.8101 -55.7662 -55.7467 -55.7099 -55.6887 -55.6594
   -55.6514 -55.6026 -55.6017 -55.6000 -55.5916 -55.5500 -55.5272 -55.4411
   -31.2807 -31.2693 -31.1232 -31.0381 -30.9092 -30.9081 -30.8269 -30.8170
   -29.8513 -29.8125 -29.7848 -29.6791 -14.9886 -14.9432 -14.8647 -14.7591
   -14.7208 -14.5975 -14.5084 -14.3688 -14.0705 -14.0390 -14.0267 -13.9863
   -13.9838 -13.9573 -13.9376 -13.9007 -13.8784 -13.8682 -13.8288 -13.8024
   -13.7039 -13.6439 -13.5945 -13.5883 -13.5660 -13.4758 -13.4164 -13.3454
   -13.2859 -13.2074 -13.1702 -13.0728 -13.0335 -13.0226 -12.9912 -12.9568
   -12.9458 -12.8994 -12.8653 -12.7843 -12.7568 -12.7437 -12.7228 -12.6951
   -12.6675 -12.6289 -12.6213 -12.5459 -12.4049 -12.3291 -12.2490 -12.1707
   -12.1464 -11.7770 -11.7645 -11.7502 -11.7379 -11.7169 -11.6865 -11.6055
   -11.5980 -11.5734 -11.5399 -11.5117 -11.5027  -2.4444  -2.4031  -2.2558
    -2.2129  -2.0517  -1.9754  -1.8352  -1.6977  -1.6412  -1.6145  -1.5761
    -1.5376  -1.4568  -1.3408  -1.2843  -1.2607  -1.2341  -1.2096  -1.1560
    -1.1291  -1.0894  -1.0730  -1.0133  -0.9806  -0.9444  -0.9095  -0.8808
    -0.8217  -0.7940  -0.7514  -0.7173  -0.6134  -0.5854  -0.4935  -0.4372
    -0.4059  -0.3456  -0.2656  -0.2280  -0.1289  -0.0805  -0.0319   0.0296
     0.0512   0.1221   0.1421   0.1743   0.2249   0.2682   0.5886   0.6764
     0.7019   0.7153   1.0182   1.0732   1.1495   1.1724   1.3473   1.3819
     1.4204   1.4308   1.4489   1.4672   1.5362   1.5840   1.6254   1.6536
     1.7881   1.8243   1.8420   1.8524   1.8925   1.9205   1.9368   1.9470
     1.9654   1.9947   2.0313   2.0463   2.0818   2.1063   2.1399   2.1922
     2.3145   2.4023   2.4166   2.4429   2.4725   2.5173   2.5471   2.6109
     2.6484   2.6542   2.6928   2.7239   2.7475   2.8290   2.8741   2.8868
     2.8924   2.9138   2.9342   2.9469   2.9625   2.9771   2.9984   3.0098
     3.0201   3.0275   3.0368   3.0489   3.5769   3.6282   3.7679   3.7896
     4.0618   4.1524   4.2023   4.4006   4.7799   4.8844   5.0357   5.0770
     5.4038   5.4265   5.5885   5.6279   5.7416   5.7930   6.3892   6.4410
     6.4953   6.6909   7.2924   7.4274   7.5831   7.7121   7.7913   7.8781
     7.8892   8.0213   8.3881   8.4271   8.4966   8.5434   8.5644   8.5809
     8.6631   8.7360   8.7927

     occupation numbers 
     1.0000   1.0000   1.0000   1.0000   1.0000   1.0000   1.0000   1.0000
     1.0000   1.0000   1.0000   1.0000   1.0000   1.0000   1.0000   1.0000
     1.0000   1.0000   1.0000   1.0000   1.0000   1.0000   1.0000   1.0000
     1.0000   1.0000   1.0000   1.0000   1.0000   1.0000   1.0000   1.0000
     1.0000   1.0000   1.0000   1.0000   1.0000   1.0000   1.0000   1.0000
     1.0000   1.0000   1.0000   1.0000   1.0000   1.0000   1.0000   1.0000
     1.0000   1.0000   1.0000   1.0000   1.0000   1.0000   1.0000   1.0000
     1.0000   1.0000   1.0000   1.0000   1.0000   1.0000   1.0000   1.0000
     1.0000   1.0000   1.0000   1.0000   1.0000   1.0000   1.0000   1.0000
     1.0000   1.0000   1.0000   1.0000   1.0000   1.0000   1.0000   1.0000
     1.0000   1.0000   1.0000   1.0000   1.0000   1.0000   1.0000   1.0000
     1.0000   1.0000   1.0000   1.0000   1.0000   1.0000   1.0000   1.0000
     1.0000   1.0000   1.0000   1.0000   1.0000   1.0000   1.0000   1.0000
     1.0000   1.0000   1.0000   1.0000   1.0000   1.0000   1.0000   1.0000
     1.0000   1.0000   1.0000   1.0000   1.0000   1.0000   1.0000   1.0000
     1.0000   1.0000   1.0000   1.0000   1.0000   1.0000   1.0000   1.0000
     1.0000   1.0000   1.0000   1.0000   1.0000   1.0000   1.0000   1.0000
     1.0000   1.0000   1.0000   1.0000   1.0000   1.0000   1.0000   1.0000
     1.0000   1.0000   1.0000   1.0000   1.0000   1.0000   1.0000   1.0000
     1.0000   1.0000   1.0000   1.0000   1.0000   1.0000   1.0000   1.0000
     0.9999   0.9999   0.9997   0.9996   0.9994   0.9993   0.9983   0.9980
     0.9976   0.9975   0.9973   0.9970   0.9960   0.9950   0.9941   0.9933
     0.9885   0.9868   0.9859   0.9853   0.9830   0.9811   0.9800   0.9792
     0.9778   0.9754   0.9721   0.9707   0.9670   0.9642   0.9601   0.9530
     0.9322   0.9135   0.9101   0.9035   0.8958   0.8833   0.8744   0.8537
     0.8406   0.8385   0.8240   0.8118   0.8023   0.7669   0.7459   0.7399
     0.7371   0.7266   0.7165   0.7101   0.7021   0.6945   0.6834   0.6773
     0.6718   0.6678   0.6628   0.6562   0.3513   0.3235   0.2529   0.2427
     0.1352   0.1081   0.0950   0.0543   0.0151   0.0101   0.0054   0.0045
     0.0010   0.0009   0.0004   0.0003   0.0002   0.0001   0.0000   0.0000
     0.0000   0.0000   0.0000   0.0000   0.0000   0.0000   0.0000   0.0000
     0.0000   0.0000   0.0000   0.0000   0.0000   0.0000   0.0000   0.0000
     0.0000   0.0000   0.0000

     the Fermi energy is     3.3197 ev

!    total energy              =   -4441.66973993 Ry
     estimated scf accuracy    <          8.6E-09 Ry
     smearing contrib. (-TS)   =      -1.15446362 Ry
     internal energy E=F+TS    =   -4440.51527631 Ry

     The total energy is F=E-TS. E is the sum of the following terms:
     one-electron contribution =  -20803.84983763 Ry
     hartree contribution      =   10533.82159468 Ry
     xc contribution           =    -694.18717945 Ry
     ewald contribution        =    6799.86868266 Ry
     one-center paw contrib.   =    -276.16853656 Ry
      -> PAW hartree energy AE =      25.09876835 Ry
      -> PAW hartree energy PS =     -24.98336668 Ry
      -> PAW xc energy AE      =     -16.50831997 Ry
      -> PAW xc energy PS      =       6.86736275 Ry
      -> total E_H with PAW    =   10533.93699635 Ry
      -> total E_XC with PAW   =    -703.82813668 Ry

     convergence has been achieved in  47 iterations

     Writing all to output data dir /bsuhome/zayahcortright/scratch/pwscf.save/
 
     init_run     :      7.95s CPU      8.75s WALL (       1 calls)
     electrons    :    756.80s CPU    839.38s WALL (       1 calls)

     Called by init_run:
     wfcinit      :      6.26s CPU      6.46s WALL (       1 calls)
     wfcinit:atom :      0.04s CPU      0.06s WALL (       5 calls)
     wfcinit:wfcr :      5.97s CPU      6.09s WALL (       5 calls)
     potinit      :      0.21s CPU      0.23s WALL (       1 calls)
     hinit0       :      0.45s CPU      0.82s WALL (       1 calls)

     Called by electrons:
     c_bands      :    612.31s CPU    624.40s WALL (      47 calls)
     sum_band     :    105.81s CPU    145.59s WALL (      47 calls)
     v_of_rho     :      5.32s CPU      5.67s WALL (      48 calls)
     v_h          :      0.45s CPU      0.45s WALL (      48 calls)
     v_xc         :      4.87s CPU      5.22s WALL (      48 calls)
     newd         :     18.83s CPU     48.65s WALL (      48 calls)
     PAW_pot      :      1.75s CPU      1.78s WALL (      48 calls)
     mix_rho      :     12.49s CPU     12.94s WALL (      47 calls)

     Called by c_bands:
     init_us_2    :      6.36s CPU      6.44s WALL (     475 calls)
     init_us_2:cp :      6.35s CPU      6.44s WALL (     475 calls)
     cegterg      :    574.77s CPU    586.49s WALL (     235 calls)

     Called by sum_band:
     sum_band:wei :      0.34s CPU      0.35s WALL (      47 calls)
     sum_band:loo :     86.10s CPU     86.79s WALL (      47 calls)
     sum_band:buf :      1.23s CPU      1.28s WALL (     235 calls)
     sum_band:ini :      2.85s CPU      2.87s WALL (     235 calls)
     sum_band:cal :     18.53s CPU     18.62s WALL (     235 calls)
     sum_band:bec :      0.56s CPU      0.59s WALL (     235 calls)
     addusdens    :     17.47s CPU     56.40s WALL (      47 calls)
                                        0.00s GPU  (      47 calls)
     addusd:skk   :      0.31s CPU      2.16s WALL (     188 calls)
                                        0.00s GPU  (     188 calls)

     Called by *egterg:
     cdiaghg      :     57.63s CPU     57.89s WALL (    1270 calls)
     cegterg:over :     47.45s CPU     47.65s WALL (    1035 calls)
     cegterg:upda :     47.63s CPU     48.70s WALL (    1035 calls)
     cegterg:last :     68.11s CPU     68.40s WALL (     427 calls)
     cdiaghg:chol :      3.24s CPU      3.27s WALL (    1270 calls)
     cdiaghg:inve :      3.58s CPU      3.60s WALL (    1270 calls)
     cdiaghg:para :      7.61s CPU      7.66s WALL (    2540 calls)
     h_psi        :    289.86s CPU    294.46s WALL (    1275 calls)
     s_psi        :     38.27s CPU     38.41s WALL (    1275 calls)
     g_psi        :      2.45s CPU      2.46s WALL (    1035 calls)

     Called by h_psi:
     h_psi:calbec :     43.83s CPU     44.04s WALL (    1275 calls)
     vloc_psi     :    202.44s CPU    204.39s WALL (    1275 calls)
     add_vuspsi   :     37.60s CPU     37.81s WALL (    1275 calls)

     General routines
     calbec       :     62.36s CPU     62.65s WALL (    1510 calls)
     fft          :      3.71s CPU      3.76s WALL (     622 calls)
     ffts         :      4.62s CPU      4.67s WALL (    5047 calls)
     fftw         :    181.76s CPU    183.31s WALL (  319159 calls)
     interpolate  :      0.42s CPU      0.43s WALL (      48 calls)
 
     Parallel routines

     PAW routines
     PAW_pot      :      1.75s CPU      1.78s WALL (      48 calls)
 
     PWSCF        :  12m46.19s CPU  14m12.68s WALL

 
   This run was terminated on:   1: 6:20  22Jun2024            

=------------------------------------------------------------------------------=
   JOB DONE.
=------------------------------------------------------------------------------=
