
     Program PWSCF v.7.2 starts on 21Jun2024 at 21:27:32 

     This program is part of the open-source Quantum ESPRESSO suite
     for quantum simulation of materials; please cite
         "P. Giannozzi et al., J. Phys.:Condens. Matter 21 395502 (2009);
         "P. Giannozzi et al., J. Phys.:Condens. Matter 29 465901 (2017);
         "P. Giannozzi et al., J. Chem. Phys. 152 154105 (2020);
          URL http://www.quantum-espresso.org", 
     in publications or presentations arising from this work. More details at
     http://www.quantum-espresso.org/quote

     Parallel version (MPI & OpenMP), running on      48 processor cores
     Number of MPI processes:                48
     Threads/MPI process:                     1

     MPI processes distributed on     1 nodes
     180140 MiB available memory on the printing compute node when the environment starts
 
     Reading input from espresso.pwi
Warning: card &CELL ignored
Warning: card / ignored
Warning: card &FCP ignored
Warning: card / ignored
Warning: card &RISM ignored
Warning: card / ignored

     Current dimensions of program PWSCF are:
     Max number of different atomic species (ntypx) = 10
     Max number of k-points (npk) =  40000
     Max angular momentum in pseudopotentials (lmaxx) =  4
     file O.pbe-n-kjpaw_psl.0.1.UPF: wavefunction(s)  2P renormalized
     signal trapping enabled: kill the code with -SIGUSR1 to stop cleanly the simulation 
 
     K-points division:     npool     =       2
     R & G space division:  proc/nbgrp/npool/nimage =      24
     Subspace diagonalization in iterative solution of the eigenvalue problem:
     one sub-group per band group will be used
     scalapack distributed-memory algorithm (size of sub-group:  3*  3 procs)

 
     Parallelization info
     --------------------
     sticks:   dense  smooth     PW     G-vecs:    dense   smooth      PW
     Min         350     175     47                61430    21716    3036
     Max         351     177     48                61449    21727    3041
     Sum        8421    4205   1137              1474595   521381   72913
 
     Using Slab Decomposition
 


     bravais-lattice index     =            0
     lattice parameter (alat)  =      14.8599  a.u.
     unit-cell volume          =    8305.1283 (a.u.)^3
     number of atoms/cell      =           49
     number of atomic types    =            4
     number of electrons       =       425.00
     number of Kohn-Sham states=          256
     kinetic-energy cutoff     =      60.0000  Ry
     charge density cutoff     =     480.0000  Ry
     scf convergence threshold =      1.0E-08
     mixing beta               =       0.1500
     number of iterations used =            8  local-TF  mixing
     Exchange-correlation= PBE
                           (   1   4   3   4   0   0   0)

     celldm(1)=  14.859904  celldm(2)=   0.000000  celldm(3)=   0.000000
     celldm(4)=   0.000000  celldm(5)=   0.000000  celldm(6)=   0.000000

     crystal axes: (cart. coord. in units of alat)
               a(1) = (   1.000000   0.000000   0.000000 )  
               a(2) = (   0.000000   1.000000   0.000000 )  
               a(3) = (   0.000000   0.000000   2.531036 )  

     reciprocal axes: (cart. coord. in units 2 pi/alat)
               b(1) = (  1.000000  0.000000  0.000000 )  
               b(2) = (  0.000000  1.000000  0.000000 )  
               b(3) = (  0.000000  0.000000  0.395095 )  


     PseudoPot. # 1 for Sr read from file:
     /bsuhome/zayahcortright/q-e/pseudo/Sr_pbe_v1.uspp.F.UPF
     MD5 check sum: 6b418c05fbe9db5448babca5e47b7a5b
     Pseudo is Ultrasoft + core correction, Zval = 10.0
     Generated by new atomic code, or converted to UPF format
     Using radial grid of  883 points,  6 beta functions with: 
                l(1) =   0
                l(2) =   0
                l(3) =   1
                l(4) =   1
                l(5) =   2
                l(6) =   2
     Q(r) pseudized with  6 coefficients,  rinner =    1.400   1.400   1.400
                                                       1.400   1.400

     PseudoPot. # 2 for O  read from file:
     /bsuhome/zayahcortright/q-e/pseudo/O.pbe-n-kjpaw_psl.0.1.UPF
     MD5 check sum: 0234752ac141de4415c5fc33072bef88
     Pseudo is Projector augmented-wave + core cor, Zval =  6.0
     Generated using "atomic" code by A. Dal Corso  v.5.0.99 svn rev. 10869
     Shape of augmentation charge: BESSEL
     Using radial grid of 1095 points,  4 beta functions with: 
                l(1) =   0
                l(2) =   0
                l(3) =   1
                l(4) =   1
     Q(r) pseudized with 0 coefficients 


     PseudoPot. # 3 for Co read from file:
     /bsuhome/zayahcortright/q-e/pseudo/Co_pbe_v1.2.uspp.F.UPF
     MD5 check sum: 5f91765df6ddd3222702df6e7b74a16d
     Pseudo is Ultrasoft + core correction, Zval = 17.0
     Generated by new atomic code, or converted to UPF format
     Using radial grid of  863 points,  6 beta functions with: 
                l(1) =   0
                l(2) =   0
                l(3) =   1
                l(4) =   1
                l(5) =   2
                l(6) =   2
     Q(r) pseudized with  8 coefficients,  rinner =    1.200   1.200   1.200
                                                       1.200   1.200

     PseudoPot. # 4 for H  read from file:
     /bsuhome/zayahcortright/q-e/pseudo/H.pbe-rrkjus_psl.1.0.0.UPF
     MD5 check sum: f52b6d4d1c606e5624b1dc7b2218f220
     Pseudo is Ultrasoft, Zval =  1.0
     Generated using "atomic" code by A. Dal Corso  v.5.1
     Using radial grid of  929 points,  2 beta functions with: 
                l(1) =   0
                l(2) =   0
     Q(r) pseudized with 0 coefficients 


     atomic species   valence    mass     pseudopotential
        Sr            10.00    87.62000     Sr( 1.00)
        O              6.00    15.99900     O ( 1.00)
        Co            17.00    58.93319     Co( 1.00)
        H              1.00     1.00800     H ( 1.00)

     No symmetry found


                                    s                        frac. trans.

      isym =  1     identity                                     

 cryst.   s( 1) = (     1          0          0      )
                  (     0          1          0      )
                  (     0          0          1      )

 cart.    s( 1) = (  1.0000000  0.0000000  0.0000000 )
                  (  0.0000000  1.0000000  0.0000000 )
                  (  0.0000000  0.0000000  1.0000000 )


   Cartesian axes

     site n.     atom                  positions (alat units)
         1           Sr  tau(   1) = (   0.2508693   0.7491307   1.7574407  )
         2           O   tau(   2) = (   0.4985141   0.5014859   1.7715967  )
         3           Sr  tau(   3) = (   0.7482398   0.7454518   1.7648669  )
         4           Sr  tau(   4) = (   0.7441748   0.2558252   1.7667843  )
         5           Sr  tau(   5) = (   0.2508693   0.7491307   1.2696799  )
         6           Sr  tau(   6) = (   0.2508693   0.7491307   0.7632319  )
         7           Co  tau(   7) = (   0.4998914   0.5001086   1.0164559  )
         8           Co  tau(   8) = (   0.4936915   0.5063085   1.5135603  )
         9           O   tau(   9) = (   0.4988895   0.7610401   1.0164559  )
        10           O   tau(  10) = (   0.2389599   0.5011105   1.0164559  )
        11           O   tau(  11) = (   0.0070918   0.7374880   1.0164559  )
        12           O   tau(  12) = (   0.0088340   0.7405089   1.5135603  )
        13           O   tau(  13) = (   0.5066944   0.7415376   1.5135603  )
        14           O   tau(  14) = (   0.2584624   0.4933056   1.5135603  )
        15           O   tau(  15) = (   0.4985141   0.5014859   0.7773880  )
        16           O   tau(  16) = (   0.4985141   0.5014859   1.2555238  )
        17           Sr  tau(  17) = (   0.7482398   0.7454518   0.7706582  )
        18           Sr  tau(  18) = (   0.7482398   0.7454518   1.2622536  )
        19           Sr  tau(  19) = (   0.7441748   0.2558252   0.7725755  )
        20           Sr  tau(  20) = (   0.7441748   0.2558252   1.2603363  )
        21           O   tau(  21) = (   0.7322655   0.0078049   1.5135603  )
        22           O   tau(  22) = (   0.7558175   0.4996027   1.5135603  )
        23           O   tau(  23) = (   0.5003973   0.2441825   1.5135603  )
        24           O   tau(  24) = (   0.7527966   0.4978604   1.0164559  )
        25           O   tau(  25) = (   0.5021396   0.2472034   1.0164559  )
        26           O   tau(  26) = (   0.7517679   0.0000000   1.0164559  )
        27           O   tau(  27) = (   0.0114961   0.4948124   1.7455321  )
        28           O   tau(  28) = (   0.0048226   0.0077944   1.7715967  )
        29           Sr  tau(  29) = (   0.2545482   0.2517602   1.7648669  )
        30           O   tau(  30) = (   0.5048017   0.0015068   1.7786929  )
        31           Co  tau(  31) = (   0.0056869   0.5006215   1.0164559  )
        32           Co  tau(  32) = (   0.0065315   0.4997770   1.5135603  )
        33           Co  tau(  33) = (   0.0061999   0.0064171   1.0164559  )
        34           Co  tau(  34) = (   0.0000000   0.0126169   1.5135603  )
        35           O   tau(  35) = (   0.0114961   0.4948124   1.2815885  )
        36           O   tau(  36) = (   0.0114961   0.4948124   0.7513233  )
        37           O   tau(  37) = (   0.0051979   0.2673486   1.0164559  )
        38           O   tau(  38) = (   0.0130029   0.2478461   1.5135603  )
        39           O   tau(  39) = (   0.0048226   0.0077944   0.7773880  )
        40           O   tau(  40) = (   0.0048226   0.0077944   1.2555238  )
        41           Sr  tau(  41) = (   0.2545482   0.2517602   0.7706582  )
        42           Sr  tau(  42) = (   0.2545482   0.2517602   1.2622536  )
        43           Co  tau(  43) = (   0.4989925   0.0073160   1.5135603  )
        44           Co  tau(  44) = (   0.4998370   0.0064714   1.0164559  )
        45           O   tau(  45) = (   0.5048017   0.0015068   0.7844841  )
        46           O   tau(  46) = (   0.5048017   0.0015068   1.2484277  )
        47           O   tau(  47) = (   0.2621260   0.0059111   1.5135603  )
        48           O   tau(  48) = (   0.2591051   0.0041689   1.0164559  )
        49           H   tau(  49) = (   0.7108228   0.9951520   2.1602013  )

   Crystallographic axes

     site n.     atom                  positions (cryst. coord.)
         1           Sr  tau(   1) = (  0.2508693  0.7491307  0.6943562  )
         2           O   tau(   2) = (  0.4985141  0.5014859  0.6999492  )
         3           Sr  tau(   3) = (  0.7482398  0.7454518  0.6972903  )
         4           Sr  tau(   4) = (  0.7441748  0.2558252  0.6980478  )
         5           Sr  tau(   5) = (  0.2508693  0.7491307  0.5016443  )
         6           Sr  tau(   6) = (  0.2508693  0.7491307  0.3015492  )
         7           Co  tau(   7) = (  0.4998914  0.5001086  0.4015968  )
         8           Co  tau(   8) = (  0.4936915  0.5063085  0.5980003  )
         9           O   tau(   9) = (  0.4988895  0.7610401  0.4015968  )
        10           O   tau(  10) = (  0.2389599  0.5011105  0.4015968  )
        11           O   tau(  11) = (  0.0070918  0.7374880  0.4015968  )
        12           O   tau(  12) = (  0.0088340  0.7405089  0.5980003  )
        13           O   tau(  13) = (  0.5066944  0.7415376  0.5980003  )
        14           O   tau(  14) = (  0.2584624  0.4933056  0.5980003  )
        15           O   tau(  15) = (  0.4985141  0.5014859  0.3071422  )
        16           O   tau(  16) = (  0.4985141  0.5014859  0.4960513  )
        17           Sr  tau(  17) = (  0.7482398  0.7454518  0.3044833  )
        18           Sr  tau(  18) = (  0.7482398  0.7454518  0.4987103  )
        19           Sr  tau(  19) = (  0.7441748  0.2558252  0.3052408  )
        20           Sr  tau(  20) = (  0.7441748  0.2558252  0.4979527  )
        21           O   tau(  21) = (  0.7322655  0.0078049  0.5980003  )
        22           O   tau(  22) = (  0.7558175  0.4996027  0.5980003  )
        23           O   tau(  23) = (  0.5003973  0.2441825  0.5980003  )
        24           O   tau(  24) = (  0.7527966  0.4978604  0.4015968  )
        25           O   tau(  25) = (  0.5021396  0.2472034  0.4015968  )
        26           O   tau(  26) = (  0.7517679  0.0000000  0.4015968  )
        27           O   tau(  27) = (  0.0114961  0.4948124  0.6896512  )
        28           O   tau(  28) = (  0.0048226  0.0077944  0.6999492  )
        29           Sr  tau(  29) = (  0.2545482  0.2517602  0.6972903  )
        30           O   tau(  30) = (  0.5048017  0.0015068  0.7027529  )
        31           Co  tau(  31) = (  0.0056869  0.5006215  0.4015968  )
        32           Co  tau(  32) = (  0.0065315  0.4997770  0.5980003  )
        33           Co  tau(  33) = (  0.0061999  0.0064171  0.4015968  )
        34           Co  tau(  34) = (  0.0000000  0.0126169  0.5980003  )
        35           O   tau(  35) = (  0.0114961  0.4948124  0.5063494  )
        36           O   tau(  36) = (  0.0114961  0.4948124  0.2968442  )
        37           O   tau(  37) = (  0.0051979  0.2673486  0.4015968  )
        38           O   tau(  38) = (  0.0130029  0.2478461  0.5980003  )
        39           O   tau(  39) = (  0.0048226  0.0077944  0.3071422  )
        40           O   tau(  40) = (  0.0048226  0.0077944  0.4960513  )
        41           Sr  tau(  41) = (  0.2545482  0.2517602  0.3044833  )
        42           Sr  tau(  42) = (  0.2545482  0.2517602  0.4987103  )
        43           Co  tau(  43) = (  0.4989925  0.0073160  0.5980003  )
        44           Co  tau(  44) = (  0.4998370  0.0064714  0.4015968  )
        45           O   tau(  45) = (  0.5048017  0.0015068  0.3099459  )
        46           O   tau(  46) = (  0.5048017  0.0015068  0.4932477  )
        47           O   tau(  47) = (  0.2621260  0.0059111  0.5980003  )
        48           O   tau(  48) = (  0.2591051  0.0041689  0.4015968  )
        49           H   tau(  49) = (  0.7108228  0.9951520  0.8534850  )

     number of k points=    10  Gaussian smearing, width (Ry)=  0.0700
                       cart. coord. in units 2pi/alat
        k(    1) = (   0.0000000   0.0000000   0.0000000), wk =   0.1250000
        k(    2) = (   0.0000000   0.2500000   0.0000000), wk =   0.2500000
        k(    3) = (   0.0000000  -0.5000000   0.0000000), wk =   0.1250000
        k(    4) = (   0.2500000   0.2500000   0.0000000), wk =   0.2500000
        k(    5) = (   0.2500000  -0.5000000   0.0000000), wk =   0.2500000
        k(    6) = (  -0.5000000  -0.5000000   0.0000000), wk =   0.1250000
        k(    7) = (   0.2500000   0.0000000   0.0000000), wk =   0.2500000
        k(    8) = (  -0.5000000   0.0000000   0.0000000), wk =   0.1250000
        k(    9) = (  -0.2500000   0.2500000   0.0000000), wk =   0.2500000
        k(   10) = (  -0.5000000   0.2500000   0.0000000), wk =   0.2500000

                       cryst. coord.
        k(    1) = (   0.0000000   0.0000000   0.0000000), wk =   0.1250000
        k(    2) = (   0.0000000   0.2500000   0.0000000), wk =   0.2500000
        k(    3) = (   0.0000000  -0.5000000   0.0000000), wk =   0.1250000
        k(    4) = (   0.2500000   0.2500000   0.0000000), wk =   0.2500000
        k(    5) = (   0.2500000  -0.5000000   0.0000000), wk =   0.2500000
        k(    6) = (  -0.5000000  -0.5000000   0.0000000), wk =   0.1250000
        k(    7) = (   0.2500000   0.0000000   0.0000000), wk =   0.2500000
        k(    8) = (  -0.5000000   0.0000000   0.0000000), wk =   0.1250000
        k(    9) = (  -0.2500000   0.2500000   0.0000000), wk =   0.2500000
        k(   10) = (  -0.5000000   0.2500000   0.0000000), wk =   0.2500000

     Dense  grid:  1474595 G-vectors     FFT dimensions: ( 108, 108, 270)

     Smooth grid:   521381 G-vectors     FFT dimensions: (  75,  75, 192)

     Dynamical RAM for                 wfc:      10.61 MB

     Dynamical RAM for     wfc (w. buffer):      63.63 MB

     Dynamical RAM for           str. fact:       3.75 MB

     Dynamical RAM for           local pot:       0.00 MB

     Dynamical RAM for          nlocal pot:      24.28 MB

     Dynamical RAM for                qrad:       7.03 MB

     Dynamical RAM for          rho,v,vnew:       6.02 MB

     Dynamical RAM for               rhoin:       2.01 MB

     Dynamical RAM for            rho*nmix:      15.00 MB

     Dynamical RAM for           G-vectors:       3.68 MB

     Dynamical RAM for          h,s,v(r/c):       1.32 MB

     Dynamical RAM for          <psi|beta>:       2.29 MB

     Dynamical RAM for                 psi:      21.21 MB

     Dynamical RAM for                hpsi:      21.21 MB

     Dynamical RAM for                spsi:      21.21 MB

     Dynamical RAM for      wfcinit/wfcrot:      34.09 MB

     Dynamical RAM for           addusdens:     100.79 MB

     Estimated static dynamical RAM per process >     120.42 MB

     Estimated max dynamical RAM per process >     236.21 MB

     Estimated total dynamical RAM >      10.72 GB

     Check: negative core charge=   -0.000004

     Initial potential from superposition of free atoms

     starting charge     416.5961, renormalised to     425.0000

     negative rho (up, down):  7.827E-01 0.000E+00
     Starting wfcs are  373 randomized atomic wfcs
     Checking if some PAW data can be deallocated... 
       PAW data deallocated on   20 nodes for type:  2

     total cpu time spent up to now is        8.5 secs

     Self-consistent Calculation

     iteration #  1     ecut=    60.00 Ry     beta= 0.15
     Davidson diagonalization with overlap

---- Real-time Memory Report at c_bands before calling an iterative solver
             0 MiB given to the printing process from OS
             0 MiB allocation reported by mallinfo(arena+hblkhd)
        170471 MiB available memory on the node where the printing process lives
------------------
     ethr =  1.00E-02,  avg # of iterations =  2.0

     negative rho (up, down):  7.718E-01 0.000E+00

     total cpu time spent up to now is       23.2 secs

     total energy              =   -4404.77121979 Ry
     estimated scf accuracy    <      42.17959997 Ry

     iteration #  2     ecut=    60.00 Ry     beta= 0.15
     Davidson diagonalization with overlap

---- Real-time Memory Report at c_bands before calling an iterative solver
             0 MiB given to the printing process from OS
             0 MiB allocation reported by mallinfo(arena+hblkhd)
        170686 MiB available memory on the node where the printing process lives
------------------
     ethr =  9.92E-03,  avg # of iterations =  1.0

     negative rho (up, down):  7.532E-01 0.000E+00

     total cpu time spent up to now is       35.6 secs

     total energy              =   -4400.01309177 Ry
     estimated scf accuracy    <      26.68499952 Ry

     iteration #  3     ecut=    60.00 Ry     beta= 0.15
     Davidson diagonalization with overlap

---- Real-time Memory Report at c_bands before calling an iterative solver
             0 MiB given to the printing process from OS
             0 MiB allocation reported by mallinfo(arena+hblkhd)
        169953 MiB available memory on the node where the printing process lives
------------------
     ethr =  6.28E-03,  avg # of iterations =  2.0

     negative rho (up, down):  7.544E-01 0.000E+00

     total cpu time spent up to now is       49.3 secs

     total energy              =   -4402.39509991 Ry
     estimated scf accuracy    <      49.59202695 Ry

     iteration #  4     ecut=    60.00 Ry     beta= 0.15
     Davidson diagonalization with overlap

---- Real-time Memory Report at c_bands before calling an iterative solver
             0 MiB given to the printing process from OS
             0 MiB allocation reported by mallinfo(arena+hblkhd)
        169844 MiB available memory on the node where the printing process lives
------------------
     ethr =  6.28E-03,  avg # of iterations =  1.0

     negative rho (up, down):  7.411E-01 0.000E+00

     total cpu time spent up to now is       61.4 secs

     total energy              =   -4401.66431825 Ry
     estimated scf accuracy    <      29.66739715 Ry

     iteration #  5     ecut=    60.00 Ry     beta= 0.15
     Davidson diagonalization with overlap

---- Real-time Memory Report at c_bands before calling an iterative solver
             0 MiB given to the printing process from OS
             0 MiB allocation reported by mallinfo(arena+hblkhd)
        169820 MiB available memory on the node where the printing process lives
------------------
     ethr =  6.28E-03,  avg # of iterations =  1.0

     negative rho (up, down):  7.470E-01 0.000E+00

     total cpu time spent up to now is       73.5 secs

     total energy              =   -4399.91519257 Ry
     estimated scf accuracy    <      44.16962171 Ry

     iteration #  6     ecut=    60.00 Ry     beta= 0.15
     Davidson diagonalization with overlap

---- Real-time Memory Report at c_bands before calling an iterative solver
             0 MiB given to the printing process from OS
             0 MiB allocation reported by mallinfo(arena+hblkhd)
        169801 MiB available memory on the node where the printing process lives
------------------
     ethr =  6.28E-03,  avg # of iterations =  1.0

     negative rho (up, down):  7.422E-01 0.000E+00

     total cpu time spent up to now is       85.7 secs

     total energy              =   -4400.66608800 Ry
     estimated scf accuracy    <      11.94296132 Ry

     iteration #  7     ecut=    60.00 Ry     beta= 0.15
     Davidson diagonalization with overlap

---- Real-time Memory Report at c_bands before calling an iterative solver
             0 MiB given to the printing process from OS
             0 MiB allocation reported by mallinfo(arena+hblkhd)
        169783 MiB available memory on the node where the printing process lives
------------------
     ethr =  2.81E-03,  avg # of iterations =  1.1

     negative rho (up, down):  7.445E-01 0.000E+00

     total cpu time spent up to now is       97.9 secs

     total energy              =   -4400.80623718 Ry
     estimated scf accuracy    <       4.21163059 Ry

     iteration #  8     ecut=    60.00 Ry     beta= 0.15
     Davidson diagonalization with overlap

---- Real-time Memory Report at c_bands before calling an iterative solver
             0 MiB given to the printing process from OS
             0 MiB allocation reported by mallinfo(arena+hblkhd)
        169755 MiB available memory on the node where the printing process lives
------------------
     ethr =  9.91E-04,  avg # of iterations =  1.6

     negative rho (up, down):  7.532E-01 0.000E+00

     total cpu time spent up to now is      110.5 secs

     total energy              =   -4400.33360038 Ry
     estimated scf accuracy    <       3.69120536 Ry

     iteration #  9     ecut=    60.00 Ry     beta= 0.15
     Davidson diagonalization with overlap

---- Real-time Memory Report at c_bands before calling an iterative solver
             0 MiB given to the printing process from OS
             0 MiB allocation reported by mallinfo(arena+hblkhd)
        169741 MiB available memory on the node where the printing process lives
------------------
     ethr =  8.69E-04,  avg # of iterations =  4.3

     negative rho (up, down):  7.766E-01 0.000E+00

     total cpu time spent up to now is      125.6 secs

     total energy              =   -4399.88341261 Ry
     estimated scf accuracy    <      40.14165406 Ry

     iteration # 10     ecut=    60.00 Ry     beta= 0.15
     Davidson diagonalization with overlap

---- Real-time Memory Report at c_bands before calling an iterative solver
             0 MiB given to the printing process from OS
             0 MiB allocation reported by mallinfo(arena+hblkhd)
        169646 MiB available memory on the node where the printing process lives
------------------
     ethr =  8.69E-04,  avg # of iterations =  9.6

     negative rho (up, down):  7.786E-01 0.000E+00

     total cpu time spent up to now is      143.7 secs

     total energy              =   -4399.81433697 Ry
     estimated scf accuracy    <      12.60255687 Ry

     iteration # 11     ecut=    60.00 Ry     beta= 0.15
     Davidson diagonalization with overlap

---- Real-time Memory Report at c_bands before calling an iterative solver
             0 MiB given to the printing process from OS
             0 MiB allocation reported by mallinfo(arena+hblkhd)
        169292 MiB available memory on the node where the printing process lives
------------------
     ethr =  8.69E-04,  avg # of iterations =  1.1

     negative rho (up, down):  7.812E-01 0.000E+00

     total cpu time spent up to now is      156.1 secs

     total energy              =   -4400.12489693 Ry
     estimated scf accuracy    <       1.39202994 Ry

     iteration # 12     ecut=    60.00 Ry     beta= 0.15
     Davidson diagonalization with overlap

---- Real-time Memory Report at c_bands before calling an iterative solver
             0 MiB given to the printing process from OS
             0 MiB allocation reported by mallinfo(arena+hblkhd)
        169282 MiB available memory on the node where the printing process lives
------------------
     ethr =  3.28E-04,  avg # of iterations =  2.9

     negative rho (up, down):  7.888E-01 0.000E+00

     total cpu time spent up to now is      170.3 secs

     total energy              =   -4400.09112938 Ry
     estimated scf accuracy    <       0.72960864 Ry

     iteration # 13     ecut=    60.00 Ry     beta= 0.15
     Davidson diagonalization with overlap

---- Real-time Memory Report at c_bands before calling an iterative solver
             0 MiB given to the printing process from OS
             0 MiB allocation reported by mallinfo(arena+hblkhd)
        169259 MiB available memory on the node where the printing process lives
------------------
     ethr =  1.72E-04,  avg # of iterations =  7.7

     negative rho (up, down):  8.019E-01 0.000E+00

     total cpu time spent up to now is      186.1 secs

     total energy              =   -4400.09070292 Ry
     estimated scf accuracy    <       0.96859999 Ry

     iteration # 14     ecut=    60.00 Ry     beta= 0.15
     Davidson diagonalization with overlap

---- Real-time Memory Report at c_bands before calling an iterative solver
             0 MiB given to the printing process from OS
             0 MiB allocation reported by mallinfo(arena+hblkhd)
        169233 MiB available memory on the node where the printing process lives
------------------
     ethr =  1.72E-04,  avg # of iterations =  5.2

     negative rho (up, down):  8.035E-01 0.000E+00

     total cpu time spent up to now is      200.7 secs

     total energy              =   -4400.02435621 Ry
     estimated scf accuracy    <       1.79439971 Ry

     iteration # 15     ecut=    60.00 Ry     beta= 0.15
     Davidson diagonalization with overlap

---- Real-time Memory Report at c_bands before calling an iterative solver
             0 MiB given to the printing process from OS
             0 MiB allocation reported by mallinfo(arena+hblkhd)
        169228 MiB available memory on the node where the printing process lives
------------------
     ethr =  1.72E-04,  avg # of iterations =  5.0

     negative rho (up, down):  8.057E-01 0.000E+00

     total cpu time spent up to now is      215.6 secs

     total energy              =   -4400.05802458 Ry
     estimated scf accuracy    <       0.41418333 Ry

     iteration # 16     ecut=    60.00 Ry     beta= 0.15
     Davidson diagonalization with overlap

---- Real-time Memory Report at c_bands before calling an iterative solver
             0 MiB given to the printing process from OS
             0 MiB allocation reported by mallinfo(arena+hblkhd)
        169232 MiB available memory on the node where the printing process lives
------------------
     ethr =  9.75E-05,  avg # of iterations =  3.5

     negative rho (up, down):  8.078E-01 0.000E+00

     total cpu time spent up to now is      229.6 secs

     total energy              =   -4400.02906879 Ry
     estimated scf accuracy    <       0.33122611 Ry

     iteration # 17     ecut=    60.00 Ry     beta= 0.15
     Davidson diagonalization with overlap

---- Real-time Memory Report at c_bands before calling an iterative solver
             0 MiB given to the printing process from OS
             0 MiB allocation reported by mallinfo(arena+hblkhd)
        169224 MiB available memory on the node where the printing process lives
------------------
     c_bands:  1 eigenvalues not converged
     ethr =  7.79E-05,  avg # of iterations =  6.7

     negative rho (up, down):  8.179E-01 0.000E+00

     total cpu time spent up to now is      245.9 secs

     total energy              =   -4399.95240652 Ry
     estimated scf accuracy    <       0.31119131 Ry

     iteration # 18     ecut=    60.00 Ry     beta= 0.15
     Davidson diagonalization with overlap

---- Real-time Memory Report at c_bands before calling an iterative solver
             0 MiB given to the printing process from OS
             0 MiB allocation reported by mallinfo(arena+hblkhd)
        169203 MiB available memory on the node where the printing process lives
------------------
     ethr =  7.32E-05,  avg # of iterations = 11.3

     negative rho (up, down):  8.283E-01 0.000E+00

     total cpu time spent up to now is      264.4 secs

     total energy              =   -4399.94567128 Ry
     estimated scf accuracy    <       0.17251493 Ry

     iteration # 19     ecut=    60.00 Ry     beta= 0.15
     Davidson diagonalization with overlap

---- Real-time Memory Report at c_bands before calling an iterative solver
             0 MiB given to the printing process from OS
             0 MiB allocation reported by mallinfo(arena+hblkhd)
        169162 MiB available memory on the node where the printing process lives
------------------
     ethr =  4.06E-05,  avg # of iterations =  5.8

     negative rho (up, down):  8.293E-01 0.000E+00

     total cpu time spent up to now is      280.7 secs

     total energy              =   -4399.94009548 Ry
     estimated scf accuracy    <       0.09934113 Ry

     iteration # 20     ecut=    60.00 Ry     beta= 0.15
     Davidson diagonalization with overlap

---- Real-time Memory Report at c_bands before calling an iterative solver
             0 MiB given to the printing process from OS
             0 MiB allocation reported by mallinfo(arena+hblkhd)
        169161 MiB available memory on the node where the printing process lives
------------------
     ethr =  2.34E-05,  avg # of iterations =  6.0

     negative rho (up, down):  8.152E-01 0.000E+00

     total cpu time spent up to now is      296.7 secs

     total energy              =   -4399.92337311 Ry
     estimated scf accuracy    <       0.10514822 Ry

     iteration # 21     ecut=    60.00 Ry     beta= 0.15
     Davidson diagonalization with overlap

---- Real-time Memory Report at c_bands before calling an iterative solver
             0 MiB given to the printing process from OS
             0 MiB allocation reported by mallinfo(arena+hblkhd)
        169152 MiB available memory on the node where the printing process lives
------------------
     ethr =  2.34E-05,  avg # of iterations =  7.9

     negative rho (up, down):  8.118E-01 0.000E+00

     total cpu time spent up to now is      313.9 secs

     total energy              =   -4399.92248459 Ry
     estimated scf accuracy    <       0.05307921 Ry

     iteration # 22     ecut=    60.00 Ry     beta= 0.15
     Davidson diagonalization with overlap

---- Real-time Memory Report at c_bands before calling an iterative solver
             0 MiB given to the printing process from OS
             0 MiB allocation reported by mallinfo(arena+hblkhd)
        169101 MiB available memory on the node where the printing process lives
------------------
     ethr =  1.25E-05,  avg # of iterations =  7.0

     negative rho (up, down):  8.082E-01 0.000E+00

     total cpu time spent up to now is      330.2 secs

     total energy              =   -4399.91863259 Ry
     estimated scf accuracy    <       0.03292810 Ry

     iteration # 23     ecut=    60.00 Ry     beta= 0.15
     Davidson diagonalization with overlap

---- Real-time Memory Report at c_bands before calling an iterative solver
             0 MiB given to the printing process from OS
             0 MiB allocation reported by mallinfo(arena+hblkhd)
        169081 MiB available memory on the node where the printing process lives
------------------
     ethr =  7.75E-06,  avg # of iterations = 12.0

     negative rho (up, down):  8.055E-01 0.000E+00

     total cpu time spent up to now is      349.2 secs

     total energy              =   -4399.91747936 Ry
     estimated scf accuracy    <       0.02041629 Ry

     iteration # 24     ecut=    60.00 Ry     beta= 0.15
     Davidson diagonalization with overlap

---- Real-time Memory Report at c_bands before calling an iterative solver
             0 MiB given to the printing process from OS
             0 MiB allocation reported by mallinfo(arena+hblkhd)
        169104 MiB available memory on the node where the printing process lives
------------------
     ethr =  4.80E-06,  avg # of iterations =  3.9

     negative rho (up, down):  7.988E-01 0.000E+00

     total cpu time spent up to now is      364.3 secs

     total energy              =   -4399.91686992 Ry
     estimated scf accuracy    <       0.01310239 Ry

     iteration # 25     ecut=    60.00 Ry     beta= 0.15
     Davidson diagonalization with overlap

---- Real-time Memory Report at c_bands before calling an iterative solver
             0 MiB given to the printing process from OS
             0 MiB allocation reported by mallinfo(arena+hblkhd)
        168960 MiB available memory on the node where the printing process lives
------------------
     ethr =  3.08E-06,  avg # of iterations =  7.9

     negative rho (up, down):  7.931E-01 0.000E+00

     total cpu time spent up to now is      381.2 secs

     total energy              =   -4399.91625496 Ry
     estimated scf accuracy    <       0.00989644 Ry

     iteration # 26     ecut=    60.00 Ry     beta= 0.15
     Davidson diagonalization with overlap

---- Real-time Memory Report at c_bands before calling an iterative solver
             0 MiB given to the printing process from OS
             0 MiB allocation reported by mallinfo(arena+hblkhd)
        168945 MiB available memory on the node where the printing process lives
------------------
     c_bands:  1 eigenvalues not converged
     ethr =  2.33E-06,  avg # of iterations =  5.0

     negative rho (up, down):  7.943E-01 0.000E+00

     total cpu time spent up to now is      397.1 secs

     total energy              =   -4399.91545996 Ry
     estimated scf accuracy    <       0.00654222 Ry

     iteration # 27     ecut=    60.00 Ry     beta= 0.15
     Davidson diagonalization with overlap

---- Real-time Memory Report at c_bands before calling an iterative solver
             0 MiB given to the printing process from OS
             0 MiB allocation reported by mallinfo(arena+hblkhd)
        168994 MiB available memory on the node where the printing process lives
------------------
     c_bands:  1 eigenvalues not converged
     ethr =  1.54E-06,  avg # of iterations =  9.4

     negative rho (up, down):  7.985E-01 0.000E+00

     total cpu time spent up to now is      415.8 secs

     total energy              =   -4399.91579944 Ry
     estimated scf accuracy    <       0.00250302 Ry

     iteration # 28     ecut=    60.00 Ry     beta= 0.15
     Davidson diagonalization with overlap

---- Real-time Memory Report at c_bands before calling an iterative solver
             0 MiB given to the printing process from OS
             0 MiB allocation reported by mallinfo(arena+hblkhd)
        168939 MiB available memory on the node where the printing process lives
------------------
     c_bands:  1 eigenvalues not converged
     ethr =  5.89E-07,  avg # of iterations = 11.8

     negative rho (up, down):  7.948E-01 0.000E+00

     total cpu time spent up to now is      434.4 secs

     total energy              =   -4399.91550647 Ry
     estimated scf accuracy    <       0.00139379 Ry

     iteration # 29     ecut=    60.00 Ry     beta= 0.15
     Davidson diagonalization with overlap

---- Real-time Memory Report at c_bands before calling an iterative solver
             0 MiB given to the printing process from OS
             0 MiB allocation reported by mallinfo(arena+hblkhd)
        168907 MiB available memory on the node where the printing process lives
------------------
     ethr =  3.28E-07,  avg # of iterations =  9.2

     negative rho (up, down):  7.937E-01 0.000E+00

     total cpu time spent up to now is      451.3 secs

     total energy              =   -4399.91533456 Ry
     estimated scf accuracy    <       0.00085346 Ry

     iteration # 30     ecut=    60.00 Ry     beta= 0.15
     Davidson diagonalization with overlap

---- Real-time Memory Report at c_bands before calling an iterative solver
             0 MiB given to the printing process from OS
             0 MiB allocation reported by mallinfo(arena+hblkhd)
        168968 MiB available memory on the node where the printing process lives
------------------
     ethr =  2.01E-07,  avg # of iterations =  8.3

     negative rho (up, down):  7.943E-01 0.000E+00

     total cpu time spent up to now is      469.1 secs

     total energy              =   -4399.91530890 Ry
     estimated scf accuracy    <       0.00029662 Ry

     iteration # 31     ecut=    60.00 Ry     beta= 0.15
     Davidson diagonalization with overlap

---- Real-time Memory Report at c_bands before calling an iterative solver
             0 MiB given to the printing process from OS
             0 MiB allocation reported by mallinfo(arena+hblkhd)
        168973 MiB available memory on the node where the printing process lives
------------------
     ethr =  6.98E-08,  avg # of iterations =  2.4

     negative rho (up, down):  7.943E-01 0.000E+00

     total cpu time spent up to now is      484.1 secs

     total energy              =   -4399.91532295 Ry
     estimated scf accuracy    <       0.00011424 Ry

     iteration # 32     ecut=    60.00 Ry     beta= 0.15
     Davidson diagonalization with overlap

---- Real-time Memory Report at c_bands before calling an iterative solver
             0 MiB given to the printing process from OS
             0 MiB allocation reported by mallinfo(arena+hblkhd)
        168961 MiB available memory on the node where the printing process lives
------------------
     ethr =  2.69E-08,  avg # of iterations =  2.1

     negative rho (up, down):  7.936E-01 0.000E+00

     total cpu time spent up to now is      498.5 secs

     total energy              =   -4399.91533015 Ry
     estimated scf accuracy    <       0.00004513 Ry

     iteration # 33     ecut=    60.00 Ry     beta= 0.15
     Davidson diagonalization with overlap

---- Real-time Memory Report at c_bands before calling an iterative solver
             0 MiB given to the printing process from OS
             0 MiB allocation reported by mallinfo(arena+hblkhd)
        168967 MiB available memory on the node where the printing process lives
------------------
     ethr =  1.06E-08,  avg # of iterations =  2.1

     negative rho (up, down):  7.931E-01 0.000E+00

     total cpu time spent up to now is      512.9 secs

     total energy              =   -4399.91533723 Ry
     estimated scf accuracy    <       0.00003708 Ry

     iteration # 34     ecut=    60.00 Ry     beta= 0.15
     Davidson diagonalization with overlap

---- Real-time Memory Report at c_bands before calling an iterative solver
             0 MiB given to the printing process from OS
             0 MiB allocation reported by mallinfo(arena+hblkhd)
        168976 MiB available memory on the node where the printing process lives
------------------
     ethr =  8.72E-09,  avg # of iterations =  2.1

     negative rho (up, down):  7.925E-01 0.000E+00

     total cpu time spent up to now is      526.8 secs

     total energy              =   -4399.91535205 Ry
     estimated scf accuracy    <       0.00002593 Ry

     iteration # 35     ecut=    60.00 Ry     beta= 0.15
     Davidson diagonalization with overlap

---- Real-time Memory Report at c_bands before calling an iterative solver
             0 MiB given to the printing process from OS
             0 MiB allocation reported by mallinfo(arena+hblkhd)
        168987 MiB available memory on the node where the printing process lives
------------------
     ethr =  6.10E-09,  avg # of iterations =  2.9

     negative rho (up, down):  7.923E-01 0.000E+00

     total cpu time spent up to now is      541.1 secs

     total energy              =   -4399.91535558 Ry
     estimated scf accuracy    <       0.00001496 Ry

     iteration # 36     ecut=    60.00 Ry     beta= 0.15
     Davidson diagonalization with overlap

---- Real-time Memory Report at c_bands before calling an iterative solver
             0 MiB given to the printing process from OS
             0 MiB allocation reported by mallinfo(arena+hblkhd)
        168974 MiB available memory on the node where the printing process lives
------------------
     ethr =  3.52E-09,  avg # of iterations =  3.4

     negative rho (up, down):  7.922E-01 0.000E+00

     total cpu time spent up to now is      555.3 secs

     total energy              =   -4399.91535811 Ry
     estimated scf accuracy    <       0.00000705 Ry

     iteration # 37     ecut=    60.00 Ry     beta= 0.15
     Davidson diagonalization with overlap

---- Real-time Memory Report at c_bands before calling an iterative solver
             0 MiB given to the printing process from OS
             0 MiB allocation reported by mallinfo(arena+hblkhd)
        168968 MiB available memory on the node where the printing process lives
------------------
     ethr =  1.66E-09,  avg # of iterations =  2.2

     negative rho (up, down):  7.923E-01 0.000E+00

     total cpu time spent up to now is      568.9 secs

     total energy              =   -4399.91535802 Ry
     estimated scf accuracy    <       0.00000537 Ry

     iteration # 38     ecut=    60.00 Ry     beta= 0.15
     Davidson diagonalization with overlap

---- Real-time Memory Report at c_bands before calling an iterative solver
             0 MiB given to the printing process from OS
             0 MiB allocation reported by mallinfo(arena+hblkhd)
        168974 MiB available memory on the node where the printing process lives
------------------
     ethr =  1.26E-09,  avg # of iterations =  1.9

     negative rho (up, down):  7.923E-01 0.000E+00

     total cpu time spent up to now is      582.4 secs

     total energy              =   -4399.91535816 Ry
     estimated scf accuracy    <       0.00000409 Ry

     iteration # 39     ecut=    60.00 Ry     beta= 0.15
     Davidson diagonalization with overlap

---- Real-time Memory Report at c_bands before calling an iterative solver
             0 MiB given to the printing process from OS
             0 MiB allocation reported by mallinfo(arena+hblkhd)
        168975 MiB available memory on the node where the printing process lives
------------------
     ethr =  9.63E-10,  avg # of iterations =  2.2

     negative rho (up, down):  7.924E-01 0.000E+00

     total cpu time spent up to now is      596.0 secs

     total energy              =   -4399.91535895 Ry
     estimated scf accuracy    <       0.00000125 Ry

     iteration # 40     ecut=    60.00 Ry     beta= 0.15
     Davidson diagonalization with overlap

---- Real-time Memory Report at c_bands before calling an iterative solver
             0 MiB given to the printing process from OS
             0 MiB allocation reported by mallinfo(arena+hblkhd)
        168977 MiB available memory on the node where the printing process lives
------------------
     ethr =  2.95E-10,  avg # of iterations =  3.0

     negative rho (up, down):  7.924E-01 0.000E+00

     total cpu time spent up to now is      610.0 secs

     total energy              =   -4399.91535928 Ry
     estimated scf accuracy    <       0.00000060 Ry

     iteration # 41     ecut=    60.00 Ry     beta= 0.15
     Davidson diagonalization with overlap

---- Real-time Memory Report at c_bands before calling an iterative solver
             0 MiB given to the printing process from OS
             0 MiB allocation reported by mallinfo(arena+hblkhd)
        168976 MiB available memory on the node where the printing process lives
------------------
     ethr =  1.41E-10,  avg # of iterations =  3.3

     negative rho (up, down):  7.924E-01 0.000E+00

     total cpu time spent up to now is      625.7 secs

     total energy              =   -4399.91535941 Ry
     estimated scf accuracy    <       0.00000019 Ry

     iteration # 42     ecut=    60.00 Ry     beta= 0.15
     Davidson diagonalization with overlap

---- Real-time Memory Report at c_bands before calling an iterative solver
             0 MiB given to the printing process from OS
             0 MiB allocation reported by mallinfo(arena+hblkhd)
        168973 MiB available memory on the node where the printing process lives
------------------
     ethr =  4.39E-11,  avg # of iterations =  2.9

     negative rho (up, down):  7.924E-01 0.000E+00

     total cpu time spent up to now is      640.0 secs

     total energy              =   -4399.91535946 Ry
     estimated scf accuracy    <       0.00000013 Ry

     iteration # 43     ecut=    60.00 Ry     beta= 0.15
     Davidson diagonalization with overlap

---- Real-time Memory Report at c_bands before calling an iterative solver
             0 MiB given to the printing process from OS
             0 MiB allocation reported by mallinfo(arena+hblkhd)
        168968 MiB available memory on the node where the printing process lives
------------------
     ethr =  3.04E-11,  avg # of iterations =  2.2

     negative rho (up, down):  7.924E-01 0.000E+00

     total cpu time spent up to now is      653.5 secs

     total energy              =   -4399.91535950 Ry
     estimated scf accuracy    <       0.00000007 Ry

     iteration # 44     ecut=    60.00 Ry     beta= 0.15
     Davidson diagonalization with overlap

---- Real-time Memory Report at c_bands before calling an iterative solver
             0 MiB given to the printing process from OS
             0 MiB allocation reported by mallinfo(arena+hblkhd)
        168967 MiB available memory on the node where the printing process lives
------------------
     ethr =  1.62E-11,  avg # of iterations =  3.1

     negative rho (up, down):  7.924E-01 0.000E+00

     total cpu time spent up to now is      667.5 secs

     total energy              =   -4399.91535951 Ry
     estimated scf accuracy    <       0.00000005 Ry

     iteration # 45     ecut=    60.00 Ry     beta= 0.15
     Davidson diagonalization with overlap

---- Real-time Memory Report at c_bands before calling an iterative solver
             0 MiB given to the printing process from OS
             0 MiB allocation reported by mallinfo(arena+hblkhd)
        168963 MiB available memory on the node where the printing process lives
------------------
     ethr =  1.07E-11,  avg # of iterations =  2.2

     negative rho (up, down):  7.924E-01 0.000E+00

     total cpu time spent up to now is      681.0 secs

     total energy              =   -4399.91535952 Ry
     estimated scf accuracy    <       0.00000003 Ry

     iteration # 46     ecut=    60.00 Ry     beta= 0.15
     Davidson diagonalization with overlap

---- Real-time Memory Report at c_bands before calling an iterative solver
             0 MiB given to the printing process from OS
             0 MiB allocation reported by mallinfo(arena+hblkhd)
        168962 MiB available memory on the node where the printing process lives
------------------
     ethr =  7.33E-12,  avg # of iterations =  3.2

     negative rho (up, down):  7.924E-01 0.000E+00

     total cpu time spent up to now is      695.0 secs

     total energy              =   -4399.91535952 Ry
     estimated scf accuracy    <       0.00000002 Ry

     iteration # 47     ecut=    60.00 Ry     beta= 0.15
     Davidson diagonalization with overlap

---- Real-time Memory Report at c_bands before calling an iterative solver
             0 MiB given to the printing process from OS
             0 MiB allocation reported by mallinfo(arena+hblkhd)
        168963 MiB available memory on the node where the printing process lives
------------------
     ethr =  5.61E-12,  avg # of iterations =  3.2

     negative rho (up, down):  7.924E-01 0.000E+00

     total cpu time spent up to now is      708.6 secs

     End of self-consistent calculation

          k = 0.0000 0.0000 0.0000 ( 65197 PWs)   bands (ev):

   -92.7144 -92.6594 -92.5679 -92.5185 -92.4614 -92.4205 -92.4033 -92.2808
   -56.0679 -56.0459 -55.9253 -55.9150 -55.9061 -55.9019 -55.8643 -55.8372
   -55.8218 -55.8199 -55.8103 -55.7692 -55.7503 -55.7126 -55.6942 -55.6615
   -55.6528 -55.6090 -55.6061 -55.6058 -55.5974 -55.5556 -55.5336 -55.4482
   -31.2903 -31.2713 -31.1291 -31.0430 -31.0109 -30.9632 -30.9343 -30.8510
   -29.8621 -29.8194 -29.7929 -29.6854 -15.0950 -15.0569 -14.9717 -14.8417
   -14.6531 -14.5303 -14.2336 -14.2135 -14.1845 -14.1378 -14.0955 -14.0878
   -14.0744 -14.0560 -14.0376 -13.9889 -13.9444 -13.7936 -13.6213 -13.5821
   -13.5515 -13.5231 -13.5048 -13.4515 -13.4171 -13.3349 -13.2635 -13.1367
   -13.1229 -13.1119 -13.0880 -13.0697 -13.0588 -13.0266 -13.0143 -13.0041
   -12.9673 -12.9363 -12.9161 -12.8748 -12.8635 -12.8543 -12.8153 -12.8060
   -12.7936 -12.7727 -12.7260 -12.7183 -12.3553 -12.2097 -12.0645 -11.9971
   -11.8761 -11.8017 -11.7904 -11.7683 -11.7505 -11.6869 -11.6693 -11.6348
   -11.6051 -11.4947 -11.4142 -11.4107  -2.9564  -2.7234  -2.4939  -2.3477
    -2.2840  -2.1414  -1.8348  -1.8208  -1.8002  -1.7176  -1.6978  -1.6297
    -1.6135  -1.5721  -1.5274  -1.3465  -1.1235  -1.0940  -0.9444  -0.9304
    -0.8865  -0.8668  -0.8220  -0.8061  -0.7481  -0.7214  -0.6507  -0.6377
    -0.5607  -0.4296  -0.4160  -0.3885  -0.3073  -0.3034  -0.2855  -0.2154
    -0.1434  -0.1023  -0.0472  -0.0205   0.0376   0.1179   0.1658   0.1881
     0.1967   0.4543   0.4687   0.6419   0.7082   0.7742   0.8156   0.9089
     0.9222   0.9388   1.0069   1.0338   1.0680   1.1269   1.2595   1.3164
     1.3366   1.3550   1.3678   1.4352   1.5081   1.6091   1.6204   1.6857
     1.7012   1.7408   1.7607   1.7657   1.8245   1.8754   1.8853   1.9233
     1.9626   2.0105   2.1415   2.2236   2.2689   2.2876   2.4386   2.4543
     2.4948   2.4996   2.6006   2.6424   2.6673   2.6869   2.7011   2.7632
     2.8098   2.8968   2.9242   2.9378   2.9448   3.0119   3.0159   3.0399
     3.0477   3.0557   3.0735   3.0752   3.0882   3.0929   3.1084   3.1152
     3.1224   3.1429   3.1643   3.1694   3.1816   3.2234   3.3226   3.4215
     4.0960   4.4177   4.7593   4.8607   5.0219   5.8055   5.9269   5.9849
     6.0104   6.3011   6.3480   6.4777   6.4878   6.7340   7.0016   7.0890
     7.1363   7.2724   7.3040   7.5946   7.6507   7.6664   7.6807   7.9335
     7.9757   8.1056   8.1219   8.1925   8.5643   8.6454   8.7127   8.8474

     occupation numbers 
     1.0000   1.0000   1.0000   1.0000   1.0000   1.0000   1.0000   1.0000
     1.0000   1.0000   1.0000   1.0000   1.0000   1.0000   1.0000   1.0000
     1.0000   1.0000   1.0000   1.0000   1.0000   1.0000   1.0000   1.0000
     1.0000   1.0000   1.0000   1.0000   1.0000   1.0000   1.0000   1.0000
     1.0000   1.0000   1.0000   1.0000   1.0000   1.0000   1.0000   1.0000
     1.0000   1.0000   1.0000   1.0000   1.0000   1.0000   1.0000   1.0000
     1.0000   1.0000   1.0000   1.0000   1.0000   1.0000   1.0000   1.0000
     1.0000   1.0000   1.0000   1.0000   1.0000   1.0000   1.0000   1.0000
     1.0000   1.0000   1.0000   1.0000   1.0000   1.0000   1.0000   1.0000
     1.0000   1.0000   1.0000   1.0000   1.0000   1.0000   1.0000   1.0000
     1.0000   1.0000   1.0000   1.0000   1.0000   1.0000   1.0000   1.0000
     1.0000   1.0000   1.0000   1.0000   1.0000   1.0000   1.0000   1.0000
     1.0000   1.0000   1.0000   1.0000   1.0000   1.0000   1.0000   1.0000
     1.0000   1.0000   1.0000   1.0000   1.0000   1.0000   1.0000   1.0000
     1.0000   1.0000   1.0000   1.0000   1.0000   1.0000   1.0000   1.0000
     1.0000   1.0000   1.0000   1.0000   1.0000   1.0000   1.0000   1.0000
     1.0000   1.0000   1.0000   1.0000   1.0000   1.0000   1.0000   1.0000
     1.0000   1.0000   1.0000   1.0000   1.0000   1.0000   1.0000   1.0000
     1.0000   1.0000   1.0000   1.0000   1.0000   1.0000   1.0000   1.0000
     1.0000   1.0000   1.0000   1.0000   0.9999   0.9999   0.9999   0.9998
     0.9998   0.9998   0.9997   0.9996   0.9996   0.9994   0.9989   0.9985
     0.9983   0.9982   0.9981   0.9974   0.9963   0.9943   0.9940   0.9922
     0.9917   0.9902   0.9894   0.9892   0.9865   0.9836   0.9830   0.9805
     0.9776   0.9735   0.9591   0.9472   0.9396   0.9362   0.9031   0.8990
     0.8879   0.8866   0.8551   0.8405   0.8313   0.8239   0.8184   0.7930
     0.7728   0.7320   0.7184   0.7115   0.7080   0.6729   0.6707   0.6577
     0.6535   0.6490   0.6392   0.6382   0.6310   0.6284   0.6196   0.6158
     0.6117   0.6000   0.5877   0.5847   0.5776   0.5532   0.4946   0.4363
     0.1226   0.0505   0.0159   0.0108   0.0056   0.0001   0.0001   0.0000
     0.0000   0.0000   0.0000   0.0000   0.0000   0.0000   0.0000   0.0000
     0.0000   0.0000   0.0000   0.0000   0.0000   0.0000   0.0000   0.0000
     0.0000   0.0000   0.0000   0.0000   0.0000   0.0000   0.0000   0.0000

          k = 0.0000 0.2500 0.0000 ( 65257 PWs)   bands (ev):

   -92.7144 -92.6594 -92.5679 -92.5185 -92.4614 -92.4205 -92.4033 -92.2808
   -56.0679 -56.0459 -55.9253 -55.9150 -55.9061 -55.9019 -55.8643 -55.8372
   -55.8218 -55.8199 -55.8103 -55.7692 -55.7503 -55.7126 -55.6942 -55.6615
   -55.6528 -55.6090 -55.6061 -55.6058 -55.5974 -55.5556 -55.5336 -55.4482
   -31.2901 -31.2712 -31.1293 -31.0431 -31.0105 -30.9630 -30.9347 -30.8513
   -29.8615 -29.8191 -29.7935 -29.6857 -15.0582 -15.0309 -14.9466 -14.8124
   -14.6936 -14.5199 -14.3795 -14.1991 -14.1669 -14.1428 -14.1137 -14.0595
   -14.0516 -14.0394 -14.0198 -13.9674 -13.8641 -13.8249 -13.6615 -13.6457
   -13.5922 -13.5577 -13.5160 -13.4687 -13.4279 -13.3559 -13.3204 -13.2483
   -13.1975 -13.1604 -13.1214 -13.1038 -13.0463 -13.0000 -12.9758 -12.9473
   -12.9194 -12.9117 -12.8805 -12.8664 -12.8318 -12.8158 -12.8071 -12.7778
   -12.7540 -12.7252 -12.6390 -12.5511 -12.4167 -12.2610 -12.1208 -12.0643
   -11.8416 -11.7985 -11.7706 -11.7424 -11.7258 -11.6788 -11.6672 -11.6444
   -11.6105 -11.5089 -11.4559 -11.4453  -2.8211  -2.5991  -2.4618  -2.2798
    -2.2361  -2.0720  -1.8537  -1.7680  -1.7550  -1.6989  -1.5953  -1.5796
    -1.5457  -1.5191  -1.4756  -1.2776  -1.1494  -1.1376  -1.0616  -1.0510
    -0.9461  -0.9154  -0.8587  -0.8339  -0.7921  -0.7294  -0.7030  -0.6706
    -0.6382  -0.6217  -0.5891  -0.5146  -0.4640  -0.4039  -0.2890  -0.2720
    -0.2264  -0.1074  -0.0742  -0.0091   0.0385   0.1014   0.1150   0.1460
     0.2035   0.5009   0.5894   0.6196   0.7089   0.7554   0.7740   0.8955
     0.9129   1.0088   1.0340   1.0610   1.1759   1.2658   1.2919   1.3138
     1.3314   1.3599   1.4198   1.4470   1.4744   1.5228   1.5565   1.5859
     1.6651   1.6970   1.7398   1.7890   1.8455   1.8858   1.9130   1.9388
     1.9605   2.0456   2.1764   2.2487   2.2695   2.3451   2.3933   2.4307
     2.4405   2.5008   2.5408   2.6180   2.6596   2.6768   2.7858   2.8522
     2.8833   2.9066   2.9283   2.9467   2.9540   2.9611   2.9733   3.0002
     3.0011   3.0214   3.0260   3.0363   3.0549   3.0672   3.0745   3.0956
     3.1054   3.1099   3.1448   3.1621   3.2242   3.5954   3.6376   3.8654
     4.2815   4.4205   4.6923   5.0143   5.0503   5.6233   5.7581   5.9150
     5.9788   6.0785   6.1068   6.1750   6.5948   6.8392   6.9045   7.1044
     7.3238   7.4290   7.4745   7.4897   7.6344   7.7286   7.7768   8.0213
     8.0702   8.1088   8.1618   8.3124   8.4000   8.6452   8.8005   8.8614

     occupation numbers 
     1.0000   1.0000   1.0000   1.0000   1.0000   1.0000   1.0000   1.0000
     1.0000   1.0000   1.0000   1.0000   1.0000   1.0000   1.0000   1.0000
     1.0000   1.0000   1.0000   1.0000   1.0000   1.0000   1.0000   1.0000
     1.0000   1.0000   1.0000   1.0000   1.0000   1.0000   1.0000   1.0000
     1.0000   1.0000   1.0000   1.0000   1.0000   1.0000   1.0000   1.0000
     1.0000   1.0000   1.0000   1.0000   1.0000   1.0000   1.0000   1.0000
     1.0000   1.0000   1.0000   1.0000   1.0000   1.0000   1.0000   1.0000
     1.0000   1.0000   1.0000   1.0000   1.0000   1.0000   1.0000   1.0000
     1.0000   1.0000   1.0000   1.0000   1.0000   1.0000   1.0000   1.0000
     1.0000   1.0000   1.0000   1.0000   1.0000   1.0000   1.0000   1.0000
     1.0000   1.0000   1.0000   1.0000   1.0000   1.0000   1.0000   1.0000
     1.0000   1.0000   1.0000   1.0000   1.0000   1.0000   1.0000   1.0000
     1.0000   1.0000   1.0000   1.0000   1.0000   1.0000   1.0000   1.0000
     1.0000   1.0000   1.0000   1.0000   1.0000   1.0000   1.0000   1.0000
     1.0000   1.0000   1.0000   1.0000   1.0000   1.0000   1.0000   1.0000
     1.0000   1.0000   1.0000   1.0000   1.0000   1.0000   1.0000   1.0000
     1.0000   1.0000   1.0000   1.0000   1.0000   1.0000   1.0000   1.0000
     1.0000   1.0000   1.0000   1.0000   1.0000   1.0000   1.0000   1.0000
     1.0000   1.0000   1.0000   1.0000   1.0000   1.0000   1.0000   1.0000
     1.0000   1.0000   1.0000   1.0000   0.9999   0.9999   0.9999   0.9998
     0.9998   0.9997   0.9996   0.9996   0.9992   0.9988   0.9987   0.9985
     0.9984   0.9981   0.9975   0.9972   0.9968   0.9961   0.9955   0.9948
     0.9928   0.9918   0.9903   0.9882   0.9854   0.9830   0.9812   0.9794
     0.9777   0.9701   0.9543   0.9431   0.9395   0.9248   0.9141   0.9050
     0.9026   0.8862   0.8744   0.8491   0.8342   0.8278   0.7833   0.7533
     0.7385   0.7272   0.7163   0.7070   0.7033   0.6996   0.6932   0.6791
     0.6786   0.6677   0.6653   0.6597   0.6495   0.6427   0.6387   0.6268
     0.6213   0.6188   0.5989   0.5889   0.5527   0.3377   0.3152   0.2062
     0.0753   0.0501   0.0203   0.0058   0.0050   0.0003   0.0001   0.0001
     0.0000   0.0000   0.0000   0.0000   0.0000   0.0000   0.0000   0.0000
     0.0000   0.0000   0.0000   0.0000   0.0000   0.0000   0.0000   0.0000
     0.0000   0.0000   0.0000   0.0000   0.0000   0.0000   0.0000   0.0000

          k = 0.0000-0.5000 0.0000 ( 65180 PWs)   bands (ev):

   -92.7144 -92.6594 -92.5679 -92.5185 -92.4614 -92.4205 -92.4033 -92.2808
   -56.0679 -56.0459 -55.9253 -55.9150 -55.9061 -55.9019 -55.8643 -55.8372
   -55.8218 -55.8199 -55.8103 -55.7692 -55.7503 -55.7126 -55.6942 -55.6615
   -55.6528 -55.6090 -55.6061 -55.6058 -55.5974 -55.5556 -55.5336 -55.4482
   -31.2899 -31.2711 -31.1295 -31.0432 -31.0101 -30.9627 -30.9351 -30.8516
   -29.8609 -29.8188 -29.7942 -29.6861 -15.0256 -14.9765 -14.9243 -14.7970
   -14.7107 -14.5737 -14.4231 -14.2991 -14.1707 -14.0973 -14.0581 -14.0511
   -14.0029 -13.9849 -13.9366 -13.9187 -13.8920 -13.8567 -13.8239 -13.7826
   -13.5966 -13.5398 -13.5240 -13.4698 -13.4224 -13.3720 -13.3275 -13.2959
   -13.2805 -13.2305 -13.1222 -13.1046 -13.0335 -12.9834 -12.9743 -12.9625
   -12.9416 -12.8944 -12.8667 -12.8281 -12.8086 -12.7722 -12.7491 -12.7234
   -12.7179 -12.6646 -12.5277 -12.4886 -12.3362 -12.3262 -12.2321 -12.1862
   -11.7955 -11.7932 -11.7656 -11.7281 -11.6937 -11.6824 -11.6404 -11.6365
   -11.5923 -11.5305 -11.5168 -11.5025  -2.6068  -2.5467  -2.3962  -2.3237
    -2.0435  -1.9584  -1.8320  -1.6938  -1.6589  -1.6375  -1.5587  -1.5273
    -1.4459  -1.4102  -1.3340  -1.2930  -1.2543  -1.2271  -1.1716  -1.1318
    -1.0872  -1.0497  -1.0165  -0.9828  -0.8723  -0.8274  -0.7936  -0.7929
    -0.7067  -0.6737  -0.6511  -0.6016  -0.5188  -0.4456  -0.3662  -0.3397
    -0.2293  -0.1833  -0.0432  -0.0130   0.0186   0.0769   0.1974   0.2458
     0.3783   0.4455   0.4524   0.5810   0.6240   0.7348   0.8590   0.9681
     0.9986   1.0354   1.0398   1.0818   1.0968   1.1346   1.1509   1.1619
     1.2707   1.3326   1.3578   1.3832   1.6438   1.6792   1.6980   1.7957
     1.8199   1.8510   1.8675   1.8970   1.9089   1.9217   1.9524   1.9868
     2.0160   2.0428   2.0529   2.0839   2.1377   2.2175   2.2470   2.4344
     2.5892   2.5986   2.6098   2.6471   2.6539   2.6667   2.7148   2.7306
     2.7832   2.7979   2.8106   2.8924   2.8957   2.9633   2.9841   2.9958
     2.9971   3.0171   3.0241   3.0275   3.0299   3.0348   3.0558   3.0645
     3.0783   3.1300   3.1383   3.1515   3.2051   4.1150   4.1512   4.1721
     4.2396   4.7283   4.8842   5.0195   5.1353   5.4059   5.4532   5.5837
     5.6852   5.9847   6.0339   6.0439   6.6968   6.8510   6.9465   7.2164
     7.3194   7.3373   7.4047   7.4628   7.7418   7.8523   7.8868   7.9065
     8.1166   8.2060   8.4470   8.5279   8.6613   8.7135   8.8040   8.8463

     occupation numbers 
     1.0000   1.0000   1.0000   1.0000   1.0000   1.0000   1.0000   1.0000
     1.0000   1.0000   1.0000   1.0000   1.0000   1.0000   1.0000   1.0000
     1.0000   1.0000   1.0000   1.0000   1.0000   1.0000   1.0000   1.0000
     1.0000   1.0000   1.0000   1.0000   1.0000   1.0000   1.0000   1.0000
     1.0000   1.0000   1.0000   1.0000   1.0000   1.0000   1.0000   1.0000
     1.0000   1.0000   1.0000   1.0000   1.0000   1.0000   1.0000   1.0000
     1.0000   1.0000   1.0000   1.0000   1.0000   1.0000   1.0000   1.0000
     1.0000   1.0000   1.0000   1.0000   1.0000   1.0000   1.0000   1.0000
     1.0000   1.0000   1.0000   1.0000   1.0000   1.0000   1.0000   1.0000
     1.0000   1.0000   1.0000   1.0000   1.0000   1.0000   1.0000   1.0000
     1.0000   1.0000   1.0000   1.0000   1.0000   1.0000   1.0000   1.0000
     1.0000   1.0000   1.0000   1.0000   1.0000   1.0000   1.0000   1.0000
     1.0000   1.0000   1.0000   1.0000   1.0000   1.0000   1.0000   1.0000
     1.0000   1.0000   1.0000   1.0000   1.0000   1.0000   1.0000   1.0000
     1.0000   1.0000   1.0000   1.0000   1.0000   1.0000   1.0000   1.0000
     1.0000   1.0000   1.0000   1.0000   1.0000   1.0000   1.0000   1.0000
     1.0000   1.0000   1.0000   1.0000   1.0000   1.0000   1.0000   1.0000
     1.0000   1.0000   1.0000   1.0000   1.0000   1.0000   1.0000   1.0000
     1.0000   1.0000   1.0000   1.0000   1.0000   1.0000   1.0000   1.0000
     1.0000   1.0000   1.0000   1.0000   1.0000   0.9999   0.9999   0.9998
     0.9997   0.9996   0.9996   0.9995   0.9995   0.9994   0.9993   0.9993
     0.9988   0.9984   0.9982   0.9979   0.9934   0.9924   0.9918   0.9879
     0.9867   0.9851   0.9841   0.9823   0.9815   0.9806   0.9784   0.9756
     0.9730   0.9704   0.9694   0.9661   0.9596   0.9482   0.9434   0.9041
     0.8589   0.8558   0.8520   0.8388   0.8363   0.8316   0.8130   0.8066
     0.7845   0.7780   0.7724   0.7341   0.7325   0.6985   0.6876   0.6814
     0.6807   0.6701   0.6663   0.6644   0.6631   0.6605   0.6490   0.6442
     0.6365   0.6074   0.6026   0.5951   0.5639   0.1170   0.1068   0.1012
     0.0845   0.0178   0.0098   0.0056   0.0034   0.0009   0.0007   0.0004
     0.0002   0.0000   0.0000   0.0000   0.0000   0.0000   0.0000   0.0000
     0.0000   0.0000   0.0000   0.0000   0.0000   0.0000   0.0000   0.0000
     0.0000   0.0000   0.0000   0.0000   0.0000   0.0000   0.0000   0.0000

          k = 0.2500 0.2500 0.0000 ( 65198 PWs)   bands (ev):

   -92.7144 -92.6594 -92.5679 -92.5185 -92.4614 -92.4205 -92.4033 -92.2808
   -56.0679 -56.0459 -55.9253 -55.9150 -55.9061 -55.9019 -55.8643 -55.8372
   -55.8218 -55.8199 -55.8103 -55.7692 -55.7503 -55.7126 -55.6942 -55.6615
   -55.6528 -55.6090 -55.6061 -55.6058 -55.5974 -55.5556 -55.5336 -55.4482
   -31.2884 -31.2729 -31.1289 -31.0435 -31.0099 -30.9636 -30.9344 -30.8517
   -29.8605 -29.8201 -29.7932 -29.6862 -15.0300 -14.9961 -14.9187 -14.8018
   -14.6851 -14.5602 -14.4844 -14.2795 -14.1222 -14.1093 -14.0737 -14.0448
   -14.0237 -14.0006 -13.9667 -13.9281 -13.8545 -13.8389 -13.6766 -13.6635
   -13.6350 -13.6136 -13.5713 -13.5245 -13.4637 -13.4393 -13.3151 -13.2778
   -13.2415 -13.1550 -13.1141 -13.0625 -13.0318 -12.9965 -12.9872 -12.9599
   -12.9308 -12.9132 -12.8919 -12.8392 -12.8036 -12.7849 -12.7571 -12.7515
   -12.7412 -12.7261 -12.5569 -12.4652 -12.4376 -12.2901 -12.1520 -12.1147
   -11.8137 -11.7822 -11.7712 -11.7637 -11.7019 -11.6664 -11.6602 -11.6250
   -11.6163 -11.5256 -11.4842 -11.4668  -2.6830  -2.4733  -2.3558  -2.2620
    -2.1406  -2.0753  -1.8787  -1.7332  -1.7132  -1.6854  -1.5903  -1.5557
    -1.4619  -1.4353  -1.3848  -1.2528  -1.2056  -1.1333  -1.0878  -1.0439
    -1.0193  -0.9945  -0.9520  -0.9370  -0.8468  -0.7965  -0.7335  -0.6833
    -0.6527  -0.6018  -0.5890  -0.5261  -0.4770  -0.4232  -0.3857  -0.3022
    -0.2478  -0.2195  -0.1794  -0.1243  -0.0526  -0.0129   0.0114   0.0862
     0.1239   0.3928   0.5389   0.5770   0.6313   0.6758   0.7342   0.7868
     0.8475   0.8837   1.1559   1.2245   1.2980   1.3244   1.3702   1.4043
     1.4384   1.4757   1.4933   1.5212   1.5637   1.5729   1.5888   1.6312
     1.6734   1.7125   1.7659   1.8093   1.8140   1.8499   1.8852   1.9401
     1.9664   2.0899   2.1582   2.1941   2.2211   2.2838   2.3536   2.3809
     2.4172   2.4417   2.4558   2.5620   2.6012   2.6902   2.8016   2.8687
     2.8801   2.8871   2.9022   2.9185   2.9303   2.9423   2.9493   2.9618
     2.9730   2.9865   3.0049   3.0104   3.0226   3.0436   3.0563   3.0653
     3.0974   3.3981   3.4933   3.5310   3.6003   3.6531   3.8409   3.9409
     4.2870   4.5096   4.7013   4.9627   5.1642   5.6330   5.6764   5.7326
     5.8231   5.8821   6.0274   6.1488   6.2231   6.7207   6.8924   7.0614
     7.1838   7.5447   7.5945   7.6996   7.7569   7.8595   7.9332   8.1076
     8.1520   8.2039   8.3037   8.3165   8.4365   8.4817   8.7338   8.8594

     occupation numbers 
     1.0000   1.0000   1.0000   1.0000   1.0000   1.0000   1.0000   1.0000
     1.0000   1.0000   1.0000   1.0000   1.0000   1.0000   1.0000   1.0000
     1.0000   1.0000   1.0000   1.0000   1.0000   1.0000   1.0000   1.0000
     1.0000   1.0000   1.0000   1.0000   1.0000   1.0000   1.0000   1.0000
     1.0000   1.0000   1.0000   1.0000   1.0000   1.0000   1.0000   1.0000
     1.0000   1.0000   1.0000   1.0000   1.0000   1.0000   1.0000   1.0000
     1.0000   1.0000   1.0000   1.0000   1.0000   1.0000   1.0000   1.0000
     1.0000   1.0000   1.0000   1.0000   1.0000   1.0000   1.0000   1.0000
     1.0000   1.0000   1.0000   1.0000   1.0000   1.0000   1.0000   1.0000
     1.0000   1.0000   1.0000   1.0000   1.0000   1.0000   1.0000   1.0000
     1.0000   1.0000   1.0000   1.0000   1.0000   1.0000   1.0000   1.0000
     1.0000   1.0000   1.0000   1.0000   1.0000   1.0000   1.0000   1.0000
     1.0000   1.0000   1.0000   1.0000   1.0000   1.0000   1.0000   1.0000
     1.0000   1.0000   1.0000   1.0000   1.0000   1.0000   1.0000   1.0000
     1.0000   1.0000   1.0000   1.0000   1.0000   1.0000   1.0000   1.0000
     1.0000   1.0000   1.0000   1.0000   1.0000   1.0000   1.0000   1.0000
     1.0000   1.0000   1.0000   1.0000   1.0000   1.0000   1.0000   1.0000
     1.0000   1.0000   1.0000   1.0000   1.0000   1.0000   1.0000   1.0000
     1.0000   1.0000   1.0000   1.0000   1.0000   1.0000   1.0000   1.0000
     1.0000   1.0000   1.0000   1.0000   1.0000   1.0000   0.9999   0.9999
     0.9999   0.9998   0.9993   0.9990   0.9986   0.9984   0.9980   0.9977
     0.9973   0.9968   0.9966   0.9961   0.9953   0.9951   0.9948   0.9938
     0.9926   0.9913   0.9892   0.9872   0.9870   0.9851   0.9830   0.9793
     0.9773   0.9654   0.9569   0.9518   0.9476   0.9369   0.9230   0.9169
     0.9084   0.9022   0.8986   0.8678   0.8549   0.8227   0.7764   0.7455
     0.7401   0.7367   0.7293   0.7212   0.7153   0.7092   0.7056   0.6992
     0.6934   0.6864   0.6766   0.6737   0.6671   0.6557   0.6487   0.6438
     0.6258   0.4500   0.3947   0.3734   0.3351   0.3070   0.2168   0.1758
     0.0741   0.0379   0.0197   0.0072   0.0030   0.0003   0.0002   0.0002
     0.0001   0.0001   0.0000   0.0000   0.0000   0.0000   0.0000   0.0000
     0.0000   0.0000   0.0000   0.0000   0.0000   0.0000   0.0000   0.0000
     0.0000   0.0000   0.0000   0.0000   0.0000   0.0000   0.0000   0.0000

          k = 0.2500-0.5000 0.0000 ( 65138 PWs)   bands (ev):

   -92.7144 -92.6594 -92.5679 -92.5185 -92.4614 -92.4205 -92.4033 -92.2808
   -56.0679 -56.0459 -55.9253 -55.9150 -55.9061 -55.9019 -55.8643 -55.8372
   -55.8218 -55.8199 -55.8103 -55.7692 -55.7503 -55.7126 -55.6942 -55.6615
   -55.6527 -55.6090 -55.6061 -55.6058 -55.5974 -55.5556 -55.5336 -55.4482
   -31.2882 -31.2728 -31.1292 -31.0436 -31.0095 -30.9633 -30.9348 -30.8520
   -29.8599 -29.8198 -29.7938 -29.6865 -14.9955 -14.9497 -14.8816 -14.7664
   -14.7335 -14.6139 -14.5244 -14.3959 -14.0860 -14.0342 -14.0082 -13.9871
   -13.9699 -13.9571 -13.9219 -13.9069 -13.8723 -13.8329 -13.8110 -13.7731
   -13.6795 -13.6305 -13.5875 -13.5516 -13.4851 -13.4718 -13.3660 -13.3342
   -13.2198 -13.1549 -13.1325 -13.0467 -13.0036 -12.9888 -12.9821 -12.9571
   -12.9273 -12.9239 -12.8943 -12.8230 -12.8054 -12.7950 -12.7584 -12.7407
   -12.6684 -12.6367 -12.5343 -12.4623 -12.3337 -12.2973 -12.2246 -12.1884
   -11.7893 -11.7774 -11.7663 -11.7389 -11.7076 -11.6790 -11.6379 -11.6108
   -11.5884 -11.5437 -11.5178 -11.5067  -2.4653  -2.3985  -2.2701  -2.1925
    -2.0640  -1.9787  -1.8565  -1.7054  -1.6530  -1.6302  -1.5667  -1.5535
    -1.4565  -1.3893  -1.3044  -1.2557  -1.2462  -1.1823  -1.1412  -1.1051
    -1.0580  -1.0211  -0.9863  -0.9460  -0.9345  -0.8893  -0.8606  -0.8192
    -0.7883  -0.7209  -0.6210  -0.5786  -0.5023  -0.4376  -0.3907  -0.3457
    -0.3238  -0.2745  -0.1103  -0.0990  -0.0006   0.0412   0.0514   0.0934
     0.1230   0.1654   0.1900   0.2608   0.5288   0.6202   0.7010   0.7547
     1.0142   1.0421   1.1288   1.1551   1.3216   1.3537   1.3978   1.4208
     1.4365   1.4566   1.5172   1.5628   1.5997   1.6813   1.7675   1.8104
     1.8302   1.8385   1.8783   1.8920   1.8940   1.9393   1.9541   1.9734
     2.0036   2.0220   2.0452   2.0781   2.1364   2.1732   2.2518   2.3925
     2.5412   2.5552   2.5762   2.6029   2.6286   2.6526   2.6780   2.6863
     2.7092   2.8071   2.8192   2.8686   2.8813   2.8924   2.8991   2.9204
     2.9338   2.9554   2.9622   2.9911   3.0042   3.0179   3.0271   3.0356
     3.0489   3.5753   3.5880   3.7295   3.7791   4.1269   4.1672   4.1932
     4.2995   4.7468   4.9071   5.0540   5.1115   5.2927   5.4217   5.5922
     5.6111   5.7552   5.7781   6.1175   6.3925   6.4833   6.6432   6.9673
     7.4526   7.5248   7.6945   7.8020   7.8236   7.8688   8.0302   8.1598
     8.3155   8.4034   8.4437   8.5252   8.5396   8.6552   8.7139   8.7537

     occupation numbers 
     1.0000   1.0000   1.0000   1.0000   1.0000   1.0000   1.0000   1.0000
     1.0000   1.0000   1.0000   1.0000   1.0000   1.0000   1.0000   1.0000
     1.0000   1.0000   1.0000   1.0000   1.0000   1.0000   1.0000   1.0000
     1.0000   1.0000   1.0000   1.0000   1.0000   1.0000   1.0000   1.0000
     1.0000   1.0000   1.0000   1.0000   1.0000   1.0000   1.0000   1.0000
     1.0000   1.0000   1.0000   1.0000   1.0000   1.0000   1.0000   1.0000
     1.0000   1.0000   1.0000   1.0000   1.0000   1.0000   1.0000   1.0000
     1.0000   1.0000   1.0000   1.0000   1.0000   1.0000   1.0000   1.0000
     1.0000   1.0000   1.0000   1.0000   1.0000   1.0000   1.0000   1.0000
     1.0000   1.0000   1.0000   1.0000   1.0000   1.0000   1.0000   1.0000
     1.0000   1.0000   1.0000   1.0000   1.0000   1.0000   1.0000   1.0000
     1.0000   1.0000   1.0000   1.0000   1.0000   1.0000   1.0000   1.0000
     1.0000   1.0000   1.0000   1.0000   1.0000   1.0000   1.0000   1.0000
     1.0000   1.0000   1.0000   1.0000   1.0000   1.0000   1.0000   1.0000
     1.0000   1.0000   1.0000   1.0000   1.0000   1.0000   1.0000   1.0000
     1.0000   1.0000   1.0000   1.0000   1.0000   1.0000   1.0000   1.0000
     1.0000   1.0000   1.0000   1.0000   1.0000   1.0000   1.0000   1.0000
     1.0000   1.0000   1.0000   1.0000   1.0000   1.0000   1.0000   1.0000
     1.0000   1.0000   1.0000   1.0000   1.0000   1.0000   1.0000   1.0000
     1.0000   1.0000   1.0000   1.0000   1.0000   1.0000   0.9999   0.9999
     0.9997   0.9996   0.9994   0.9993   0.9985   0.9982   0.9978   0.9975
     0.9973   0.9971   0.9962   0.9953   0.9945   0.9923   0.9892   0.9872
     0.9862   0.9857   0.9835   0.9826   0.9825   0.9794   0.9782   0.9767
     0.9741   0.9724   0.9702   0.9667   0.9597   0.9548   0.9426   0.9143
     0.8743   0.8699   0.8632   0.8543   0.8454   0.8368   0.8273   0.8242
     0.8152   0.7740   0.7685   0.7456   0.7395   0.7341   0.7308   0.7203
     0.7136   0.7026   0.6990   0.6839   0.6770   0.6696   0.6647   0.6600
     0.6528   0.3487   0.3418   0.2684   0.2446   0.1135   0.1024   0.0957
     0.0716   0.0167   0.0090   0.0049   0.0038   0.0016   0.0009   0.0004
     0.0003   0.0001   0.0001   0.0000   0.0000   0.0000   0.0000   0.0000
     0.0000   0.0000   0.0000   0.0000   0.0000   0.0000   0.0000   0.0000
     0.0000   0.0000   0.0000   0.0000   0.0000   0.0000   0.0000   0.0000

          k =-0.5000-0.5000 0.0000 ( 65132 PWs)   bands (ev):

   -92.7144 -92.6594 -92.5679 -92.5185 -92.4614 -92.4205 -92.4033 -92.2808
   -56.0679 -56.0459 -55.9253 -55.9150 -55.9061 -55.9019 -55.8643 -55.8372
   -55.8218 -55.8199 -55.8103 -55.7692 -55.7503 -55.7126 -55.6942 -55.6615
   -55.6528 -55.6090 -55.6061 -55.6058 -55.5974 -55.5556 -55.5336 -55.4482
   -31.2859 -31.2751 -31.1288 -31.0440 -31.0088 -30.9640 -30.9344 -30.8524
   -29.8589 -29.8209 -29.7934 -29.6869 -14.9505 -14.9222 -14.8053 -14.7935
   -14.6969 -14.6622 -14.6260 -14.4951 -13.9991 -13.9869 -13.9527 -13.9322
   -13.9162 -13.9055 -13.8747 -13.8654 -13.8468 -13.8408 -13.8225 -13.7464
   -13.7400 -13.7080 -13.6842 -13.6756 -13.5729 -13.5411 -13.4075 -13.3775
   -13.1716 -13.1287 -13.0622 -13.0382 -13.0033 -12.9976 -12.9881 -12.9687
   -12.9333 -12.9066 -12.8857 -12.8289 -12.8192 -12.8062 -12.7800 -12.7542
   -12.6178 -12.6102 -12.5507 -12.4391 -12.3301 -12.2642 -12.2228 -12.1898
   -11.7860 -11.7734 -11.7554 -11.7388 -11.7038 -11.6867 -11.6509 -11.5913
   -11.5705 -11.5660 -11.5155 -11.5126  -2.2420  -2.1656  -2.1537  -2.0825
    -2.0443  -1.9658  -1.8980  -1.7724  -1.6557  -1.6255  -1.5877  -1.5293
    -1.4571  -1.4427  -1.3720  -1.3289  -1.2120  -1.1847  -1.1356  -1.1057
    -1.0417  -0.9971  -0.9774  -0.9658  -0.9132  -0.8664  -0.8523  -0.7390
    -0.6828  -0.6362  -0.5851  -0.5594  -0.5493  -0.5117  -0.4687  -0.4364
    -0.4220  -0.3377  -0.2713  -0.2240  -0.2005  -0.1252  -0.0729  -0.0513
     0.0010   0.0194   0.0389   0.0499   0.4989   0.5379   0.6510   0.6657
     1.0489   1.0602   1.0931   1.1311   1.4055   1.4257   1.4326   1.4687
     1.6018   1.6969   1.7243   1.7599   1.7768   1.8059   1.8123   1.8438
     1.8534   1.8701   1.8778   1.9328   1.9350   1.9644   1.9884   1.9958
     2.0141   2.0504   2.0766   2.0884   2.1208   2.1472   2.2174   2.2837
     2.5467   2.5852   2.6039   2.6241   2.6303   2.6641   2.6676   2.6848
     2.6971   2.7144   2.7338   2.7454   2.8045   2.8131   2.8177   2.8413
     2.8522   2.8685   2.8868   2.8934   2.9143   3.0031   3.0037   3.0342
     3.0414   3.9932   4.0148   4.0532   4.0904   4.3067   4.3793   4.4052
     4.6463   4.7676   4.8505   4.9805   5.0653   5.0779   5.1914   5.2962
     5.3653   5.8498   5.8816   5.9596   6.0223   6.4065   6.4916   6.5880
     7.7564   7.8310   7.8802   7.9015   7.9301   7.9669   8.0083   8.0778
     8.2575   8.3337   8.5455   8.5797   8.6041   8.6070   8.6492   8.7300

     occupation numbers 
     1.0000   1.0000   1.0000   1.0000   1.0000   1.0000   1.0000   1.0000
     1.0000   1.0000   1.0000   1.0000   1.0000   1.0000   1.0000   1.0000
     1.0000   1.0000   1.0000   1.0000   1.0000   1.0000   1.0000   1.0000
     1.0000   1.0000   1.0000   1.0000   1.0000   1.0000   1.0000   1.0000
     1.0000   1.0000   1.0000   1.0000   1.0000   1.0000   1.0000   1.0000
     1.0000   1.0000   1.0000   1.0000   1.0000   1.0000   1.0000   1.0000
     1.0000   1.0000   1.0000   1.0000   1.0000   1.0000   1.0000   1.0000
     1.0000   1.0000   1.0000   1.0000   1.0000   1.0000   1.0000   1.0000
     1.0000   1.0000   1.0000   1.0000   1.0000   1.0000   1.0000   1.0000
     1.0000   1.0000   1.0000   1.0000   1.0000   1.0000   1.0000   1.0000
     1.0000   1.0000   1.0000   1.0000   1.0000   1.0000   1.0000   1.0000
     1.0000   1.0000   1.0000   1.0000   1.0000   1.0000   1.0000   1.0000
     1.0000   1.0000   1.0000   1.0000   1.0000   1.0000   1.0000   1.0000
     1.0000   1.0000   1.0000   1.0000   1.0000   1.0000   1.0000   1.0000
     1.0000   1.0000   1.0000   1.0000   1.0000   1.0000   1.0000   1.0000
     1.0000   1.0000   1.0000   1.0000   1.0000   1.0000   1.0000   1.0000
     1.0000   1.0000   1.0000   1.0000   1.0000   1.0000   1.0000   1.0000
     1.0000   1.0000   1.0000   1.0000   1.0000   1.0000   1.0000   1.0000
     1.0000   1.0000   1.0000   1.0000   1.0000   1.0000   1.0000   1.0000
     1.0000   1.0000   1.0000   1.0000   1.0000   1.0000   1.0000   1.0000
     0.9996   0.9996   0.9995   0.9994   0.9977   0.9975   0.9974   0.9969
     0.9945   0.9918   0.9909   0.9895   0.9887   0.9874   0.9871   0.9855
     0.9849   0.9840   0.9835   0.9798   0.9797   0.9774   0.9754   0.9748
     0.9732   0.9696   0.9669   0.9656   0.9617   0.9584   0.9482   0.9369
     0.8726   0.8603   0.8540   0.8470   0.8448   0.8325   0.8312   0.8247
     0.8200   0.8132   0.8053   0.8005   0.7751   0.7713   0.7692   0.7584
     0.7533   0.7456   0.7368   0.7336   0.7233   0.6775   0.6773   0.6608
     0.6569   0.1564   0.1489   0.1360   0.1243   0.0701   0.0567   0.0525
     0.0239   0.0154   0.0112   0.0067   0.0046   0.0044   0.0026   0.0016
     0.0012   0.0001   0.0001   0.0000   0.0000   0.0000   0.0000   0.0000
     0.0000   0.0000   0.0000   0.0000   0.0000   0.0000   0.0000   0.0000
     0.0000   0.0000   0.0000   0.0000   0.0000   0.0000   0.0000   0.0000

          k = 0.2500 0.0000 0.0000 ( 65257 PWs)   bands (ev):

   -92.7144 -92.6594 -92.5679 -92.5185 -92.4614 -92.4205 -92.4033 -92.2808
   -56.0679 -56.0459 -55.9253 -55.9150 -55.9061 -55.9019 -55.8643 -55.8372
   -55.8218 -55.8199 -55.8103 -55.7692 -55.7503 -55.7126 -55.6942 -55.6615
   -55.6528 -55.6090 -55.6061 -55.6058 -55.5974 -55.5556 -55.5336 -55.4482
   -31.2886 -31.2731 -31.1287 -31.0433 -31.0103 -30.9639 -30.9340 -30.8514
   -29.8612 -29.8205 -29.7925 -29.6858 -15.0617 -15.0272 -14.9519 -14.8052
   -14.7012 -14.5099 -14.3685 -14.1913 -14.1734 -14.1424 -14.1135 -14.0883
   -14.0586 -14.0397 -14.0194 -13.9733 -13.8539 -13.8232 -13.6727 -13.6054
   -13.6005 -13.5388 -13.5058 -13.4964 -13.4410 -13.3586 -13.3254 -13.2424
   -13.1834 -13.1708 -13.0733 -13.0572 -13.0527 -13.0389 -13.0211 -12.9852
   -12.9479 -12.9229 -12.8468 -12.8332 -12.8282 -12.8102 -12.7889 -12.7837
   -12.7650 -12.7353 -12.6281 -12.5494 -12.4188 -12.2620 -12.1200 -12.0662
   -11.8409 -11.7884 -11.7715 -11.7587 -11.7317 -11.6810 -11.6579 -11.6496
   -11.5983 -11.5106 -11.4543 -11.4483  -2.8206  -2.5982  -2.4683  -2.2960
    -2.2325  -2.0618  -1.8552  -1.7776  -1.7326  -1.6992  -1.5981  -1.5841
    -1.5489  -1.5297  -1.4613  -1.2807  -1.1730  -1.1306  -1.0350  -1.0253
    -0.9432  -0.9172  -0.8679  -0.8260  -0.7733  -0.7465  -0.6959  -0.6685
    -0.6504  -0.5947  -0.5803  -0.4893  -0.4802  -0.4193  -0.3229  -0.2729
    -0.1482  -0.1312  -0.0779  -0.0302   0.0272   0.0462   0.0904   0.1568
     0.2002   0.4773   0.6117   0.6446   0.7287   0.7567   0.7941   0.8113
     0.8936   1.0029   1.0502   1.0733   1.1148   1.2605   1.2934   1.3278
[...]
     0.7439   0.7286   0.7184   0.7150   0.7044   0.6990   0.6917   0.6802
     0.6775   0.6633   0.6575   0.6539   0.6469   0.6355   0.6219   0.6194
     0.6147   0.6107   0.6054   0.5996   0.5243   0.3507   0.3209   0.2051
     0.0798   0.0448   0.0219   0.0057   0.0049   0.0003   0.0001   0.0001
     0.0000   0.0000   0.0000   0.0000   0.0000   0.0000   0.0000   0.0000
     0.0000   0.0000   0.0000   0.0000   0.0000   0.0000   0.0000   0.0000
     0.0000   0.0000   0.0000   0.0000   0.0000   0.0000   0.0000   0.0000

          k =-0.5000 0.0000 0.0000 ( 65180 PWs)   bands (ev):

   -92.7144 -92.6594 -92.5679 -92.5185 -92.4614 -92.4205 -92.4033 -92.2808
   -56.0679 -56.0459 -55.9253 -55.9150 -55.9061 -55.9019 -55.8643 -55.8372
   -55.8218 -55.8199 -55.8103 -55.7692 -55.7503 -55.7126 -55.6942 -55.6615
   -55.6527 -55.6090 -55.6061 -55.6058 -55.5974 -55.5556 -55.5336 -55.4482
   -31.2863 -31.2754 -31.1284 -31.0437 -31.0096 -30.9646 -30.9336 -30.8518
   -29.8601 -29.8215 -29.7921 -29.6862 -15.0295 -14.9813 -14.9181 -14.8064
   -14.7042 -14.5592 -14.4206 -14.2675 -14.1461 -14.1366 -14.1214 -14.0660
   -14.0063 -13.9755 -13.9291 -13.9176 -13.9014 -13.8515 -13.8289 -13.7314
   -13.5681 -13.5518 -13.5088 -13.5004 -13.4417 -13.3780 -13.3351 -13.2805
   -13.2572 -13.2412 -13.0669 -13.0551 -13.0293 -13.0219 -13.0146 -13.0007
   -12.9575 -12.9363 -12.8409 -12.8180 -12.8098 -12.7817 -12.7641 -12.7323
   -12.6529 -12.6437 -12.5539 -12.4790 -12.3402 -12.3189 -12.2312 -12.1960
   -11.7924 -11.7714 -11.7642 -11.7504 -11.7322 -11.6908 -11.6274 -11.6094
   -11.5761 -11.5334 -11.5241 -11.5080  -2.5965  -2.5575  -2.3937  -2.3542
    -2.0420  -1.9673  -1.8183  -1.6999  -1.6614  -1.6161  -1.5680  -1.5420
    -1.4193  -1.3745  -1.3604  -1.2776  -1.2411  -1.2286  -1.1947  -1.1375
    -1.0694  -1.0393  -1.0114  -0.9149  -0.8686  -0.8208  -0.7873  -0.7657
    -0.7366  -0.6875  -0.6625  -0.6249  -0.5311  -0.4535  -0.3931  -0.3285
    -0.1640  -0.1262  -0.0696  -0.0438   0.0233   0.0386   0.1773   0.2080
     0.2506   0.4265   0.5253   0.5730   0.6514   0.7230   0.8450   0.8556
     0.9910   1.0159   1.0688   1.0939   1.1354   1.1472   1.1923   1.2161
     1.2817   1.3318   1.3786   1.3863   1.6827   1.6901   1.7105   1.7275
     1.8401   1.8520   1.8661   1.8795   1.9064   1.9169   1.9561   1.9833
     2.0070   2.0638   2.0764   2.1281   2.1502   2.2053   2.3143   2.4173
     2.4873   2.5023   2.5737   2.6131   2.6409   2.7077   2.7148   2.7245
     2.7525   2.7908   2.8232   2.8808   2.9190   2.9489   2.9869   2.9906
     2.9921   3.0096   3.0178   3.0295   3.0444   3.0470   3.0728   3.0784
     3.0973   3.1157   3.1206   3.2530   3.2582   4.0572   4.1047   4.1701
     4.3389   4.7776   4.8478   5.0212   5.0467   5.4788   5.5084   5.5765
     5.6421   5.9892   6.0208   6.0860   6.6712   6.7945   6.9989   7.2772
     7.3106   7.3165   7.4213   7.4997   7.5761   7.7657   7.8762   7.9016
     8.0760   8.2510   8.4924   8.5829   8.6102   8.7508   8.7967   8.8761

     occupation numbers 
     1.0000   1.0000   1.0000   1.0000   1.0000   1.0000   1.0000   1.0000
     1.0000   1.0000   1.0000   1.0000   1.0000   1.0000   1.0000   1.0000
     1.0000   1.0000   1.0000   1.0000   1.0000   1.0000   1.0000   1.0000
     1.0000   1.0000   1.0000   1.0000   1.0000   1.0000   1.0000   1.0000
     1.0000   1.0000   1.0000   1.0000   1.0000   1.0000   1.0000   1.0000
     1.0000   1.0000   1.0000   1.0000   1.0000   1.0000   1.0000   1.0000
     1.0000   1.0000   1.0000   1.0000   1.0000   1.0000   1.0000   1.0000
     1.0000   1.0000   1.0000   1.0000   1.0000   1.0000   1.0000   1.0000
     1.0000   1.0000   1.0000   1.0000   1.0000   1.0000   1.0000   1.0000
     1.0000   1.0000   1.0000   1.0000   1.0000   1.0000   1.0000   1.0000
     1.0000   1.0000   1.0000   1.0000   1.0000   1.0000   1.0000   1.0000
     1.0000   1.0000   1.0000   1.0000   1.0000   1.0000   1.0000   1.0000
     1.0000   1.0000   1.0000   1.0000   1.0000   1.0000   1.0000   1.0000
     1.0000   1.0000   1.0000   1.0000   1.0000   1.0000   1.0000   1.0000
     1.0000   1.0000   1.0000   1.0000   1.0000   1.0000   1.0000   1.0000
     1.0000   1.0000   1.0000   1.0000   1.0000   1.0000   1.0000   1.0000
     1.0000   1.0000   1.0000   1.0000   1.0000   1.0000   1.0000   1.0000
     1.0000   1.0000   1.0000   1.0000   1.0000   1.0000   1.0000   1.0000
     1.0000   1.0000   1.0000   1.0000   1.0000   1.0000   1.0000   1.0000
     1.0000   1.0000   1.0000   1.0000   1.0000   0.9999   0.9999   0.9999
     0.9997   0.9997   0.9996   0.9995   0.9994   0.9994   0.9992   0.9991
     0.9987   0.9984   0.9980   0.9979   0.9923   0.9920   0.9914   0.9907
     0.9857   0.9850   0.9842   0.9834   0.9817   0.9809   0.9781   0.9759
     0.9738   0.9682   0.9669   0.9608   0.9579   0.9501   0.9311   0.9084
     0.8901   0.8858   0.8640   0.8508   0.8410   0.8158   0.8130   0.8091
     0.7976   0.7811   0.7667   0.7397   0.7210   0.7059   0.6861   0.6842
     0.6834   0.6741   0.6697   0.6634   0.6552   0.6538   0.6396   0.6365
     0.6259   0.6155   0.6127   0.5358   0.5327   0.1347   0.1200   0.1017
     0.0639   0.0149   0.0114   0.0056   0.0050   0.0007   0.0006   0.0004
     0.0003   0.0000   0.0000   0.0000   0.0000   0.0000   0.0000   0.0000
     0.0000   0.0000   0.0000   0.0000   0.0000   0.0000   0.0000   0.0000
     0.0000   0.0000   0.0000   0.0000   0.0000   0.0000   0.0000   0.0000

          k =-0.2500 0.2500 0.0000 ( 65198 PWs)   bands (ev):

   -92.7144 -92.6594 -92.5679 -92.5185 -92.4614 -92.4205 -92.4033 -92.2808
   -56.0679 -56.0459 -55.9253 -55.9150 -55.9061 -55.9019 -55.8643 -55.8372
   -55.8218 -55.8199 -55.8103 -55.7692 -55.7503 -55.7126 -55.6942 -55.6615
   -55.6528 -55.6090 -55.6061 -55.6058 -55.5974 -55.5556 -55.5336 -55.4482
   -31.2884 -31.2729 -31.1289 -31.0435 -31.0099 -30.9636 -30.9344 -30.8517
   -29.8605 -29.8201 -29.7932 -29.6862 -15.0315 -14.9949 -14.9173 -14.8000
   -14.6911 -14.5653 -14.4762 -14.2707 -14.1292 -14.1000 -14.0859 -14.0416
   -14.0152 -13.9981 -13.9855 -13.9318 -13.8502 -13.8389 -13.6857 -13.6595
   -13.6338 -13.6105 -13.5746 -13.5108 -13.4560 -13.4474 -13.3166 -13.2818
   -13.2359 -13.1592 -13.1154 -13.0534 -13.0221 -12.9984 -12.9920 -12.9603
   -12.9402 -12.9145 -12.8941 -12.8340 -12.8065 -12.7884 -12.7818 -12.7606
   -12.7319 -12.7043 -12.5440 -12.4550 -12.4498 -12.2958 -12.1537 -12.1120
   -11.8130 -11.7913 -11.7644 -11.7518 -11.7114 -11.6763 -11.6536 -11.6315
   -11.6091 -11.5254 -11.4796 -11.4701  -2.6813  -2.4723  -2.3516  -2.2639
    -2.1448  -2.0779  -1.8764  -1.7299  -1.7110  -1.6834  -1.5909  -1.5545
    -1.4619  -1.4284  -1.4023  -1.2588  -1.2032  -1.1362  -1.1077  -1.0477
    -1.0245  -0.9845  -0.9556  -0.9159  -0.8529  -0.8053  -0.7448  -0.6747
    -0.6487  -0.5972  -0.5680  -0.5230  -0.4674  -0.4259  -0.3802  -0.2835
    -0.2484  -0.2381  -0.1929  -0.1264  -0.0546  -0.0102   0.0180   0.0893
     0.1218   0.3745   0.5410   0.5853   0.6226   0.6804   0.7337   0.7905
     0.8538   0.8816   1.1634   1.2755   1.3146   1.3469   1.3537   1.3961
     1.4142   1.4578   1.4890   1.5043   1.5302   1.5723   1.5867   1.6331
     1.6473   1.6943   1.7787   1.7996   1.8144   1.8550   1.8809   1.9215
     1.9741   2.0797   2.1866   2.2181   2.2642   2.2843   2.3526   2.3940
     2.4189   2.4413   2.4655   2.5646   2.5994   2.6891   2.8022   2.8696
     2.8810   2.8924   2.9043   2.9120   2.9263   2.9332   2.9513   2.9630
     2.9741   2.9842   2.9959   3.0060   3.0120   3.0450   3.0569   3.0646
     3.0985   3.3912   3.4741   3.5361   3.6208   3.6420   3.8276   3.9493
     4.2862   4.5086   4.7018   4.9719   5.1643   5.6336   5.6735   5.7353
     5.8195   5.8831   6.0225   6.1645   6.2089   6.7527   6.8920   7.0588
     7.1495   7.5587   7.6014   7.6607   7.7638   7.8738   7.9218   8.1112
     8.1559   8.2363   8.2920   8.3186   8.4378   8.4707   8.7279   8.8693

     occupation numbers 
     1.0000   1.0000   1.0000   1.0000   1.0000   1.0000   1.0000   1.0000
     1.0000   1.0000   1.0000   1.0000   1.0000   1.0000   1.0000   1.0000
     1.0000   1.0000   1.0000   1.0000   1.0000   1.0000   1.0000   1.0000
     1.0000   1.0000   1.0000   1.0000   1.0000   1.0000   1.0000   1.0000
     1.0000   1.0000   1.0000   1.0000   1.0000   1.0000   1.0000   1.0000
     1.0000   1.0000   1.0000   1.0000   1.0000   1.0000   1.0000   1.0000
     1.0000   1.0000   1.0000   1.0000   1.0000   1.0000   1.0000   1.0000
     1.0000   1.0000   1.0000   1.0000   1.0000   1.0000   1.0000   1.0000
     1.0000   1.0000   1.0000   1.0000   1.0000   1.0000   1.0000   1.0000
     1.0000   1.0000   1.0000   1.0000   1.0000   1.0000   1.0000   1.0000
     1.0000   1.0000   1.0000   1.0000   1.0000   1.0000   1.0000   1.0000
     1.0000   1.0000   1.0000   1.0000   1.0000   1.0000   1.0000   1.0000
     1.0000   1.0000   1.0000   1.0000   1.0000   1.0000   1.0000   1.0000
     1.0000   1.0000   1.0000   1.0000   1.0000   1.0000   1.0000   1.0000
     1.0000   1.0000   1.0000   1.0000   1.0000   1.0000   1.0000   1.0000
     1.0000   1.0000   1.0000   1.0000   1.0000   1.0000   1.0000   1.0000
     1.0000   1.0000   1.0000   1.0000   1.0000   1.0000   1.0000   1.0000
     1.0000   1.0000   1.0000   1.0000   1.0000   1.0000   1.0000   1.0000
     1.0000   1.0000   1.0000   1.0000   1.0000   1.0000   1.0000   1.0000
     1.0000   1.0000   1.0000   1.0000   1.0000   1.0000   0.9999   0.9999
     0.9999   0.9998   0.9993   0.9988   0.9985   0.9983   0.9982   0.9978
     0.9976   0.9971   0.9966   0.9964   0.9960   0.9951   0.9948   0.9937
     0.9933   0.9919   0.9887   0.9877   0.9870   0.9848   0.9833   0.9806
     0.9766   0.9665   0.9529   0.9481   0.9404   0.9368   0.9232   0.9139
     0.9080   0.9024   0.8960   0.8669   0.8555   0.8231   0.7761   0.7451
     0.7396   0.7341   0.7283   0.7244   0.7173   0.7138   0.7046   0.6986
     0.6928   0.6876   0.6814   0.6760   0.6728   0.6549   0.6484   0.6441
     0.6252   0.4541   0.4058   0.3705   0.3241   0.3128   0.2226   0.1725
     0.0743   0.0380   0.0196   0.0069   0.0030   0.0003   0.0002   0.0002
     0.0001   0.0001   0.0000   0.0000   0.0000   0.0000   0.0000   0.0000
     0.0000   0.0000   0.0000   0.0000   0.0000   0.0000   0.0000   0.0000
     0.0000   0.0000   0.0000   0.0000   0.0000   0.0000   0.0000   0.0000

          k =-0.5000 0.2500 0.0000 ( 65138 PWs)   bands (ev):

   -92.7144 -92.6594 -92.5679 -92.5185 -92.4614 -92.4205 -92.4033 -92.2808
   -56.0679 -56.0459 -55.9253 -55.9150 -55.9061 -55.9019 -55.8643 -55.8372
   -55.8218 -55.8199 -55.8103 -55.7692 -55.7503 -55.7126 -55.6942 -55.6615
   -55.6527 -55.6090 -55.6061 -55.6058 -55.5974 -55.5556 -55.5336 -55.4482
   -31.2861 -31.2752 -31.1286 -31.0439 -31.0092 -30.9643 -30.9340 -30.8521
   -29.8595 -29.8212 -29.7927 -29.6866 -14.9973 -14.9544 -14.8753 -14.7733
   -14.7317 -14.6062 -14.5225 -14.3871 -14.0800 -14.0497 -14.0383 -13.9955
   -13.9728 -13.9472 -13.9141 -13.9025 -13.8811 -13.8384 -13.8266 -13.7222
   -13.6507 -13.6097 -13.6007 -13.5890 -13.4931 -13.4819 -13.3721 -13.3097
   -13.2136 -13.1764 -13.0793 -13.0406 -13.0287 -12.9996 -12.9695 -12.9611
   -12.9548 -12.9512 -12.8754 -12.8339 -12.8035 -12.7781 -12.7704 -12.7477
   -12.6349 -12.6274 -12.5521 -12.4582 -12.3354 -12.2932 -12.2245 -12.1939
   -11.7854 -11.7729 -11.7588 -11.7465 -11.7258 -11.6955 -11.6141 -11.6062
   -11.5821 -11.5478 -11.5196 -11.5104  -2.4544  -2.4120  -2.2635  -2.2209
    -2.0610  -1.9859  -1.8426  -1.7060  -1.6505  -1.6228  -1.5840  -1.5446
    -1.4644  -1.3489  -1.2921  -1.2684  -1.2436  -1.1689  -1.1375  -1.1009
    -1.0820  -1.0219  -0.9933  -0.9537  -0.9182  -0.8895  -0.8320  -0.8047
    -0.7625  -0.7288  -0.6253  -0.5981  -0.5138  -0.4463  -0.4185  -0.3626
    -0.2744  -0.2410  -0.1422  -0.1033  -0.0458   0.0062   0.0230   0.1046
     0.1327   0.1642   0.2175   0.2563   0.5632   0.6207   0.6978   0.7112
     0.9998   1.0540   1.1310   1.1534   1.3344   1.3712   1.4081   1.4209
     1.4393   1.4571   1.5254   1.5696   1.6095   1.6354   1.7602   1.7927
     1.8273   1.8388   1.8800   1.9003   1.9154   1.9308   1.9513   1.9745
     2.0223   2.0375   2.0717   2.0944   2.1246   2.1843   2.3043   2.4076
     2.4319   2.5027   2.5397   2.5910   2.6384   2.6441   2.6807   2.7136
     2.7365   2.7972   2.8231   2.8736   2.8813   2.8943   2.9050   2.9295
     2.9414   2.9547   2.9703   2.9894   3.0031   3.0118   3.0196   3.0302
     3.0418   3.5703   3.6244   3.7601   3.7851   4.0624   4.1324   4.1795
     4.4105   4.7720   4.8658   5.0197   5.0735   5.3878   5.4193   5.5776
     5.6204   5.7380   5.7636   6.1731   6.3856   6.4816   6.5553   7.0595
     7.4443   7.5368   7.6828   7.7103   7.7877   7.8797   8.0149   8.1683
     8.3226   8.3858   8.4494   8.5308   8.5527   8.6476   8.7092   8.7510

     occupation numbers 
     1.0000   1.0000   1.0000   1.0000   1.0000   1.0000   1.0000   1.0000
     1.0000   1.0000   1.0000   1.0000   1.0000   1.0000   1.0000   1.0000
     1.0000   1.0000   1.0000   1.0000   1.0000   1.0000   1.0000   1.0000
     1.0000   1.0000   1.0000   1.0000   1.0000   1.0000   1.0000   1.0000
     1.0000   1.0000   1.0000   1.0000   1.0000   1.0000   1.0000   1.0000
     1.0000   1.0000   1.0000   1.0000   1.0000   1.0000   1.0000   1.0000
     1.0000   1.0000   1.0000   1.0000   1.0000   1.0000   1.0000   1.0000
     1.0000   1.0000   1.0000   1.0000   1.0000   1.0000   1.0000   1.0000
     1.0000   1.0000   1.0000   1.0000   1.0000   1.0000   1.0000   1.0000
     1.0000   1.0000   1.0000   1.0000   1.0000   1.0000   1.0000   1.0000
     1.0000   1.0000   1.0000   1.0000   1.0000   1.0000   1.0000   1.0000
     1.0000   1.0000   1.0000   1.0000   1.0000   1.0000   1.0000   1.0000
     1.0000   1.0000   1.0000   1.0000   1.0000   1.0000   1.0000   1.0000
     1.0000   1.0000   1.0000   1.0000   1.0000   1.0000   1.0000   1.0000
     1.0000   1.0000   1.0000   1.0000   1.0000   1.0000   1.0000   1.0000
     1.0000   1.0000   1.0000   1.0000   1.0000   1.0000   1.0000   1.0000
     1.0000   1.0000   1.0000   1.0000   1.0000   1.0000   1.0000   1.0000
     1.0000   1.0000   1.0000   1.0000   1.0000   1.0000   1.0000   1.0000
     1.0000   1.0000   1.0000   1.0000   1.0000   1.0000   1.0000   1.0000
     1.0000   1.0000   1.0000   1.0000   1.0000   1.0000   0.9999   0.9999
     0.9997   0.9996   0.9994   0.9993   0.9984   0.9980   0.9977   0.9975
     0.9973   0.9971   0.9960   0.9952   0.9943   0.9936   0.9895   0.9880
     0.9863   0.9857   0.9834   0.9821   0.9811   0.9800   0.9784   0.9766
     0.9724   0.9709   0.9674   0.9649   0.9613   0.9532   0.9330   0.9107
     0.9047   0.8857   0.8747   0.8583   0.8419   0.8399   0.8263   0.8135
     0.8042   0.7784   0.7667   0.7432   0.7395   0.7332   0.7279   0.7157
     0.7097   0.7029   0.6949   0.6848   0.6776   0.6729   0.6687   0.6630
     0.6567   0.3515   0.3222   0.2536   0.2419   0.1330   0.1120   0.0992
     0.0517   0.0152   0.0106   0.0056   0.0045   0.0010   0.0009   0.0004
     0.0003   0.0002   0.0001   0.0000   0.0000   0.0000   0.0000   0.0000
     0.0000   0.0000   0.0000   0.0000   0.0000   0.0000   0.0000   0.0000
     0.0000   0.0000   0.0000   0.0000   0.0000   0.0000   0.0000   0.0000

     the Fermi energy is     3.3135 ev

!    total energy              =   -4399.91535951 Ry
     estimated scf accuracy    <          9.2E-09 Ry
     smearing contrib. (-TS)   =      -1.14598983 Ry
     internal energy E=F+TS    =   -4398.76936968 Ry

     The total energy is F=E-TS. E is the sum of the following terms:
     one-electron contribution =  -21252.94989438 Ry
     hartree contribution      =   10754.39070905 Ry
     xc contribution           =    -686.72885062 Ry
     ewald contribution        =    7053.16385603 Ry
     one-center paw contrib.   =    -266.64518976 Ry
      -> PAW hartree energy AE =      25.17593777 Ry
      -> PAW hartree energy PS =     -25.05970707 Ry
      -> PAW xc energy AE      =     -16.51932719 Ry
      -> PAW xc energy PS      =       6.87888574 Ry
      -> total E_H with PAW    =   10754.50693974 Ry
      -> total E_XC with PAW   =    -696.36929206 Ry

     convergence has been achieved in  47 iterations

     Writing all to output data dir /bsuhome/zayahcortright/scratch/pwscf.save/
 
     init_run     :      7.78s CPU      8.02s WALL (       1 calls)
     electrons    :    688.63s CPU    700.26s WALL (       1 calls)

     Called by init_run:
     wfcinit      :      6.00s CPU      6.11s WALL (       1 calls)
     wfcinit:atom :      0.06s CPU      0.07s WALL (       5 calls)
     wfcinit:wfcr :      5.64s CPU      5.70s WALL (       5 calls)
     potinit      :      0.18s CPU      0.20s WALL (       1 calls)
     hinit0       :      0.72s CPU      0.77s WALL (       1 calls)

     Called by electrons:
     c_bands      :    544.49s CPU    548.89s WALL (      47 calls)
     sum_band     :    108.80s CPU    112.91s WALL (      47 calls)
     v_of_rho     :      5.19s CPU      5.45s WALL (      48 calls)
     v_h          :      0.47s CPU      0.48s WALL (      48 calls)
     v_xc         :      4.72s CPU      4.97s WALL (      48 calls)
     newd         :     16.01s CPU     18.49s WALL (      48 calls)
     PAW_pot      :      1.55s CPU      1.58s WALL (      48 calls)
     mix_rho      :     12.34s CPU     12.60s WALL (      47 calls)

     Called by c_bands:
     init_us_2    :      6.83s CPU      6.90s WALL (     475 calls)
     init_us_2:cp :      6.82s CPU      6.90s WALL (     475 calls)
     cegterg      :    512.27s CPU    516.43s WALL (     235 calls)

     Called by sum_band:
     sum_band:wei :      0.32s CPU      0.33s WALL (      47 calls)
     sum_band:loo :     89.85s CPU     90.51s WALL (      47 calls)
     sum_band:buf :      1.46s CPU      1.48s WALL (     235 calls)
     sum_band:ini :      3.30s CPU      3.31s WALL (     235 calls)
     sum_band:cal :     17.88s CPU     17.93s WALL (     235 calls)
     sum_band:bec :      0.52s CPU      0.52s WALL (     235 calls)
     addusdens    :     17.61s CPU     21.02s WALL (      47 calls)
                                        0.00s GPU  (      47 calls)
     addusd:skk   :      0.34s CPU      0.63s WALL (     188 calls)
                                        0.00s GPU  (     188 calls)

     Called by *egterg:
     cdiaghg      :     54.95s CPU     55.16s WALL (    1327 calls)
     cegterg:over :     37.15s CPU     37.32s WALL (    1092 calls)
     cegterg:upda :     27.22s CPU     27.53s WALL (    1092 calls)
     cegterg:last :     55.77s CPU     55.95s WALL (     431 calls)
     cdiaghg:chol :      3.23s CPU      3.25s WALL (    1327 calls)
     cdiaghg:inve :      3.36s CPU      3.37s WALL (    1327 calls)
     cdiaghg:para :      7.05s CPU      7.09s WALL (    2654 calls)
     h_psi        :    284.43s CPU    287.10s WALL (    1332 calls)
     s_psi        :     38.30s CPU     38.41s WALL (    1332 calls)
     g_psi        :      1.10s CPU      1.11s WALL (    1092 calls)

     Called by h_psi:
     h_psi:calbec :     41.58s CPU     41.84s WALL (    1332 calls)
     vloc_psi     :    201.53s CPU    203.59s WALL (    1332 calls)
     add_vuspsi   :     38.04s CPU     38.19s WALL (    1332 calls)

     General routines
     calbec       :     59.45s CPU     59.76s WALL (    1567 calls)
     fft          :      3.47s CPU      3.51s WALL (     622 calls)
     ffts         :      4.42s CPU      4.46s WALL (    5005 calls)
     fftw         :    171.12s CPU    172.51s WALL (  316194 calls)
     interpolate  :      0.39s CPU      0.39s WALL (      48 calls)
 
     Parallel routines

     PAW routines
     PAW_pot      :      1.55s CPU      1.58s WALL (      48 calls)
 
     PWSCF        :  11m37.87s CPU  11m52.61s WALL

 
   This run was terminated on:  21:39:25  21Jun2024            

=------------------------------------------------------------------------------=
   JOB DONE.
=------------------------------------------------------------------------------=
