
     Program PWSCF v.7.2 starts on 21Jun2024 at 11:56:46 

     This program is part of the open-source Quantum ESPRESSO suite
     for quantum simulation of materials; please cite
         "P. Giannozzi et al., J. Phys.:Condens. Matter 21 395502 (2009);
         "P. Giannozzi et al., J. Phys.:Condens. Matter 29 465901 (2017);
         "P. Giannozzi et al., J. Chem. Phys. 152 154105 (2020);
          URL http://www.quantum-espresso.org", 
     in publications or presentations arising from this work. More details at
     http://www.quantum-espresso.org/quote

     Parallel version (MPI & OpenMP), running on      48 processor cores
     Number of MPI processes:                48
     Threads/MPI process:                     1

     MPI processes distributed on     1 nodes
     182782 MiB available memory on the printing compute node when the environment starts
 
     Reading input from espresso.pwi
Warning: card &CELL ignored
Warning: card / ignored
Warning: card &FCP ignored
Warning: card / ignored
Warning: card &RISM ignored
Warning: card / ignored

     Current dimensions of program PWSCF are:
     Max number of different atomic species (ntypx) = 10
     Max number of k-points (npk) =  40000
     Max angular momentum in pseudopotentials (lmaxx) =  4
     file O.pbe-n-kjpaw_psl.0.1.UPF: wavefunction(s)  2P renormalized
     signal trapping enabled: kill the code with -SIGUSR1 to stop cleanly the simulation 
 
     K-points division:     npool     =       2
     R & G space division:  proc/nbgrp/npool/nimage =      24
     Subspace diagonalization in iterative solution of the eigenvalue problem:
     one sub-group per band group will be used
     scalapack distributed-memory algorithm (size of sub-group:  3*  3 procs)

 
     Parallelization info
     --------------------
     sticks:   dense  smooth     PW     G-vecs:    dense   smooth      PW
     Min         350     175     47                61430    21716    3036
     Max         351     177     48                61449    21727    3041
     Sum        8421    4205   1137              1474595   521381   72913
 
     Using Slab Decomposition
 


     bravais-lattice index     =            0
     lattice parameter (alat)  =      14.8599  a.u.
     unit-cell volume          =    8305.1283 (a.u.)^3
     number of atoms/cell      =           49
     number of atomic types    =            4
     number of electrons       =       425.00
     number of Kohn-Sham states=          256
     kinetic-energy cutoff     =      60.0000  Ry
     charge density cutoff     =     480.0000  Ry
     scf convergence threshold =      1.0E-08
     mixing beta               =       0.1500
     number of iterations used =            8  local-TF  mixing
     Exchange-correlation= PBE
                           (   1   4   3   4   0   0   0)

     celldm(1)=  14.859904  celldm(2)=   0.000000  celldm(3)=   0.000000
     celldm(4)=   0.000000  celldm(5)=   0.000000  celldm(6)=   0.000000

     crystal axes: (cart. coord. in units of alat)
               a(1) = (   1.000000   0.000000   0.000000 )  
               a(2) = (   0.000000   1.000000   0.000000 )  
               a(3) = (   0.000000   0.000000   2.531036 )  

     reciprocal axes: (cart. coord. in units 2 pi/alat)
               b(1) = (  1.000000  0.000000  0.000000 )  
               b(2) = (  0.000000  1.000000  0.000000 )  
               b(3) = (  0.000000  0.000000  0.395095 )  


     PseudoPot. # 1 for Sr read from file:
     /bsuhome/zayahcortright/q-e/pseudo/Sr_pbe_v1.uspp.F.UPF
     MD5 check sum: 6b418c05fbe9db5448babca5e47b7a5b
     Pseudo is Ultrasoft + core correction, Zval = 10.0
     Generated by new atomic code, or converted to UPF format
     Using radial grid of  883 points,  6 beta functions with: 
                l(1) =   0
                l(2) =   0
                l(3) =   1
                l(4) =   1
                l(5) =   2
                l(6) =   2
     Q(r) pseudized with  6 coefficients,  rinner =    1.400   1.400   1.400
                                                       1.400   1.400

     PseudoPot. # 2 for O  read from file:
     /bsuhome/zayahcortright/q-e/pseudo/O.pbe-n-kjpaw_psl.0.1.UPF
     MD5 check sum: 0234752ac141de4415c5fc33072bef88
     Pseudo is Projector augmented-wave + core cor, Zval =  6.0
     Generated using "atomic" code by A. Dal Corso  v.5.0.99 svn rev. 10869
     Shape of augmentation charge: BESSEL
     Using radial grid of 1095 points,  4 beta functions with: 
                l(1) =   0
                l(2) =   0
                l(3) =   1
                l(4) =   1
     Q(r) pseudized with 0 coefficients 


     PseudoPot. # 3 for Co read from file:
     /bsuhome/zayahcortright/q-e/pseudo/Co_pbe_v1.2.uspp.F.UPF
     MD5 check sum: 5f91765df6ddd3222702df6e7b74a16d
     Pseudo is Ultrasoft + core correction, Zval = 17.0
     Generated by new atomic code, or converted to UPF format
     Using radial grid of  863 points,  6 beta functions with: 
                l(1) =   0
                l(2) =   0
                l(3) =   1
                l(4) =   1
                l(5) =   2
                l(6) =   2
     Q(r) pseudized with  8 coefficients,  rinner =    1.200   1.200   1.200
                                                       1.200   1.200

     PseudoPot. # 4 for H  read from file:
     /bsuhome/zayahcortright/q-e/pseudo/H.pbe-rrkjus_psl.1.0.0.UPF
     MD5 check sum: f52b6d4d1c606e5624b1dc7b2218f220
     Pseudo is Ultrasoft, Zval =  1.0
     Generated using "atomic" code by A. Dal Corso  v.5.1
     Using radial grid of  929 points,  2 beta functions with: 
                l(1) =   0
                l(2) =   0
     Q(r) pseudized with 0 coefficients 


     atomic species   valence    mass     pseudopotential
        Sr            10.00    87.62000     Sr( 1.00)
        O              6.00    15.99900     O ( 1.00)
        Co            17.00    58.93319     Co( 1.00)
        H              1.00     1.00800     H ( 1.00)

     No symmetry found


                                    s                        frac. trans.

      isym =  1     identity                                     

 cryst.   s( 1) = (     1          0          0      )
                  (     0          1          0      )
                  (     0          0          1      )

 cart.    s( 1) = (  1.0000000  0.0000000  0.0000000 )
                  (  0.0000000  1.0000000  0.0000000 )
                  (  0.0000000  0.0000000  1.0000000 )


   Cartesian axes

     site n.     atom                  positions (alat units)
         1           Sr  tau(   1) = (   0.2508693   0.7491307   1.7574407  )
         2           O   tau(   2) = (   0.4985141   0.5014859   1.7715967  )
         3           Sr  tau(   3) = (   0.7482398   0.7454518   1.7648669  )
         4           Sr  tau(   4) = (   0.7441748   0.2558252   1.7667843  )
         5           Sr  tau(   5) = (   0.2508693   0.7491307   1.2696799  )
         6           Sr  tau(   6) = (   0.2508693   0.7491307   0.7632319  )
         7           Co  tau(   7) = (   0.4998914   0.5001086   1.0164559  )
         8           Co  tau(   8) = (   0.4936915   0.5063085   1.5135603  )
         9           O   tau(   9) = (   0.4988895   0.7610401   1.0164559  )
        10           O   tau(  10) = (   0.2389599   0.5011105   1.0164559  )
        11           O   tau(  11) = (   0.0070918   0.7374880   1.0164559  )
        12           O   tau(  12) = (   0.0088340   0.7405089   1.5135603  )
        13           O   tau(  13) = (   0.5066944   0.7415376   1.5135603  )
        14           O   tau(  14) = (   0.2584624   0.4933056   1.5135603  )
        15           O   tau(  15) = (   0.4985141   0.5014859   0.7773880  )
        16           O   tau(  16) = (   0.4985141   0.5014859   1.2555238  )
        17           Sr  tau(  17) = (   0.7482398   0.7454518   0.7706582  )
        18           Sr  tau(  18) = (   0.7482398   0.7454518   1.2622536  )
        19           Sr  tau(  19) = (   0.7441748   0.2558252   0.7725755  )
        20           Sr  tau(  20) = (   0.7441748   0.2558252   1.2603363  )
        21           O   tau(  21) = (   0.7322655   0.0078049   1.5135603  )
        22           O   tau(  22) = (   0.7558175   0.4996027   1.5135603  )
        23           O   tau(  23) = (   0.5003973   0.2441825   1.5135603  )
        24           O   tau(  24) = (   0.7527966   0.4978604   1.0164559  )
        25           O   tau(  25) = (   0.5021396   0.2472034   1.0164559  )
        26           O   tau(  26) = (   0.7517679   0.0000000   1.0164559  )
        27           O   tau(  27) = (   0.0114961   0.4948124   1.7455321  )
        28           O   tau(  28) = (   0.0048226   0.0077944   1.7715967  )
        29           Sr  tau(  29) = (   0.2545482   0.2517602   1.7648669  )
        30           O   tau(  30) = (   0.5048017   0.0015068   1.7786929  )
        31           Co  tau(  31) = (   0.0056869   0.5006215   1.0164559  )
        32           Co  tau(  32) = (   0.0065315   0.4997770   1.5135603  )
        33           Co  tau(  33) = (   0.0061999   0.0064171   1.0164559  )
        34           Co  tau(  34) = (   0.0000000   0.0126169   1.5135603  )
        35           O   tau(  35) = (   0.0114961   0.4948124   1.2815885  )
        36           O   tau(  36) = (   0.0114961   0.4948124   0.7513233  )
        37           O   tau(  37) = (   0.0051979   0.2673486   1.0164559  )
        38           O   tau(  38) = (   0.0130029   0.2478461   1.5135603  )
        39           O   tau(  39) = (   0.0048226   0.0077944   0.7773880  )
        40           O   tau(  40) = (   0.0048226   0.0077944   1.2555238  )
        41           Sr  tau(  41) = (   0.2545482   0.2517602   0.7706582  )
        42           Sr  tau(  42) = (   0.2545482   0.2517602   1.2622536  )
        43           Co  tau(  43) = (   0.4989925   0.0073160   1.5135603  )
        44           Co  tau(  44) = (   0.4998370   0.0064714   1.0164559  )
        45           O   tau(  45) = (   0.5048017   0.0015068   0.7844841  )
        46           O   tau(  46) = (   0.5048017   0.0015068   1.2484277  )
        47           O   tau(  47) = (   0.2621260   0.0059111   1.5135603  )
        48           O   tau(  48) = (   0.2591051   0.0041689   1.0164559  )
        49           H   tau(  49) = (   0.0000000   0.0000000   2.1602013  )

   Crystallographic axes

     site n.     atom                  positions (cryst. coord.)
         1           Sr  tau(   1) = (  0.2508693  0.7491307  0.6943562  )
         2           O   tau(   2) = (  0.4985141  0.5014859  0.6999492  )
         3           Sr  tau(   3) = (  0.7482398  0.7454518  0.6972903  )
         4           Sr  tau(   4) = (  0.7441748  0.2558252  0.6980478  )
         5           Sr  tau(   5) = (  0.2508693  0.7491307  0.5016443  )
         6           Sr  tau(   6) = (  0.2508693  0.7491307  0.3015492  )
         7           Co  tau(   7) = (  0.4998914  0.5001086  0.4015968  )
         8           Co  tau(   8) = (  0.4936915  0.5063085  0.5980003  )
         9           O   tau(   9) = (  0.4988895  0.7610401  0.4015968  )
        10           O   tau(  10) = (  0.2389599  0.5011105  0.4015968  )
        11           O   tau(  11) = (  0.0070918  0.7374880  0.4015968  )
        12           O   tau(  12) = (  0.0088340  0.7405089  0.5980003  )
        13           O   tau(  13) = (  0.5066944  0.7415376  0.5980003  )
        14           O   tau(  14) = (  0.2584624  0.4933056  0.5980003  )
        15           O   tau(  15) = (  0.4985141  0.5014859  0.3071422  )
        16           O   tau(  16) = (  0.4985141  0.5014859  0.4960513  )
        17           Sr  tau(  17) = (  0.7482398  0.7454518  0.3044833  )
        18           Sr  tau(  18) = (  0.7482398  0.7454518  0.4987103  )
        19           Sr  tau(  19) = (  0.7441748  0.2558252  0.3052408  )
        20           Sr  tau(  20) = (  0.7441748  0.2558252  0.4979527  )
        21           O   tau(  21) = (  0.7322655  0.0078049  0.5980003  )
        22           O   tau(  22) = (  0.7558175  0.4996027  0.5980003  )
        23           O   tau(  23) = (  0.5003973  0.2441825  0.5980003  )
        24           O   tau(  24) = (  0.7527966  0.4978604  0.4015968  )
        25           O   tau(  25) = (  0.5021396  0.2472034  0.4015968  )
        26           O   tau(  26) = (  0.7517679  0.0000000  0.4015968  )
        27           O   tau(  27) = (  0.0114961  0.4948124  0.6896512  )
        28           O   tau(  28) = (  0.0048226  0.0077944  0.6999492  )
        29           Sr  tau(  29) = (  0.2545482  0.2517602  0.6972903  )
        30           O   tau(  30) = (  0.5048017  0.0015068  0.7027529  )
        31           Co  tau(  31) = (  0.0056869  0.5006215  0.4015968  )
        32           Co  tau(  32) = (  0.0065315  0.4997770  0.5980003  )
        33           Co  tau(  33) = (  0.0061999  0.0064171  0.4015968  )
        34           Co  tau(  34) = (  0.0000000  0.0126169  0.5980003  )
        35           O   tau(  35) = (  0.0114961  0.4948124  0.5063494  )
        36           O   tau(  36) = (  0.0114961  0.4948124  0.2968442  )
        37           O   tau(  37) = (  0.0051979  0.2673486  0.4015968  )
        38           O   tau(  38) = (  0.0130029  0.2478461  0.5980003  )
        39           O   tau(  39) = (  0.0048226  0.0077944  0.3071422  )
        40           O   tau(  40) = (  0.0048226  0.0077944  0.4960513  )
        41           Sr  tau(  41) = (  0.2545482  0.2517602  0.3044833  )
        42           Sr  tau(  42) = (  0.2545482  0.2517602  0.4987103  )
        43           Co  tau(  43) = (  0.4989925  0.0073160  0.5980003  )
        44           Co  tau(  44) = (  0.4998370  0.0064714  0.4015968  )
        45           O   tau(  45) = (  0.5048017  0.0015068  0.3099459  )
        46           O   tau(  46) = (  0.5048017  0.0015068  0.4932477  )
        47           O   tau(  47) = (  0.2621260  0.0059111  0.5980003  )
        48           O   tau(  48) = (  0.2591051  0.0041689  0.4015968  )
        49           H   tau(  49) = (  0.0000000  0.0000000  0.8534850  )

     number of k points=    10  Gaussian smearing, width (Ry)=  0.0700
                       cart. coord. in units 2pi/alat
        k(    1) = (   0.0000000   0.0000000   0.0000000), wk =   0.1250000
        k(    2) = (   0.0000000   0.2500000   0.0000000), wk =   0.2500000
        k(    3) = (   0.0000000  -0.5000000   0.0000000), wk =   0.1250000
        k(    4) = (   0.2500000   0.2500000   0.0000000), wk =   0.2500000
        k(    5) = (   0.2500000  -0.5000000   0.0000000), wk =   0.2500000
        k(    6) = (  -0.5000000  -0.5000000   0.0000000), wk =   0.1250000
        k(    7) = (   0.2500000   0.0000000   0.0000000), wk =   0.2500000
        k(    8) = (  -0.5000000   0.0000000   0.0000000), wk =   0.1250000
        k(    9) = (  -0.2500000   0.2500000   0.0000000), wk =   0.2500000
        k(   10) = (  -0.5000000   0.2500000   0.0000000), wk =   0.2500000

                       cryst. coord.
        k(    1) = (   0.0000000   0.0000000   0.0000000), wk =   0.1250000
        k(    2) = (   0.0000000   0.2500000   0.0000000), wk =   0.2500000
        k(    3) = (   0.0000000  -0.5000000   0.0000000), wk =   0.1250000
        k(    4) = (   0.2500000   0.2500000   0.0000000), wk =   0.2500000
        k(    5) = (   0.2500000  -0.5000000   0.0000000), wk =   0.2500000
        k(    6) = (  -0.5000000  -0.5000000   0.0000000), wk =   0.1250000
        k(    7) = (   0.2500000   0.0000000   0.0000000), wk =   0.2500000
        k(    8) = (  -0.5000000   0.0000000   0.0000000), wk =   0.1250000
        k(    9) = (  -0.2500000   0.2500000   0.0000000), wk =   0.2500000
        k(   10) = (  -0.5000000   0.2500000   0.0000000), wk =   0.2500000

     Dense  grid:  1474595 G-vectors     FFT dimensions: ( 108, 108, 270)

     Smooth grid:   521381 G-vectors     FFT dimensions: (  75,  75, 192)

     Dynamical RAM for                 wfc:      10.61 MB

     Dynamical RAM for     wfc (w. buffer):      63.63 MB

     Dynamical RAM for           str. fact:       3.75 MB

     Dynamical RAM for           local pot:       0.00 MB

     Dynamical RAM for          nlocal pot:      24.28 MB

     Dynamical RAM for                qrad:       7.03 MB

     Dynamical RAM for          rho,v,vnew:       6.02 MB

     Dynamical RAM for               rhoin:       2.01 MB

     Dynamical RAM for            rho*nmix:      15.00 MB

     Dynamical RAM for           G-vectors:       3.68 MB

     Dynamical RAM for          h,s,v(r/c):       1.32 MB

     Dynamical RAM for          <psi|beta>:       2.29 MB

     Dynamical RAM for                 psi:      21.21 MB

     Dynamical RAM for                hpsi:      21.21 MB

     Dynamical RAM for                spsi:      21.21 MB

     Dynamical RAM for      wfcinit/wfcrot:      34.09 MB

     Dynamical RAM for           addusdens:     100.79 MB

     Estimated static dynamical RAM per process >     120.42 MB

     Estimated max dynamical RAM per process >     236.21 MB

     Estimated total dynamical RAM >      10.72 GB

     Check: negative core charge=   -0.000004

     Initial potential from superposition of free atoms

     starting charge     416.5961, renormalised to     425.0000

     negative rho (up, down):  7.827E-01 0.000E+00
     Starting wfcs are  373 randomized atomic wfcs
     Checking if some PAW data can be deallocated... 
       PAW data deallocated on   20 nodes for type:  2

     total cpu time spent up to now is        8.6 secs

     Self-consistent Calculation

     iteration #  1     ecut=    60.00 Ry     beta= 0.15
     Davidson diagonalization with overlap

---- Real-time Memory Report at c_bands before calling an iterative solver
             0 MiB given to the printing process from OS
             0 MiB allocation reported by mallinfo(arena+hblkhd)
        173117 MiB available memory on the node where the printing process lives
------------------
     ethr =  1.00E-02,  avg # of iterations =  2.0

     negative rho (up, down):  7.719E-01 0.000E+00

     total cpu time spent up to now is       23.0 secs

     total energy              =   -4404.79215255 Ry
     estimated scf accuracy    <      42.16084605 Ry

     iteration #  2     ecut=    60.00 Ry     beta= 0.15
     Davidson diagonalization with overlap

---- Real-time Memory Report at c_bands before calling an iterative solver
             0 MiB given to the printing process from OS
             0 MiB allocation reported by mallinfo(arena+hblkhd)
        173327 MiB available memory on the node where the printing process lives
------------------
     ethr =  9.92E-03,  avg # of iterations =  1.0

     negative rho (up, down):  7.532E-01 0.000E+00

     total cpu time spent up to now is       35.1 secs

     total energy              =   -4400.00819482 Ry
     estimated scf accuracy    <      26.71895436 Ry

     iteration #  3     ecut=    60.00 Ry     beta= 0.15
     Davidson diagonalization with overlap

---- Real-time Memory Report at c_bands before calling an iterative solver
             0 MiB given to the printing process from OS
             0 MiB allocation reported by mallinfo(arena+hblkhd)
        172527 MiB available memory on the node where the printing process lives
------------------
     ethr =  6.29E-03,  avg # of iterations =  2.0

     negative rho (up, down):  7.544E-01 0.000E+00

     total cpu time spent up to now is       48.6 secs

     total energy              =   -4402.40435944 Ry
     estimated scf accuracy    <      49.74703966 Ry

     iteration #  4     ecut=    60.00 Ry     beta= 0.15
     Davidson diagonalization with overlap

---- Real-time Memory Report at c_bands before calling an iterative solver
             0 MiB given to the printing process from OS
             0 MiB allocation reported by mallinfo(arena+hblkhd)
        172451 MiB available memory on the node where the printing process lives
------------------
     ethr =  6.29E-03,  avg # of iterations =  1.0

     negative rho (up, down):  7.412E-01 0.000E+00

     total cpu time spent up to now is       60.7 secs

     total energy              =   -4401.67762798 Ry
     estimated scf accuracy    <      29.73465673 Ry

     iteration #  5     ecut=    60.00 Ry     beta= 0.15
     Davidson diagonalization with overlap

---- Real-time Memory Report at c_bands before calling an iterative solver
             0 MiB given to the printing process from OS
             0 MiB allocation reported by mallinfo(arena+hblkhd)
        172436 MiB available memory on the node where the printing process lives
------------------
     ethr =  6.29E-03,  avg # of iterations =  1.0

     negative rho (up, down):  7.468E-01 0.000E+00

     total cpu time spent up to now is       72.7 secs

     total energy              =   -4399.99429453 Ry
     estimated scf accuracy    <      43.95222025 Ry

     iteration #  6     ecut=    60.00 Ry     beta= 0.15
     Davidson diagonalization with overlap

---- Real-time Memory Report at c_bands before calling an iterative solver
             0 MiB given to the printing process from OS
             0 MiB allocation reported by mallinfo(arena+hblkhd)
        172418 MiB available memory on the node where the printing process lives
------------------
     ethr =  6.29E-03,  avg # of iterations =  1.0

     negative rho (up, down):  7.423E-01 0.000E+00

     total cpu time spent up to now is       84.9 secs

     total energy              =   -4400.69880361 Ry
     estimated scf accuracy    <      11.82056724 Ry

     iteration #  7     ecut=    60.00 Ry     beta= 0.15
     Davidson diagonalization with overlap

---- Real-time Memory Report at c_bands before calling an iterative solver
             0 MiB given to the printing process from OS
             0 MiB allocation reported by mallinfo(arena+hblkhd)
        172400 MiB available memory on the node where the printing process lives
------------------
     ethr =  2.78E-03,  avg # of iterations =  1.1

     negative rho (up, down):  7.443E-01 0.000E+00

     total cpu time spent up to now is       97.2 secs

     total energy              =   -4400.78330441 Ry
     estimated scf accuracy    <       4.19589686 Ry

     iteration #  8     ecut=    60.00 Ry     beta= 0.15
     Davidson diagonalization with overlap

---- Real-time Memory Report at c_bands before calling an iterative solver
             0 MiB given to the printing process from OS
             0 MiB allocation reported by mallinfo(arena+hblkhd)
        172381 MiB available memory on the node where the printing process lives
------------------
     ethr =  9.87E-04,  avg # of iterations =  1.8

     negative rho (up, down):  7.522E-01 0.000E+00

     total cpu time spent up to now is      110.0 secs

     total energy              =   -4400.38210435 Ry
     estimated scf accuracy    <       3.99654756 Ry

     iteration #  9     ecut=    60.00 Ry     beta= 0.15
     Davidson diagonalization with overlap

---- Real-time Memory Report at c_bands before calling an iterative solver
             0 MiB given to the printing process from OS
             0 MiB allocation reported by mallinfo(arena+hblkhd)
        172347 MiB available memory on the node where the printing process lives
------------------
     ethr =  9.40E-04,  avg # of iterations =  2.5

     negative rho (up, down):  7.770E-01 0.000E+00

     total cpu time spent up to now is      123.9 secs

     total energy              =   -4399.92379637 Ry
     estimated scf accuracy    <      35.37640157 Ry

     iteration # 10     ecut=    60.00 Ry     beta= 0.15
     Davidson diagonalization with overlap

---- Real-time Memory Report at c_bands before calling an iterative solver
             0 MiB given to the printing process from OS
             0 MiB allocation reported by mallinfo(arena+hblkhd)
        172289 MiB available memory on the node where the printing process lives
------------------
     ethr =  9.40E-04,  avg # of iterations =  9.2

     negative rho (up, down):  7.790E-01 0.000E+00

     total cpu time spent up to now is      141.6 secs

     total energy              =   -4399.78283658 Ry
     estimated scf accuracy    <      12.10950649 Ry

     iteration # 11     ecut=    60.00 Ry     beta= 0.15
     Davidson diagonalization with overlap

---- Real-time Memory Report at c_bands before calling an iterative solver
             0 MiB given to the printing process from OS
             0 MiB allocation reported by mallinfo(arena+hblkhd)
        171893 MiB available memory on the node where the printing process lives
------------------
     ethr =  9.40E-04,  avg # of iterations =  1.2

     negative rho (up, down):  7.815E-01 0.000E+00

     total cpu time spent up to now is      154.0 secs

     total energy              =   -4400.13171339 Ry
     estimated scf accuracy    <       1.05953571 Ry

     iteration # 12     ecut=    60.00 Ry     beta= 0.15
     Davidson diagonalization with overlap

---- Real-time Memory Report at c_bands before calling an iterative solver
             0 MiB given to the printing process from OS
             0 MiB allocation reported by mallinfo(arena+hblkhd)
        171921 MiB available memory on the node where the printing process lives
------------------
     ethr =  2.49E-04,  avg # of iterations =  5.3

     negative rho (up, down):  7.893E-01 0.000E+00

     total cpu time spent up to now is      169.3 secs

     total energy              =   -4400.07740079 Ry
     estimated scf accuracy    <       0.80969031 Ry

     iteration # 13     ecut=    60.00 Ry     beta= 0.15
     Davidson diagonalization with overlap

---- Real-time Memory Report at c_bands before calling an iterative solver
             0 MiB given to the printing process from OS
             0 MiB allocation reported by mallinfo(arena+hblkhd)
        171866 MiB available memory on the node where the printing process lives
------------------
     ethr =  1.91E-04,  avg # of iterations =  2.0

     negative rho (up, down):  8.034E-01 0.000E+00

     total cpu time spent up to now is      182.3 secs

     total energy              =   -4400.07056956 Ry
     estimated scf accuracy    <       0.69490600 Ry

     iteration # 14     ecut=    60.00 Ry     beta= 0.15
     Davidson diagonalization with overlap

---- Real-time Memory Report at c_bands before calling an iterative solver
             0 MiB given to the printing process from OS
             0 MiB allocation reported by mallinfo(arena+hblkhd)
        171868 MiB available memory on the node where the printing process lives
------------------
     ethr =  1.64E-04,  avg # of iterations =  7.1

     negative rho (up, down):  8.000E-01 0.000E+00

     total cpu time spent up to now is      197.9 secs

     total energy              =   -4399.98807429 Ry
     estimated scf accuracy    <       2.46844945 Ry

     iteration # 15     ecut=    60.00 Ry     beta= 0.15
     Davidson diagonalization with overlap

---- Real-time Memory Report at c_bands before calling an iterative solver
             0 MiB given to the printing process from OS
             0 MiB allocation reported by mallinfo(arena+hblkhd)
        171843 MiB available memory on the node where the printing process lives
------------------
     ethr =  1.64E-04,  avg # of iterations =  4.3

     negative rho (up, down):  8.050E-01 0.000E+00

     total cpu time spent up to now is      212.1 secs

     total energy              =   -4400.04772533 Ry
     estimated scf accuracy    <       0.64123037 Ry

     iteration # 16     ecut=    60.00 Ry     beta= 0.15
     Davidson diagonalization with overlap

---- Real-time Memory Report at c_bands before calling an iterative solver
             0 MiB given to the printing process from OS
             0 MiB allocation reported by mallinfo(arena+hblkhd)
        171782 MiB available memory on the node where the printing process lives
------------------
     ethr =  1.51E-04,  avg # of iterations =  1.2

     negative rho (up, down):  8.063E-01 0.000E+00

     total cpu time spent up to now is      224.2 secs

     total energy              =   -4400.02256205 Ry
     estimated scf accuracy    <       0.35046484 Ry

     iteration # 17     ecut=    60.00 Ry     beta= 0.15
     Davidson diagonalization with overlap

---- Real-time Memory Report at c_bands before calling an iterative solver
             0 MiB given to the printing process from OS
             0 MiB allocation reported by mallinfo(arena+hblkhd)
        171784 MiB available memory on the node where the printing process lives
------------------
     ethr =  8.25E-05,  avg # of iterations =  5.0

     negative rho (up, down):  8.111E-01 0.000E+00

     total cpu time spent up to now is      238.3 secs

     total energy              =   -4399.98630386 Ry
     estimated scf accuracy    <       0.73093611 Ry

     iteration # 18     ecut=    60.00 Ry     beta= 0.15
     Davidson diagonalization with overlap

---- Real-time Memory Report at c_bands before calling an iterative solver
             0 MiB given to the printing process from OS
             0 MiB allocation reported by mallinfo(arena+hblkhd)
        171769 MiB available memory on the node where the printing process lives
------------------
     c_bands:  1 eigenvalues not converged
     ethr =  8.25E-05,  avg # of iterations = 10.7

     negative rho (up, down):  8.165E-01 0.000E+00

     total cpu time spent up to now is      255.4 secs

     total energy              =   -4399.94091210 Ry
     estimated scf accuracy    <       0.26929261 Ry

     iteration # 19     ecut=    60.00 Ry     beta= 0.15
     Davidson diagonalization with overlap

---- Real-time Memory Report at c_bands before calling an iterative solver
             0 MiB given to the printing process from OS
             0 MiB allocation reported by mallinfo(arena+hblkhd)
        171789 MiB available memory on the node where the printing process lives
------------------
     ethr =  6.34E-05,  avg # of iterations =  7.0

     negative rho (up, down):  8.199E-01 0.000E+00

     total cpu time spent up to now is      271.6 secs

     total energy              =   -4399.93964464 Ry
     estimated scf accuracy    <       0.14774431 Ry

     iteration # 20     ecut=    60.00 Ry     beta= 0.15
     Davidson diagonalization with overlap

---- Real-time Memory Report at c_bands before calling an iterative solver
             0 MiB given to the printing process from OS
             0 MiB allocation reported by mallinfo(arena+hblkhd)
        171767 MiB available memory on the node where the printing process lives
------------------
     ethr =  3.48E-05,  avg # of iterations =  8.6

     negative rho (up, down):  8.355E-01 0.000E+00

     total cpu time spent up to now is      288.6 secs

     total energy              =   -4399.92176370 Ry
     estimated scf accuracy    <       0.09209497 Ry

     iteration # 21     ecut=    60.00 Ry     beta= 0.15
     Davidson diagonalization with overlap

---- Real-time Memory Report at c_bands before calling an iterative solver
             0 MiB given to the printing process from OS
             0 MiB allocation reported by mallinfo(arena+hblkhd)
        171761 MiB available memory on the node where the printing process lives
------------------
     ethr =  2.17E-05,  avg # of iterations = 11.3

     negative rho (up, down):  8.241E-01 0.000E+00

     total cpu time spent up to now is      307.5 secs

     total energy              =   -4399.92409802 Ry
     estimated scf accuracy    <       0.06748487 Ry

     iteration # 22     ecut=    60.00 Ry     beta= 0.15
     Davidson diagonalization with overlap

---- Real-time Memory Report at c_bands before calling an iterative solver
             0 MiB given to the printing process from OS
             0 MiB allocation reported by mallinfo(arena+hblkhd)
        171700 MiB available memory on the node where the printing process lives
------------------
     ethr =  1.59E-05,  avg # of iterations =  1.0

     negative rho (up, down):  8.128E-01 0.000E+00

     total cpu time spent up to now is      319.7 secs

     total energy              =   -4399.91795940 Ry
     estimated scf accuracy    <       0.05475308 Ry

     iteration # 23     ecut=    60.00 Ry     beta= 0.15
     Davidson diagonalization with overlap

---- Real-time Memory Report at c_bands before calling an iterative solver
             0 MiB given to the printing process from OS
             0 MiB allocation reported by mallinfo(arena+hblkhd)
        171617 MiB available memory on the node where the printing process lives
------------------
     ethr =  1.29E-05,  avg # of iterations =  3.9

     negative rho (up, down):  7.961E-01 0.000E+00

     total cpu time spent up to now is      333.9 secs

     total energy              =   -4399.91012805 Ry
     estimated scf accuracy    <       0.03813931 Ry

     iteration # 24     ecut=    60.00 Ry     beta= 0.15
     Davidson diagonalization with overlap

---- Real-time Memory Report at c_bands before calling an iterative solver
             0 MiB given to the printing process from OS
             0 MiB allocation reported by mallinfo(arena+hblkhd)
        171628 MiB available memory on the node where the printing process lives
------------------
     ethr =  8.97E-06,  avg # of iterations = 11.0

     negative rho (up, down):  7.980E-01 0.000E+00

     total cpu time spent up to now is      352.1 secs

     total energy              =   -4399.91129089 Ry
     estimated scf accuracy    <       0.01711414 Ry

     iteration # 25     ecut=    60.00 Ry     beta= 0.15
     Davidson diagonalization with overlap

---- Real-time Memory Report at c_bands before calling an iterative solver
             0 MiB given to the printing process from OS
             0 MiB allocation reported by mallinfo(arena+hblkhd)
        171569 MiB available memory on the node where the printing process lives
------------------
     ethr =  4.03E-06,  avg # of iterations =  6.5

     negative rho (up, down):  7.899E-01 0.000E+00

     total cpu time spent up to now is      367.3 secs

     total energy              =   -4399.90996471 Ry
     estimated scf accuracy    <       0.01138917 Ry

     iteration # 26     ecut=    60.00 Ry     beta= 0.15
     Davidson diagonalization with overlap

---- Real-time Memory Report at c_bands before calling an iterative solver
             0 MiB given to the printing process from OS
             0 MiB allocation reported by mallinfo(arena+hblkhd)
        171572 MiB available memory on the node where the printing process lives
------------------
     ethr =  2.68E-06,  avg # of iterations =  7.2

     negative rho (up, down):  7.908E-01 0.000E+00

     total cpu time spent up to now is      382.8 secs

     total energy              =   -4399.90937321 Ry
     estimated scf accuracy    <       0.00730907 Ry

     iteration # 27     ecut=    60.00 Ry     beta= 0.15
     Davidson diagonalization with overlap

---- Real-time Memory Report at c_bands before calling an iterative solver
             0 MiB given to the printing process from OS
             0 MiB allocation reported by mallinfo(arena+hblkhd)
        171658 MiB available memory on the node where the printing process lives
------------------
     c_bands:  1 eigenvalues not converged
     ethr =  1.72E-06,  avg # of iterations = 12.8

     negative rho (up, down):  7.943E-01 0.000E+00

     total cpu time spent up to now is      401.4 secs

     total energy              =   -4399.90921823 Ry
     estimated scf accuracy    <       0.00359184 Ry

     iteration # 28     ecut=    60.00 Ry     beta= 0.15
     Davidson diagonalization with overlap

---- Real-time Memory Report at c_bands before calling an iterative solver
             0 MiB given to the printing process from OS
             0 MiB allocation reported by mallinfo(arena+hblkhd)
        171568 MiB available memory on the node where the printing process lives
------------------
     ethr =  8.45E-07,  avg # of iterations =  9.1

     negative rho (up, down):  7.960E-01 0.000E+00

     total cpu time spent up to now is      418.6 secs

     total energy              =   -4399.90931231 Ry
     estimated scf accuracy    <       0.00162637 Ry

     iteration # 29     ecut=    60.00 Ry     beta= 0.15
     Davidson diagonalization with overlap

---- Real-time Memory Report at c_bands before calling an iterative solver
             0 MiB given to the printing process from OS
             0 MiB allocation reported by mallinfo(arena+hblkhd)
        171569 MiB available memory on the node where the printing process lives
------------------
     c_bands:  1 eigenvalues not converged
     c_bands:  1 eigenvalues not converged
     ethr =  3.83E-07,  avg # of iterations = 10.6

     negative rho (up, down):  7.971E-01 0.000E+00

     total cpu time spent up to now is      436.0 secs

     total energy              =   -4399.90938106 Ry
     estimated scf accuracy    <       0.00078830 Ry

     iteration # 30     ecut=    60.00 Ry     beta= 0.15
     Davidson diagonalization with overlap

---- Real-time Memory Report at c_bands before calling an iterative solver
             0 MiB given to the printing process from OS
             0 MiB allocation reported by mallinfo(arena+hblkhd)
        171538 MiB available memory on the node where the printing process lives
------------------
     c_bands:  1 eigenvalues not converged
     ethr =  1.85E-07,  avg # of iterations =  9.7

     negative rho (up, down):  7.963E-01 0.000E+00

     total cpu time spent up to now is      452.5 secs

     total energy              =   -4399.90928262 Ry
     estimated scf accuracy    <       0.00051369 Ry

     iteration # 31     ecut=    60.00 Ry     beta= 0.15
     Davidson diagonalization with overlap

---- Real-time Memory Report at c_bands before calling an iterative solver
             0 MiB given to the printing process from OS
             0 MiB allocation reported by mallinfo(arena+hblkhd)
        171577 MiB available memory on the node where the printing process lives
------------------
     ethr =  1.21E-07,  avg # of iterations =  3.9

     negative rho (up, down):  7.953E-01 0.000E+00

     total cpu time spent up to now is      467.0 secs

     total energy              =   -4399.90924832 Ry
     estimated scf accuracy    <       0.00026295 Ry

     iteration # 32     ecut=    60.00 Ry     beta= 0.15
     Davidson diagonalization with overlap

---- Real-time Memory Report at c_bands before calling an iterative solver
             0 MiB given to the printing process from OS
             0 MiB allocation reported by mallinfo(arena+hblkhd)
        171622 MiB available memory on the node where the printing process lives
------------------
     ethr =  6.19E-08,  avg # of iterations =  2.3

     negative rho (up, down):  7.942E-01 0.000E+00

     total cpu time spent up to now is      480.9 secs

     total energy              =   -4399.90923296 Ry
     estimated scf accuracy    <       0.00014128 Ry

     iteration # 33     ecut=    60.00 Ry     beta= 0.15
     Davidson diagonalization with overlap

---- Real-time Memory Report at c_bands before calling an iterative solver
             0 MiB given to the printing process from OS
             0 MiB allocation reported by mallinfo(arena+hblkhd)
        171652 MiB available memory on the node where the printing process lives
------------------
     ethr =  3.32E-08,  avg # of iterations =  2.1

     negative rho (up, down):  7.931E-01 0.000E+00

     total cpu time spent up to now is      494.5 secs

     total energy              =   -4399.90921382 Ry
     estimated scf accuracy    <       0.00008974 Ry

     iteration # 34     ecut=    60.00 Ry     beta= 0.15
     Davidson diagonalization with overlap

---- Real-time Memory Report at c_bands before calling an iterative solver
             0 MiB given to the printing process from OS
             0 MiB allocation reported by mallinfo(arena+hblkhd)
        171663 MiB available memory on the node where the printing process lives
------------------
     ethr =  2.11E-08,  avg # of iterations =  3.9

     negative rho (up, down):  7.926E-01 0.000E+00

     total cpu time spent up to now is      509.1 secs

     total energy              =   -4399.90921657 Ry
     estimated scf accuracy    <       0.00003510 Ry

     iteration # 35     ecut=    60.00 Ry     beta= 0.15
     Davidson diagonalization with overlap

---- Real-time Memory Report at c_bands before calling an iterative solver
             0 MiB given to the printing process from OS
             0 MiB allocation reported by mallinfo(arena+hblkhd)
        171659 MiB available memory on the node where the printing process lives
------------------
     ethr =  8.26E-09,  avg # of iterations =  3.7

     negative rho (up, down):  7.925E-01 0.000E+00

     total cpu time spent up to now is      524.0 secs

     total energy              =   -4399.90922104 Ry
     estimated scf accuracy    <       0.00001519 Ry

     iteration # 36     ecut=    60.00 Ry     beta= 0.15
     Davidson diagonalization with overlap

---- Real-time Memory Report at c_bands before calling an iterative solver
             0 MiB given to the printing process from OS
             0 MiB allocation reported by mallinfo(arena+hblkhd)
        171663 MiB available memory on the node where the printing process lives
------------------
     ethr =  3.57E-09,  avg # of iterations =  2.0

     negative rho (up, down):  7.923E-01 0.000E+00

     total cpu time spent up to now is      537.5 secs

     total energy              =   -4399.90922461 Ry
     estimated scf accuracy    <       0.00001200 Ry

     iteration # 37     ecut=    60.00 Ry     beta= 0.15
     Davidson diagonalization with overlap

---- Real-time Memory Report at c_bands before calling an iterative solver
             0 MiB given to the printing process from OS
             0 MiB allocation reported by mallinfo(arena+hblkhd)
        171658 MiB available memory on the node where the printing process lives
------------------
     ethr =  2.82E-09,  avg # of iterations =  2.2

     negative rho (up, down):  7.922E-01 0.000E+00

     total cpu time spent up to now is      551.2 secs

     total energy              =   -4399.90922681 Ry
     estimated scf accuracy    <       0.00000733 Ry

     iteration # 38     ecut=    60.00 Ry     beta= 0.15
     Davidson diagonalization with overlap

---- Real-time Memory Report at c_bands before calling an iterative solver
             0 MiB given to the printing process from OS
             0 MiB allocation reported by mallinfo(arena+hblkhd)
        171660 MiB available memory on the node where the printing process lives
------------------
     ethr =  1.72E-09,  avg # of iterations =  2.2

     negative rho (up, down):  7.922E-01 0.000E+00

     total cpu time spent up to now is      565.3 secs

     total energy              =   -4399.90922794 Ry
     estimated scf accuracy    <       0.00000560 Ry

     iteration # 39     ecut=    60.00 Ry     beta= 0.15
     Davidson diagonalization with overlap

---- Real-time Memory Report at c_bands before calling an iterative solver
             0 MiB given to the printing process from OS
             0 MiB allocation reported by mallinfo(arena+hblkhd)
        171662 MiB available memory on the node where the printing process lives
------------------
     ethr =  1.32E-09,  avg # of iterations =  2.9

     negative rho (up, down):  7.923E-01 0.000E+00

     total cpu time spent up to now is      579.5 secs

     total energy              =   -4399.90922807 Ry
     estimated scf accuracy    <       0.00000402 Ry

     iteration # 40     ecut=    60.00 Ry     beta= 0.15
     Davidson diagonalization with overlap

---- Real-time Memory Report at c_bands before calling an iterative solver
             0 MiB given to the printing process from OS
             0 MiB allocation reported by mallinfo(arena+hblkhd)
        171676 MiB available memory on the node where the printing process lives
------------------
     ethr =  9.45E-10,  avg # of iterations =  2.4

     negative rho (up, down):  7.923E-01 0.000E+00

     total cpu time spent up to now is      593.5 secs

     total energy              =   -4399.90922846 Ry
     estimated scf accuracy    <       0.00000291 Ry

     iteration # 41     ecut=    60.00 Ry     beta= 0.15
     Davidson diagonalization with overlap

---- Real-time Memory Report at c_bands before calling an iterative solver
             0 MiB given to the printing process from OS
             0 MiB allocation reported by mallinfo(arena+hblkhd)
        171681 MiB available memory on the node where the printing process lives
------------------
     ethr =  6.85E-10,  avg # of iterations =  2.2

     negative rho (up, down):  7.924E-01 0.000E+00

     total cpu time spent up to now is      607.5 secs

     total energy              =   -4399.90922967 Ry
     estimated scf accuracy    <       0.00000234 Ry

     iteration # 42     ecut=    60.00 Ry     beta= 0.15
     Davidson diagonalization with overlap

---- Real-time Memory Report at c_bands before calling an iterative solver
             0 MiB given to the printing process from OS
             0 MiB allocation reported by mallinfo(arena+hblkhd)
        171685 MiB available memory on the node where the printing process lives
------------------
     ethr =  5.50E-10,  avg # of iterations =  2.4

     negative rho (up, down):  7.924E-01 0.000E+00

     total cpu time spent up to now is      621.6 secs

     total energy              =   -4399.90923059 Ry
     estimated scf accuracy    <       0.00000162 Ry

     iteration # 43     ecut=    60.00 Ry     beta= 0.15
     Davidson diagonalization with overlap

---- Real-time Memory Report at c_bands before calling an iterative solver
             0 MiB given to the printing process from OS
             0 MiB allocation reported by mallinfo(arena+hblkhd)
        171689 MiB available memory on the node where the printing process lives
------------------
     ethr =  3.82E-10,  avg # of iterations =  2.8

     negative rho (up, down):  7.924E-01 0.000E+00

     total cpu time spent up to now is      635.8 secs

     total energy              =   -4399.90923084 Ry
     estimated scf accuracy    <       0.00000098 Ry

     iteration # 44     ecut=    60.00 Ry     beta= 0.15
     Davidson diagonalization with overlap

---- Real-time Memory Report at c_bands before calling an iterative solver
             0 MiB given to the printing process from OS
             0 MiB allocation reported by mallinfo(arena+hblkhd)
        171695 MiB available memory on the node where the printing process lives
------------------
     ethr =  2.30E-10,  avg # of iterations =  3.7

     negative rho (up, down):  7.924E-01 0.000E+00

     total cpu time spent up to now is      651.0 secs

     total energy              =   -4399.90923083 Ry
     estimated scf accuracy    <       0.00000016 Ry

     iteration # 45     ecut=    60.00 Ry     beta= 0.15
     Davidson diagonalization with overlap

---- Real-time Memory Report at c_bands before calling an iterative solver
             0 MiB given to the printing process from OS
             0 MiB allocation reported by mallinfo(arena+hblkhd)
        171693 MiB available memory on the node where the printing process lives
------------------
     ethr =  3.82E-11,  avg # of iterations =  3.4

     negative rho (up, down):  7.924E-01 0.000E+00

     total cpu time spent up to now is      667.0 secs

     total energy              =   -4399.90923085 Ry
     estimated scf accuracy    <       0.00000006 Ry

     iteration # 46     ecut=    60.00 Ry     beta= 0.15
     Davidson diagonalization with overlap

---- Real-time Memory Report at c_bands before calling an iterative solver
             0 MiB given to the printing process from OS
             0 MiB allocation reported by mallinfo(arena+hblkhd)
        171679 MiB available memory on the node where the printing process lives
------------------
     ethr =  1.52E-11,  avg # of iterations =  2.1

     negative rho (up, down):  7.924E-01 0.000E+00

     total cpu time spent up to now is      681.3 secs

     total energy              =   -4399.90923090 Ry
     estimated scf accuracy    <       0.00000004 Ry

     iteration # 47     ecut=    60.00 Ry     beta= 0.15
     Davidson diagonalization with overlap

---- Real-time Memory Report at c_bands before calling an iterative solver
             0 MiB given to the printing process from OS
             0 MiB allocation reported by mallinfo(arena+hblkhd)
        171687 MiB available memory on the node where the printing process lives
------------------
     ethr =  1.04E-11,  avg # of iterations =  2.8

     negative rho (up, down):  7.924E-01 0.000E+00

     total cpu time spent up to now is      695.4 secs

     total energy              =   -4399.90923093 Ry
     estimated scf accuracy    <       0.00000002 Ry

     iteration # 48     ecut=    60.00 Ry     beta= 0.15
     Davidson diagonalization with overlap

---- Real-time Memory Report at c_bands before calling an iterative solver
             0 MiB given to the printing process from OS
             0 MiB allocation reported by mallinfo(arena+hblkhd)
        171683 MiB available memory on the node where the printing process lives
------------------
     ethr =  4.41E-12,  avg # of iterations =  3.2

     negative rho (up, down):  7.924E-01 0.000E+00

     total cpu time spent up to now is      709.7 secs

     End of self-consistent calculation

          k = 0.0000 0.0000 0.0000 ( 65197 PWs)   bands (ev):

   -92.7002 -92.6462 -92.5541 -92.5057 -92.4462 -92.4064 -92.3897 -92.2611
   -56.0536 -56.0329 -55.9115 -55.9009 -55.8942 -55.8877 -55.8516 -55.8233
   -55.8084 -55.8058 -55.7960 -55.7545 -55.7357 -55.6979 -55.6804 -55.6459
   -55.6415 -55.5951 -55.5918 -55.5888 -55.5834 -55.5318 -55.5200 -55.4310
   -31.2770 -31.2576 -31.1160 -31.0993 -31.0291 -31.0159 -30.9051 -30.7916
   -29.8492 -29.8058 -29.7800 -29.6715 -15.0814 -15.0437 -14.9591 -14.8282
   -14.6417 -14.5182 -14.2207 -14.2026 -14.1719 -14.1276 -14.0850 -14.0760
   -14.0623 -14.0467 -14.0267 -13.9890 -13.9310 -13.7820 -13.6085 -13.5707
   -13.5389 -13.5110 -13.4924 -13.4423 -13.4054 -13.3215 -13.2503 -13.1526
   -13.1156 -13.1099 -13.0949 -13.0748 -13.0569 -13.0226 -13.0046 -12.9914
   -12.9598 -12.9278 -12.9238 -12.9043 -12.8954 -12.8853 -12.8313 -12.8158
   -12.7939 -12.7316 -12.6951 -12.6825 -12.3416 -12.1961 -12.0648 -11.9917
   -11.8629 -11.7884 -11.7772 -11.7550 -11.7373 -11.6734 -11.6561 -11.6215
   -11.5925 -11.4811 -11.4008 -11.3971  -2.9430  -2.7100  -2.4801  -2.3345
    -2.2705  -2.1277  -1.8213  -1.8073  -1.7863  -1.7038  -1.6848  -1.6161
    -1.6003  -1.5586  -1.5113  -1.3334  -1.1095  -1.0806  -0.9308  -0.9170
    -0.8732  -0.8549  -0.8094  -0.7935  -0.7345  -0.7081  -0.6393  -0.6260
    -0.5474  -0.4171  -0.4033  -0.3757  -0.2945  -0.2856  -0.2726  -0.2012
    -0.1302  -0.1002  -0.0348  -0.0123   0.0438   0.1314   0.1785   0.2018
     0.2098   0.4660   0.4811   0.6520   0.7200   0.7828   0.8264   0.9189
     0.9335   0.9523   1.0188   1.0463   1.0807   1.1390   1.2728   1.3271
     1.3495   1.3702   1.3792   1.4460   1.5216   1.6198   1.6335   1.6918
     1.7104   1.7519   1.7733   1.7787   1.8307   1.8847   1.8960   1.9292
     1.9668   2.0227   2.1539   2.2334   2.2813   2.3037   2.4470   2.4626
     2.5066   2.5132   2.6224   2.6554   2.6827   2.7006   2.7156   2.7708
     2.8259   2.9049   2.9384   2.9511   2.9584   3.0248   3.0285   3.0537
     3.0618   3.0706   3.0875   3.0897   3.1036   3.1084   3.1248   3.1323
     3.1407   3.1569   3.1777   3.1838   3.1950   3.2212   3.3359   3.4585
     4.1171   4.4220   4.7653   4.8727   5.0374   5.8322   5.9266   5.9849
     6.0479   6.3152   6.3619   6.4862   6.4964   6.7286   7.0136   7.0978
     7.1019   7.1105   7.3145   7.5587   7.6555   7.6651   7.6972   7.9389
     8.0634   8.1178   8.1225   8.1410   8.3760   8.6296   8.7162   8.8254

     occupation numbers 
     1.0000   1.0000   1.0000   1.0000   1.0000   1.0000   1.0000   1.0000
     1.0000   1.0000   1.0000   1.0000   1.0000   1.0000   1.0000   1.0000
     1.0000   1.0000   1.0000   1.0000   1.0000   1.0000   1.0000   1.0000
     1.0000   1.0000   1.0000   1.0000   1.0000   1.0000   1.0000   1.0000
     1.0000   1.0000   1.0000   1.0000   1.0000   1.0000   1.0000   1.0000
     1.0000   1.0000   1.0000   1.0000   1.0000   1.0000   1.0000   1.0000
     1.0000   1.0000   1.0000   1.0000   1.0000   1.0000   1.0000   1.0000
     1.0000   1.0000   1.0000   1.0000   1.0000   1.0000   1.0000   1.0000
     1.0000   1.0000   1.0000   1.0000   1.0000   1.0000   1.0000   1.0000
     1.0000   1.0000   1.0000   1.0000   1.0000   1.0000   1.0000   1.0000
     1.0000   1.0000   1.0000   1.0000   1.0000   1.0000   1.0000   1.0000
     1.0000   1.0000   1.0000   1.0000   1.0000   1.0000   1.0000   1.0000
     1.0000   1.0000   1.0000   1.0000   1.0000   1.0000   1.0000   1.0000
     1.0000   1.0000   1.0000   1.0000   1.0000   1.0000   1.0000   1.0000
     1.0000   1.0000   1.0000   1.0000   1.0000   1.0000   1.0000   1.0000
     1.0000   1.0000   1.0000   1.0000   1.0000   1.0000   1.0000   1.0000
     1.0000   1.0000   1.0000   1.0000   1.0000   1.0000   1.0000   1.0000
     1.0000   1.0000   1.0000   1.0000   1.0000   1.0000   1.0000   1.0000
     1.0000   1.0000   1.0000   1.0000   1.0000   1.0000   1.0000   1.0000
     1.0000   1.0000   1.0000   1.0000   0.9999   0.9999   0.9999   0.9998
     0.9998   0.9998   0.9997   0.9996   0.9996   0.9994   0.9989   0.9985
     0.9983   0.9982   0.9981   0.9974   0.9963   0.9944   0.9941   0.9924
     0.9918   0.9903   0.9895   0.9893   0.9869   0.9839   0.9832   0.9811
     0.9783   0.9736   0.9593   0.9479   0.9398   0.9358   0.9044   0.9004
     0.8885   0.8867   0.8524   0.8408   0.8308   0.8240   0.8182   0.7957
     0.7718   0.7348   0.7182   0.7118   0.7081   0.6734   0.6714   0.6577
     0.6533   0.6485   0.6391   0.6379   0.6301   0.6275   0.6182   0.6140
     0.6092   0.5999   0.5879   0.5844   0.5779   0.5626   0.4949   0.4228
     0.1204   0.0520   0.0164   0.0109   0.0056   0.0001   0.0001   0.0000
     0.0000   0.0000   0.0000   0.0000   0.0000   0.0000   0.0000   0.0000
     0.0000   0.0000   0.0000   0.0000   0.0000   0.0000   0.0000   0.0000
     0.0000   0.0000   0.0000   0.0000   0.0000   0.0000   0.0000   0.0000

          k = 0.0000 0.2500 0.0000 ( 65257 PWs)   bands (ev):

   -92.7002 -92.6462 -92.5541 -92.5057 -92.4462 -92.4064 -92.3897 -92.2611
   -56.0536 -56.0329 -55.9115 -55.9009 -55.8942 -55.8877 -55.8516 -55.8233
   -55.8084 -55.8058 -55.7960 -55.7545 -55.7357 -55.6979 -55.6804 -55.6459
   -55.6415 -55.5952 -55.5918 -55.5888 -55.5834 -55.5318 -55.5200 -55.4311
   -31.2769 -31.2575 -31.1162 -31.0990 -31.0292 -31.0162 -30.9048 -30.7919
   -29.8486 -29.8055 -29.7806 -29.6719 -15.0445 -15.0175 -14.9341 -14.7990
   -14.6816 -14.5085 -14.3665 -14.1863 -14.1552 -14.1323 -14.1037 -14.0476
   -14.0413 -14.0266 -14.0101 -13.9683 -13.8506 -13.8129 -13.6482 -13.6344
   -13.5800 -13.5449 -13.5028 -13.4591 -13.4224 -13.3434 -13.3078 -13.2646
   -13.1986 -13.1471 -13.1092 -13.1005 -13.0802 -12.9956 -12.9727 -12.9478
   -12.9323 -12.9025 -12.8723 -12.8669 -12.8482 -12.8275 -12.7962 -12.7828
   -12.7613 -12.7249 -12.6058 -12.5312 -12.4030 -12.2473 -12.1214 -12.0587
   -11.8284 -11.7852 -11.7576 -11.7291 -11.7126 -11.6653 -11.6539 -11.6314
   -11.5974 -11.4953 -11.4424 -11.4318  -2.8077  -2.5856  -2.4481  -2.2663
    -2.2227  -2.0585  -1.8401  -1.7544  -1.7414  -1.6848  -1.5817  -1.5665
    -1.5302  -1.5058  -1.4620  -1.2645  -1.1362  -1.1243  -1.0476  -1.0373
    -0.9329  -0.9019  -0.8463  -0.8214  -0.7787  -0.7156  -0.6899  -0.6573
    -0.6274  -0.6101  -0.5769  -0.5026  -0.4510  -0.3878  -0.2767  -0.2568
    -0.2147  -0.0986  -0.0651   0.0013   0.0483   0.1130   0.1293   0.1574
     0.2132   0.5120   0.6011   0.6301   0.7200   0.7646   0.7821   0.9089
     0.9264   1.0189   1.0455   1.0737   1.1897   1.2788   1.3031   1.3264
     1.3459   1.3732   1.4325   1.4597   1.4860   1.5353   1.5681   1.5965
     1.6752   1.7090   1.7453   1.8024   1.8512   1.8888   1.9196   1.9522
     1.9700   2.0531   2.1873   2.2612   2.2856   2.3581   2.4031   2.4403
     2.4496   2.5139   2.5543   2.6400   2.6721   2.6906   2.7970   2.8662
     2.8965   2.9194   2.9419   2.9611   2.9688   2.9741   2.9876   3.0139
     3.0163   3.0351   3.0418   3.0517   3.0687   3.0838   3.0892   3.1085
     3.1187   3.1238   3.1583   3.1754   3.2410   3.5947   3.6625   3.8883
     4.3086   4.4185   4.7027   5.0197   5.0724   5.6337   5.7744   5.9237
     5.9762   6.0892   6.1293   6.1865   6.6038   6.8856   6.9068   7.1192
     7.2028   7.3346   7.4852   7.5003   7.6471   7.7410   7.8324   7.9150
     8.0364   8.0742   8.1730   8.2965   8.4114   8.4631   8.7501   8.8852

     occupation numbers 
     1.0000   1.0000   1.0000   1.0000   1.0000   1.0000   1.0000   1.0000
     1.0000   1.0000   1.0000   1.0000   1.0000   1.0000   1.0000   1.0000
     1.0000   1.0000   1.0000   1.0000   1.0000   1.0000   1.0000   1.0000
     1.0000   1.0000   1.0000   1.0000   1.0000   1.0000   1.0000   1.0000
     1.0000   1.0000   1.0000   1.0000   1.0000   1.0000   1.0000   1.0000
     1.0000   1.0000   1.0000   1.0000   1.0000   1.0000   1.0000   1.0000
     1.0000   1.0000   1.0000   1.0000   1.0000   1.0000   1.0000   1.0000
     1.0000   1.0000   1.0000   1.0000   1.0000   1.0000   1.0000   1.0000
     1.0000   1.0000   1.0000   1.0000   1.0000   1.0000   1.0000   1.0000
     1.0000   1.0000   1.0000   1.0000   1.0000   1.0000   1.0000   1.0000
     1.0000   1.0000   1.0000   1.0000   1.0000   1.0000   1.0000   1.0000
     1.0000   1.0000   1.0000   1.0000   1.0000   1.0000   1.0000   1.0000
     1.0000   1.0000   1.0000   1.0000   1.0000   1.0000   1.0000   1.0000
     1.0000   1.0000   1.0000   1.0000   1.0000   1.0000   1.0000   1.0000
     1.0000   1.0000   1.0000   1.0000   1.0000   1.0000   1.0000   1.0000
     1.0000   1.0000   1.0000   1.0000   1.0000   1.0000   1.0000   1.0000
     1.0000   1.0000   1.0000   1.0000   1.0000   1.0000   1.0000   1.0000
     1.0000   1.0000   1.0000   1.0000   1.0000   1.0000   1.0000   1.0000
     1.0000   1.0000   1.0000   1.0000   1.0000   1.0000   1.0000   1.0000
     1.0000   1.0000   1.0000   1.0000   0.9999   0.9999   0.9999   0.9998
     0.9998   0.9997   0.9996   0.9996   0.9992   0.9988   0.9987   0.9985
     0.9984   0.9981   0.9976   0.9972   0.9969   0.9961   0.9955   0.9949
     0.9929   0.9919   0.9906   0.9882   0.9858   0.9837   0.9817   0.9794
     0.9781   0.9708   0.9548   0.9433   0.9391   0.9250   0.9150   0.9061
     0.9038   0.8865   0.8745   0.8463   0.8347   0.8278   0.7845   0.7533
     0.7389   0.7277   0.7165   0.7067   0.7028   0.7001   0.6930   0.6792
     0.6779   0.6678   0.6642   0.6588   0.6496   0.6412   0.6382   0.6274
     0.6217   0.6188   0.5991   0.5893   0.5510   0.3457   0.3094   0.2025
     0.0725   0.0526   0.0206   0.0060   0.0048   0.0003   0.0001   0.0001
     0.0000   0.0000   0.0000   0.0000   0.0000   0.0000   0.0000   0.0000
     0.0000   0.0000   0.0000   0.0000   0.0000   0.0000   0.0000   0.0000
     0.0000   0.0000   0.0000   0.0000   0.0000   0.0000   0.0000   0.0000

          k = 0.0000-0.5000 0.0000 ( 65180 PWs)   bands (ev):

   -92.7002 -92.6462 -92.5541 -92.5057 -92.4462 -92.4064 -92.3897 -92.2611
   -56.0536 -56.0329 -55.9115 -55.9009 -55.8942 -55.8877 -55.8516 -55.8233
   -55.8084 -55.8058 -55.7960 -55.7545 -55.7357 -55.6979 -55.6804 -55.6459
   -55.6415 -55.5951 -55.5918 -55.5888 -55.5834 -55.5318 -55.5200 -55.4310
   -31.2767 -31.2573 -31.1164 -31.0986 -31.0294 -31.0166 -30.9046 -30.7922
   -29.8479 -29.8052 -29.7812 -29.6722 -15.0119 -14.9630 -14.9110 -14.7856
   -14.6976 -14.5603 -14.4115 -14.2882 -14.1570 -14.0924 -14.0495 -14.0381
   -13.9903 -13.9718 -13.9251 -13.9066 -13.8804 -13.8440 -13.8192 -13.7764
   -13.5834 -13.5264 -13.5111 -13.4558 -13.4305 -13.3582 -13.3327 -13.2824
   -13.2817 -13.2171 -13.1103 -13.0999 -13.0646 -13.0193 -12.9683 -12.9542
   -12.9282 -12.8820 -12.8690 -12.8457 -12.8241 -12.7697 -12.7422 -12.7322
   -12.7045 -12.6512 -12.5140 -12.4654 -12.3224 -12.3157 -12.2290 -12.1860
   -11.7822 -11.7800 -11.7527 -11.7148 -11.6807 -11.6696 -11.6271 -11.6232
   -11.5791 -11.5169 -11.5031 -11.4888  -2.5932  -2.5334  -2.3825  -2.3101
    -2.0296  -1.9454  -1.8185  -1.6802  -1.6442  -1.6241  -1.5435  -1.5141
    -1.4325  -1.3971  -1.3208  -1.2795  -1.2405  -1.2136  -1.1571  -1.1193
    -1.0736  -1.0371  -1.0033  -0.9697  -0.8593  -0.8141  -0.7808  -0.7796
    -0.6939  -0.6595  -0.6390  -0.5900  -0.5041  -0.4350  -0.3527  -0.3266
    -0.2201  -0.1752  -0.0293   0.0044   0.0300   0.0895   0.2008   0.2524
     0.3920   0.4577   0.4648   0.5937   0.6357   0.7390   0.8712   0.9803
     1.0108   1.0478   1.0519   1.0960   1.1097   1.1459   1.1613   1.1726
     1.2822   1.3430   1.3733   1.3988   1.6569   1.6884   1.7033   1.8059
     1.8319   1.8596   1.8744   1.9073   1.9155   1.9294   1.9606   1.9998
     2.0291   2.0553   2.0665   2.0951   2.1499   2.2289   2.2567   2.4428
     2.6028   2.6126   2.6332   2.6631   2.6684   2.6803   2.7313   2.7442
     2.7724   2.8017   2.8392   2.9041   2.9156   2.9771   2.9985   3.0092
     3.0124   3.0312   3.0391   3.0421   3.0450   3.0516   3.0736   3.0788
     3.0940   3.1434   3.1533   3.1650   3.2187   4.1277   4.1663   4.1732
     4.2556   4.7603   4.8950   5.0294   5.1495   5.4164   5.4665   5.5924
     5.6975   5.9835   6.0352   6.0475   6.7710   6.8602   6.9564   7.2250
     7.3138   7.3345   7.4119   7.4771   7.5985   7.7547   7.8065   7.9105
     8.0823   8.1846   8.3446   8.4934   8.6673   8.7010   8.8111   8.8318

     occupation numbers 
     1.0000   1.0000   1.0000   1.0000   1.0000   1.0000   1.0000   1.0000
     1.0000   1.0000   1.0000   1.0000   1.0000   1.0000   1.0000   1.0000
     1.0000   1.0000   1.0000   1.0000   1.0000   1.0000   1.0000   1.0000
     1.0000   1.0000   1.0000   1.0000   1.0000   1.0000   1.0000   1.0000
     1.0000   1.0000   1.0000   1.0000   1.0000   1.0000   1.0000   1.0000
     1.0000   1.0000   1.0000   1.0000   1.0000   1.0000   1.0000   1.0000
     1.0000   1.0000   1.0000   1.0000   1.0000   1.0000   1.0000   1.0000
     1.0000   1.0000   1.0000   1.0000   1.0000   1.0000   1.0000   1.0000
     1.0000   1.0000   1.0000   1.0000   1.0000   1.0000   1.0000   1.0000
     1.0000   1.0000   1.0000   1.0000   1.0000   1.0000   1.0000   1.0000
     1.0000   1.0000   1.0000   1.0000   1.0000   1.0000   1.0000   1.0000
     1.0000   1.0000   1.0000   1.0000   1.0000   1.0000   1.0000   1.0000
     1.0000   1.0000   1.0000   1.0000   1.0000   1.0000   1.0000   1.0000
     1.0000   1.0000   1.0000   1.0000   1.0000   1.0000   1.0000   1.0000
     1.0000   1.0000   1.0000   1.0000   1.0000   1.0000   1.0000   1.0000
     1.0000   1.0000   1.0000   1.0000   1.0000   1.0000   1.0000   1.0000
     1.0000   1.0000   1.0000   1.0000   1.0000   1.0000   1.0000   1.0000
     1.0000   1.0000   1.0000   1.0000   1.0000   1.0000   1.0000   1.0000
     1.0000   1.0000   1.0000   1.0000   1.0000   1.0000   1.0000   1.0000
     1.0000   1.0000   1.0000   1.0000   1.0000   0.9999   0.9999   0.9998
     0.9997   0.9996   0.9996   0.9995   0.9995   0.9994   0.9994   0.9993
     0.9988   0.9984   0.9981   0.9979   0.9934   0.9925   0.9921   0.9881
     0.9868   0.9854   0.9845   0.9825   0.9820   0.9810   0.9788   0.9757
     0.9731   0.9705   0.9694   0.9664   0.9598   0.9486   0.9441   0.9055
     0.8590   0.8557   0.8487   0.8380   0.8361   0.8317   0.8120   0.8067
     0.7950   0.7825   0.7657   0.7351   0.7296   0.6985   0.6874   0.6817
     0.6800   0.6700   0.6657   0.6641   0.6625   0.6589   0.6468   0.6440
     0.6355   0.6076   0.6020   0.5953   0.5641   0.1173   0.1064   0.1046
     0.0841   0.0167   0.0100   0.0057   0.0034   0.0010   0.0007   0.0004
     0.0002   0.0000   0.0000   0.0000   0.0000   0.0000   0.0000   0.0000
     0.0000   0.0000   0.0000   0.0000   0.0000   0.0000   0.0000   0.0000
     0.0000   0.0000   0.0000   0.0000   0.0000   0.0000   0.0000   0.0000

          k = 0.2500 0.2500 0.0000 ( 65198 PWs)   bands (ev):

   -92.7002 -92.6462 -92.5541 -92.5057 -92.4462 -92.4064 -92.3897 -92.2611
   -56.0536 -56.0329 -55.9115 -55.9009 -55.8942 -55.8877 -55.8516 -55.8233
   -55.8084 -55.8058 -55.7960 -55.7545 -55.7357 -55.6979 -55.6804 -55.6459
   -55.6415 -55.5951 -55.5918 -55.5888 -55.5834 -55.5318 -55.5200 -55.4310
   -31.2752 -31.2592 -31.1158 -31.0988 -31.0296 -31.0161 -30.9050 -30.7921
   -29.8476 -29.8065 -29.7802 -29.6723 -15.0164 -14.9820 -14.9062 -14.7888
   -14.6733 -14.5487 -14.4718 -14.2695 -14.1095 -14.0974 -14.0627 -14.0330
   -14.0119 -13.9868 -13.9561 -13.9300 -13.8424 -13.8267 -13.6643 -13.6517
   -13.6223 -13.6010 -13.5590 -13.5119 -13.4669 -13.4261 -13.3231 -13.2831
   -13.2293 -13.1421 -13.1019 -13.0598 -13.0423 -13.0186 -12.9888 -12.9529
   -12.9461 -12.9211 -12.8882 -12.8453 -12.8233 -12.7893 -12.7449 -12.7343
   -12.7243 -12.7123 -12.5489 -12.4515 -12.4282 -12.2764 -12.1519 -12.1075
   -11.8006 -11.7688 -11.7581 -11.7508 -11.6884 -11.6534 -11.6469 -11.6116
   -11.6036 -11.5119 -11.4706 -11.4532  -2.6695  -2.4599  -2.3420  -2.2488
    -2.1271  -2.0617  -1.8650  -1.7198  -1.6994  -1.6714  -1.5766  -1.5402
    -1.4488  -1.4217  -1.3714  -1.2397  -1.1923  -1.1195  -1.0745  -1.0303
    -1.0062  -0.9812  -0.9395  -0.9238  -0.8334  -0.7839  -0.7199  -0.6703
    -0.6412  -0.5890  -0.5774  -0.5140  -0.4638  -0.4089  -0.3721  -0.2883
    -0.2363  -0.2070  -0.1666  -0.1115  -0.0475  -0.0028   0.0245   0.0934
     0.1379   0.4053   0.5511   0.5892   0.6417   0.6854   0.7417   0.7966
     0.8581   0.8953   1.1690   1.2373   1.3111   1.3367   1.3838   1.4167
     1.4515   1.4880   1.5063   1.5341   1.5742   1.5853   1.6012   1.6451
     1.6872   1.7243   1.7713   1.8132   1.8233   1.8566   1.8912   1.9479
     1.9756   2.0965   2.1691   2.2065   2.2350   2.2994   2.3643   2.3931
     2.4305   2.4526   2.4662   2.5822   2.6157   2.7017   2.8298   2.8773
     2.8948   2.8994   2.9151   2.9302   2.9436   2.9553   2.9626   2.9740
     2.9873   2.9993   3.0206   3.0266   3.0380   3.0565   3.0701   3.0787
     3.1111   3.4121   3.5063   3.5464   3.6112   3.6631   3.8709   3.9558
     4.3061   4.5111   4.7147   4.9794   5.1750   5.6428   5.6943   5.7438
     5.8338   5.8942   6.0208   6.1728   6.2205   6.7124   6.9038   7.0541
     7.1317   7.5556   7.6034   7.6402   7.7155   7.8717   7.9097   8.1153
     8.1359   8.1777   8.3156   8.3445   8.4053   8.4510   8.5243   8.8458

     occupation numbers 
     1.0000   1.0000   1.0000   1.0000   1.0000   1.0000   1.0000   1.0000
     1.0000   1.0000   1.0000   1.0000   1.0000   1.0000   1.0000   1.0000
     1.0000   1.0000   1.0000   1.0000   1.0000   1.0000   1.0000   1.0000
     1.0000   1.0000   1.0000   1.0000   1.0000   1.0000   1.0000   1.0000
     1.0000   1.0000   1.0000   1.0000   1.0000   1.0000   1.0000   1.0000
     1.0000   1.0000   1.0000   1.0000   1.0000   1.0000   1.0000   1.0000
     1.0000   1.0000   1.0000   1.0000   1.0000   1.0000   1.0000   1.0000
     1.0000   1.0000   1.0000   1.0000   1.0000   1.0000   1.0000   1.0000
     1.0000   1.0000   1.0000   1.0000   1.0000   1.0000   1.0000   1.0000
     1.0000   1.0000   1.0000   1.0000   1.0000   1.0000   1.0000   1.0000
     1.0000   1.0000   1.0000   1.0000   1.0000   1.0000   1.0000   1.0000
     1.0000   1.0000   1.0000   1.0000   1.0000   1.0000   1.0000   1.0000
     1.0000   1.0000   1.0000   1.0000   1.0000   1.0000   1.0000   1.0000
     1.0000   1.0000   1.0000   1.0000   1.0000   1.0000   1.0000   1.0000
     1.0000   1.0000   1.0000   1.0000   1.0000   1.0000   1.0000   1.0000
     1.0000   1.0000   1.0000   1.0000   1.0000   1.0000   1.0000   1.0000
     1.0000   1.0000   1.0000   1.0000   1.0000   1.0000   1.0000   1.0000
     1.0000   1.0000   1.0000   1.0000   1.0000   1.0000   1.0000   1.0000
     1.0000   1.0000   1.0000   1.0000   1.0000   1.0000   1.0000   1.0000
     1.0000   1.0000   1.0000   1.0000   1.0000   1.0000   0.9999   0.9999
     0.9999   0.9998   0.9993   0.9990   0.9986   0.9984   0.9980   0.9977
     0.9973   0.9968   0.9966   0.9961   0.9954   0.9952   0.9948   0.9938
     0.9926   0.9914   0.9896   0.9877   0.9872   0.9855   0.9835   0.9797
     0.9776   0.9662   0.9573   0.9520   0.9476   0.9366   0.9236   0.9173
     0.9085   0.9030   0.8995   0.8657   0.8547   0.8236   0.7700   0.7480
     0.7397   0.7375   0.7298   0.7223   0.7156   0.7097   0.7060   0.7001
     0.6932   0.6869   0.6756   0.6724   0.6663   0.6562   0.6488   0.6440
     0.6259   0.4499   0.3952   0.3725   0.3367   0.3090   0.2098   0.1754
     0.0731   0.0394   0.0197   0.0071   0.0030   0.0003   0.0002   0.0002
     0.0001   0.0001   0.0000   0.0000   0.0000   0.0000   0.0000   0.0000
     0.0000   0.0000   0.0000   0.0000   0.0000   0.0000   0.0000   0.0000
     0.0000   0.0000   0.0000   0.0000   0.0000   0.0000   0.0000   0.0000

          k = 0.2500-0.5000 0.0000 ( 65138 PWs)   bands (ev):

   -92.7002 -92.6462 -92.5541 -92.5057 -92.4462 -92.4064 -92.3897 -92.2611
   -56.0536 -56.0329 -55.9115 -55.9009 -55.8942 -55.8877 -55.8516 -55.8233
   -55.8084 -55.8058 -55.7960 -55.7545 -55.7357 -55.6979 -55.6804 -55.6459
   -55.6415 -55.5951 -55.5918 -55.5888 -55.5834 -55.5318 -55.5200 -55.4310
   -31.2750 -31.2590 -31.1160 -31.0985 -31.0298 -31.0165 -30.9047 -30.7924
   -29.8470 -29.8062 -29.7808 -29.6726 -14.9815 -14.9361 -14.8679 -14.7546
   -14.7213 -14.6005 -14.5138 -14.3854 -14.0736 -14.0247 -13.9964 -13.9755
   -13.9591 -13.9438 -13.9102 -13.8947 -13.8612 -13.8195 -13.8022 -13.7694
   -13.6663 -13.6174 -13.5763 -13.5376 -13.4874 -13.4657 -13.3767 -13.3382
   -13.2061 -13.1415 -13.1219 -13.0416 -13.0220 -13.0000 -12.9843 -12.9640
   -12.9425 -12.9117 -12.8740 -12.8404 -12.8254 -12.7886 -12.7571 -12.7377
   -12.6547 -12.6234 -12.5207 -12.4428 -12.3199 -12.2886 -12.2200 -12.1898
   -11.7761 -11.7642 -11.7532 -11.7260 -11.6945 -11.6660 -11.6249 -11.5973
   -11.5752 -11.5300 -11.5042 -11.4930  -2.4517  -2.3853  -2.2564  -2.1790
    -2.0502  -1.9653  -1.8429  -1.6917  -1.6389  -1.6164  -1.5528  -1.5393
    -1.4432  -1.3764  -1.2908  -1.2423  -1.2328  -1.1684  -1.1271  -1.0918
    -1.0448  -1.0079  -0.9732  -0.9327  -0.9220  -0.8763  -0.8476  -0.8062
    -0.7756  -0.7074  -0.6066  -0.5669  -0.4892  -0.4252  -0.3780  -0.3335
    -0.3115  -0.2636  -0.0999  -0.0901   0.0164   0.0535   0.0622   0.1080
     0.1335   0.1731   0.2001   0.2742   0.5388   0.6303   0.7051   0.7635
     1.0260   1.0533   1.1411   1.1669   1.3344   1.3677   1.4105   1.4324
     1.4493   1.4697   1.5307   1.5768   1.6129   1.6943   1.7745   1.8157
     1.8407   1.8496   1.8844   1.8997   1.9055   1.9480   1.9624   1.9785
     2.0203   2.0312   2.0576   2.0896   2.1485   2.1834   2.2635   2.4044
     2.5558   2.5733   2.5915   2.6165   2.6416   2.6672   2.6913   2.7021
     2.7278   2.7905   2.8522   2.8791   2.8949   2.9105   2.9255   2.9332
     2.9482   2.9659   2.9732   3.0039   3.0173   3.0318   3.0414   3.0515
     3.0620   3.5882   3.6099   3.7433   3.7918   4.1347   4.1769   4.2074
     4.3133   4.7774   4.9184   5.0658   5.1251   5.3050   5.4332   5.6056
     5.6247   5.7657   5.7864   6.0938   6.4010   6.4924   6.6730   6.9552
     7.4388   7.5172   7.6260   7.7081   7.8151   7.8808   8.0436   8.1133
     8.2806   8.3718   8.4193   8.5234   8.5445   8.5507   8.7152   8.7700

     occupation numbers 
     1.0000   1.0000   1.0000   1.0000   1.0000   1.0000   1.0000   1.0000
     1.0000   1.0000   1.0000   1.0000   1.0000   1.0000   1.0000   1.0000
     1.0000   1.0000   1.0000   1.0000   1.0000   1.0000   1.0000   1.0000
     1.0000   1.0000   1.0000   1.0000   1.0000   1.0000   1.0000   1.0000
     1.0000   1.0000   1.0000   1.0000   1.0000   1.0000   1.0000   1.0000
     1.0000   1.0000   1.0000   1.0000   1.0000   1.0000   1.0000   1.0000
     1.0000   1.0000   1.0000   1.0000   1.0000   1.0000   1.0000   1.0000
     1.0000   1.0000   1.0000   1.0000   1.0000   1.0000   1.0000   1.0000
     1.0000   1.0000   1.0000   1.0000   1.0000   1.0000   1.0000   1.0000
     1.0000   1.0000   1.0000   1.0000   1.0000   1.0000   1.0000   1.0000
     1.0000   1.0000   1.0000   1.0000   1.0000   1.0000   1.0000   1.0000
     1.0000   1.0000   1.0000   1.0000   1.0000   1.0000   1.0000   1.0000
     1.0000   1.0000   1.0000   1.0000   1.0000   1.0000   1.0000   1.0000
     1.0000   1.0000   1.0000   1.0000   1.0000   1.0000   1.0000   1.0000
     1.0000   1.0000   1.0000   1.0000   1.0000   1.0000   1.0000   1.0000
     1.0000   1.0000   1.0000   1.0000   1.0000   1.0000   1.0000   1.0000
     1.0000   1.0000   1.0000   1.0000   1.0000   1.0000   1.0000   1.0000
     1.0000   1.0000   1.0000   1.0000   1.0000   1.0000   1.0000   1.0000
     1.0000   1.0000   1.0000   1.0000   1.0000   1.0000   1.0000   1.0000
     1.0000   1.0000   1.0000   1.0000   1.0000   1.0000   1.0000   0.9999
     0.9997   0.9996   0.9994   0.9993   0.9985   0.9982   0.9978   0.9976
     0.9974   0.9971   0.9962   0.9953   0.9945   0.9923   0.9894   0.9876
     0.9864   0.9859   0.9839   0.9830   0.9826   0.9797   0.9787   0.9774
     0.9739   0.9729   0.9703   0.9670   0.9600   0.9553   0.9429   0.9147
     0.8740   0.8686   0.8627   0.8544   0.8457   0.8365   0.8275   0.8234
     0.8134   0.7873   0.7598   0.7472   0.7396   0.7320   0.7246   0.7208
     0.7133   0.7043   0.7005   0.6845   0.6774   0.6696   0.6644   0.6589
     0.6532   0.3493   0.3374   0.2684   0.2452   0.1153   0.1036   0.0956
     0.0716   0.0157   0.0091   0.0049   0.0038   0.0017   0.0009   0.0004
     0.0003   0.0001   0.0001   0.0000   0.0000   0.0000   0.0000   0.0000
     0.0000   0.0000   0.0000   0.0000   0.0000   0.0000   0.0000   0.0000
     0.0000   0.0000   0.0000   0.0000   0.0000   0.0000   0.0000   0.0000

          k =-0.5000-0.5000 0.0000 ( 65132 PWs)   bands (ev):

   -92.7002 -92.6462 -92.5541 -92.5057 -92.4462 -92.4064 -92.3897 -92.2611
   -56.0536 -56.0329 -55.9115 -55.9009 -55.8942 -55.8877 -55.8516 -55.8233
   -55.8084 -55.8058 -55.7960 -55.7545 -55.7357 -55.6979 -55.6804 -55.6459
   -55.6415 -55.5951 -55.5918 -55.5888 -55.5834 -55.5318 -55.5200 -55.4310
   -31.2728 -31.2612 -31.1157 -31.0983 -31.0302 -31.0163 -30.9049 -30.7925
   -29.8460 -29.8072 -29.7804 -29.6730 -14.9357 -14.9087 -14.7915 -14.7800
   -14.6866 -14.6477 -14.6175 -14.4851 -13.9864 -13.9749 -13.9398 -13.9215
   -13.9036 -13.8929 -13.8609 -13.8504 -13.8370 -13.8293 -13.8135 -13.7347
   -13.7271 -13.7018 -13.6714 -13.6628 -13.5618 -13.5535 -13.4221 -13.3836
   -13.1572 -13.1192 -13.0498 -13.0251 -13.0038 -12.9943 -12.9837 -12.9750
   -12.9578 -12.9445 -12.8584 -12.8399 -12.8298 -12.8079 -12.7696 -12.7533
   -12.6046 -12.5965 -12.5371 -12.4221 -12.3163 -12.2577 -12.2139 -12.1949
   -11.7725 -11.7603 -11.7424 -11.7257 -11.6909 -11.6732 -11.6384 -11.5776
   -11.5574 -11.5522 -11.5019 -11.4988  -2.2281  -2.1520  -2.1422  -2.0675
    -2.0303  -1.9523  -1.8845  -1.7587  -1.6421  -1.6126  -1.5731  -1.5154
    -1.4436  -1.4297  -1.3583  -1.3148  -1.1992  -1.1713  -1.1227  -1.0920
    -1.0281  -0.9833  -0.9644  -0.9526  -0.8998  -0.8527  -0.8395  -0.7261
    -0.6687  -0.6223  -0.5721  -0.5460  -0.5347  -0.4989  -0.4577  -0.4238
    -0.4115  -0.3252  -0.2605  -0.2104  -0.1894  -0.1126  -0.0616  -0.0459
     0.0105   0.0369   0.0484   0.0669   0.5089   0.5455   0.6543   0.6716
     1.0596   1.0727   1.1041   1.1439   1.4191   1.4390   1.4457   1.4835
     1.6146   1.7105   1.7369   1.7720   1.7859   1.8144   1.8235   1.8556
     1.8628   1.8734   1.8882   1.9468   1.9478   1.9772   1.9851   2.0089
     2.0209   2.0586   2.0887   2.1006   2.1327   2.1623   2.2300   2.2939
     2.5688   2.5997   2.6185   2.6377   2.6493   2.6764   2.6808   2.6999
     2.7121   2.7272   2.7396   2.7601   2.7930   2.8297   2.8363   2.8570
     2.8699   2.8867   2.9007   2.9077   2.9440   3.0125   3.0166   3.0470
     3.0571   4.0239   4.0486   4.0571   4.0701   4.3231   4.4021   4.4190
     4.6593   4.7814   4.8647   4.9930   5.0754   5.1055   5.2054   5.2995
     5.3832   5.8534   5.8985   5.9585   6.0339   6.3636   6.4989   6.5830
     7.5972   7.8404   7.8742   7.8966   7.9153   7.9796   8.0159   8.0886
     8.2643   8.2864   8.5150   8.5758   8.5979   8.6232   8.6406   8.6627

     occupation numbers 
     1.0000   1.0000   1.0000   1.0000   1.0000   1.0000   1.0000   1.0000
     1.0000   1.0000   1.0000   1.0000   1.0000   1.0000   1.0000   1.0000
     1.0000   1.0000   1.0000   1.0000   1.0000   1.0000   1.0000   1.0000
     1.0000   1.0000   1.0000   1.0000   1.0000   1.0000   1.0000   1.0000
     1.0000   1.0000   1.0000   1.0000   1.0000   1.0000   1.0000   1.0000
     1.0000   1.0000   1.0000   1.0000   1.0000   1.0000   1.0000   1.0000
     1.0000   1.0000   1.0000   1.0000   1.0000   1.0000   1.0000   1.0000
     1.0000   1.0000   1.0000   1.0000   1.0000   1.0000   1.0000   1.0000
     1.0000   1.0000   1.0000   1.0000   1.0000   1.0000   1.0000   1.0000
     1.0000   1.0000   1.0000   1.0000   1.0000   1.0000   1.0000   1.0000
     1.0000   1.0000   1.0000   1.0000   1.0000   1.0000   1.0000   1.0000
     1.0000   1.0000   1.0000   1.0000   1.0000   1.0000   1.0000   1.0000
     1.0000   1.0000   1.0000   1.0000   1.0000   1.0000   1.0000   1.0000
     1.0000   1.0000   1.0000   1.0000   1.0000   1.0000   1.0000   1.0000
     1.0000   1.0000   1.0000   1.0000   1.0000   1.0000   1.0000   1.0000
     1.0000   1.0000   1.0000   1.0000   1.0000   1.0000   1.0000   1.0000
     1.0000   1.0000   1.0000   1.0000   1.0000   1.0000   1.0000   1.0000
     1.0000   1.0000   1.0000   1.0000   1.0000   1.0000   1.0000   1.0000
     1.0000   1.0000   1.0000   1.0000   1.0000   1.0000   1.0000   1.0000
     1.0000   1.0000   1.0000   1.0000   1.0000   1.0000   1.0000   1.0000
     0.9996   0.9996   0.9995   0.9994   0.9977   0.9975   0.9974   0.9969
     0.9945   0.9918   0.9909   0.9895   0.9890   0.9877   0.9872   0.9856
     0.9852   0.9846   0.9837   0.9798   0.9797   0.9775   0.9769   0.9749
     0.9738   0.9702   0.9671   0.9657   0.9620   0.9582   0.9484   0.9376
     0.8700   0.8601   0.8537   0.8471   0.8430   0.8331   0.8315   0.8242
     0.8195   0.8136   0.8086   0.8002   0.7863   0.7700   0.7670   0.7575
     0.7515   0.7436   0.7368   0.7334   0.7154   0.6799   0.6778   0.6614
     0.6559   0.1505   0.1421   0.1393   0.1350   0.0696   0.0553   0.0525
     0.0240   0.0154   0.0112   0.0067   0.0047   0.0041   0.0026   0.0017
     0.0011   0.0001   0.0001   0.0000   0.0000   0.0000   0.0000   0.0000
     0.0000   0.0000   0.0000   0.0000   0.0000   0.0000   0.0000   0.0000
     0.0000   0.0000   0.0000   0.0000   0.0000   0.0000   0.0000   0.0000

          k = 0.2500 0.0000 0.0000 ( 65257 PWs)   bands (ev):

   -92.7002 -92.6462 -92.5541 -92.5057 -92.4462 -92.4064 -92.3897 -92.2611
   -56.0536 -56.0329 -55.9115 -55.9009 -55.8942 -55.8877 -55.8516 -55.8233
   -55.8084 -55.8058 -55.7960 -55.7545 -55.7357 -55.6979 -55.6804 -55.6459
   -55.6415 -55.5952 -55.5918 -55.5888 -55.5834 -55.5318 -55.5200 -55.4310
   -31.2754 -31.2593 -31.1156 -31.0992 -31.0295 -31.0157 -30.9053 -30.7918
   -29.8482 -29.8068 -29.7796 -29.6719 -15.0482 -15.0133 -14.9394 -14.7918
   -14.6903 -14.4965 -14.3572 -14.1801 -14.1613 -14.1315 -14.1015 -14.0763
   -14.0462 -14.0294 -14.0098 -13.9727 -13.8418 -13.8124 -13.6594 -13.5976
   -13.5867 -13.5253 -13.4932 -13.4846 -13.4369 -13.3466 -13.3121 -13.2482
   -13.1809 -13.1579 -13.1060 -13.0598 -13.0442 -13.0274 -13.0114 -12.9778
   -12.9544 -12.9359 -12.9012 -12.8866 -12.8222 -12.8192 -12.7705 -12.7398
[...]
     0.7424   0.7308   0.7180   0.7152   0.7044   0.6988   0.6912   0.6805
     0.6778   0.6624   0.6587   0.6538   0.6472   0.6354   0.6210   0.6197
     0.6154   0.6099   0.6056   0.5992   0.5281   0.3499   0.3100   0.2052
     0.0780   0.0472   0.0221   0.0056   0.0050   0.0003   0.0001   0.0001
     0.0000   0.0000   0.0000   0.0000   0.0000   0.0000   0.0000   0.0000
     0.0000   0.0000   0.0000   0.0000   0.0000   0.0000   0.0000   0.0000
     0.0000   0.0000   0.0000   0.0000   0.0000   0.0000   0.0000   0.0000

          k =-0.5000 0.0000 0.0000 ( 65180 PWs)   bands (ev):

   -92.7002 -92.6462 -92.5541 -92.5057 -92.4462 -92.4064 -92.3897 -92.2611
   -56.0536 -56.0329 -55.9115 -55.9009 -55.8942 -55.8877 -55.8516 -55.8233
   -55.8084 -55.8058 -55.7960 -55.7545 -55.7357 -55.6979 -55.6804 -55.6459
   -55.6415 -55.5951 -55.5918 -55.5888 -55.5834 -55.5318 -55.5200 -55.4310
   -31.2732 -31.2615 -31.1153 -31.0990 -31.0299 -31.0156 -30.9054 -30.7919
   -29.8472 -29.8078 -29.7792 -29.6724 -15.0159 -14.9668 -14.9041 -14.7975
   -14.6906 -14.5461 -14.4055 -14.2634 -14.1332 -14.1265 -14.1078 -14.0556
   -13.9932 -13.9615 -13.9144 -13.9102 -13.8921 -13.8386 -13.8274 -13.7291
   -13.5546 -13.5361 -13.4948 -13.4871 -13.4464 -13.3641 -13.3291 -13.2673
   -13.2441 -13.2426 -13.0913 -13.0537 -13.0422 -13.0194 -13.0095 -13.0028
   -12.9460 -12.9271 -12.9016 -12.8874 -12.8098 -12.7399 -12.7099 -12.6970
   -12.6396 -12.6302 -12.5402 -12.4945 -12.3505 -12.3262 -12.2141 -12.1770
   -11.7795 -11.7582 -11.7513 -11.7366 -11.7187 -11.6775 -11.6142 -11.5967
   -11.5641 -11.5194 -11.5100 -11.4943  -2.5830  -2.5440  -2.3799  -2.3409
    -2.0286  -1.9531  -1.8044  -1.6870  -1.6480  -1.6007  -1.5536  -1.5282
    -1.4061  -1.3611  -1.3467  -1.2636  -1.2281  -1.2145  -1.1811  -1.1250
    -1.0559  -1.0255  -0.9988  -0.9048  -0.8554  -0.8071  -0.7740  -0.7527
    -0.7231  -0.6745  -0.6502  -0.6133  -0.5160  -0.4428  -0.3787  -0.3156
    -0.1614  -0.1122  -0.0572  -0.0292   0.0262   0.0538   0.1855   0.2214
     0.2665   0.4396   0.5384   0.5839   0.6651   0.7262   0.8558   0.8668
     0.9992   1.0282   1.0826   1.1098   1.1488   1.1589   1.2043   1.2297
     1.2935   1.3438   1.3909   1.3993   1.6923   1.6991   1.7139   1.7360
     1.8502   1.8637   1.8716   1.8855   1.9182   1.9312   1.9664   1.9958
     2.0127   2.0774   2.0861   2.1405   2.1593   2.2177   2.3331   2.4210
     2.5002   2.5143   2.6003   2.6269   2.6526   2.7104   2.7296   2.7384
     2.7669   2.7975   2.8612   2.8984   2.9252   2.9535   3.0024   3.0039
     3.0113   3.0203   3.0327   3.0438   3.0576   3.0658   3.0839   3.0926
     3.1094   3.1298   3.1341   3.2614   3.2786   4.1095   4.1310   4.1811
     4.3105   4.7910   4.8591   5.0456   5.0550   5.4969   5.5097   5.5974
     5.6434   6.0212   6.0297   6.0701   6.5935   6.8007   7.0115   7.2808
     7.3071   7.3534   7.4018   7.4561   7.5709   7.7765   7.8506   7.8894
     8.1182   8.2886   8.3104   8.5156   8.6316   8.7103   8.7630   8.8176

     occupation numbers 
     1.0000   1.0000   1.0000   1.0000   1.0000   1.0000   1.0000   1.0000
     1.0000   1.0000   1.0000   1.0000   1.0000   1.0000   1.0000   1.0000
     1.0000   1.0000   1.0000   1.0000   1.0000   1.0000   1.0000   1.0000
     1.0000   1.0000   1.0000   1.0000   1.0000   1.0000   1.0000   1.0000
     1.0000   1.0000   1.0000   1.0000   1.0000   1.0000   1.0000   1.0000
     1.0000   1.0000   1.0000   1.0000   1.0000   1.0000   1.0000   1.0000
     1.0000   1.0000   1.0000   1.0000   1.0000   1.0000   1.0000   1.0000
     1.0000   1.0000   1.0000   1.0000   1.0000   1.0000   1.0000   1.0000
     1.0000   1.0000   1.0000   1.0000   1.0000   1.0000   1.0000   1.0000
     1.0000   1.0000   1.0000   1.0000   1.0000   1.0000   1.0000   1.0000
     1.0000   1.0000   1.0000   1.0000   1.0000   1.0000   1.0000   1.0000
     1.0000   1.0000   1.0000   1.0000   1.0000   1.0000   1.0000   1.0000
     1.0000   1.0000   1.0000   1.0000   1.0000   1.0000   1.0000   1.0000
     1.0000   1.0000   1.0000   1.0000   1.0000   1.0000   1.0000   1.0000
     1.0000   1.0000   1.0000   1.0000   1.0000   1.0000   1.0000   1.0000
     1.0000   1.0000   1.0000   1.0000   1.0000   1.0000   1.0000   1.0000
     1.0000   1.0000   1.0000   1.0000   1.0000   1.0000   1.0000   1.0000
     1.0000   1.0000   1.0000   1.0000   1.0000   1.0000   1.0000   1.0000
     1.0000   1.0000   1.0000   1.0000   1.0000   1.0000   1.0000   1.0000
     1.0000   1.0000   1.0000   1.0000   1.0000   0.9999   0.9999   0.9999
     0.9997   0.9997   0.9996   0.9995   0.9994   0.9994   0.9992   0.9991
     0.9987   0.9984   0.9980   0.9979   0.9924   0.9922   0.9917   0.9909
     0.9859   0.9851   0.9847   0.9839   0.9818   0.9809   0.9784   0.9760
     0.9745   0.9683   0.9674   0.9610   0.9586   0.9503   0.9301   0.9108
     0.8903   0.8863   0.8598   0.8508   0.8418   0.8202   0.8126   0.8091
     0.7973   0.7843   0.7556   0.7379   0.7248   0.7106   0.6853   0.6845
     0.6806   0.6758   0.6692   0.6632   0.6556   0.6511   0.6411   0.6363
     0.6269   0.6154   0.6129   0.5390   0.5289   0.1228   0.1164   0.1025
     0.0722   0.0149   0.0115   0.0054   0.0052   0.0006   0.0006   0.0004
     0.0003   0.0000   0.0000   0.0000   0.0000   0.0000   0.0000   0.0000
     0.0000   0.0000   0.0000   0.0000   0.0000   0.0000   0.0000   0.0000
     0.0000   0.0000   0.0000   0.0000   0.0000   0.0000   0.0000   0.0000

          k =-0.2500 0.2500 0.0000 ( 65198 PWs)   bands (ev):

   -92.7002 -92.6462 -92.5541 -92.5057 -92.4462 -92.4064 -92.3897 -92.2611
   -56.0536 -56.0329 -55.9115 -55.9009 -55.8942 -55.8877 -55.8516 -55.8233
   -55.8084 -55.8058 -55.7960 -55.7545 -55.7357 -55.6979 -55.6804 -55.6459
   -55.6415 -55.5951 -55.5918 -55.5888 -55.5834 -55.5318 -55.5200 -55.4310
   -31.2752 -31.2592 -31.1158 -31.0988 -31.0296 -31.0161 -30.9050 -30.7921
   -29.8476 -29.8065 -29.7802 -29.6723 -15.0178 -14.9809 -14.9048 -14.7867
   -14.6797 -14.5533 -14.4636 -14.2608 -14.1170 -14.0869 -14.0754 -14.0287
   -14.0045 -13.9866 -13.9749 -13.9310 -13.8384 -13.8273 -13.6726 -13.6480
   -13.6206 -13.5981 -13.5617 -13.4984 -13.4587 -13.4350 -13.3306 -13.2833
   -13.2230 -13.1461 -13.1039 -13.0493 -13.0392 -13.0102 -12.9888 -12.9580
   -12.9338 -12.9275 -12.9108 -12.8515 -12.8330 -12.7836 -12.7694 -12.7357
   -12.7135 -12.6908 -12.5295 -12.4475 -12.4412 -12.2821 -12.1548 -12.1033
   -11.7998 -11.7781 -11.7511 -11.7388 -11.6980 -11.6631 -11.6402 -11.6186
   -11.5961 -11.5117 -11.4661 -11.4564  -2.6679  -2.4589  -2.3377  -2.2507
    -2.1313  -2.0644  -1.8626  -1.7166  -1.6972  -1.6694  -1.5773  -1.5390
    -1.4488  -1.4149  -1.3889  -1.2455  -1.1903  -1.1224  -1.0941  -1.0341
    -1.0117  -0.9713  -0.9424  -0.9027  -0.8399  -0.7929  -0.7310  -0.6618
    -0.6373  -0.5847  -0.5561  -0.5111  -0.4539  -0.4120  -0.3666  -0.2698
    -0.2352  -0.2270  -0.1795  -0.1140  -0.0488  -0.0007   0.0309   0.0960
     0.1362   0.3867   0.5537   0.5970   0.6334   0.6901   0.7416   0.7992
     0.8647   0.8933   1.1765   1.2879   1.3270   1.3602   1.3672   1.4092
     1.4265   1.4706   1.5012   1.5171   1.5431   1.5842   1.5979   1.6455
     1.6616   1.7073   1.7822   1.8049   1.8232   1.8623   1.8886   1.9281
     1.9829   2.0865   2.1967   2.2319   2.2792   2.2983   2.3621   2.4055
     2.4317   2.4530   2.4775   2.5836   2.6139   2.7021   2.8305   2.8829
     2.8914   2.9063   2.9159   2.9253   2.9389   2.9457   2.9633   2.9735
     2.9872   2.9986   3.0099   3.0205   3.0316   3.0583   3.0696   3.0784
     3.1128   3.4055   3.4883   3.5483   3.6232   3.6617   3.8583   3.9644
     4.3057   4.5083   4.7156   4.9893   5.1752   5.6440   5.6913   5.7459
     5.8313   5.8953   6.0229   6.1895   6.2018   6.7122   6.9026   7.0600
     7.1257   7.5691   7.6116   7.6431   7.6774   7.8776   7.9039   8.1351
     8.1413   8.1848   8.2988   8.3424   8.4194   8.4534   8.5209   8.8393

     occupation numbers 
     1.0000   1.0000   1.0000   1.0000   1.0000   1.0000   1.0000   1.0000
     1.0000   1.0000   1.0000   1.0000   1.0000   1.0000   1.0000   1.0000
     1.0000   1.0000   1.0000   1.0000   1.0000   1.0000   1.0000   1.0000
     1.0000   1.0000   1.0000   1.0000   1.0000   1.0000   1.0000   1.0000
     1.0000   1.0000   1.0000   1.0000   1.0000   1.0000   1.0000   1.0000
     1.0000   1.0000   1.0000   1.0000   1.0000   1.0000   1.0000   1.0000
     1.0000   1.0000   1.0000   1.0000   1.0000   1.0000   1.0000   1.0000
     1.0000   1.0000   1.0000   1.0000   1.0000   1.0000   1.0000   1.0000
     1.0000   1.0000   1.0000   1.0000   1.0000   1.0000   1.0000   1.0000
     1.0000   1.0000   1.0000   1.0000   1.0000   1.0000   1.0000   1.0000
     1.0000   1.0000   1.0000   1.0000   1.0000   1.0000   1.0000   1.0000
     1.0000   1.0000   1.0000   1.0000   1.0000   1.0000   1.0000   1.0000
     1.0000   1.0000   1.0000   1.0000   1.0000   1.0000   1.0000   1.0000
     1.0000   1.0000   1.0000   1.0000   1.0000   1.0000   1.0000   1.0000
     1.0000   1.0000   1.0000   1.0000   1.0000   1.0000   1.0000   1.0000
     1.0000   1.0000   1.0000   1.0000   1.0000   1.0000   1.0000   1.0000
     1.0000   1.0000   1.0000   1.0000   1.0000   1.0000   1.0000   1.0000
     1.0000   1.0000   1.0000   1.0000   1.0000   1.0000   1.0000   1.0000
     1.0000   1.0000   1.0000   1.0000   1.0000   1.0000   1.0000   1.0000
     1.0000   1.0000   1.0000   1.0000   1.0000   1.0000   0.9999   0.9999
     0.9999   0.9998   0.9993   0.9988   0.9985   0.9983   0.9982   0.9978
     0.9976   0.9971   0.9967   0.9964   0.9960   0.9952   0.9949   0.9937
     0.9933   0.9919   0.9891   0.9881   0.9872   0.9852   0.9837   0.9811
     0.9771   0.9673   0.9534   0.9481   0.9402   0.9368   0.9241   0.9145
     0.9082   0.9029   0.8965   0.8653   0.8553   0.8234   0.7697   0.7453
     0.7413   0.7341   0.7294   0.7248   0.7180   0.7146   0.7056   0.7004
     0.6932   0.6873   0.6813   0.6757   0.6698   0.6552   0.6490   0.6442
     0.6250   0.4538   0.4055   0.3714   0.3302   0.3098   0.2152   0.1721
     0.0732   0.0397   0.0196   0.0068   0.0030   0.0003   0.0002   0.0002
     0.0001   0.0001   0.0000   0.0000   0.0000   0.0000   0.0000   0.0000
     0.0000   0.0000   0.0000   0.0000   0.0000   0.0000   0.0000   0.0000
     0.0000   0.0000   0.0000   0.0000   0.0000   0.0000   0.0000   0.0000

          k =-0.5000 0.2500 0.0000 ( 65138 PWs)   bands (ev):

   -92.7002 -92.6462 -92.5541 -92.5057 -92.4462 -92.4064 -92.3897 -92.2611
   -56.0536 -56.0329 -55.9115 -55.9009 -55.8942 -55.8877 -55.8516 -55.8233
   -55.8084 -55.8058 -55.7960 -55.7545 -55.7357 -55.6979 -55.6804 -55.6459
   -55.6415 -55.5951 -55.5918 -55.5888 -55.5834 -55.5318 -55.5200 -55.4310
   -31.2730 -31.2613 -31.1155 -31.0987 -31.0300 -31.0160 -30.9052 -30.7922
   -29.8466 -29.8075 -29.7798 -29.6727 -14.9834 -14.9401 -14.8612 -14.7632
   -14.7199 -14.5927 -14.5090 -14.3798 -14.0676 -14.0375 -14.0256 -13.9813
   -13.9624 -13.9340 -13.9002 -13.8956 -13.8698 -13.8305 -13.8186 -13.7180
   -13.6377 -13.5947 -13.5875 -13.5755 -13.5029 -13.4683 -13.3724 -13.3195
   -13.1996 -13.1639 -13.0690 -13.0431 -13.0252 -13.0151 -12.9903 -12.9615
   -12.9472 -12.9382 -12.9190 -12.8458 -12.8225 -12.7705 -12.7377 -12.7250
   -12.6217 -12.6137 -12.5384 -12.4549 -12.3217 -12.3074 -12.2091 -12.1857
   -11.7723 -11.7596 -11.7455 -11.7336 -11.7124 -11.6822 -11.6014 -11.5928
   -11.5695 -11.5338 -11.5056 -11.4967  -2.4409  -2.3984  -2.2497  -2.2078
    -2.0478  -1.9716  -1.8287  -1.6931  -1.6365  -1.6083  -1.5700  -1.5306
    -1.4508  -1.3357  -1.2786  -1.2552  -1.2301  -1.1546  -1.1246  -1.0876
    -1.0687  -1.0083  -0.9805  -0.9403  -0.9049  -0.8764  -0.8187  -0.7924
    -0.7508  -0.7160  -0.6119  -0.5862  -0.4991  -0.4358  -0.4044  -0.3485
    -0.2617  -0.2311  -0.1289  -0.0969  -0.0327   0.0112   0.0374   0.1155
     0.1466   0.1789   0.2313   0.2679   0.5777   0.6259   0.7029   0.7181
     1.0082   1.0694   1.1421   1.1678   1.3476   1.3839   1.4210   1.4345
     1.4520   1.4701   1.5389   1.5818   1.6204   1.6493   1.7604   1.7994
     1.8404   1.8519   1.8830   1.9106   1.9259   1.9409   1.9612   1.9846
     2.0278   2.0505   2.0834   2.1065   2.1339   2.1982   2.3195   2.4167
     2.4449   2.5132   2.5533   2.6175   2.6499   2.6588   2.6929   2.7282
     2.7508   2.7906   2.8612   2.8903   2.8952   2.9081   2.9182   2.9429
     2.9537   2.9689   2.9814   3.0015   3.0149   3.0254   3.0343   3.0446
     3.0583   3.5968   3.6166   3.7791   3.7952   4.1088   4.1471   4.1972
     4.3988   4.7858   4.8774   5.0473   5.0787   5.4027   5.4319   5.5844
     5.6319   5.7447   5.7802   6.1689   6.3948   6.4482   6.5477   7.0617
     7.4387   7.5197   7.5811   7.7190   7.8004   7.8922   8.0271   8.1128
     8.3373   8.3850   8.4293   8.5023   8.5452   8.5804   8.6705   8.7485

     occupation numbers 
     1.0000   1.0000   1.0000   1.0000   1.0000   1.0000   1.0000   1.0000
     1.0000   1.0000   1.0000   1.0000   1.0000   1.0000   1.0000   1.0000
     1.0000   1.0000   1.0000   1.0000   1.0000   1.0000   1.0000   1.0000
     1.0000   1.0000   1.0000   1.0000   1.0000   1.0000   1.0000   1.0000
     1.0000   1.0000   1.0000   1.0000   1.0000   1.0000   1.0000   1.0000
     1.0000   1.0000   1.0000   1.0000   1.0000   1.0000   1.0000   1.0000
     1.0000   1.0000   1.0000   1.0000   1.0000   1.0000   1.0000   1.0000
     1.0000   1.0000   1.0000   1.0000   1.0000   1.0000   1.0000   1.0000
     1.0000   1.0000   1.0000   1.0000   1.0000   1.0000   1.0000   1.0000
     1.0000   1.0000   1.0000   1.0000   1.0000   1.0000   1.0000   1.0000
     1.0000   1.0000   1.0000   1.0000   1.0000   1.0000   1.0000   1.0000
     1.0000   1.0000   1.0000   1.0000   1.0000   1.0000   1.0000   1.0000
     1.0000   1.0000   1.0000   1.0000   1.0000   1.0000   1.0000   1.0000
     1.0000   1.0000   1.0000   1.0000   1.0000   1.0000   1.0000   1.0000
     1.0000   1.0000   1.0000   1.0000   1.0000   1.0000   1.0000   1.0000
     1.0000   1.0000   1.0000   1.0000   1.0000   1.0000   1.0000   1.0000
     1.0000   1.0000   1.0000   1.0000   1.0000   1.0000   1.0000   1.0000
     1.0000   1.0000   1.0000   1.0000   1.0000   1.0000   1.0000   1.0000
     1.0000   1.0000   1.0000   1.0000   1.0000   1.0000   1.0000   1.0000
     1.0000   1.0000   1.0000   1.0000   1.0000   1.0000   1.0000   0.9999
     0.9997   0.9996   0.9994   0.9993   0.9984   0.9980   0.9977   0.9975
     0.9973   0.9971   0.9960   0.9952   0.9944   0.9936   0.9900   0.9884
     0.9864   0.9858   0.9840   0.9823   0.9813   0.9802   0.9787   0.9769
     0.9732   0.9710   0.9676   0.9651   0.9618   0.9532   0.9327   0.9119
     0.9050   0.8867   0.8748   0.8541   0.8428   0.8396   0.8269   0.8132
     0.8040   0.7873   0.7556   0.7418   0.7395   0.7332   0.7283   0.7160
     0.7105   0.7027   0.6963   0.6857   0.6787   0.6731   0.6683   0.6627
     0.6552   0.3446   0.3338   0.2512   0.2436   0.1229   0.1117   0.0982
     0.0558   0.0152   0.0107   0.0053   0.0047   0.0010   0.0009   0.0004
     0.0003   0.0002   0.0001   0.0000   0.0000   0.0000   0.0000   0.0000
     0.0000   0.0000   0.0000   0.0000   0.0000   0.0000   0.0000   0.0000
     0.0000   0.0000   0.0000   0.0000   0.0000   0.0000   0.0000   0.0000

     the Fermi energy is     3.3274 ev

!    total energy              =   -4399.90923097 Ry
     estimated scf accuracy    <          9.0E-09 Ry
     smearing contrib. (-TS)   =      -1.14479890 Ry
     internal energy E=F+TS    =   -4398.76443206 Ry

     The total energy is F=E-TS. E is the sum of the following terms:
     one-electron contribution =  -21253.19664895 Ry
     hartree contribution      =   10754.68166901 Ry
     xc contribution           =    -686.72723428 Ry
     ewald contribution        =    7053.12311497 Ry
     one-center paw contrib.   =    -266.64533282 Ry
      -> PAW hartree energy AE =      25.18364420 Ry
      -> PAW hartree energy PS =     -25.06734587 Ry
      -> PAW xc energy AE      =     -16.52039606 Ry
      -> PAW xc energy PS      =       6.88001520 Ry
      -> total E_H with PAW    =   10754.79796734 Ry
      -> total E_XC with PAW   =    -696.36761513 Ry

     convergence has been achieved in  48 iterations

     Writing all to output data dir /bsuhome/zayahcortright/scratch/pwscf.save/
 
     init_run     :      7.43s CPU      8.02s WALL (       1 calls)
     electrons    :    689.02s CPU    701.39s WALL (       1 calls)

     Called by init_run:
     wfcinit      :      5.92s CPU      6.06s WALL (       1 calls)
     wfcinit:atom :      0.06s CPU      0.08s WALL (       5 calls)
     wfcinit:wfcr :      5.56s CPU      5.65s WALL (       5 calls)
     potinit      :      0.21s CPU      0.23s WALL (       1 calls)
     hinit0       :      0.40s CPU      0.76s WALL (       1 calls)

     Called by electrons:
     c_bands      :    544.96s CPU    549.91s WALL (      48 calls)
     sum_band     :    108.05s CPU    112.37s WALL (      48 calls)
     v_of_rho     :      5.33s CPU      5.57s WALL (      49 calls)
     v_h          :      0.45s CPU      0.46s WALL (      49 calls)
     v_xc         :      4.88s CPU      5.12s WALL (      49 calls)
     newd         :     16.47s CPU     18.87s WALL (      49 calls)
     PAW_pot      :      1.60s CPU      1.62s WALL (      49 calls)
     mix_rho      :     12.37s CPU     12.62s WALL (      48 calls)

     Called by c_bands:
     init_us_2    :      6.78s CPU      6.82s WALL (     485 calls)
     init_us_2:cp :      6.77s CPU      6.82s WALL (     485 calls)
     cegterg      :    514.99s CPU    519.76s WALL (     240 calls)

     Called by sum_band:
     sum_band:wei :      0.33s CPU      0.34s WALL (      48 calls)
     sum_band:loo :     88.85s CPU     89.54s WALL (      48 calls)
     sum_band:buf :      1.36s CPU      1.38s WALL (     240 calls)
     sum_band:ini :      3.20s CPU      3.21s WALL (     240 calls)
     sum_band:cal :     17.89s CPU     17.94s WALL (     240 calls)
     sum_band:bec :      0.50s CPU      0.50s WALL (     240 calls)
     addusdens    :     17.85s CPU     21.45s WALL (      48 calls)
                                        0.00s GPU  (      48 calls)
     addusd:skk   :      0.32s CPU      0.65s WALL (     192 calls)
                                        0.00s GPU  (     192 calls)

     Called by *egterg:
     cdiaghg      :     54.85s CPU     55.09s WALL (    1335 calls)
     cegterg:over :     36.82s CPU     36.94s WALL (    1095 calls)
     cegterg:upda :     27.71s CPU     28.06s WALL (    1095 calls)
     cegterg:last :     54.47s CPU     54.69s WALL (     431 calls)
     cdiaghg:chol :      3.24s CPU      3.26s WALL (    1335 calls)
     cdiaghg:inve :      3.34s CPU      3.35s WALL (    1335 calls)
     cdiaghg:para :      7.03s CPU      7.07s WALL (    2670 calls)
     h_psi        :    287.39s CPU    290.14s WALL (    1340 calls)
     s_psi        :     38.80s CPU     38.92s WALL (    1340 calls)
     g_psi        :      1.16s CPU      1.16s WALL (    1095 calls)

     Called by h_psi:
     h_psi:calbec :     41.81s CPU     41.94s WALL (    1340 calls)
     vloc_psi     :    203.79s CPU    205.88s WALL (    1340 calls)
     add_vuspsi   :     38.56s CPU     38.69s WALL (    1340 calls)

     General routines
     calbec       :     59.69s CPU     59.88s WALL (    1580 calls)
     fft          :      3.51s CPU      3.56s WALL (     635 calls)
     ffts         :      4.46s CPU      4.50s WALL (    5022 calls)
     fftw         :    172.58s CPU    173.96s WALL (  322320 calls)
     interpolate  :      0.40s CPU      0.41s WALL (      49 calls)
 
     Parallel routines

     PAW routines
     PAW_pot      :      1.60s CPU      1.62s WALL (      49 calls)
 
     PWSCF        :  11m38.06s CPU  11m54.35s WALL

 
   This run was terminated on:  12: 8:40  21Jun2024            

=------------------------------------------------------------------------------=
   JOB DONE.
=------------------------------------------------------------------------------=
