
     Program PWSCF v.7.2 starts on 21Jun2024 at 21: 2: 5 

     This program is part of the open-source Quantum ESPRESSO suite
     for quantum simulation of materials; please cite
         "P. Giannozzi et al., J. Phys.:Condens. Matter 21 395502 (2009);
         "P. Giannozzi et al., J. Phys.:Condens. Matter 29 465901 (2017);
         "P. Giannozzi et al., J. Chem. Phys. 152 154105 (2020);
          URL http://www.quantum-espresso.org", 
     in publications or presentations arising from this work. More details at
     http://www.quantum-espresso.org/quote

     Parallel version (MPI & OpenMP), running on      48 processor cores
     Number of MPI processes:                48
     Threads/MPI process:                     1

     MPI processes distributed on     1 nodes
     180156 MiB available memory on the printing compute node when the environment starts
 
     Reading input from espresso.pwi
Warning: card &CELL ignored
Warning: card / ignored
Warning: card &FCP ignored
Warning: card / ignored
Warning: card &RISM ignored
Warning: card / ignored

     Current dimensions of program PWSCF are:
     Max number of different atomic species (ntypx) = 10
     Max number of k-points (npk) =  40000
     Max angular momentum in pseudopotentials (lmaxx) =  4
     file O.pbe-n-kjpaw_psl.0.1.UPF: wavefunction(s)  2P renormalized
     signal trapping enabled: kill the code with -SIGUSR1 to stop cleanly the simulation 
 
     K-points division:     npool     =       2
     R & G space division:  proc/nbgrp/npool/nimage =      24
     Subspace diagonalization in iterative solution of the eigenvalue problem:
     one sub-group per band group will be used
     scalapack distributed-memory algorithm (size of sub-group:  3*  3 procs)

 
     Parallelization info
     --------------------
     sticks:   dense  smooth     PW     G-vecs:    dense   smooth      PW
     Min         350     175     47                61430    21716    3036
     Max         351     177     48                61449    21727    3041
     Sum        8421    4205   1137              1474595   521381   72913
 
     Using Slab Decomposition
 


     bravais-lattice index     =            0
     lattice parameter (alat)  =      14.8599  a.u.
     unit-cell volume          =    8305.1283 (a.u.)^3
     number of atoms/cell      =           49
     number of atomic types    =            4
     number of electrons       =       425.00
     number of Kohn-Sham states=          256
     kinetic-energy cutoff     =      60.0000  Ry
     charge density cutoff     =     480.0000  Ry
     scf convergence threshold =      1.0E-08
     mixing beta               =       0.1500
     number of iterations used =            8  local-TF  mixing
     Exchange-correlation= PBE
                           (   1   4   3   4   0   0   0)

     celldm(1)=  14.859904  celldm(2)=   0.000000  celldm(3)=   0.000000
     celldm(4)=   0.000000  celldm(5)=   0.000000  celldm(6)=   0.000000

     crystal axes: (cart. coord. in units of alat)
               a(1) = (   1.000000   0.000000   0.000000 )  
               a(2) = (   0.000000   1.000000   0.000000 )  
               a(3) = (   0.000000   0.000000   2.531036 )  

     reciprocal axes: (cart. coord. in units 2 pi/alat)
               b(1) = (  1.000000  0.000000  0.000000 )  
               b(2) = (  0.000000  1.000000  0.000000 )  
               b(3) = (  0.000000  0.000000  0.395095 )  


     PseudoPot. # 1 for Sr read from file:
     /bsuhome/zayahcortright/q-e/pseudo/Sr_pbe_v1.uspp.F.UPF
     MD5 check sum: 6b418c05fbe9db5448babca5e47b7a5b
     Pseudo is Ultrasoft + core correction, Zval = 10.0
     Generated by new atomic code, or converted to UPF format
     Using radial grid of  883 points,  6 beta functions with: 
                l(1) =   0
                l(2) =   0
                l(3) =   1
                l(4) =   1
                l(5) =   2
                l(6) =   2
     Q(r) pseudized with  6 coefficients,  rinner =    1.400   1.400   1.400
                                                       1.400   1.400

     PseudoPot. # 2 for O  read from file:
     /bsuhome/zayahcortright/q-e/pseudo/O.pbe-n-kjpaw_psl.0.1.UPF
     MD5 check sum: 0234752ac141de4415c5fc33072bef88
     Pseudo is Projector augmented-wave + core cor, Zval =  6.0
     Generated using "atomic" code by A. Dal Corso  v.5.0.99 svn rev. 10869
     Shape of augmentation charge: BESSEL
     Using radial grid of 1095 points,  4 beta functions with: 
                l(1) =   0
                l(2) =   0
                l(3) =   1
                l(4) =   1
     Q(r) pseudized with 0 coefficients 


     PseudoPot. # 3 for Co read from file:
     /bsuhome/zayahcortright/q-e/pseudo/Co_pbe_v1.2.uspp.F.UPF
     MD5 check sum: 5f91765df6ddd3222702df6e7b74a16d
     Pseudo is Ultrasoft + core correction, Zval = 17.0
     Generated by new atomic code, or converted to UPF format
     Using radial grid of  863 points,  6 beta functions with: 
                l(1) =   0
                l(2) =   0
                l(3) =   1
                l(4) =   1
                l(5) =   2
                l(6) =   2
     Q(r) pseudized with  8 coefficients,  rinner =    1.200   1.200   1.200
                                                       1.200   1.200

     PseudoPot. # 4 for H  read from file:
     /bsuhome/zayahcortright/q-e/pseudo/H.pbe-rrkjus_psl.1.0.0.UPF
     MD5 check sum: f52b6d4d1c606e5624b1dc7b2218f220
     Pseudo is Ultrasoft, Zval =  1.0
     Generated using "atomic" code by A. Dal Corso  v.5.1
     Using radial grid of  929 points,  2 beta functions with: 
                l(1) =   0
                l(2) =   0
     Q(r) pseudized with 0 coefficients 


     atomic species   valence    mass     pseudopotential
        Sr            10.00    87.62000     Sr( 1.00)
        O              6.00    15.99900     O ( 1.00)
        Co            17.00    58.93319     Co( 1.00)
        H              1.00     1.00800     H ( 1.00)

     No symmetry found


                                    s                        frac. trans.

      isym =  1     identity                                     

 cryst.   s( 1) = (     1          0          0      )
                  (     0          1          0      )
                  (     0          0          1      )

 cart.    s( 1) = (  1.0000000  0.0000000  0.0000000 )
                  (  0.0000000  1.0000000  0.0000000 )
                  (  0.0000000  0.0000000  1.0000000 )


   Cartesian axes

     site n.     atom                  positions (alat units)
         1           Sr  tau(   1) = (   0.2508693   0.7491307   1.7574407  )
         2           O   tau(   2) = (   0.4985141   0.5014859   1.7715967  )
         3           Sr  tau(   3) = (   0.7482398   0.7454518   1.7648669  )
         4           Sr  tau(   4) = (   0.7441748   0.2558252   1.7667843  )
         5           Sr  tau(   5) = (   0.2508693   0.7491307   1.2696799  )
         6           Sr  tau(   6) = (   0.2508693   0.7491307   0.7632319  )
         7           Co  tau(   7) = (   0.4998914   0.5001086   1.0164559  )
         8           Co  tau(   8) = (   0.4936915   0.5063085   1.5135603  )
         9           O   tau(   9) = (   0.4988895   0.7610401   1.0164559  )
        10           O   tau(  10) = (   0.2389599   0.5011105   1.0164559  )
        11           O   tau(  11) = (   0.0070918   0.7374880   1.0164559  )
        12           O   tau(  12) = (   0.0088340   0.7405089   1.5135603  )
        13           O   tau(  13) = (   0.5066944   0.7415376   1.5135603  )
        14           O   tau(  14) = (   0.2584624   0.4933056   1.5135603  )
        15           O   tau(  15) = (   0.4985141   0.5014859   0.7773880  )
        16           O   tau(  16) = (   0.4985141   0.5014859   1.2555238  )
        17           Sr  tau(  17) = (   0.7482398   0.7454518   0.7706582  )
        18           Sr  tau(  18) = (   0.7482398   0.7454518   1.2622536  )
        19           Sr  tau(  19) = (   0.7441748   0.2558252   0.7725755  )
        20           Sr  tau(  20) = (   0.7441748   0.2558252   1.2603363  )
        21           O   tau(  21) = (   0.7322655   0.0078049   1.5135603  )
        22           O   tau(  22) = (   0.7558175   0.4996027   1.5135603  )
        23           O   tau(  23) = (   0.5003973   0.2441825   1.5135603  )
        24           O   tau(  24) = (   0.7527966   0.4978604   1.0164559  )
        25           O   tau(  25) = (   0.5021396   0.2472034   1.0164559  )
        26           O   tau(  26) = (   0.7517679   0.0000000   1.0164559  )
        27           O   tau(  27) = (   0.0114961   0.4948124   1.7455321  )
        28           O   tau(  28) = (   0.0048226   0.0077944   1.7715967  )
        29           Sr  tau(  29) = (   0.2545482   0.2517602   1.7648669  )
        30           O   tau(  30) = (   0.5048017   0.0015068   1.7786929  )
        31           Co  tau(  31) = (   0.0056869   0.5006215   1.0164559  )
        32           Co  tau(  32) = (   0.0065315   0.4997770   1.5135603  )
        33           Co  tau(  33) = (   0.0061999   0.0064171   1.0164559  )
        34           Co  tau(  34) = (   0.0000000   0.0126169   1.5135603  )
        35           O   tau(  35) = (   0.0114961   0.4948124   1.2815885  )
        36           O   tau(  36) = (   0.0114961   0.4948124   0.7513233  )
        37           O   tau(  37) = (   0.0051979   0.2673486   1.0164559  )
        38           O   tau(  38) = (   0.0130029   0.2478461   1.5135603  )
        39           O   tau(  39) = (   0.0048226   0.0077944   0.7773880  )
        40           O   tau(  40) = (   0.0048226   0.0077944   1.2555238  )
        41           Sr  tau(  41) = (   0.2545482   0.2517602   0.7706582  )
        42           Sr  tau(  42) = (   0.2545482   0.2517602   1.2622536  )
        43           Co  tau(  43) = (   0.4989925   0.0073160   1.5135603  )
        44           Co  tau(  44) = (   0.4998370   0.0064714   1.0164559  )
        45           O   tau(  45) = (   0.5048017   0.0015068   0.7844841  )
        46           O   tau(  46) = (   0.5048017   0.0015068   1.2484277  )
        47           O   tau(  47) = (   0.2621260   0.0059111   1.5135603  )
        48           O   tau(  48) = (   0.2591051   0.0041689   1.0164559  )
        49           H   tau(  49) = (   0.7108228   0.7108228   2.1602013  )

   Crystallographic axes

     site n.     atom                  positions (cryst. coord.)
         1           Sr  tau(   1) = (  0.2508693  0.7491307  0.6943562  )
         2           O   tau(   2) = (  0.4985141  0.5014859  0.6999492  )
         3           Sr  tau(   3) = (  0.7482398  0.7454518  0.6972903  )
         4           Sr  tau(   4) = (  0.7441748  0.2558252  0.6980478  )
         5           Sr  tau(   5) = (  0.2508693  0.7491307  0.5016443  )
         6           Sr  tau(   6) = (  0.2508693  0.7491307  0.3015492  )
         7           Co  tau(   7) = (  0.4998914  0.5001086  0.4015968  )
         8           Co  tau(   8) = (  0.4936915  0.5063085  0.5980003  )
         9           O   tau(   9) = (  0.4988895  0.7610401  0.4015968  )
        10           O   tau(  10) = (  0.2389599  0.5011105  0.4015968  )
        11           O   tau(  11) = (  0.0070918  0.7374880  0.4015968  )
        12           O   tau(  12) = (  0.0088340  0.7405089  0.5980003  )
        13           O   tau(  13) = (  0.5066944  0.7415376  0.5980003  )
        14           O   tau(  14) = (  0.2584624  0.4933056  0.5980003  )
        15           O   tau(  15) = (  0.4985141  0.5014859  0.3071422  )
        16           O   tau(  16) = (  0.4985141  0.5014859  0.4960513  )
        17           Sr  tau(  17) = (  0.7482398  0.7454518  0.3044833  )
        18           Sr  tau(  18) = (  0.7482398  0.7454518  0.4987103  )
        19           Sr  tau(  19) = (  0.7441748  0.2558252  0.3052408  )
        20           Sr  tau(  20) = (  0.7441748  0.2558252  0.4979527  )
        21           O   tau(  21) = (  0.7322655  0.0078049  0.5980003  )
        22           O   tau(  22) = (  0.7558175  0.4996027  0.5980003  )
        23           O   tau(  23) = (  0.5003973  0.2441825  0.5980003  )
        24           O   tau(  24) = (  0.7527966  0.4978604  0.4015968  )
        25           O   tau(  25) = (  0.5021396  0.2472034  0.4015968  )
        26           O   tau(  26) = (  0.7517679  0.0000000  0.4015968  )
        27           O   tau(  27) = (  0.0114961  0.4948124  0.6896512  )
        28           O   tau(  28) = (  0.0048226  0.0077944  0.6999492  )
        29           Sr  tau(  29) = (  0.2545482  0.2517602  0.6972903  )
        30           O   tau(  30) = (  0.5048017  0.0015068  0.7027529  )
        31           Co  tau(  31) = (  0.0056869  0.5006215  0.4015968  )
        32           Co  tau(  32) = (  0.0065315  0.4997770  0.5980003  )
        33           Co  tau(  33) = (  0.0061999  0.0064171  0.4015968  )
        34           Co  tau(  34) = (  0.0000000  0.0126169  0.5980003  )
        35           O   tau(  35) = (  0.0114961  0.4948124  0.5063494  )
        36           O   tau(  36) = (  0.0114961  0.4948124  0.2968442  )
        37           O   tau(  37) = (  0.0051979  0.2673486  0.4015968  )
        38           O   tau(  38) = (  0.0130029  0.2478461  0.5980003  )
        39           O   tau(  39) = (  0.0048226  0.0077944  0.3071422  )
        40           O   tau(  40) = (  0.0048226  0.0077944  0.4960513  )
        41           Sr  tau(  41) = (  0.2545482  0.2517602  0.3044833  )
        42           Sr  tau(  42) = (  0.2545482  0.2517602  0.4987103  )
        43           Co  tau(  43) = (  0.4989925  0.0073160  0.5980003  )
        44           Co  tau(  44) = (  0.4998370  0.0064714  0.4015968  )
        45           O   tau(  45) = (  0.5048017  0.0015068  0.3099459  )
        46           O   tau(  46) = (  0.5048017  0.0015068  0.4932477  )
        47           O   tau(  47) = (  0.2621260  0.0059111  0.5980003  )
        48           O   tau(  48) = (  0.2591051  0.0041689  0.4015968  )
        49           H   tau(  49) = (  0.7108228  0.7108228  0.8534850  )

     number of k points=    10  Gaussian smearing, width (Ry)=  0.0700
                       cart. coord. in units 2pi/alat
        k(    1) = (   0.0000000   0.0000000   0.0000000), wk =   0.1250000
        k(    2) = (   0.0000000   0.2500000   0.0000000), wk =   0.2500000
        k(    3) = (   0.0000000  -0.5000000   0.0000000), wk =   0.1250000
        k(    4) = (   0.2500000   0.2500000   0.0000000), wk =   0.2500000
        k(    5) = (   0.2500000  -0.5000000   0.0000000), wk =   0.2500000
        k(    6) = (  -0.5000000  -0.5000000   0.0000000), wk =   0.1250000
        k(    7) = (   0.2500000   0.0000000   0.0000000), wk =   0.2500000
        k(    8) = (  -0.5000000   0.0000000   0.0000000), wk =   0.1250000
        k(    9) = (  -0.2500000   0.2500000   0.0000000), wk =   0.2500000
        k(   10) = (  -0.5000000   0.2500000   0.0000000), wk =   0.2500000

                       cryst. coord.
        k(    1) = (   0.0000000   0.0000000   0.0000000), wk =   0.1250000
        k(    2) = (   0.0000000   0.2500000   0.0000000), wk =   0.2500000
        k(    3) = (   0.0000000  -0.5000000   0.0000000), wk =   0.1250000
        k(    4) = (   0.2500000   0.2500000   0.0000000), wk =   0.2500000
        k(    5) = (   0.2500000  -0.5000000   0.0000000), wk =   0.2500000
        k(    6) = (  -0.5000000  -0.5000000   0.0000000), wk =   0.1250000
        k(    7) = (   0.2500000   0.0000000   0.0000000), wk =   0.2500000
        k(    8) = (  -0.5000000   0.0000000   0.0000000), wk =   0.1250000
        k(    9) = (  -0.2500000   0.2500000   0.0000000), wk =   0.2500000
        k(   10) = (  -0.5000000   0.2500000   0.0000000), wk =   0.2500000

     Dense  grid:  1474595 G-vectors     FFT dimensions: ( 108, 108, 270)

     Smooth grid:   521381 G-vectors     FFT dimensions: (  75,  75, 192)

     Dynamical RAM for                 wfc:      10.61 MB

     Dynamical RAM for     wfc (w. buffer):      63.63 MB

     Dynamical RAM for           str. fact:       3.75 MB

     Dynamical RAM for           local pot:       0.00 MB

     Dynamical RAM for          nlocal pot:      24.28 MB

     Dynamical RAM for                qrad:       7.03 MB

     Dynamical RAM for          rho,v,vnew:       6.02 MB

     Dynamical RAM for               rhoin:       2.01 MB

     Dynamical RAM for            rho*nmix:      15.00 MB

     Dynamical RAM for           G-vectors:       3.68 MB

     Dynamical RAM for          h,s,v(r/c):       1.32 MB

     Dynamical RAM for          <psi|beta>:       2.29 MB

     Dynamical RAM for                 psi:      21.21 MB

     Dynamical RAM for                hpsi:      21.21 MB

     Dynamical RAM for                spsi:      21.21 MB

     Dynamical RAM for      wfcinit/wfcrot:      34.09 MB

     Dynamical RAM for           addusdens:     100.79 MB

     Estimated static dynamical RAM per process >     120.42 MB

     Estimated max dynamical RAM per process >     236.21 MB

     Estimated total dynamical RAM >      10.72 GB

     Check: negative core charge=   -0.000004

     Initial potential from superposition of free atoms

     starting charge     416.5961, renormalised to     425.0000

     negative rho (up, down):  7.826E-01 0.000E+00
     Starting wfcs are  373 randomized atomic wfcs
     Checking if some PAW data can be deallocated... 
       PAW data deallocated on   20 nodes for type:  2

     total cpu time spent up to now is        8.7 secs

     Self-consistent Calculation

     iteration #  1     ecut=    60.00 Ry     beta= 0.15
     Davidson diagonalization with overlap

---- Real-time Memory Report at c_bands before calling an iterative solver
             0 MiB given to the printing process from OS
             0 MiB allocation reported by mallinfo(arena+hblkhd)
        170473 MiB available memory on the node where the printing process lives
------------------
     ethr =  1.00E-02,  avg # of iterations =  2.0

     negative rho (up, down):  7.719E-01 0.000E+00

     total cpu time spent up to now is       23.2 secs

     total energy              =   -4404.77355035 Ry
     estimated scf accuracy    <      42.21348750 Ry

     iteration #  2     ecut=    60.00 Ry     beta= 0.15
     Davidson diagonalization with overlap

---- Real-time Memory Report at c_bands before calling an iterative solver
             0 MiB given to the printing process from OS
             0 MiB allocation reported by mallinfo(arena+hblkhd)
        170702 MiB available memory on the node where the printing process lives
------------------
     ethr =  9.93E-03,  avg # of iterations =  1.0

     negative rho (up, down):  7.533E-01 0.000E+00

     total cpu time spent up to now is       35.5 secs

     total energy              =   -4400.02047911 Ry
     estimated scf accuracy    <      26.76272774 Ry

     iteration #  3     ecut=    60.00 Ry     beta= 0.15
     Davidson diagonalization with overlap

---- Real-time Memory Report at c_bands before calling an iterative solver
             0 MiB given to the printing process from OS
             0 MiB allocation reported by mallinfo(arena+hblkhd)
        169959 MiB available memory on the node where the printing process lives
------------------
     ethr =  6.30E-03,  avg # of iterations =  2.0

     negative rho (up, down):  7.545E-01 0.000E+00

     total cpu time spent up to now is       49.2 secs

     total energy              =   -4402.37768122 Ry
     estimated scf accuracy    <      49.20470176 Ry

     iteration #  4     ecut=    60.00 Ry     beta= 0.15
     Davidson diagonalization with overlap

---- Real-time Memory Report at c_bands before calling an iterative solver
             0 MiB given to the printing process from OS
             0 MiB allocation reported by mallinfo(arena+hblkhd)
        169829 MiB available memory on the node where the printing process lives
------------------
     ethr =  6.30E-03,  avg # of iterations =  1.0

     negative rho (up, down):  7.411E-01 0.000E+00

     total cpu time spent up to now is       61.2 secs

     total energy              =   -4401.63689525 Ry
     estimated scf accuracy    <      29.20161853 Ry

     iteration #  5     ecut=    60.00 Ry     beta= 0.15
     Davidson diagonalization with overlap

---- Real-time Memory Report at c_bands before calling an iterative solver
             0 MiB given to the printing process from OS
             0 MiB allocation reported by mallinfo(arena+hblkhd)
        169814 MiB available memory on the node where the printing process lives
------------------
     ethr =  6.30E-03,  avg # of iterations =  1.0

     negative rho (up, down):  7.474E-01 0.000E+00

     total cpu time spent up to now is       73.3 secs

     total energy              =   -4399.66888589 Ry
     estimated scf accuracy    <      44.18545630 Ry

     iteration #  6     ecut=    60.00 Ry     beta= 0.15
     Davidson diagonalization with overlap

---- Real-time Memory Report at c_bands before calling an iterative solver
             0 MiB given to the printing process from OS
             0 MiB allocation reported by mallinfo(arena+hblkhd)
        169789 MiB available memory on the node where the printing process lives
------------------
     ethr =  6.30E-03,  avg # of iterations =  1.0

     negative rho (up, down):  7.422E-01 0.000E+00

     total cpu time spent up to now is       85.3 secs

     total energy              =   -4400.65376866 Ry
     estimated scf accuracy    <      12.60634356 Ry

     iteration #  7     ecut=    60.00 Ry     beta= 0.15
     Davidson diagonalization with overlap

---- Real-time Memory Report at c_bands before calling an iterative solver
             0 MiB given to the printing process from OS
             0 MiB allocation reported by mallinfo(arena+hblkhd)
        169768 MiB available memory on the node where the printing process lives
------------------
     ethr =  2.97E-03,  avg # of iterations =  1.1

     negative rho (up, down):  7.443E-01 0.000E+00

     total cpu time spent up to now is       97.5 secs

     total energy              =   -4400.83272307 Ry
     estimated scf accuracy    <       3.91359671 Ry

     iteration #  8     ecut=    60.00 Ry     beta= 0.15
     Davidson diagonalization with overlap

---- Real-time Memory Report at c_bands before calling an iterative solver
             0 MiB given to the printing process from OS
             0 MiB allocation reported by mallinfo(arena+hblkhd)
        169748 MiB available memory on the node where the printing process lives
------------------
     ethr =  9.21E-04,  avg # of iterations =  1.5

     negative rho (up, down):  7.538E-01 0.000E+00

     total cpu time spent up to now is      110.1 secs

     total energy              =   -4400.27768740 Ry
     estimated scf accuracy    <       3.08956350 Ry

     iteration #  9     ecut=    60.00 Ry     beta= 0.15
     Davidson diagonalization with overlap

---- Real-time Memory Report at c_bands before calling an iterative solver
             0 MiB given to the printing process from OS
             0 MiB allocation reported by mallinfo(arena+hblkhd)
        169733 MiB available memory on the node where the printing process lives
------------------
     ethr =  7.27E-04,  avg # of iterations =  6.2

     negative rho (up, down):  7.749E-01 0.000E+00

     total cpu time spent up to now is      126.7 secs

     total energy              =   -4399.67974310 Ry
     estimated scf accuracy    <      43.30574663 Ry

     iteration # 10     ecut=    60.00 Ry     beta= 0.15
     Davidson diagonalization with overlap

---- Real-time Memory Report at c_bands before calling an iterative solver
             0 MiB given to the printing process from OS
             0 MiB allocation reported by mallinfo(arena+hblkhd)
        169564 MiB available memory on the node where the printing process lives
------------------
     ethr =  7.27E-04,  avg # of iterations =  9.9

     negative rho (up, down):  7.768E-01 0.000E+00

     total cpu time spent up to now is      145.4 secs

     total energy              =   -4399.92410480 Ry
     estimated scf accuracy    <      11.52744495 Ry

     iteration # 11     ecut=    60.00 Ry     beta= 0.15
     Davidson diagonalization with overlap

---- Real-time Memory Report at c_bands before calling an iterative solver
             0 MiB given to the printing process from OS
             0 MiB allocation reported by mallinfo(arena+hblkhd)
        169221 MiB available memory on the node where the printing process lives
------------------
     ethr =  7.27E-04,  avg # of iterations =  1.0

     negative rho (up, down):  7.806E-01 0.000E+00

     total cpu time spent up to now is      157.6 secs

     total energy              =   -4400.11997565 Ry
     estimated scf accuracy    <       1.91159969 Ry

     iteration # 12     ecut=    60.00 Ry     beta= 0.15
     Davidson diagonalization with overlap

---- Real-time Memory Report at c_bands before calling an iterative solver
             0 MiB given to the printing process from OS
             0 MiB allocation reported by mallinfo(arena+hblkhd)
        169220 MiB available memory on the node where the printing process lives
------------------
     ethr =  4.50E-04,  avg # of iterations =  1.0

     negative rho (up, down):  7.871E-01 0.000E+00

     total cpu time spent up to now is      169.5 secs

     total energy              =   -4400.11414550 Ry
     estimated scf accuracy    <       0.76843398 Ry

     iteration # 13     ecut=    60.00 Ry     beta= 0.15
     Davidson diagonalization with overlap

---- Real-time Memory Report at c_bands before calling an iterative solver
             0 MiB given to the printing process from OS
             0 MiB allocation reported by mallinfo(arena+hblkhd)
        169222 MiB available memory on the node where the printing process lives
------------------
     ethr =  1.81E-04,  avg # of iterations =  4.5

     negative rho (up, down):  7.986E-01 0.000E+00

     total cpu time spent up to now is      183.8 secs

     total energy              =   -4400.11475569 Ry
     estimated scf accuracy    <       1.26300865 Ry

     iteration # 14     ecut=    60.00 Ry     beta= 0.15
     Davidson diagonalization with overlap

---- Real-time Memory Report at c_bands before calling an iterative solver
             0 MiB given to the printing process from OS
             0 MiB allocation reported by mallinfo(arena+hblkhd)
        169220 MiB available memory on the node where the printing process lives
------------------
     ethr =  1.81E-04,  avg # of iterations =  5.0

     negative rho (up, down):  8.035E-01 0.000E+00

     total cpu time spent up to now is      198.3 secs

     total energy              =   -4400.01860042 Ry
     estimated scf accuracy    <       1.97684808 Ry

     iteration # 15     ecut=    60.00 Ry     beta= 0.15
     Davidson diagonalization with overlap

---- Real-time Memory Report at c_bands before calling an iterative solver
             0 MiB given to the printing process from OS
             0 MiB allocation reported by mallinfo(arena+hblkhd)
        169215 MiB available memory on the node where the printing process lives
------------------
     ethr =  1.81E-04,  avg # of iterations =  3.5

     negative rho (up, down):  8.081E-01 0.000E+00

     total cpu time spent up to now is      212.5 secs

     total energy              =   -4400.05356997 Ry
     estimated scf accuracy    <       0.41100048 Ry

     iteration # 16     ecut=    60.00 Ry     beta= 0.15
     Davidson diagonalization with overlap

---- Real-time Memory Report at c_bands before calling an iterative solver
             0 MiB given to the printing process from OS
             0 MiB allocation reported by mallinfo(arena+hblkhd)
        169210 MiB available memory on the node where the printing process lives
------------------
     c_bands:  2 eigenvalues not converged
     ethr =  9.67E-05,  avg # of iterations =  9.0

     negative rho (up, down):  8.110E-01 0.000E+00

     total cpu time spent up to now is      228.5 secs

     total energy              =   -4400.03819784 Ry
     estimated scf accuracy    <       0.30879514 Ry

     iteration # 17     ecut=    60.00 Ry     beta= 0.15
     Davidson diagonalization with overlap

---- Real-time Memory Report at c_bands before calling an iterative solver
             0 MiB given to the printing process from OS
             0 MiB allocation reported by mallinfo(arena+hblkhd)
        169168 MiB available memory on the node where the printing process lives
------------------
     ethr =  7.27E-05,  avg # of iterations =  5.0

     negative rho (up, down):  8.161E-01 0.000E+00

     total cpu time spent up to now is      243.6 secs

     total energy              =   -4399.96627844 Ry
     estimated scf accuracy    <       0.26714150 Ry

     iteration # 18     ecut=    60.00 Ry     beta= 0.15
     Davidson diagonalization with overlap

---- Real-time Memory Report at c_bands before calling an iterative solver
             0 MiB given to the printing process from OS
             0 MiB allocation reported by mallinfo(arena+hblkhd)
        169210 MiB available memory on the node where the printing process lives
------------------
     ethr =  6.29E-05,  avg # of iterations = 13.4

     negative rho (up, down):  8.254E-01 0.000E+00

     total cpu time spent up to now is      262.0 secs

     total energy              =   -4399.94188076 Ry
     estimated scf accuracy    <       0.68203827 Ry

     iteration # 19     ecut=    60.00 Ry     beta= 0.15
     Davidson diagonalization with overlap

---- Real-time Memory Report at c_bands before calling an iterative solver
             0 MiB given to the printing process from OS
             0 MiB allocation reported by mallinfo(arena+hblkhd)
        169170 MiB available memory on the node where the printing process lives
------------------
     ethr =  6.29E-05,  avg # of iterations =  5.3

     negative rho (up, down):  8.249E-01 0.000E+00

     total cpu time spent up to now is      276.4 secs

     total energy              =   -4399.95465844 Ry
     estimated scf accuracy    <       0.11031730 Ry

     iteration # 20     ecut=    60.00 Ry     beta= 0.15
     Davidson diagonalization with overlap

---- Real-time Memory Report at c_bands before calling an iterative solver
             0 MiB given to the printing process from OS
             0 MiB allocation reported by mallinfo(arena+hblkhd)
        169182 MiB available memory on the node where the printing process lives
------------------
     ethr =  2.60E-05,  avg # of iterations =  5.3

     negative rho (up, down):  8.217E-01 0.000E+00

     total cpu time spent up to now is      291.2 secs

     total energy              =   -4399.94756718 Ry
     estimated scf accuracy    <       0.08770494 Ry

     iteration # 21     ecut=    60.00 Ry     beta= 0.15
     Davidson diagonalization with overlap

---- Real-time Memory Report at c_bands before calling an iterative solver
             0 MiB given to the printing process from OS
             0 MiB allocation reported by mallinfo(arena+hblkhd)
        169150 MiB available memory on the node where the printing process lives
------------------
     ethr =  2.06E-05,  avg # of iterations =  6.7

     negative rho (up, down):  8.102E-01 0.000E+00

     total cpu time spent up to now is      306.7 secs

     total energy              =   -4399.92933136 Ry
     estimated scf accuracy    <       0.07112808 Ry

     iteration # 22     ecut=    60.00 Ry     beta= 0.15
     Davidson diagonalization with overlap

---- Real-time Memory Report at c_bands before calling an iterative solver
             0 MiB given to the printing process from OS
             0 MiB allocation reported by mallinfo(arena+hblkhd)
        169193 MiB available memory on the node where the printing process lives
------------------
     ethr =  1.67E-05,  avg # of iterations = 11.7

     negative rho (up, down):  8.104E-01 0.000E+00

     total cpu time spent up to now is      325.4 secs

     total energy              =   -4399.93001443 Ry
     estimated scf accuracy    <       0.02597434 Ry

     iteration # 23     ecut=    60.00 Ry     beta= 0.15
     Davidson diagonalization with overlap

---- Real-time Memory Report at c_bands before calling an iterative solver
             0 MiB given to the printing process from OS
             0 MiB allocation reported by mallinfo(arena+hblkhd)
        169069 MiB available memory on the node where the printing process lives
------------------
     c_bands:  1 eigenvalues not converged
     ethr =  6.11E-06,  avg # of iterations =  9.9

     negative rho (up, down):  8.067E-01 0.000E+00

     total cpu time spent up to now is      342.0 secs

     total energy              =   -4399.92936113 Ry
     estimated scf accuracy    <       0.01895313 Ry

     iteration # 24     ecut=    60.00 Ry     beta= 0.15
     Davidson diagonalization with overlap

---- Real-time Memory Report at c_bands before calling an iterative solver
             0 MiB given to the printing process from OS
             0 MiB allocation reported by mallinfo(arena+hblkhd)
        169055 MiB available memory on the node where the printing process lives
------------------
     ethr =  4.46E-06,  avg # of iterations =  2.6

     negative rho (up, down):  7.936E-01 0.000E+00

     total cpu time spent up to now is      356.1 secs

     total energy              =   -4399.92822395 Ry
     estimated scf accuracy    <       0.01294883 Ry

     iteration # 25     ecut=    60.00 Ry     beta= 0.15
     Davidson diagonalization with overlap

---- Real-time Memory Report at c_bands before calling an iterative solver
             0 MiB given to the printing process from OS
             0 MiB allocation reported by mallinfo(arena+hblkhd)
        169051 MiB available memory on the node where the printing process lives
------------------
     ethr =  3.05E-06,  avg # of iterations =  6.1

     negative rho (up, down):  7.917E-01 0.000E+00

     total cpu time spent up to now is      371.5 secs

     total energy              =   -4399.92781975 Ry
     estimated scf accuracy    <       0.00900473 Ry

     iteration # 26     ecut=    60.00 Ry     beta= 0.15
     Davidson diagonalization with overlap

---- Real-time Memory Report at c_bands before calling an iterative solver
             0 MiB given to the printing process from OS
             0 MiB allocation reported by mallinfo(arena+hblkhd)
        169065 MiB available memory on the node where the printing process lives
------------------
     ethr =  2.12E-06,  avg # of iterations =  8.3

     negative rho (up, down):  7.896E-01 0.000E+00

     total cpu time spent up to now is      387.9 secs

     total energy              =   -4399.92725567 Ry
     estimated scf accuracy    <       0.00585752 Ry

     iteration # 27     ecut=    60.00 Ry     beta= 0.15
     Davidson diagonalization with overlap

---- Real-time Memory Report at c_bands before calling an iterative solver
             0 MiB given to the printing process from OS
             0 MiB allocation reported by mallinfo(arena+hblkhd)
        169060 MiB available memory on the node where the printing process lives
------------------
     ethr =  1.38E-06,  avg # of iterations =  7.6

     negative rho (up, down):  7.944E-01 0.000E+00

     total cpu time spent up to now is      403.8 secs

     total energy              =   -4399.92744014 Ry
     estimated scf accuracy    <       0.00313195 Ry

     iteration # 28     ecut=    60.00 Ry     beta= 0.15
     Davidson diagonalization with overlap

---- Real-time Memory Report at c_bands before calling an iterative solver
             0 MiB given to the printing process from OS
             0 MiB allocation reported by mallinfo(arena+hblkhd)
        169045 MiB available memory on the node where the printing process lives
------------------
     ethr =  7.37E-07,  avg # of iterations =  5.2

     negative rho (up, down):  7.947E-01 0.000E+00

     total cpu time spent up to now is      419.1 secs

     total energy              =   -4399.92749109 Ry
     estimated scf accuracy    <       0.00167415 Ry

     iteration # 29     ecut=    60.00 Ry     beta= 0.15
     Davidson diagonalization with overlap

---- Real-time Memory Report at c_bands before calling an iterative solver
             0 MiB given to the printing process from OS
             0 MiB allocation reported by mallinfo(arena+hblkhd)
        169087 MiB available memory on the node where the printing process lives
------------------
     ethr =  3.94E-07,  avg # of iterations =  2.2

     negative rho (up, down):  7.935E-01 0.000E+00

     total cpu time spent up to now is      432.7 secs

     total energy              =   -4399.92735997 Ry
     estimated scf accuracy    <       0.00124257 Ry

     iteration # 30     ecut=    60.00 Ry     beta= 0.15
     Davidson diagonalization with overlap

---- Real-time Memory Report at c_bands before calling an iterative solver
             0 MiB given to the printing process from OS
             0 MiB allocation reported by mallinfo(arena+hblkhd)
        169094 MiB available memory on the node where the printing process lives
------------------
     c_bands:  1 eigenvalues not converged
     ethr =  2.92E-07,  avg # of iterations =  9.7

     negative rho (up, down):  7.910E-01 0.000E+00

     total cpu time spent up to now is      449.0 secs

     total energy              =   -4399.92716531 Ry
     estimated scf accuracy    <       0.00085936 Ry

     iteration # 31     ecut=    60.00 Ry     beta= 0.15
     Davidson diagonalization with overlap

---- Real-time Memory Report at c_bands before calling an iterative solver
             0 MiB given to the printing process from OS
             0 MiB allocation reported by mallinfo(arena+hblkhd)
        169142 MiB available memory on the node where the printing process lives
------------------
     ethr =  2.02E-07,  avg # of iterations = 11.0

     negative rho (up, down):  7.931E-01 0.000E+00

     total cpu time spent up to now is      467.8 secs

     total energy              =   -4399.92720081 Ry
     estimated scf accuracy    <       0.00021553 Ry

     iteration # 32     ecut=    60.00 Ry     beta= 0.15
     Davidson diagonalization with overlap

---- Real-time Memory Report at c_bands before calling an iterative solver
             0 MiB given to the printing process from OS
             0 MiB allocation reported by mallinfo(arena+hblkhd)
        169162 MiB available memory on the node where the printing process lives
------------------
     ethr =  5.07E-08,  avg # of iterations =  7.4

     negative rho (up, down):  7.925E-01 0.000E+00

     total cpu time spent up to now is      486.6 secs

     total energy              =   -4399.92721654 Ry
     estimated scf accuracy    <       0.00007168 Ry

     iteration # 33     ecut=    60.00 Ry     beta= 0.15
     Davidson diagonalization with overlap

---- Real-time Memory Report at c_bands before calling an iterative solver
             0 MiB given to the printing process from OS
             0 MiB allocation reported by mallinfo(arena+hblkhd)
        168939 MiB available memory on the node where the printing process lives
------------------
     ethr =  1.69E-08,  avg # of iterations =  2.9

     negative rho (up, down):  7.925E-01 0.000E+00

     total cpu time spent up to now is      500.4 secs

     total energy              =   -4399.92721922 Ry
     estimated scf accuracy    <       0.00004854 Ry

     iteration # 34     ecut=    60.00 Ry     beta= 0.15
     Davidson diagonalization with overlap

---- Real-time Memory Report at c_bands before calling an iterative solver
             0 MiB given to the printing process from OS
             0 MiB allocation reported by mallinfo(arena+hblkhd)
        168960 MiB available memory on the node where the printing process lives
------------------
     ethr =  1.14E-08,  avg # of iterations =  1.1

     negative rho (up, down):  7.924E-01 0.000E+00

     total cpu time spent up to now is      512.6 secs

     total energy              =   -4399.92722083 Ry
     estimated scf accuracy    <       0.00003561 Ry

     iteration # 35     ecut=    60.00 Ry     beta= 0.15
     Davidson diagonalization with overlap

---- Real-time Memory Report at c_bands before calling an iterative solver
             0 MiB given to the printing process from OS
             0 MiB allocation reported by mallinfo(arena+hblkhd)
        168966 MiB available memory on the node where the printing process lives
------------------
     ethr =  8.38E-09,  avg # of iterations =  2.2

     negative rho (up, down):  7.923E-01 0.000E+00

     total cpu time spent up to now is      526.1 secs

     total energy              =   -4399.92722414 Ry
     estimated scf accuracy    <       0.00003362 Ry

     iteration # 36     ecut=    60.00 Ry     beta= 0.15
     Davidson diagonalization with overlap

---- Real-time Memory Report at c_bands before calling an iterative solver
             0 MiB given to the printing process from OS
             0 MiB allocation reported by mallinfo(arena+hblkhd)
        168967 MiB available memory on the node where the printing process lives
------------------
     ethr =  7.91E-09,  avg # of iterations =  2.1

     negative rho (up, down):  7.922E-01 0.000E+00

     total cpu time spent up to now is      539.6 secs

     total energy              =   -4399.92722509 Ry
     estimated scf accuracy    <       0.00002019 Ry

     iteration # 37     ecut=    60.00 Ry     beta= 0.15
     Davidson diagonalization with overlap

---- Real-time Memory Report at c_bands before calling an iterative solver
             0 MiB given to the printing process from OS
             0 MiB allocation reported by mallinfo(arena+hblkhd)
        168994 MiB available memory on the node where the printing process lives
------------------
     ethr =  4.75E-09,  avg # of iterations =  4.6

     negative rho (up, down):  7.922E-01 0.000E+00

     total cpu time spent up to now is      554.4 secs

     total energy              =   -4399.92722899 Ry
     estimated scf accuracy    <       0.00000978 Ry

     iteration # 38     ecut=    60.00 Ry     beta= 0.15
     Davidson diagonalization with overlap

---- Real-time Memory Report at c_bands before calling an iterative solver
             0 MiB given to the printing process from OS
             0 MiB allocation reported by mallinfo(arena+hblkhd)
        169009 MiB available memory on the node where the printing process lives
------------------
     ethr =  2.30E-09,  avg # of iterations =  2.2

     negative rho (up, down):  7.924E-01 0.000E+00

     total cpu time spent up to now is      568.1 secs

     total energy              =   -4399.92723393 Ry
     estimated scf accuracy    <       0.00000695 Ry

     iteration # 39     ecut=    60.00 Ry     beta= 0.15
     Davidson diagonalization with overlap

---- Real-time Memory Report at c_bands before calling an iterative solver
             0 MiB given to the printing process from OS
             0 MiB allocation reported by mallinfo(arena+hblkhd)
        169015 MiB available memory on the node where the printing process lives
------------------
     ethr =  1.64E-09,  avg # of iterations =  3.2

     negative rho (up, down):  7.925E-01 0.000E+00

     total cpu time spent up to now is      582.2 secs

     total energy              =   -4399.92723441 Ry
     estimated scf accuracy    <       0.00000364 Ry

     iteration # 40     ecut=    60.00 Ry     beta= 0.15
     Davidson diagonalization with overlap

---- Real-time Memory Report at c_bands before calling an iterative solver
             0 MiB given to the printing process from OS
             0 MiB allocation reported by mallinfo(arena+hblkhd)
        169021 MiB available memory on the node where the printing process lives
------------------
     ethr =  8.57E-10,  avg # of iterations =  5.0

     negative rho (up, down):  7.926E-01 0.000E+00

     total cpu time spent up to now is      597.5 secs

     total energy              =   -4399.92723413 Ry
     estimated scf accuracy    <       0.00000171 Ry

     iteration # 41     ecut=    60.00 Ry     beta= 0.15
     Davidson diagonalization with overlap

---- Real-time Memory Report at c_bands before calling an iterative solver
             0 MiB given to the printing process from OS
             0 MiB allocation reported by mallinfo(arena+hblkhd)
        169025 MiB available memory on the node where the printing process lives
------------------
     ethr =  4.03E-10,  avg # of iterations =  2.3

     negative rho (up, down):  7.926E-01 0.000E+00

     total cpu time spent up to now is      611.4 secs

     total energy              =   -4399.92723429 Ry
     estimated scf accuracy    <       0.00000120 Ry

     iteration # 42     ecut=    60.00 Ry     beta= 0.15
     Davidson diagonalization with overlap

---- Real-time Memory Report at c_bands before calling an iterative solver
             0 MiB given to the printing process from OS
             0 MiB allocation reported by mallinfo(arena+hblkhd)
        169031 MiB available memory on the node where the printing process lives
------------------
     ethr =  2.82E-10,  avg # of iterations =  2.1

     negative rho (up, down):  7.925E-01 0.000E+00

     total cpu time spent up to now is      626.0 secs

     total energy              =   -4399.92723417 Ry
     estimated scf accuracy    <       0.00000077 Ry

     iteration # 43     ecut=    60.00 Ry     beta= 0.15
     Davidson diagonalization with overlap

---- Real-time Memory Report at c_bands before calling an iterative solver
             0 MiB given to the printing process from OS
             0 MiB allocation reported by mallinfo(arena+hblkhd)
        169033 MiB available memory on the node where the printing process lives
------------------
     ethr =  1.80E-10,  avg # of iterations =  2.2

     negative rho (up, down):  7.925E-01 0.000E+00

     total cpu time spent up to now is      639.5 secs

     total energy              =   -4399.92723423 Ry
     estimated scf accuracy    <       0.00000049 Ry

     iteration # 44     ecut=    60.00 Ry     beta= 0.15
     Davidson diagonalization with overlap

---- Real-time Memory Report at c_bands before calling an iterative solver
             0 MiB given to the printing process from OS
             0 MiB allocation reported by mallinfo(arena+hblkhd)
        169071 MiB available memory on the node where the printing process lives
------------------
     ethr =  1.16E-10,  avg # of iterations =  2.7

     negative rho (up, down):  7.925E-01 0.000E+00

     total cpu time spent up to now is      653.2 secs

     total energy              =   -4399.92723424 Ry
     estimated scf accuracy    <       0.00000041 Ry

     iteration # 45     ecut=    60.00 Ry     beta= 0.15
     Davidson diagonalization with overlap

---- Real-time Memory Report at c_bands before calling an iterative solver
             0 MiB given to the printing process from OS
             0 MiB allocation reported by mallinfo(arena+hblkhd)
        169072 MiB available memory on the node where the printing process lives
------------------
     ethr =  9.71E-11,  avg # of iterations =  2.2

     negative rho (up, down):  7.925E-01 0.000E+00

     total cpu time spent up to now is      666.8 secs

     total energy              =   -4399.92723450 Ry
     estimated scf accuracy    <       0.00000026 Ry

     iteration # 46     ecut=    60.00 Ry     beta= 0.15
     Davidson diagonalization with overlap

---- Real-time Memory Report at c_bands before calling an iterative solver
             0 MiB given to the printing process from OS
             0 MiB allocation reported by mallinfo(arena+hblkhd)
        169081 MiB available memory on the node where the printing process lives
------------------
     ethr =  6.08E-11,  avg # of iterations =  3.8

     negative rho (up, down):  7.924E-01 0.000E+00

     total cpu time spent up to now is      681.0 secs

     total energy              =   -4399.92723462 Ry
     estimated scf accuracy    <       0.00000015 Ry

     iteration # 47     ecut=    60.00 Ry     beta= 0.15
     Davidson diagonalization with overlap

---- Real-time Memory Report at c_bands before calling an iterative solver
             0 MiB given to the printing process from OS
             0 MiB allocation reported by mallinfo(arena+hblkhd)
        169084 MiB available memory on the node where the printing process lives
------------------
     ethr =  3.64E-11,  avg # of iterations =  2.3

     negative rho (up, down):  7.924E-01 0.000E+00

     total cpu time spent up to now is      694.7 secs

     total energy              =   -4399.92723471 Ry
     estimated scf accuracy    <       0.00000010 Ry

     iteration # 48     ecut=    60.00 Ry     beta= 0.15
     Davidson diagonalization with overlap

---- Real-time Memory Report at c_bands before calling an iterative solver
             0 MiB given to the printing process from OS
             0 MiB allocation reported by mallinfo(arena+hblkhd)
        169100 MiB available memory on the node where the printing process lives
------------------
     ethr =  2.39E-11,  avg # of iterations =  2.8

     negative rho (up, down):  7.924E-01 0.000E+00

     total cpu time spent up to now is      708.4 secs

     total energy              =   -4399.92723477 Ry
     estimated scf accuracy    <       0.00000008 Ry

     iteration # 49     ecut=    60.00 Ry     beta= 0.15
     Davidson diagonalization with overlap

---- Real-time Memory Report at c_bands before calling an iterative solver
             0 MiB given to the printing process from OS
             0 MiB allocation reported by mallinfo(arena+hblkhd)
        169106 MiB available memory on the node where the printing process lives
------------------
     ethr =  1.78E-11,  avg # of iterations =  2.9

     negative rho (up, down):  7.924E-01 0.000E+00

     total cpu time spent up to now is      722.4 secs

     total energy              =   -4399.92723481 Ry
     estimated scf accuracy    <       0.00000006 Ry

     iteration # 50     ecut=    60.00 Ry     beta= 0.15
     Davidson diagonalization with overlap

---- Real-time Memory Report at c_bands before calling an iterative solver
             0 MiB given to the printing process from OS
             0 MiB allocation reported by mallinfo(arena+hblkhd)
        169111 MiB available memory on the node where the printing process lives
------------------
     ethr =  1.36E-11,  avg # of iterations =  3.7

     negative rho (up, down):  7.924E-01 0.000E+00

     total cpu time spent up to now is      736.4 secs

     total energy              =   -4399.92723481 Ry
     estimated scf accuracy    <       0.00000002 Ry

     iteration # 51     ecut=    60.00 Ry     beta= 0.15
     Davidson diagonalization with overlap

---- Real-time Memory Report at c_bands before calling an iterative solver
             0 MiB given to the printing process from OS
             0 MiB allocation reported by mallinfo(arena+hblkhd)
        169106 MiB available memory on the node where the printing process lives
------------------
     ethr =  5.18E-12,  avg # of iterations =  2.3

     negative rho (up, down):  7.924E-01 0.000E+00

     total cpu time spent up to now is      750.1 secs

     total energy              =   -4399.92723481 Ry
     estimated scf accuracy    <       0.00000001 Ry

     iteration # 52     ecut=    60.00 Ry     beta= 0.15
     Davidson diagonalization with overlap

---- Real-time Memory Report at c_bands before calling an iterative solver
             0 MiB given to the printing process from OS
             0 MiB allocation reported by mallinfo(arena+hblkhd)
        169117 MiB available memory on the node where the printing process lives
------------------
     ethr =  3.30E-12,  avg # of iterations =  2.0

     negative rho (up, down):  7.924E-01 0.000E+00

     total cpu time spent up to now is      763.4 secs

     total energy              =   -4399.92723480 Ry
     estimated scf accuracy    <       0.00000001 Ry

     iteration # 53     ecut=    60.00 Ry     beta= 0.15
     Davidson diagonalization with overlap

---- Real-time Memory Report at c_bands before calling an iterative solver
             0 MiB given to the printing process from OS
             0 MiB allocation reported by mallinfo(arena+hblkhd)
        169118 MiB available memory on the node where the printing process lives
------------------
     ethr =  2.45E-12,  avg # of iterations =  3.8

     negative rho (up, down):  7.925E-01 0.000E+00

     total cpu time spent up to now is      777.3 secs

     End of self-consistent calculation

          k = 0.0000 0.0000 0.0000 ( 65197 PWs)   bands (ev):

   -92.7479 -92.6964 -92.6017 -92.5545 -92.4973 -92.4545 -92.4367 -92.3142
   -56.1013 -56.0831 -55.9590 -55.9485 -55.9415 -55.9353 -55.9001 -55.8709
   -55.8553 -55.8541 -55.8472 -55.8051 -55.7854 -55.7478 -55.7282 -55.6969
   -55.6900 -55.6424 -55.6404 -55.6396 -55.6311 -55.5891 -55.5671 -55.4807
   -31.3223 -31.3033 -31.1618 -31.0756 -31.0633 -30.9595 -30.8882 -30.7780
   -29.8941 -29.8507 -29.8253 -29.7187 -15.1279 -15.0857 -15.0029 -14.8736
   -14.6800 -14.5583 -14.2658 -14.2382 -14.2148 -14.1686 -14.1257 -14.1181
   -14.1043 -14.0817 -14.0568 -14.0137 -13.9751 -13.8242 -13.6473 -13.6115
   -13.5832 -13.5495 -13.5350 -13.4794 -13.4463 -13.3669 -13.2957 -13.1661
   -13.1549 -13.1428 -13.1200 -13.1026 -13.0842 -13.0475 -13.0345 -13.0169
   -12.9952 -12.9687 -12.9470 -12.9126 -12.8845 -12.8599 -12.8186 -12.7734
   -12.7574 -12.7159 -12.7022 -12.6516 -12.3878 -12.2421 -12.0719 -11.9997
   -11.9076 -11.8335 -11.8224 -11.7999 -11.7820 -11.7188 -11.7017 -11.6663
   -11.6365 -11.5273 -11.4468 -11.4432  -2.9883  -2.7560  -2.5264  -2.3796
    -2.3165  -2.1745  -1.8674  -1.8530  -1.8334  -1.7493  -1.7291  -1.6616
    -1.6447  -1.6039  -1.5606  -1.3781  -1.1541  -1.1235  -0.9774  -0.9629
    -0.9164  -0.8973  -0.8524  -0.8359  -0.7802  -0.7536  -0.6794  -0.6693
    -0.5931  -0.4615  -0.4484  -0.4187  -0.3384  -0.3163  -0.3129  -0.2480
    -0.1737  -0.1260  -0.0757  -0.0523   0.0151   0.0833   0.1336   0.1545
     0.1662   0.4268   0.4388   0.6133   0.6772   0.7437   0.7862   0.8791
     0.8911   0.9077   0.9757   1.0033   1.0367   1.0956   1.2273   1.2865
     1.3063   1.3257   1.3415   1.4064   1.4747   1.5850   1.5949   1.6576
     1.6698   1.7137   1.7290   1.7391   1.7962   1.8498   1.8667   1.8990
     1.9283   1.9796   2.1116   2.1991   2.2392   2.2541   2.4062   2.4211
     2.4653   2.4668   2.5756   2.6103   2.6339   2.6551   2.6713   2.7161
     2.7657   2.8617   2.8933   2.9049   2.9123   2.9791   2.9827   3.0073
     3.0142   3.0229   3.0350   3.0430   3.0557   3.0619   3.0733   3.0821
     3.0898   3.1101   3.1321   3.1361   3.1486   3.1793   3.2898   3.3847
     4.0638   4.3818   4.7252   4.8436   4.9946   5.8674   5.9118   5.9397
     5.9603   6.2688   6.3146   6.4573   6.4674   6.7526   6.9797   7.0709
     7.2178   7.2743   7.5808   7.6078   7.6270   7.6504   7.6898   7.8747
     7.9660   8.0827   8.1632   8.1960   8.2869   8.5975   8.8416   8.8673

     occupation numbers 
     1.0000   1.0000   1.0000   1.0000   1.0000   1.0000   1.0000   1.0000
     1.0000   1.0000   1.0000   1.0000   1.0000   1.0000   1.0000   1.0000
     1.0000   1.0000   1.0000   1.0000   1.0000   1.0000   1.0000   1.0000
     1.0000   1.0000   1.0000   1.0000   1.0000   1.0000   1.0000   1.0000
     1.0000   1.0000   1.0000   1.0000   1.0000   1.0000   1.0000   1.0000
     1.0000   1.0000   1.0000   1.0000   1.0000   1.0000   1.0000   1.0000
     1.0000   1.0000   1.0000   1.0000   1.0000   1.0000   1.0000   1.0000
     1.0000   1.0000   1.0000   1.0000   1.0000   1.0000   1.0000   1.0000
     1.0000   1.0000   1.0000   1.0000   1.0000   1.0000   1.0000   1.0000
     1.0000   1.0000   1.0000   1.0000   1.0000   1.0000   1.0000   1.0000
     1.0000   1.0000   1.0000   1.0000   1.0000   1.0000   1.0000   1.0000
     1.0000   1.0000   1.0000   1.0000   1.0000   1.0000   1.0000   1.0000
     1.0000   1.0000   1.0000   1.0000   1.0000   1.0000   1.0000   1.0000
     1.0000   1.0000   1.0000   1.0000   1.0000   1.0000   1.0000   1.0000
     1.0000   1.0000   1.0000   1.0000   1.0000   1.0000   1.0000   1.0000
     1.0000   1.0000   1.0000   1.0000   1.0000   1.0000   1.0000   1.0000
     1.0000   1.0000   1.0000   1.0000   1.0000   1.0000   1.0000   1.0000
     1.0000   1.0000   1.0000   1.0000   1.0000   1.0000   1.0000   1.0000
     1.0000   1.0000   1.0000   1.0000   1.0000   1.0000   1.0000   1.0000
     1.0000   1.0000   1.0000   1.0000   0.9999   0.9999   0.9999   0.9998
     0.9998   0.9998   0.9997   0.9996   0.9996   0.9994   0.9988   0.9985
     0.9983   0.9981   0.9980   0.9973   0.9963   0.9941   0.9938   0.9920
     0.9916   0.9900   0.9894   0.9889   0.9862   0.9832   0.9821   0.9798
     0.9776   0.9733   0.9586   0.9457   0.9389   0.9362   0.9028   0.8989
     0.8868   0.8864   0.8522   0.8400   0.8313   0.8233   0.8169   0.7988
     0.7775   0.7327   0.7171   0.7112   0.7075   0.6725   0.6706   0.6572
     0.6535   0.6487   0.6420   0.6376   0.6304   0.6270   0.6205   0.6156
     0.6112   0.5996   0.5869   0.5846   0.5773   0.5595   0.4942   0.4382
     0.1222   0.0509   0.0159   0.0101   0.0054   0.0001   0.0000   0.0000
     0.0000   0.0000   0.0000   0.0000   0.0000   0.0000   0.0000   0.0000
     0.0000   0.0000   0.0000   0.0000   0.0000   0.0000   0.0000   0.0000
     0.0000   0.0000   0.0000   0.0000   0.0000   0.0000   0.0000   0.0000

          k = 0.0000 0.2500 0.0000 ( 65257 PWs)   bands (ev):

   -92.7479 -92.6964 -92.6017 -92.5545 -92.4973 -92.4545 -92.4367 -92.3142
   -56.1013 -56.0831 -55.9590 -55.9485 -55.9415 -55.9353 -55.9001 -55.8709
   -55.8553 -55.8541 -55.8472 -55.8051 -55.7854 -55.7478 -55.7282 -55.6969
   -55.6900 -55.6424 -55.6404 -55.6396 -55.6311 -55.5891 -55.5671 -55.4807
   -31.3221 -31.3032 -31.1620 -31.0757 -31.0632 -30.9591 -30.8886 -30.7781
   -29.8935 -29.8504 -29.8260 -29.7191 -15.0912 -15.0601 -14.9780 -14.8438
   -14.7214 -14.5471 -14.4109 -14.2310 -14.1932 -14.1707 -14.1449 -14.0871
   -14.0823 -14.0688 -14.0414 -13.9885 -13.8949 -13.8541 -13.6935 -13.6706
   -13.6228 -13.5890 -13.5411 -13.4982 -13.4527 -13.3877 -13.3522 -13.2722
   -13.2108 -13.1922 -13.1532 -13.1340 -13.0593 -13.0299 -13.0040 -12.9798
   -12.9481 -12.9324 -12.9120 -12.8507 -12.8436 -12.8427 -12.8195 -12.7367
   -12.7201 -12.6603 -12.6216 -12.5381 -12.4492 -12.2933 -12.1288 -12.0683
   -11.8732 -11.8302 -11.8024 -11.7743 -11.7577 -11.7105 -11.6991 -11.6763
   -11.6413 -11.5418 -11.4886 -11.4779  -2.8530  -2.6317  -2.4941  -2.3120
    -2.2685  -2.1049  -1.8856  -1.8010  -1.7880  -1.7303  -1.6272  -1.6111
    -1.5788  -1.5509  -1.5074  -1.3094  -1.1799  -1.1689  -1.0927  -1.0822
    -0.9773  -0.9480  -0.8900  -0.8641  -0.8246  -0.7606  -0.7332  -0.7012
    -0.6680  -0.6529  -0.6192  -0.5462  -0.4952  -0.4293  -0.3157  -0.2970
    -0.2552  -0.1352  -0.0975  -0.0404   0.0115   0.0663   0.0836   0.1142
     0.1733   0.4719   0.5605   0.5951   0.6797   0.7236   0.7432   0.8628
     0.8803   0.9793   1.0042   1.0301   1.1436   1.2373   1.2620   1.2859
     1.3025   1.3279   1.3881   1.4165   1.4446   1.4915   1.5266   1.5580
     1.6444   1.6738   1.7096   1.7619   1.8188   1.8667   1.8846   1.9073
     1.9268   2.0194   2.1515   2.2207   2.2378   2.3135   2.3606   2.4009
     2.4079   2.4699   2.5081   2.5912   2.6285   2.6468   2.7267   2.8212
     2.8448   2.8745   2.8982   2.9124   2.9206   2.9285   2.9360   2.9669
     2.9689   2.9869   2.9929   3.0015   3.0228   3.0325   3.0395   3.0610
     3.0718   3.0768   3.1125   3.1293   3.1884   3.5627   3.5988   3.8326
     4.2519   4.3782   4.6656   4.9985   5.0200   5.6048   5.7545   5.9224
     5.9704   6.0482   6.0760   6.1463   6.5737   6.9094   6.9498   7.0855
     7.2993   7.4475   7.4637   7.5895   7.6137   7.7712   7.7972   8.0141
     8.0556   8.1233   8.1804   8.2855   8.3711   8.5810   8.7251   8.9155

     occupation numbers 
     1.0000   1.0000   1.0000   1.0000   1.0000   1.0000   1.0000   1.0000
     1.0000   1.0000   1.0000   1.0000   1.0000   1.0000   1.0000   1.0000
     1.0000   1.0000   1.0000   1.0000   1.0000   1.0000   1.0000   1.0000
     1.0000   1.0000   1.0000   1.0000   1.0000   1.0000   1.0000   1.0000
     1.0000   1.0000   1.0000   1.0000   1.0000   1.0000   1.0000   1.0000
     1.0000   1.0000   1.0000   1.0000   1.0000   1.0000   1.0000   1.0000
     1.0000   1.0000   1.0000   1.0000   1.0000   1.0000   1.0000   1.0000
     1.0000   1.0000   1.0000   1.0000   1.0000   1.0000   1.0000   1.0000
     1.0000   1.0000   1.0000   1.0000   1.0000   1.0000   1.0000   1.0000
     1.0000   1.0000   1.0000   1.0000   1.0000   1.0000   1.0000   1.0000
     1.0000   1.0000   1.0000   1.0000   1.0000   1.0000   1.0000   1.0000
     1.0000   1.0000   1.0000   1.0000   1.0000   1.0000   1.0000   1.0000
     1.0000   1.0000   1.0000   1.0000   1.0000   1.0000   1.0000   1.0000
     1.0000   1.0000   1.0000   1.0000   1.0000   1.0000   1.0000   1.0000
     1.0000   1.0000   1.0000   1.0000   1.0000   1.0000   1.0000   1.0000
     1.0000   1.0000   1.0000   1.0000   1.0000   1.0000   1.0000   1.0000
     1.0000   1.0000   1.0000   1.0000   1.0000   1.0000   1.0000   1.0000
     1.0000   1.0000   1.0000   1.0000   1.0000   1.0000   1.0000   1.0000
     1.0000   1.0000   1.0000   1.0000   1.0000   1.0000   1.0000   1.0000
     1.0000   1.0000   1.0000   1.0000   0.9999   0.9999   0.9999   0.9998
     0.9998   0.9997   0.9996   0.9996   0.9992   0.9988   0.9986   0.9985
     0.9983   0.9981   0.9975   0.9972   0.9968   0.9960   0.9954   0.9947
     0.9924   0.9915   0.9901   0.9879   0.9850   0.9821   0.9809   0.9792
     0.9777   0.9694   0.9531   0.9421   0.9391   0.9244   0.9139   0.9041
     0.9023   0.8855   0.8741   0.8468   0.8333   0.8264   0.7944   0.7522
     0.7409   0.7264   0.7146   0.7074   0.7032   0.6991   0.6953   0.6790
     0.6779   0.6683   0.6651   0.6604   0.6487   0.6434   0.6395   0.6275
     0.6214   0.6186   0.5982   0.5885   0.5541   0.3373   0.3179   0.2060
     0.0745   0.0515   0.0198   0.0054   0.0049   0.0003   0.0001   0.0000
     0.0000   0.0000   0.0000   0.0000   0.0000   0.0000   0.0000   0.0000
     0.0000   0.0000   0.0000   0.0000   0.0000   0.0000   0.0000   0.0000
     0.0000   0.0000   0.0000   0.0000   0.0000   0.0000   0.0000   0.0000

          k = 0.0000-0.5000 0.0000 ( 65180 PWs)   bands (ev):

   -92.7479 -92.6964 -92.6017 -92.5545 -92.4973 -92.4545 -92.4367 -92.3142
   -56.1013 -56.0831 -55.9590 -55.9485 -55.9415 -55.9353 -55.9001 -55.8709
   -55.8553 -55.8541 -55.8472 -55.8051 -55.7854 -55.7478 -55.7282 -55.6969
   -55.6900 -55.6424 -55.6404 -55.6396 -55.6311 -55.5891 -55.5671 -55.4807
   -31.3219 -31.3031 -31.1622 -31.0759 -31.0631 -30.9587 -30.8891 -30.7782
   -29.8928 -29.8501 -29.8266 -29.7194 -15.0571 -15.0079 -14.9569 -14.8225
   -14.7434 -14.6023 -14.4560 -14.3204 -14.2036 -14.1262 -14.0868 -14.0787
   -14.0313 -14.0157 -13.9710 -13.9463 -13.9219 -13.8840 -13.8292 -13.8162
   -13.6295 -13.5710 -13.5467 -13.5028 -13.4406 -13.4045 -13.3545 -13.3278
   -13.2938 -13.2628 -13.1539 -13.1335 -13.0514 -13.0155 -12.9979 -12.9762
   -12.9700 -12.9264 -12.8559 -12.8339 -12.8101 -12.7511 -12.7312 -12.7195
   -12.6972 -12.6567 -12.5601 -12.4716 -12.3684 -12.3098 -12.2357 -12.2092
   -11.8271 -11.8247 -11.7973 -11.7607 -11.7258 -11.7142 -11.6714 -11.6674
   -11.6229 -11.5639 -11.5498 -11.5355  -2.6384  -2.5791  -2.4289  -2.3564
    -2.0747  -1.9915  -1.8647  -1.7267  -1.6897  -1.6701  -1.5922  -1.5576
    -1.4795  -1.4424  -1.3649  -1.3254  -1.2867  -1.2592  -1.2027  -1.1645
    -1.1169  -1.0789  -1.0493  -1.0133  -0.9047  -0.8601  -0.8254  -0.8226
    -0.7364  -0.7052  -0.6808  -0.6345  -0.5490  -0.4752  -0.3887  -0.3625
    -0.2513  -0.2176  -0.0763  -0.0373  -0.0068   0.0385   0.1625   0.2242
     0.3453   0.4162   0.4230   0.5505   0.6053   0.6930   0.8296   0.9345
     0.9674   1.0063   1.0147   1.0488   1.0661   1.1041   1.1213   1.1346
     1.2425   1.3009   1.3289   1.3553   1.6234   1.6489   1.6774   1.7671
     1.7859   1.8271   1.8407   1.8665   1.8892   1.8925   1.9168   1.9583
     1.9834   2.0161   2.0202   2.0518   2.1061   2.1910   2.2277   2.3967
     2.5553   2.5596   2.5831   2.6189   2.6283   2.6350   2.6843   2.6966
     2.7391   2.7522   2.7731   2.8631   2.8651   2.9354   2.9373   2.9646
     2.9663   2.9835   2.9870   2.9904   2.9980   3.0013   3.0240   3.0316
     3.0330   3.0979   3.1025   3.1191   3.1747   4.0779   4.0942   4.1502
     4.2179   4.6880   4.8606   4.9907   5.1212   5.3868   5.4264   5.5504
     5.6803   5.9761   6.0007   6.0879   6.7456   6.8283   6.9262   7.1956
     7.3101   7.3544   7.4662   7.5588   7.7123   7.8391   7.8678   7.9224
     8.1545   8.2510   8.4380   8.4823   8.6223   8.7737   8.8047   8.8456

     occupation numbers 
     1.0000   1.0000   1.0000   1.0000   1.0000   1.0000   1.0000   1.0000
     1.0000   1.0000   1.0000   1.0000   1.0000   1.0000   1.0000   1.0000
     1.0000   1.0000   1.0000   1.0000   1.0000   1.0000   1.0000   1.0000
     1.0000   1.0000   1.0000   1.0000   1.0000   1.0000   1.0000   1.0000
     1.0000   1.0000   1.0000   1.0000   1.0000   1.0000   1.0000   1.0000
     1.0000   1.0000   1.0000   1.0000   1.0000   1.0000   1.0000   1.0000
     1.0000   1.0000   1.0000   1.0000   1.0000   1.0000   1.0000   1.0000
     1.0000   1.0000   1.0000   1.0000   1.0000   1.0000   1.0000   1.0000
     1.0000   1.0000   1.0000   1.0000   1.0000   1.0000   1.0000   1.0000
     1.0000   1.0000   1.0000   1.0000   1.0000   1.0000   1.0000   1.0000
     1.0000   1.0000   1.0000   1.0000   1.0000   1.0000   1.0000   1.0000
     1.0000   1.0000   1.0000   1.0000   1.0000   1.0000   1.0000   1.0000
     1.0000   1.0000   1.0000   1.0000   1.0000   1.0000   1.0000   1.0000
     1.0000   1.0000   1.0000   1.0000   1.0000   1.0000   1.0000   1.0000
     1.0000   1.0000   1.0000   1.0000   1.0000   1.0000   1.0000   1.0000
     1.0000   1.0000   1.0000   1.0000   1.0000   1.0000   1.0000   1.0000
     1.0000   1.0000   1.0000   1.0000   1.0000   1.0000   1.0000   1.0000
     1.0000   1.0000   1.0000   1.0000   1.0000   1.0000   1.0000   1.0000
     1.0000   1.0000   1.0000   1.0000   1.0000   1.0000   1.0000   1.0000
     1.0000   1.0000   1.0000   1.0000   1.0000   0.9999   0.9999   0.9998
     0.9997   0.9996   0.9996   0.9995   0.9995   0.9994   0.9993   0.9993
     0.9988   0.9984   0.9981   0.9979   0.9931   0.9923   0.9913   0.9877
     0.9867   0.9845   0.9837   0.9821   0.9805   0.9803   0.9785   0.9751
     0.9729   0.9697   0.9693   0.9659   0.9593   0.9471   0.9409   0.9052
     0.8591   0.8576   0.8496   0.8369   0.8334   0.8309   0.8118   0.8068
     0.7891   0.7834   0.7742   0.7321   0.7311   0.6955   0.6946   0.6802
     0.6793   0.6701   0.6683   0.6664   0.6623   0.6605   0.6481   0.6439
     0.6431   0.6065   0.6040   0.5944   0.5621   0.1181   0.1133   0.0981
     0.0819   0.0183   0.0095   0.0055   0.0031   0.0009   0.0007   0.0004
     0.0002   0.0000   0.0000   0.0000   0.0000   0.0000   0.0000   0.0000
     0.0000   0.0000   0.0000   0.0000   0.0000   0.0000   0.0000   0.0000
     0.0000   0.0000   0.0000   0.0000   0.0000   0.0000   0.0000   0.0000

          k = 0.2500 0.2500 0.0000 ( 65198 PWs)   bands (ev):

   -92.7479 -92.6964 -92.6017 -92.5545 -92.4973 -92.4545 -92.4367 -92.3142
   -56.1013 -56.0831 -55.9590 -55.9485 -55.9415 -55.9353 -55.9001 -55.8709
   -55.8553 -55.8541 -55.8472 -55.8051 -55.7854 -55.7478 -55.7282 -55.6969
   -55.6900 -55.6424 -55.6404 -55.6396 -55.6311 -55.5891 -55.5671 -55.4807
   -31.3204 -31.3049 -31.1617 -31.0761 -31.0630 -30.9589 -30.8888 -30.7783
   -29.8925 -29.8514 -29.8256 -29.7195 -15.0626 -15.0256 -14.9501 -14.8329
   -14.7135 -14.5881 -14.5157 -14.3059 -14.1537 -14.1386 -14.1046 -14.0724
   -14.0548 -14.0311 -13.9872 -13.9486 -13.8854 -13.8681 -13.7086 -13.6945
   -13.6658 -13.6454 -13.5882 -13.5566 -13.4824 -13.4712 -13.3324 -13.2919
   -13.2726 -13.1865 -13.1460 -13.0939 -13.0639 -13.0326 -13.0063 -12.9925
   -12.9602 -12.9345 -12.8717 -12.8448 -12.8006 -12.7888 -12.7594 -12.7473
   -12.7190 -12.6524 -12.5862 -12.4976 -12.4039 -12.3224 -12.1514 -12.1309
   -11.8453 -11.8139 -11.8030 -11.7956 -11.7332 -11.6982 -11.6920 -11.6569
   -11.6477 -11.5585 -11.5167 -11.4996  -2.7147  -2.5060  -2.3879  -2.2940
    -2.1731  -2.1082  -1.9104  -1.7658  -1.7465  -1.7172  -1.6220  -1.5889
    -1.4936  -1.4670  -1.4168  -1.2844  -1.2372  -1.1648  -1.1191  -1.0744
    -1.0505  -1.0266  -0.9837  -0.9689  -0.8784  -0.8275  -0.7628  -0.7129
    -0.6823  -0.6347  -0.6211  -0.5564  -0.5072  -0.4493  -0.4166  -0.3292
    -0.2761  -0.2486  -0.2099  -0.1542  -0.0733  -0.0435  -0.0192   0.0585
     0.0891   0.3631   0.5124   0.5467   0.6063   0.6490   0.6978   0.7523
     0.8186   0.8571   1.1279   1.1948   1.2673   1.2927   1.3425   1.3727
     1.4092   1.4465   1.4633   1.4910   1.5366   1.5426   1.5589   1.6029
     1.6417   1.6825   1.7470   1.7792   1.7886   1.8233   1.8577   1.9134
     1.9354   2.0596   2.1310   2.1680   2.1881   2.2529   2.3206   2.3503
     2.3850   2.4115   2.4235   2.5332   2.5712   2.6603   2.7337   2.8312
     2.8483   2.8559   2.8687   2.8895   2.8988   2.9096   2.9160   2.9275
     2.9415   2.9523   2.9714   2.9771   2.9891   3.0115   3.0231   3.0340
     3.0635   3.3644   3.4573   3.5007   3.5730   3.6018   3.8109   3.9076
     4.2577   4.4679   4.6703   4.9378   5.1466   5.6063   5.6590   5.7170
     5.7901   5.8510   6.0596   6.1337   6.1945   6.7856   6.8717   7.0833
     7.2815   7.5193   7.5693   7.6751   7.8299   7.9148   7.9999   8.1181
     8.1402   8.2268   8.2839   8.3300   8.4109   8.4794   8.6307   8.8218

     occupation numbers 
     1.0000   1.0000   1.0000   1.0000   1.0000   1.0000   1.0000   1.0000
     1.0000   1.0000   1.0000   1.0000   1.0000   1.0000   1.0000   1.0000
     1.0000   1.0000   1.0000   1.0000   1.0000   1.0000   1.0000   1.0000
     1.0000   1.0000   1.0000   1.0000   1.0000   1.0000   1.0000   1.0000
     1.0000   1.0000   1.0000   1.0000   1.0000   1.0000   1.0000   1.0000
     1.0000   1.0000   1.0000   1.0000   1.0000   1.0000   1.0000   1.0000
     1.0000   1.0000   1.0000   1.0000   1.0000   1.0000   1.0000   1.0000
     1.0000   1.0000   1.0000   1.0000   1.0000   1.0000   1.0000   1.0000
     1.0000   1.0000   1.0000   1.0000   1.0000   1.0000   1.0000   1.0000
     1.0000   1.0000   1.0000   1.0000   1.0000   1.0000   1.0000   1.0000
     1.0000   1.0000   1.0000   1.0000   1.0000   1.0000   1.0000   1.0000
     1.0000   1.0000   1.0000   1.0000   1.0000   1.0000   1.0000   1.0000
     1.0000   1.0000   1.0000   1.0000   1.0000   1.0000   1.0000   1.0000
     1.0000   1.0000   1.0000   1.0000   1.0000   1.0000   1.0000   1.0000
     1.0000   1.0000   1.0000   1.0000   1.0000   1.0000   1.0000   1.0000
     1.0000   1.0000   1.0000   1.0000   1.0000   1.0000   1.0000   1.0000
     1.0000   1.0000   1.0000   1.0000   1.0000   1.0000   1.0000   1.0000
     1.0000   1.0000   1.0000   1.0000   1.0000   1.0000   1.0000   1.0000
     1.0000   1.0000   1.0000   1.0000   1.0000   1.0000   1.0000   1.0000
     1.0000   1.0000   1.0000   1.0000   1.0000   1.0000   0.9999   0.9999
     0.9999   0.9998   0.9993   0.9990   0.9986   0.9984   0.9980   0.9977
     0.9973   0.9968   0.9965   0.9961   0.9952   0.9951   0.9947   0.9936
     0.9925   0.9912   0.9886   0.9871   0.9866   0.9847   0.9827   0.9788
     0.9771   0.9650   0.9560   0.9507   0.9475   0.9364   0.9229   0.9163
     0.9081   0.9014   0.8983   0.8663   0.8537   0.8213   0.7914   0.7474
     0.7393   0.7356   0.7293   0.7190   0.7143   0.7088   0.7056   0.6996
     0.6924   0.6867   0.6766   0.6736   0.6671   0.6549   0.6486   0.6425
     0.6261   0.4502   0.3962   0.3715   0.3317   0.3164   0.2152   0.1757
     0.0733   0.0389   0.0195   0.0069   0.0028   0.0003   0.0002   0.0001
     0.0001   0.0001   0.0000   0.0000   0.0000   0.0000   0.0000   0.0000
     0.0000   0.0000   0.0000   0.0000   0.0000   0.0000   0.0000   0.0000
     0.0000   0.0000   0.0000   0.0000   0.0000   0.0000   0.0000   0.0000

          k = 0.2500-0.5000 0.0000 ( 65138 PWs)   bands (ev):

   -92.7479 -92.6964 -92.6017 -92.5545 -92.4973 -92.4545 -92.4367 -92.3142
   -56.1013 -56.0831 -55.9590 -55.9485 -55.9415 -55.9353 -55.9001 -55.8709
   -55.8553 -55.8541 -55.8472 -55.8051 -55.7854 -55.7478 -55.7282 -55.6969
   -55.6900 -55.6424 -55.6404 -55.6396 -55.6311 -55.5891 -55.5671 -55.4807
   -31.3202 -31.3048 -31.1619 -31.0763 -31.0629 -30.9585 -30.8893 -30.7784
   -29.8919 -29.8511 -29.8262 -29.7198 -15.0270 -14.9812 -14.9141 -14.7925
   -14.7654 -14.6439 -14.5556 -14.4194 -14.1183 -14.0637 -14.0374 -14.0175
   -13.9959 -13.9895 -13.9556 -13.9349 -13.8970 -13.8643 -13.8300 -13.7967
   -13.7119 -13.6628 -13.6056 -13.5845 -13.5143 -13.4836 -13.3867 -13.3540
   -13.2519 -13.1872 -13.1622 -13.0777 -13.0425 -13.0281 -13.0083 -12.9887
   -12.9575 -12.9303 -12.8602 -12.8546 -12.8148 -12.7417 -12.7147 -12.7009
   -12.6699 -12.6531 -12.5665 -12.4617 -12.3659 -12.3076 -12.2161 -12.1997
   -11.8210 -11.8089 -11.7983 -11.7709 -11.7389 -11.7111 -11.6684 -11.6427
   -11.6195 -11.5770 -11.5509 -11.5396  -2.4964  -2.4310  -2.3027  -2.2252
    -2.0951  -2.0117  -1.8890  -1.7380  -1.6847  -1.6621  -1.5989  -1.5858
    -1.4901  -1.4207  -1.3369  -1.2871  -1.2771  -1.2148  -1.1729  -1.1376
    -1.0895  -1.0521  -1.0174  -0.9779  -0.9670  -0.9207  -0.8917  -0.8484
    -0.8189  -0.7515  -0.6500  -0.6114  -0.5325  -0.4660  -0.4167  -0.3764
    -0.3551  -0.2969  -0.1379  -0.1293  -0.0252   0.0078   0.0174   0.0595
     0.0967   0.1328   0.1622   0.2294   0.5096   0.6032   0.6596   0.7191
     0.9919   1.0119   1.1018   1.1246   1.2913   1.3265   1.3661   1.3918
     1.4044   1.4258   1.4881   1.5364   1.5716   1.6462   1.7488   1.7821
     1.8028   1.8080   1.8491   1.8616   1.8710   1.9117   1.9244   1.9452
     1.9722   1.9910   2.0137   2.0463   2.1054   2.1466   2.2268   2.3613
     2.5071   2.5255   2.5441   2.5729   2.5936   2.6212   2.6439   2.6570
     2.6801   2.7374   2.7790   2.8394   2.8487   2.8571   2.8708   2.8872
     2.9005   2.9195   2.9301   2.9627   2.9708   2.9856   2.9941   3.0022
     3.0142   3.5315   3.5551   3.6964   3.7513   4.0838   4.1393   4.1501
     4.2747   4.7081   4.8816   5.0239   5.0914   5.2599   5.3971   5.5759
     5.5970   5.7281   5.7471   6.1940   6.3735   6.4619   6.6583   7.0679
     7.4630   7.5526   7.6690   7.7758   7.8389   7.9811   8.0013   8.2200
     8.3314   8.3938   8.4508   8.5061   8.5411   8.6423   8.6722   8.7337

     occupation numbers 
     1.0000   1.0000   1.0000   1.0000   1.0000   1.0000   1.0000   1.0000
     1.0000   1.0000   1.0000   1.0000   1.0000   1.0000   1.0000   1.0000
     1.0000   1.0000   1.0000   1.0000   1.0000   1.0000   1.0000   1.0000
     1.0000   1.0000   1.0000   1.0000   1.0000   1.0000   1.0000   1.0000
     1.0000   1.0000   1.0000   1.0000   1.0000   1.0000   1.0000   1.0000
     1.0000   1.0000   1.0000   1.0000   1.0000   1.0000   1.0000   1.0000
     1.0000   1.0000   1.0000   1.0000   1.0000   1.0000   1.0000   1.0000
     1.0000   1.0000   1.0000   1.0000   1.0000   1.0000   1.0000   1.0000
     1.0000   1.0000   1.0000   1.0000   1.0000   1.0000   1.0000   1.0000
     1.0000   1.0000   1.0000   1.0000   1.0000   1.0000   1.0000   1.0000
     1.0000   1.0000   1.0000   1.0000   1.0000   1.0000   1.0000   1.0000
     1.0000   1.0000   1.0000   1.0000   1.0000   1.0000   1.0000   1.0000
     1.0000   1.0000   1.0000   1.0000   1.0000   1.0000   1.0000   1.0000
     1.0000   1.0000   1.0000   1.0000   1.0000   1.0000   1.0000   1.0000
     1.0000   1.0000   1.0000   1.0000   1.0000   1.0000   1.0000   1.0000
     1.0000   1.0000   1.0000   1.0000   1.0000   1.0000   1.0000   1.0000
     1.0000   1.0000   1.0000   1.0000   1.0000   1.0000   1.0000   1.0000
     1.0000   1.0000   1.0000   1.0000   1.0000   1.0000   1.0000   1.0000
     1.0000   1.0000   1.0000   1.0000   1.0000   1.0000   1.0000   1.0000
     1.0000   1.0000   1.0000   1.0000   1.0000   1.0000   1.0000   0.9999
     0.9997   0.9996   0.9994   0.9993   0.9984   0.9981   0.9978   0.9975
     0.9973   0.9971   0.9961   0.9952   0.9944   0.9924   0.9885   0.9869
     0.9859   0.9856   0.9832   0.9824   0.9818   0.9789   0.9779   0.9763
     0.9739   0.9722   0.9700   0.9665   0.9594   0.9538   0.9411   0.9137
     0.8744   0.8687   0.8627   0.8531   0.8459   0.8360   0.8276   0.8225
     0.8135   0.7898   0.7715   0.7435   0.7390   0.7350   0.7283   0.7201
     0.7135   0.7038   0.6983   0.6813   0.6769   0.6690   0.6644   0.6600
     0.6535   0.3544   0.3414   0.2682   0.2420   0.1163   0.1010   0.0982
     0.0698   0.0170   0.0087   0.0048   0.0036   0.0016   0.0008   0.0003
     0.0003   0.0001   0.0001   0.0000   0.0000   0.0000   0.0000   0.0000
     0.0000   0.0000   0.0000   0.0000   0.0000   0.0000   0.0000   0.0000
     0.0000   0.0000   0.0000   0.0000   0.0000   0.0000   0.0000   0.0000

          k =-0.5000-0.5000 0.0000 ( 65132 PWs)   bands (ev):

   -92.7479 -92.6964 -92.6017 -92.5545 -92.4973 -92.4545 -92.4367 -92.3142
   -56.1013 -56.0831 -55.9590 -55.9485 -55.9415 -55.9353 -55.9001 -55.8709
   -55.8553 -55.8541 -55.8472 -55.8051 -55.7854 -55.7478 -55.7282 -55.6969
   -55.6900 -55.6424 -55.6404 -55.6396 -55.6311 -55.5891 -55.5671 -55.4807
   -31.3179 -31.3071 -31.1615 -31.0766 -31.0627 -30.9583 -30.8895 -30.7786
   -29.8908 -29.8521 -29.8258 -29.7202 -14.9819 -14.9543 -14.8363 -14.8247
   -14.7275 -14.6939 -14.6522 -14.5200 -14.0308 -14.0157 -13.9815 -13.9630
   -13.9491 -13.9338 -13.9063 -13.8974 -13.8819 -13.8663 -13.8445 -13.7780
   -13.7722 -13.7334 -13.7065 -13.7014 -13.6040 -13.5333 -13.4252 -13.4036
   -13.2032 -13.1580 -13.0956 -13.0709 -13.0394 -13.0298 -13.0204 -13.0028
   -12.9875 -12.9036 -12.8798 -12.8562 -12.8244 -12.7307 -12.7134 -12.6710
   -12.6503 -12.6412 -12.5829 -12.4508 -12.3622 -12.3020 -12.1961 -12.1925
   -11.8180 -11.8052 -11.7869 -11.7706 -11.7350 -11.7172 -11.6827 -11.6235
   -11.6020 -11.5988 -11.5486 -11.5457  -2.2718  -2.1967  -2.1867  -2.1158
    -2.0767  -1.9982  -1.9303  -1.8043  -1.6886  -1.6584  -1.6190  -1.5622
    -1.4890  -1.4755  -1.4041  -1.3616  -1.2434  -1.2149  -1.1666  -1.1388
    -1.0744  -1.0286  -1.0090  -0.9967  -0.9445  -0.8992  -0.8813  -0.7699
    -0.7138  -0.6682  -0.6159  -0.5897  -0.5776  -0.5427  -0.5003  -0.4642
    -0.4521  -0.3697  -0.2981  -0.2569  -0.2287  -0.1559  -0.0957  -0.0857
    -0.0268  -0.0020   0.0059   0.0153   0.4795   0.5275   0.6112   0.6275
     1.0246   1.0327   1.0655   1.1042   1.3753   1.3953   1.4025   1.4415
     1.5706   1.6665   1.6936   1.7303   1.7564   1.7735   1.7843   1.8145
     1.8278   1.8481   1.8505   1.9011   1.9048   1.9320   1.9584   1.9654
     1.9801   2.0210   2.0458   2.0591   2.0898   2.1199   2.1863   2.2537
     2.5150   2.5521   2.5735   2.5908   2.6025   2.6296   2.6340   2.6504
     2.6642   2.6812   2.6949   2.7141   2.7477   2.7819   2.7860   2.8068
     2.8190   2.8460   2.8544   2.8642   2.8665   2.9673   2.9740   2.9982
     3.0093   3.9520   3.9880   4.0146   4.0568   4.2719   4.3460   4.3716
     4.6127   4.7347   4.8171   4.9470   5.0393   5.0465   5.1604   5.2615
     5.3624   5.8383   5.8643   5.9292   6.0057   6.4946   6.5579   6.6010
     7.7871   7.9033   7.9148   7.9328   7.9422   7.9909   8.0531   8.0700
     8.2341   8.3975   8.5476   8.5662   8.5785   8.6033   8.6194   8.7050

     occupation numbers 
     1.0000   1.0000   1.0000   1.0000   1.0000   1.0000   1.0000   1.0000
[...]
     0.7453   0.7295   0.7167   0.7145   0.7042   0.6986   0.6910   0.6798
     0.6773   0.6635   0.6576   0.6534   0.6467   0.6349   0.6218   0.6193
     0.6150   0.6105   0.6049   0.5990   0.5248   0.3554   0.3222   0.2035
     0.0784   0.0458   0.0219   0.0055   0.0047   0.0003   0.0001   0.0000
     0.0000   0.0000   0.0000   0.0000   0.0000   0.0000   0.0000   0.0000
     0.0000   0.0000   0.0000   0.0000   0.0000   0.0000   0.0000   0.0000
     0.0000   0.0000   0.0000   0.0000   0.0000   0.0000   0.0000   0.0000

          k =-0.5000 0.0000 0.0000 ( 65180 PWs)   bands (ev):

   -92.7479 -92.6964 -92.6017 -92.5545 -92.4973 -92.4545 -92.4367 -92.3142
   -56.1013 -56.0831 -55.9590 -55.9485 -55.9415 -55.9353 -55.9001 -55.8709
   -55.8553 -55.8541 -55.8472 -55.8051 -55.7854 -55.7478 -55.7282 -55.6969
   -55.6900 -55.6424 -55.6404 -55.6396 -55.6311 -55.5891 -55.5671 -55.4807
   -31.3183 -31.3074 -31.1611 -31.0764 -31.0629 -30.9592 -30.8885 -30.7783
   -29.8921 -29.8528 -29.8245 -29.7196 -15.0616 -15.0119 -14.9489 -14.8343
   -14.7359 -14.5909 -14.4501 -14.2933 -14.1782 -14.1598 -14.1540 -14.0888
   -14.0374 -14.0070 -13.9567 -13.9426 -13.9316 -13.8826 -13.8497 -13.7596
   -13.6012 -13.5728 -13.5409 -13.5327 -13.4464 -13.4104 -13.3644 -13.3127
   -13.2893 -13.2695 -13.0992 -13.0887 -13.0697 -13.0561 -13.0194 -12.9999
   -12.9838 -12.9677 -12.8354 -12.8076 -12.7809 -12.7737 -12.7492 -12.6856
   -12.6767 -12.6559 -12.5863 -12.4654 -12.3723 -12.3084 -12.2419 -12.2060
   -11.8244 -11.8031 -11.7960 -11.7820 -11.7634 -11.7217 -11.6598 -11.6414
   -11.6075 -11.5663 -11.5569 -11.5409  -2.6283  -2.5896  -2.4264  -2.3867
    -2.0738  -1.9987  -1.8513  -1.7323  -1.6937  -1.6483  -1.6006  -1.5751
    -1.4518  -1.4071  -1.3920  -1.3101  -1.2731  -1.2593  -1.2274  -1.1676
    -1.1008  -1.0722  -1.0414  -0.9437  -0.9003  -0.8515  -0.8190  -0.7977
    -0.7665  -0.7188  -0.6930  -0.6540  -0.5576  -0.4868  -0.4186  -0.3578
    -0.1899  -0.1591  -0.1021  -0.0672   0.0008   0.0078   0.1504   0.1804
     0.2165   0.3940   0.4936   0.5433   0.6217   0.6965   0.8106   0.8260
     0.9605   0.9854   1.0379   1.0649   1.1060   1.1175   1.1646   1.1860
     1.2551   1.3015   1.3470   1.3584   1.6565   1.6679   1.6862   1.7061
     1.8144   1.8233   1.8398   1.8505   1.8755   1.8892   1.9258   1.9505
     1.9751   2.0311   2.0455   2.0981   2.1180   2.1745   2.2799   2.3877
     2.4533   2.4718   2.5463   2.5797   2.6084   2.6771   2.6822   2.6925
     2.7206   2.7439   2.7892   2.8392   2.8891   2.9114   2.9536   2.9584
     2.9597   2.9717   2.9851   2.9982   3.0119   3.0146   3.0387   3.0397
     3.0684   3.0826   3.0878   3.2191   3.2226   4.0146   4.0786   4.1503
     4.2864   4.7457   4.8220   4.9979   5.0175   5.4554   5.4812   5.5550
     5.6138   5.9801   5.9914   6.0978   6.7196   6.7736   6.9775   7.2528
     7.2964   7.3321   7.4388   7.5557   7.7364   7.8460   7.8793   7.9364
     8.1623   8.2419   8.4422   8.4763   8.5828   8.7208   8.8193   8.8992

     occupation numbers 
     1.0000   1.0000   1.0000   1.0000   1.0000   1.0000   1.0000   1.0000
     1.0000   1.0000   1.0000   1.0000   1.0000   1.0000   1.0000   1.0000
     1.0000   1.0000   1.0000   1.0000   1.0000   1.0000   1.0000   1.0000
     1.0000   1.0000   1.0000   1.0000   1.0000   1.0000   1.0000   1.0000
     1.0000   1.0000   1.0000   1.0000   1.0000   1.0000   1.0000   1.0000
     1.0000   1.0000   1.0000   1.0000   1.0000   1.0000   1.0000   1.0000
     1.0000   1.0000   1.0000   1.0000   1.0000   1.0000   1.0000   1.0000
     1.0000   1.0000   1.0000   1.0000   1.0000   1.0000   1.0000   1.0000
     1.0000   1.0000   1.0000   1.0000   1.0000   1.0000   1.0000   1.0000
     1.0000   1.0000   1.0000   1.0000   1.0000   1.0000   1.0000   1.0000
     1.0000   1.0000   1.0000   1.0000   1.0000   1.0000   1.0000   1.0000
     1.0000   1.0000   1.0000   1.0000   1.0000   1.0000   1.0000   1.0000
     1.0000   1.0000   1.0000   1.0000   1.0000   1.0000   1.0000   1.0000
     1.0000   1.0000   1.0000   1.0000   1.0000   1.0000   1.0000   1.0000
     1.0000   1.0000   1.0000   1.0000   1.0000   1.0000   1.0000   1.0000
     1.0000   1.0000   1.0000   1.0000   1.0000   1.0000   1.0000   1.0000
     1.0000   1.0000   1.0000   1.0000   1.0000   1.0000   1.0000   1.0000
     1.0000   1.0000   1.0000   1.0000   1.0000   1.0000   1.0000   1.0000
     1.0000   1.0000   1.0000   1.0000   1.0000   1.0000   1.0000   1.0000
     1.0000   1.0000   1.0000   1.0000   1.0000   0.9999   0.9999   0.9999
     0.9997   0.9997   0.9996   0.9995   0.9994   0.9993   0.9992   0.9991
     0.9987   0.9983   0.9979   0.9978   0.9920   0.9917   0.9910   0.9903
     0.9852   0.9847   0.9838   0.9831   0.9815   0.9805   0.9778   0.9758
     0.9737   0.9682   0.9666   0.9604   0.9578   0.9497   0.9312   0.9074
     0.8902   0.8849   0.8620   0.8508   0.8407   0.8147   0.8126   0.8085
     0.7969   0.7870   0.7669   0.7436   0.7192   0.7079   0.6860   0.6835
     0.6828   0.6765   0.6693   0.6622   0.6547   0.6532   0.6400   0.6394
     0.6233   0.6153   0.6123   0.5360   0.5340   0.1377   0.1178   0.0981
     0.0675   0.0148   0.0110   0.0054   0.0049   0.0006   0.0005   0.0004
     0.0003   0.0000   0.0000   0.0000   0.0000   0.0000   0.0000   0.0000
     0.0000   0.0000   0.0000   0.0000   0.0000   0.0000   0.0000   0.0000
     0.0000   0.0000   0.0000   0.0000   0.0000   0.0000   0.0000   0.0000

          k =-0.2500 0.2500 0.0000 ( 65198 PWs)   bands (ev):

   -92.7479 -92.6964 -92.6017 -92.5545 -92.4973 -92.4545 -92.4367 -92.3142
   -56.1013 -56.0831 -55.9590 -55.9485 -55.9415 -55.9353 -55.9001 -55.8709
   -55.8553 -55.8541 -55.8472 -55.8051 -55.7854 -55.7478 -55.7282 -55.6969
   -55.6900 -55.6424 -55.6404 -55.6396 -55.6311 -55.5891 -55.5671 -55.4807
   -31.3204 -31.3049 -31.1617 -31.0761 -31.0630 -30.9589 -30.8888 -30.7783
   -29.8925 -29.8514 -29.8256 -29.7195 -15.0640 -15.0246 -14.9483 -14.8319
   -14.7187 -14.5938 -14.5076 -14.2961 -14.1603 -14.1315 -14.1137 -14.0719
   -14.0422 -14.0308 -14.0076 -13.9517 -13.8810 -13.8673 -13.7174 -13.6905
   -13.6627 -13.6420 -13.5963 -13.5424 -13.4810 -13.4621 -13.3387 -13.3070
   -13.2678 -13.1907 -13.1467 -13.0856 -13.0547 -13.0379 -13.0159 -12.9870
   -12.9731 -12.9345 -12.8706 -12.8497 -12.8154 -12.7847 -12.7550 -12.7375
   -12.7073 -12.6569 -12.5218 -12.4874 -12.4753 -12.3281 -12.1727 -12.1015
   -11.8445 -11.8232 -11.7962 -11.7838 -11.7426 -11.7080 -11.6849 -11.6633
   -11.6409 -11.5582 -11.5122 -11.5029  -2.7131  -2.5050  -2.3839  -2.2954
    -2.1772  -2.1109  -1.9081  -1.7627  -1.7442  -1.7151  -1.6226  -1.5879
    -1.4935  -1.4604  -1.4338  -1.2915  -1.2343  -1.1668  -1.1389  -1.0787
    -1.0560  -1.0166  -0.9878  -0.9478  -0.8839  -0.8367  -0.7722  -0.7056
    -0.6787  -0.6288  -0.5993  -0.5545  -0.4974  -0.4515  -0.4119  -0.3103
    -0.2791  -0.2664  -0.2225  -0.1569  -0.0766  -0.0419  -0.0103   0.0619
     0.0869   0.3442   0.5153   0.5556   0.5968   0.6531   0.6977   0.7559
     0.8284   0.8521   1.1353   1.2465   1.2846   1.3183   1.3227   1.3651
     1.3823   1.4287   1.4597   1.4724   1.4994   1.5453   1.5596   1.6014
     1.6189   1.6645   1.7563   1.7713   1.7905   1.8277   1.8550   1.8946
     1.9430   2.0495   2.1620   2.1868   2.2337   2.2533   2.3195   2.3614
     2.3885   2.4123   2.4322   2.5349   2.5701   2.6600   2.7307   2.8362
     2.8480   2.8601   2.8719   2.8792   2.8937   2.9023   2.9193   2.9300
     2.9411   2.9523   2.9634   2.9723   2.9789   3.0123   3.0236   3.0314
     3.0653   3.3576   3.4392   3.5061   3.5770   3.6043   3.7988   3.9161
     4.2592   4.4647   4.6734   4.9428   5.1468   5.6070   5.6566   5.7169
     5.7869   5.8517   6.0645   6.1414   6.1882   6.8051   6.8708   7.0806
     7.2642   7.5330   7.5755   7.6349   7.8475   7.8982   7.9634   8.1269
     8.1625   8.2577   8.2898   8.3475   8.4130   8.4415   8.6436   8.8202

     occupation numbers 
     1.0000   1.0000   1.0000   1.0000   1.0000   1.0000   1.0000   1.0000
     1.0000   1.0000   1.0000   1.0000   1.0000   1.0000   1.0000   1.0000
     1.0000   1.0000   1.0000   1.0000   1.0000   1.0000   1.0000   1.0000
     1.0000   1.0000   1.0000   1.0000   1.0000   1.0000   1.0000   1.0000
     1.0000   1.0000   1.0000   1.0000   1.0000   1.0000   1.0000   1.0000
     1.0000   1.0000   1.0000   1.0000   1.0000   1.0000   1.0000   1.0000
     1.0000   1.0000   1.0000   1.0000   1.0000   1.0000   1.0000   1.0000
     1.0000   1.0000   1.0000   1.0000   1.0000   1.0000   1.0000   1.0000
     1.0000   1.0000   1.0000   1.0000   1.0000   1.0000   1.0000   1.0000
     1.0000   1.0000   1.0000   1.0000   1.0000   1.0000   1.0000   1.0000
     1.0000   1.0000   1.0000   1.0000   1.0000   1.0000   1.0000   1.0000
     1.0000   1.0000   1.0000   1.0000   1.0000   1.0000   1.0000   1.0000
     1.0000   1.0000   1.0000   1.0000   1.0000   1.0000   1.0000   1.0000
     1.0000   1.0000   1.0000   1.0000   1.0000   1.0000   1.0000   1.0000
     1.0000   1.0000   1.0000   1.0000   1.0000   1.0000   1.0000   1.0000
     1.0000   1.0000   1.0000   1.0000   1.0000   1.0000   1.0000   1.0000
     1.0000   1.0000   1.0000   1.0000   1.0000   1.0000   1.0000   1.0000
     1.0000   1.0000   1.0000   1.0000   1.0000   1.0000   1.0000   1.0000
     1.0000   1.0000   1.0000   1.0000   1.0000   1.0000   1.0000   1.0000
     1.0000   1.0000   1.0000   1.0000   1.0000   1.0000   0.9999   0.9999
     0.9999   0.9998   0.9993   0.9987   0.9985   0.9982   0.9982   0.9978
     0.9976   0.9970   0.9966   0.9964   0.9959   0.9950   0.9947   0.9937
     0.9932   0.9918   0.9882   0.9875   0.9865   0.9845   0.9828   0.9802
     0.9764   0.9662   0.9516   0.9477   0.9399   0.9363   0.9231   0.9137
     0.9072   0.9012   0.8960   0.8657   0.8541   0.8214   0.7927   0.7450
     0.7394   0.7335   0.7277   0.7241   0.7169   0.7126   0.7039   0.6984
     0.6926   0.6867   0.6809   0.6761   0.6726   0.6545   0.6483   0.6440
     0.6250   0.4541   0.4066   0.3685   0.3296   0.3151   0.2205   0.1725
     0.0730   0.0393   0.0193   0.0068   0.0028   0.0003   0.0002   0.0001
     0.0001   0.0001   0.0000   0.0000   0.0000   0.0000   0.0000   0.0000
     0.0000   0.0000   0.0000   0.0000   0.0000   0.0000   0.0000   0.0000
     0.0000   0.0000   0.0000   0.0000   0.0000   0.0000   0.0000   0.0000

          k =-0.5000 0.2500 0.0000 ( 65138 PWs)   bands (ev):

   -92.7479 -92.6964 -92.6017 -92.5545 -92.4973 -92.4545 -92.4367 -92.3142
   -56.1013 -56.0831 -55.9590 -55.9485 -55.9415 -55.9353 -55.9001 -55.8709
   -55.8553 -55.8541 -55.8472 -55.8051 -55.7854 -55.7478 -55.7282 -55.6969
   -55.6900 -55.6424 -55.6404 -55.6396 -55.6311 -55.5891 -55.5671 -55.4807
   -31.3181 -31.3072 -31.1613 -31.0765 -31.0628 -30.9588 -30.8890 -30.7785
   -29.8915 -29.8524 -29.8251 -29.7199 -15.0293 -14.9854 -14.9063 -14.8016
   -14.7631 -14.6380 -14.5509 -14.4125 -14.1109 -14.0790 -14.0676 -14.0260
   -13.9996 -13.9793 -13.9427 -13.9251 -13.9124 -13.8693 -13.8491 -13.7511
   -13.6834 -13.6351 -13.6308 -13.6164 -13.5146 -13.4912 -13.3945 -13.3361
   -13.2456 -13.2082 -13.1116 -13.0725 -13.0612 -13.0361 -13.0118 -12.9893
   -12.9815 -12.9546 -12.8559 -12.8332 -12.8036 -12.7555 -12.7242 -12.6699
   -12.6624 -12.6516 -12.5843 -12.4588 -12.3676 -12.3073 -12.2194 -12.1976
   -11.8174 -11.8048 -11.7903 -11.7782 -11.7570 -11.7265 -11.6458 -11.6384
   -11.6134 -11.5808 -11.5524 -11.5434  -2.4858  -2.4440  -2.2962  -2.2533
    -2.0930  -2.0174  -1.8754  -1.7383  -1.6825  -1.6553  -1.6166  -1.5777
    -1.4972  -1.3813  -1.3246  -1.3009  -1.2747  -1.1990  -1.1697  -1.1314
    -1.1140  -1.0539  -1.0235  -0.9854  -0.9500  -0.9211  -0.8630  -0.8356
    -0.7932  -0.7593  -0.6554  -0.6276  -0.5399  -0.4787  -0.4486  -0.3905
    -0.3065  -0.2710  -0.1716  -0.1295  -0.0753  -0.0214   0.0002   0.0759
     0.0994   0.1314   0.1848   0.2264   0.5390   0.6065   0.6602   0.6741
     0.9727   1.0268   1.1035   1.1267   1.3044   1.3403   1.3780   1.3898
     1.4081   1.4259   1.4948   1.5409   1.5813   1.6087   1.7375   1.7747
     1.7977   1.8094   1.8480   1.8740   1.8896   1.9026   1.9211   1.9455
     1.9896   2.0053   2.0398   2.0634   2.0949   2.1517   2.2728   2.3745
     2.4000   2.4717   2.5067   2.5663   2.6044   2.6116   2.6498   2.6814
     2.7025   2.7418   2.7889   2.8374   2.8482   2.8567   2.8759   2.8953
     2.9071   2.9215   2.9396   2.9579   2.9683   2.9793   2.9869   2.9964
     3.0083   3.5370   3.5885   3.7272   3.7504   4.0224   4.1010   4.1557
     4.3652   4.7398   4.8396   4.9931   5.0430   5.3595   5.3884   5.5557
     5.6070   5.7075   5.7429   6.2022   6.3664   6.4707   6.6350   7.0794
     7.4653   7.5542   7.6832   7.7603   7.8512   7.9707   7.9951   8.2425
     8.3292   8.3923   8.4571   8.5203   8.5397   8.6117   8.6364   8.7156

     occupation numbers 
     1.0000   1.0000   1.0000   1.0000   1.0000   1.0000   1.0000   1.0000
     1.0000   1.0000   1.0000   1.0000   1.0000   1.0000   1.0000   1.0000
     1.0000   1.0000   1.0000   1.0000   1.0000   1.0000   1.0000   1.0000
     1.0000   1.0000   1.0000   1.0000   1.0000   1.0000   1.0000   1.0000
     1.0000   1.0000   1.0000   1.0000   1.0000   1.0000   1.0000   1.0000
     1.0000   1.0000   1.0000   1.0000   1.0000   1.0000   1.0000   1.0000
     1.0000   1.0000   1.0000   1.0000   1.0000   1.0000   1.0000   1.0000
     1.0000   1.0000   1.0000   1.0000   1.0000   1.0000   1.0000   1.0000
     1.0000   1.0000   1.0000   1.0000   1.0000   1.0000   1.0000   1.0000
     1.0000   1.0000   1.0000   1.0000   1.0000   1.0000   1.0000   1.0000
     1.0000   1.0000   1.0000   1.0000   1.0000   1.0000   1.0000   1.0000
     1.0000   1.0000   1.0000   1.0000   1.0000   1.0000   1.0000   1.0000
     1.0000   1.0000   1.0000   1.0000   1.0000   1.0000   1.0000   1.0000
     1.0000   1.0000   1.0000   1.0000   1.0000   1.0000   1.0000   1.0000
     1.0000   1.0000   1.0000   1.0000   1.0000   1.0000   1.0000   1.0000
     1.0000   1.0000   1.0000   1.0000   1.0000   1.0000   1.0000   1.0000
     1.0000   1.0000   1.0000   1.0000   1.0000   1.0000   1.0000   1.0000
     1.0000   1.0000   1.0000   1.0000   1.0000   1.0000   1.0000   1.0000
     1.0000   1.0000   1.0000   1.0000   1.0000   1.0000   1.0000   1.0000
     1.0000   1.0000   1.0000   1.0000   1.0000   1.0000   0.9999   0.9999
     0.9997   0.9996   0.9994   0.9993   0.9983   0.9980   0.9976   0.9975
     0.9973   0.9970   0.9960   0.9951   0.9942   0.9935   0.9890   0.9873
     0.9861   0.9855   0.9833   0.9816   0.9805   0.9796   0.9782   0.9762
     0.9723   0.9708   0.9672   0.9646   0.9608   0.9531   0.9326   0.9106
     0.9043   0.8850   0.8746   0.8554   0.8421   0.8395   0.8253   0.8130
     0.8044   0.7879   0.7671   0.7445   0.7393   0.7352   0.7257   0.7161
     0.7101   0.7027   0.6934   0.6838   0.6783   0.6724   0.6683   0.6632
     0.6567   0.3514   0.3234   0.2533   0.2424   0.1351   0.1114   0.0967
     0.0535   0.0151   0.0103   0.0055   0.0044   0.0010   0.0009   0.0004
     0.0003   0.0002   0.0001   0.0000   0.0000   0.0000   0.0000   0.0000
     0.0000   0.0000   0.0000   0.0000   0.0000   0.0000   0.0000   0.0000
     0.0000   0.0000   0.0000   0.0000   0.0000   0.0000   0.0000   0.0000

     the Fermi energy is     3.2800 ev

!    total energy              =   -4399.92723479 Ry
     estimated scf accuracy    <          3.5E-09 Ry
     smearing contrib. (-TS)   =      -1.14715333 Ry
     internal energy E=F+TS    =   -4398.78008146 Ry

     The total energy is F=E-TS. E is the sum of the following terms:
     one-electron contribution =  -21252.10114777 Ry
     hartree contribution      =   10753.52480983 Ry
     xc contribution           =    -686.73516840 Ry
     ewald contribution        =    7053.17649277 Ry
     one-center paw contrib.   =    -266.64506789 Ry
      -> PAW hartree energy AE =      25.13608198 Ry
      -> PAW hartree energy PS =     -25.02029216 Ry
      -> PAW xc energy AE      =     -16.51365145 Ry
      -> PAW xc energy PS      =       6.87293651 Ry
      -> total E_H with PAW    =   10753.64059965 Ry
      -> total E_XC with PAW   =    -696.37588333 Ry

     convergence has been achieved in  53 iterations

     Writing all to output data dir /bsuhome/zayahcortright/scratch/pwscf.save/
 
     init_run     :      7.56s CPU      7.95s WALL (       1 calls)
     electrons    :    755.12s CPU    768.74s WALL (       1 calls)

     Called by init_run:
     wfcinit      :      5.89s CPU      6.01s WALL (       1 calls)
     wfcinit:atom :      0.04s CPU      0.05s WALL (       5 calls)
     wfcinit:wfcr :      5.58s CPU      5.65s WALL (       5 calls)
     potinit      :      0.16s CPU      0.18s WALL (       1 calls)
     hinit0       :      0.64s CPU      0.82s WALL (       1 calls)

     Called by electrons:
     c_bands      :    596.68s CPU    602.01s WALL (      53 calls)
     sum_band     :    118.51s CPU    123.36s WALL (      53 calls)
     v_of_rho     :      5.81s CPU      6.11s WALL (      54 calls)
     v_h          :      0.50s CPU      0.51s WALL (      54 calls)
     v_xc         :      5.31s CPU      5.60s WALL (      54 calls)
     newd         :     18.20s CPU     20.86s WALL (      54 calls)
     PAW_pot      :      1.73s CPU      1.77s WALL (      54 calls)
     mix_rho      :     13.77s CPU     14.08s WALL (      53 calls)

     Called by c_bands:
     init_us_2    :      7.27s CPU      7.35s WALL (     535 calls)
     init_us_2:cp :      7.27s CPU      7.34s WALL (     535 calls)
     cegterg      :    562.79s CPU    567.71s WALL (     265 calls)

     Called by sum_band:
     sum_band:wei :      0.37s CPU      0.37s WALL (      53 calls)
     sum_band:loo :     96.37s CPU     97.28s WALL (      53 calls)
     sum_band:buf :      1.62s CPU      1.63s WALL (     265 calls)
     sum_band:ini :      3.40s CPU      3.41s WALL (     265 calls)
     sum_band:cal :     19.88s CPU     19.94s WALL (     265 calls)
     sum_band:bec :      0.63s CPU      0.63s WALL (     265 calls)
     addusdens    :     19.80s CPU     23.71s WALL (      53 calls)
                                        0.00s GPU  (      53 calls)
     addusd:skk   :      0.38s CPU      0.72s WALL (     212 calls)
                                        0.00s GPU  (     212 calls)

     Called by *egterg:
     cdiaghg      :     61.39s CPU     61.63s WALL (    1436 calls)
     cegterg:over :     40.99s CPU     41.11s WALL (    1171 calls)
     cegterg:upda :     29.93s CPU     30.30s WALL (    1171 calls)
     cegterg:last :     62.11s CPU     62.29s WALL (     486 calls)
     cdiaghg:chol :      3.42s CPU      3.44s WALL (    1436 calls)
     cdiaghg:inve :      3.63s CPU      3.65s WALL (    1436 calls)
     cdiaghg:para :      7.86s CPU      7.89s WALL (    2872 calls)
     h_psi        :    310.37s CPU    313.19s WALL (    1441 calls)
     s_psi        :     41.00s CPU     41.11s WALL (    1441 calls)
     g_psi        :      1.19s CPU      1.19s WALL (    1171 calls)

     Called by h_psi:
     h_psi:calbec :     45.71s CPU     45.85s WALL (    1441 calls)
     vloc_psi     :    220.38s CPU    222.51s WALL (    1441 calls)
     add_vuspsi   :     40.92s CPU     41.07s WALL (    1441 calls)

     General routines
     calbec       :     65.58s CPU     65.78s WALL (    1706 calls)
     fft          :      3.90s CPU      3.95s WALL (     700 calls)
     ffts         :      5.11s CPU      5.16s WALL (    5713 calls)
     fftw         :    187.18s CPU    188.88s WALL (  354358 calls)
     interpolate  :      0.43s CPU      0.44s WALL (      54 calls)
 
     Parallel routines

     PAW routines
     PAW_pot      :      1.73s CPU      1.77s WALL (      54 calls)
 
     PWSCF        :  12m44.54s CPU  13m 1.59s WALL

 
   This run was terminated on:  21:15: 6  21Jun2024            

=------------------------------------------------------------------------------=
   JOB DONE.
=------------------------------------------------------------------------------=
