
     Program PWSCF v.7.2 starts on 21Jun2024 at 22:57: 1 

     This program is part of the open-source Quantum ESPRESSO suite
     for quantum simulation of materials; please cite
         "P. Giannozzi et al., J. Phys.:Condens. Matter 21 395502 (2009);
         "P. Giannozzi et al., J. Phys.:Condens. Matter 29 465901 (2017);
         "P. Giannozzi et al., J. Chem. Phys. 152 154105 (2020);
          URL http://www.quantum-espresso.org", 
     in publications or presentations arising from this work. More details at
     http://www.quantum-espresso.org/quote

     Parallel version (MPI & OpenMP), running on      48 processor cores
     Number of MPI processes:                48
     Threads/MPI process:                     1

     MPI processes distributed on     1 nodes
     33230 MiB available memory on the printing compute node when the environment starts
 
     Reading input from espresso.pwi
Warning: card &CELL ignored
Warning: card / ignored
Warning: card &FCP ignored
Warning: card / ignored
Warning: card &RISM ignored
Warning: card / ignored

     Current dimensions of program PWSCF are:
     Max number of different atomic species (ntypx) = 10
     Max number of k-points (npk) =  40000
     Max angular momentum in pseudopotentials (lmaxx) =  4
     file O.pbe-n-kjpaw_psl.0.1.UPF: wavefunction(s)  2P renormalized
     signal trapping enabled: kill the code with -SIGUSR1 to stop cleanly the simulation 
 
     K-points division:     npool     =       2
     R & G space division:  proc/nbgrp/npool/nimage =      24
     Subspace diagonalization in iterative solution of the eigenvalue problem:
     one sub-group per band group will be used
     scalapack distributed-memory algorithm (size of sub-group:  3*  3 procs)

 
     Parallelization info
     --------------------
     sticks:   dense  smooth     PW     G-vecs:    dense   smooth      PW
     Min         350     175     47                61430    21716    3036
     Max         351     177     48                61449    21727    3041
     Sum        8421    4205   1137              1474595   521381   72913
 
     Using Slab Decomposition
 


     bravais-lattice index     =            0
     lattice parameter (alat)  =      14.8599  a.u.
     unit-cell volume          =    8305.1283 (a.u.)^3
     number of atoms/cell      =           50
     number of atomic types    =            4
     number of electrons       =       431.00
     number of Kohn-Sham states=          259
     kinetic-energy cutoff     =      60.0000  Ry
     charge density cutoff     =     480.0000  Ry
     scf convergence threshold =      1.0E-08
     mixing beta               =       0.1500
     number of iterations used =            8  local-TF  mixing
     Exchange-correlation= PBE
                           (   1   4   3   4   0   0   0)

     celldm(1)=  14.859904  celldm(2)=   0.000000  celldm(3)=   0.000000
     celldm(4)=   0.000000  celldm(5)=   0.000000  celldm(6)=   0.000000

     crystal axes: (cart. coord. in units of alat)
               a(1) = (   1.000000   0.000000   0.000000 )  
               a(2) = (   0.000000   1.000000   0.000000 )  
               a(3) = (   0.000000   0.000000   2.531036 )  

     reciprocal axes: (cart. coord. in units 2 pi/alat)
               b(1) = (  1.000000  0.000000  0.000000 )  
               b(2) = (  0.000000  1.000000  0.000000 )  
               b(3) = (  0.000000  0.000000  0.395095 )  


     PseudoPot. # 1 for Sr read from file:
     /bsuhome/zayahcortright/q-e/pseudo/Sr_pbe_v1.uspp.F.UPF
     MD5 check sum: 6b418c05fbe9db5448babca5e47b7a5b
     Pseudo is Ultrasoft + core correction, Zval = 10.0
     Generated by new atomic code, or converted to UPF format
     Using radial grid of  883 points,  6 beta functions with: 
                l(1) =   0
                l(2) =   0
                l(3) =   1
                l(4) =   1
                l(5) =   2
                l(6) =   2
     Q(r) pseudized with  6 coefficients,  rinner =    1.400   1.400   1.400
                                                       1.400   1.400

     PseudoPot. # 2 for O  read from file:
     /bsuhome/zayahcortright/q-e/pseudo/O.pbe-n-kjpaw_psl.0.1.UPF
     MD5 check sum: 0234752ac141de4415c5fc33072bef88
     Pseudo is Projector augmented-wave + core cor, Zval =  6.0
     Generated using "atomic" code by A. Dal Corso  v.5.0.99 svn rev. 10869
     Shape of augmentation charge: BESSEL
     Using radial grid of 1095 points,  4 beta functions with: 
                l(1) =   0
                l(2) =   0
                l(3) =   1
                l(4) =   1
     Q(r) pseudized with 0 coefficients 


     PseudoPot. # 3 for Co read from file:
     /bsuhome/zayahcortright/q-e/pseudo/Co_pbe_v1.2.uspp.F.UPF
     MD5 check sum: 5f91765df6ddd3222702df6e7b74a16d
     Pseudo is Ultrasoft + core correction, Zval = 17.0
     Generated by new atomic code, or converted to UPF format
     Using radial grid of  863 points,  6 beta functions with: 
                l(1) =   0
                l(2) =   0
                l(3) =   1
                l(4) =   1
                l(5) =   2
                l(6) =   2
     Q(r) pseudized with  8 coefficients,  rinner =    1.200   1.200   1.200
                                                       1.200   1.200

     PseudoPot. # 4 for H  read from file:
     /bsuhome/zayahcortright/q-e/pseudo/H.pbe-rrkjus_psl.1.0.0.UPF
     MD5 check sum: f52b6d4d1c606e5624b1dc7b2218f220
     Pseudo is Ultrasoft, Zval =  1.0
     Generated using "atomic" code by A. Dal Corso  v.5.1
     Using radial grid of  929 points,  2 beta functions with: 
                l(1) =   0
                l(2) =   0
     Q(r) pseudized with 0 coefficients 


     atomic species   valence    mass     pseudopotential
        Sr            10.00    87.62000     Sr( 1.00)
        O              6.00    15.99900     O ( 1.00)
        Co            17.00    58.93319     Co( 1.00)
        H              1.00     1.00800     H ( 1.00)

     No symmetry found


                                    s                        frac. trans.

      isym =  1     identity                                     

 cryst.   s( 1) = (     1          0          0      )
                  (     0          1          0      )
                  (     0          0          1      )

 cart.    s( 1) = (  1.0000000  0.0000000  0.0000000 )
                  (  0.0000000  1.0000000  0.0000000 )
                  (  0.0000000  0.0000000  1.0000000 )


   Cartesian axes

     site n.     atom                  positions (alat units)
         1           Sr  tau(   1) = (   0.2508693   0.7491307   1.7574407  )
         2           O   tau(   2) = (   0.4985141   0.5014859   1.7715967  )
         3           Sr  tau(   3) = (   0.7482398   0.7454518   1.7648669  )
         4           Sr  tau(   4) = (   0.7441748   0.2558252   1.7667843  )
         5           Sr  tau(   5) = (   0.2508693   0.7491307   1.2696799  )
         6           Sr  tau(   6) = (   0.2508693   0.7491307   0.7632319  )
         7           Co  tau(   7) = (   0.4998914   0.5001086   1.0164559  )
         8           Co  tau(   8) = (   0.4936915   0.5063085   1.5135603  )
         9           O   tau(   9) = (   0.4988895   0.7610401   1.0164559  )
        10           O   tau(  10) = (   0.2389599   0.5011105   1.0164559  )
        11           O   tau(  11) = (   0.0070918   0.7374880   1.0164559  )
        12           O   tau(  12) = (   0.0088340   0.7405089   1.5135603  )
        13           O   tau(  13) = (   0.5066944   0.7415376   1.5135603  )
        14           O   tau(  14) = (   0.2584624   0.4933056   1.5135603  )
        15           O   tau(  15) = (   0.4985141   0.5014859   0.7773880  )
        16           O   tau(  16) = (   0.4985141   0.5014859   1.2555238  )
        17           Sr  tau(  17) = (   0.7482398   0.7454518   0.7706582  )
        18           Sr  tau(  18) = (   0.7482398   0.7454518   1.2622536  )
        19           Sr  tau(  19) = (   0.7441748   0.2558252   0.7725755  )
        20           Sr  tau(  20) = (   0.7441748   0.2558252   1.2603363  )
        21           O   tau(  21) = (   0.7322655   0.0078049   1.5135603  )
        22           O   tau(  22) = (   0.7558175   0.4996027   1.5135603  )
        23           O   tau(  23) = (   0.5003973   0.2441825   1.5135603  )
        24           O   tau(  24) = (   0.7527966   0.4978604   1.0164559  )
        25           O   tau(  25) = (   0.5021396   0.2472034   1.0164559  )
        26           O   tau(  26) = (   0.7517679   0.0000000   1.0164559  )
        27           O   tau(  27) = (   0.0114961   0.4948124   1.7455321  )
        28           O   tau(  28) = (   0.0048226   0.0077944   1.7715967  )
        29           Sr  tau(  29) = (   0.2545482   0.2517602   1.7648669  )
        30           O   tau(  30) = (   0.5048017   0.0015068   1.7786929  )
        31           Co  tau(  31) = (   0.0056869   0.5006215   1.0164559  )
        32           Co  tau(  32) = (   0.0065315   0.4997770   1.5135603  )
        33           Co  tau(  33) = (   0.0061999   0.0064171   1.0164559  )
        34           Co  tau(  34) = (   0.0000000   0.0126169   1.5135603  )
        35           O   tau(  35) = (   0.0114961   0.4948124   1.2815885  )
        36           O   tau(  36) = (   0.0114961   0.4948124   0.7513233  )
        37           O   tau(  37) = (   0.0051979   0.2673486   1.0164559  )
        38           O   tau(  38) = (   0.0130029   0.2478461   1.5135603  )
        39           O   tau(  39) = (   0.0048226   0.0077944   0.7773880  )
        40           O   tau(  40) = (   0.0048226   0.0077944   1.2555238  )
        41           Sr  tau(  41) = (   0.2545482   0.2517602   0.7706582  )
        42           Sr  tau(  42) = (   0.2545482   0.2517602   1.2622536  )
        43           Co  tau(  43) = (   0.4989925   0.0073160   1.5135603  )
        44           Co  tau(  44) = (   0.4998370   0.0064714   1.0164559  )
        45           O   tau(  45) = (   0.5048017   0.0015068   0.7844841  )
        46           O   tau(  46) = (   0.5048017   0.0015068   1.2484277  )
        47           O   tau(  47) = (   0.2621260   0.0059111   1.5135603  )
        48           O   tau(  48) = (   0.2591051   0.0041689   1.0164559  )
        49           O   tau(  49) = (   0.5686583   0.5686583   2.1602013  )
        50           H   tau(  50) = (   0.5686583   0.5686583   2.2847091  )

   Crystallographic axes

     site n.     atom                  positions (cryst. coord.)
         1           Sr  tau(   1) = (  0.2508693  0.7491307  0.6943562  )
         2           O   tau(   2) = (  0.4985141  0.5014859  0.6999492  )
         3           Sr  tau(   3) = (  0.7482398  0.7454518  0.6972903  )
         4           Sr  tau(   4) = (  0.7441748  0.2558252  0.6980478  )
         5           Sr  tau(   5) = (  0.2508693  0.7491307  0.5016443  )
         6           Sr  tau(   6) = (  0.2508693  0.7491307  0.3015492  )
         7           Co  tau(   7) = (  0.4998914  0.5001086  0.4015968  )
         8           Co  tau(   8) = (  0.4936915  0.5063085  0.5980003  )
         9           O   tau(   9) = (  0.4988895  0.7610401  0.4015968  )
        10           O   tau(  10) = (  0.2389599  0.5011105  0.4015968  )
        11           O   tau(  11) = (  0.0070918  0.7374880  0.4015968  )
        12           O   tau(  12) = (  0.0088340  0.7405089  0.5980003  )
        13           O   tau(  13) = (  0.5066944  0.7415376  0.5980003  )
        14           O   tau(  14) = (  0.2584624  0.4933056  0.5980003  )
        15           O   tau(  15) = (  0.4985141  0.5014859  0.3071422  )
        16           O   tau(  16) = (  0.4985141  0.5014859  0.4960513  )
        17           Sr  tau(  17) = (  0.7482398  0.7454518  0.3044833  )
        18           Sr  tau(  18) = (  0.7482398  0.7454518  0.4987103  )
        19           Sr  tau(  19) = (  0.7441748  0.2558252  0.3052408  )
        20           Sr  tau(  20) = (  0.7441748  0.2558252  0.4979527  )
        21           O   tau(  21) = (  0.7322655  0.0078049  0.5980003  )
        22           O   tau(  22) = (  0.7558175  0.4996027  0.5980003  )
        23           O   tau(  23) = (  0.5003973  0.2441825  0.5980003  )
        24           O   tau(  24) = (  0.7527966  0.4978604  0.4015968  )
        25           O   tau(  25) = (  0.5021396  0.2472034  0.4015968  )
        26           O   tau(  26) = (  0.7517679  0.0000000  0.4015968  )
        27           O   tau(  27) = (  0.0114961  0.4948124  0.6896512  )
        28           O   tau(  28) = (  0.0048226  0.0077944  0.6999492  )
        29           Sr  tau(  29) = (  0.2545482  0.2517602  0.6972903  )
        30           O   tau(  30) = (  0.5048017  0.0015068  0.7027529  )
        31           Co  tau(  31) = (  0.0056869  0.5006215  0.4015968  )
        32           Co  tau(  32) = (  0.0065315  0.4997770  0.5980003  )
        33           Co  tau(  33) = (  0.0061999  0.0064171  0.4015968  )
        34           Co  tau(  34) = (  0.0000000  0.0126169  0.5980003  )
        35           O   tau(  35) = (  0.0114961  0.4948124  0.5063494  )
        36           O   tau(  36) = (  0.0114961  0.4948124  0.2968442  )
        37           O   tau(  37) = (  0.0051979  0.2673486  0.4015968  )
        38           O   tau(  38) = (  0.0130029  0.2478461  0.5980003  )
        39           O   tau(  39) = (  0.0048226  0.0077944  0.3071422  )
        40           O   tau(  40) = (  0.0048226  0.0077944  0.4960513  )
        41           Sr  tau(  41) = (  0.2545482  0.2517602  0.3044833  )
        42           Sr  tau(  42) = (  0.2545482  0.2517602  0.4987103  )
        43           Co  tau(  43) = (  0.4989925  0.0073160  0.5980003  )
        44           Co  tau(  44) = (  0.4998370  0.0064714  0.4015968  )
        45           O   tau(  45) = (  0.5048017  0.0015068  0.3099459  )
        46           O   tau(  46) = (  0.5048017  0.0015068  0.4932477  )
        47           O   tau(  47) = (  0.2621260  0.0059111  0.5980003  )
        48           O   tau(  48) = (  0.2591051  0.0041689  0.4015968  )
        49           O   tau(  49) = (  0.5686583  0.5686583  0.8534850  )
        50           H   tau(  50) = (  0.5686583  0.5686583  0.9026774  )

     number of k points=    10  Gaussian smearing, width (Ry)=  0.0700
                       cart. coord. in units 2pi/alat
        k(    1) = (   0.0000000   0.0000000   0.0000000), wk =   0.1250000
        k(    2) = (   0.0000000   0.2500000   0.0000000), wk =   0.2500000
        k(    3) = (   0.0000000  -0.5000000   0.0000000), wk =   0.1250000
        k(    4) = (   0.2500000   0.2500000   0.0000000), wk =   0.2500000
        k(    5) = (   0.2500000  -0.5000000   0.0000000), wk =   0.2500000
        k(    6) = (  -0.5000000  -0.5000000   0.0000000), wk =   0.1250000
        k(    7) = (   0.2500000   0.0000000   0.0000000), wk =   0.2500000
        k(    8) = (  -0.5000000   0.0000000   0.0000000), wk =   0.1250000
        k(    9) = (  -0.2500000   0.2500000   0.0000000), wk =   0.2500000
        k(   10) = (  -0.5000000   0.2500000   0.0000000), wk =   0.2500000

                       cryst. coord.
        k(    1) = (   0.0000000   0.0000000   0.0000000), wk =   0.1250000
        k(    2) = (   0.0000000   0.2500000   0.0000000), wk =   0.2500000
        k(    3) = (   0.0000000  -0.5000000   0.0000000), wk =   0.1250000
        k(    4) = (   0.2500000   0.2500000   0.0000000), wk =   0.2500000
        k(    5) = (   0.2500000  -0.5000000   0.0000000), wk =   0.2500000
        k(    6) = (  -0.5000000  -0.5000000   0.0000000), wk =   0.1250000
        k(    7) = (   0.2500000   0.0000000   0.0000000), wk =   0.2500000
        k(    8) = (  -0.5000000   0.0000000   0.0000000), wk =   0.1250000
        k(    9) = (  -0.2500000   0.2500000   0.0000000), wk =   0.2500000
        k(   10) = (  -0.5000000   0.2500000   0.0000000), wk =   0.2500000

     Dense  grid:  1474595 G-vectors     FFT dimensions: ( 108, 108, 270)

     Smooth grid:   521381 G-vectors     FFT dimensions: (  75,  75, 192)

     Dynamical RAM for                 wfc:      10.73 MB

     Dynamical RAM for     wfc (w. buffer):      64.38 MB

     Dynamical RAM for           str. fact:       3.75 MB

     Dynamical RAM for           local pot:       0.00 MB

     Dynamical RAM for          nlocal pot:      24.61 MB

     Dynamical RAM for                qrad:       7.03 MB

     Dynamical RAM for          rho,v,vnew:       6.02 MB

     Dynamical RAM for               rhoin:       2.01 MB

     Dynamical RAM for            rho*nmix:      15.00 MB

     Dynamical RAM for           G-vectors:       3.68 MB

     Dynamical RAM for          h,s,v(r/c):       1.35 MB

     Dynamical RAM for          <psi|beta>:       2.35 MB

     Dynamical RAM for                 psi:      21.46 MB

     Dynamical RAM for                hpsi:      21.46 MB

     Dynamical RAM for                spsi:      21.46 MB

     Dynamical RAM for      wfcinit/wfcrot:      34.49 MB

     Dynamical RAM for           addusdens:     101.26 MB

     Estimated static dynamical RAM per process >     121.50 MB

     Estimated max dynamical RAM per process >     237.76 MB

     Estimated total dynamical RAM >      10.79 GB

     Check: negative core charge=   -0.000004

     Initial potential from superposition of free atoms

     starting charge     422.5961, renormalised to     431.0000

     negative rho (up, down):  7.820E-01 0.000E+00
     Starting wfcs are  377 randomized atomic wfcs
     Checking if some PAW data can be deallocated... 
       PAW data deallocated on   19 nodes for type:  2

     total cpu time spent up to now is        9.1 secs

     Self-consistent Calculation

     iteration #  1     ecut=    60.00 Ry     beta= 0.15
     Davidson diagonalization with overlap

---- Real-time Memory Report at c_bands before calling an iterative solver
             0 MiB given to the printing process from OS
             0 MiB allocation reported by mallinfo(arena+hblkhd)
         23995 MiB available memory on the node where the printing process lives
------------------
     ethr =  1.00E-02,  avg # of iterations =  2.0

     negative rho (up, down):  7.716E-01 0.000E+00

     total cpu time spent up to now is       25.5 secs

     total energy              =   -4446.63318186 Ry
     estimated scf accuracy    <      44.91450933 Ry

     iteration #  2     ecut=    60.00 Ry     beta= 0.15
     Davidson diagonalization with overlap

---- Real-time Memory Report at c_bands before calling an iterative solver
             0 MiB given to the printing process from OS
             0 MiB allocation reported by mallinfo(arena+hblkhd)
         24250 MiB available memory on the node where the printing process lives
------------------
     ethr =  1.00E-02,  avg # of iterations =  1.0

     negative rho (up, down):  7.581E-01 0.000E+00

     total cpu time spent up to now is       39.8 secs

     total energy              =   -4443.25169212 Ry
     estimated scf accuracy    <      29.68922658 Ry

     iteration #  3     ecut=    60.00 Ry     beta= 0.15
     Davidson diagonalization with overlap

---- Real-time Memory Report at c_bands before calling an iterative solver
             0 MiB given to the printing process from OS
             0 MiB allocation reported by mallinfo(arena+hblkhd)
         23411 MiB available memory on the node where the printing process lives
------------------
     ethr =  6.89E-03,  avg # of iterations =  1.0

     negative rho (up, down):  7.553E-01 0.000E+00

     total cpu time spent up to now is       54.5 secs

     total energy              =   -4444.26030579 Ry
     estimated scf accuracy    <      29.04489971 Ry

     iteration #  4     ecut=    60.00 Ry     beta= 0.15
     Davidson diagonalization with overlap

---- Real-time Memory Report at c_bands before calling an iterative solver
             0 MiB given to the printing process from OS
             0 MiB allocation reported by mallinfo(arena+hblkhd)
         23392 MiB available memory on the node where the printing process lives
------------------
     ethr =  6.74E-03,  avg # of iterations =  1.0

     negative rho (up, down):  7.497E-01 0.000E+00

     total cpu time spent up to now is       69.2 secs

     total energy              =   -4443.04296977 Ry
     estimated scf accuracy    <      21.17984637 Ry

     iteration #  5     ecut=    60.00 Ry     beta= 0.15
     Davidson diagonalization with overlap

---- Real-time Memory Report at c_bands before calling an iterative solver
             0 MiB given to the printing process from OS
             0 MiB allocation reported by mallinfo(arena+hblkhd)
         23375 MiB available memory on the node where the printing process lives
------------------
     ethr =  4.91E-03,  avg # of iterations =  1.0

     negative rho (up, down):  7.402E-01 0.000E+00

     total cpu time spent up to now is       83.8 secs

     total energy              =   -4442.52954979 Ry
     estimated scf accuracy    <      10.88723798 Ry

     iteration #  6     ecut=    60.00 Ry     beta= 0.15
     Davidson diagonalization with overlap

---- Real-time Memory Report at c_bands before calling an iterative solver
             0 MiB given to the printing process from OS
             0 MiB allocation reported by mallinfo(arena+hblkhd)
         23359 MiB available memory on the node where the printing process lives
------------------
     ethr =  2.53E-03,  avg # of iterations =  1.1

     negative rho (up, down):  7.428E-01 0.000E+00

     total cpu time spent up to now is       98.4 secs

     total energy              =   -4442.81077936 Ry
     estimated scf accuracy    <       4.99132436 Ry

     iteration #  7     ecut=    60.00 Ry     beta= 0.15
     Davidson diagonalization with overlap

---- Real-time Memory Report at c_bands before calling an iterative solver
             0 MiB given to the printing process from OS
             0 MiB allocation reported by mallinfo(arena+hblkhd)
         23334 MiB available memory on the node where the printing process lives
------------------
     ethr =  1.16E-03,  avg # of iterations =  1.8

     negative rho (up, down):  7.636E-01 0.000E+00

     total cpu time spent up to now is      113.8 secs

     total energy              =   -4441.69613481 Ry
     estimated scf accuracy    <       3.98557489 Ry

     iteration #  8     ecut=    60.00 Ry     beta= 0.15
     Davidson diagonalization with overlap

---- Real-time Memory Report at c_bands before calling an iterative solver
             0 MiB given to the printing process from OS
             0 MiB allocation reported by mallinfo(arena+hblkhd)
         23313 MiB available memory on the node where the printing process lives
------------------
     ethr =  9.25E-04,  avg # of iterations =  4.3

     negative rho (up, down):  7.724E-01 0.000E+00

     total cpu time spent up to now is      132.7 secs

     total energy              =   -4441.36478941 Ry
     estimated scf accuracy    <      18.76164274 Ry

     iteration #  9     ecut=    60.00 Ry     beta= 0.15
     Davidson diagonalization with overlap

---- Real-time Memory Report at c_bands before calling an iterative solver
             0 MiB given to the printing process from OS
             0 MiB allocation reported by mallinfo(arena+hblkhd)
         23191 MiB available memory on the node where the printing process lives
------------------
     ethr =  9.25E-04,  avg # of iterations =  9.9

     negative rho (up, down):  7.701E-01 0.000E+00

     total cpu time spent up to now is      154.2 secs

     total energy              =   -4441.75826550 Ry
     estimated scf accuracy    <       2.91112494 Ry

     iteration # 10     ecut=    60.00 Ry     beta= 0.15
     Davidson diagonalization with overlap

---- Real-time Memory Report at c_bands before calling an iterative solver
             0 MiB given to the printing process from OS
             0 MiB allocation reported by mallinfo(arena+hblkhd)
         22838 MiB available memory on the node where the printing process lives
------------------
     ethr =  6.75E-04,  avg # of iterations =  1.3

     negative rho (up, down):  7.767E-01 0.000E+00

     total cpu time spent up to now is      169.6 secs

     total energy              =   -4441.89899895 Ry
     estimated scf accuracy    <       1.38084859 Ry

     iteration # 11     ecut=    60.00 Ry     beta= 0.15
     Davidson diagonalization with overlap

---- Real-time Memory Report at c_bands before calling an iterative solver
             0 MiB given to the printing process from OS
             0 MiB allocation reported by mallinfo(arena+hblkhd)
         22821 MiB available memory on the node where the printing process lives
------------------
     ethr =  3.20E-04,  avg # of iterations =  3.3

     negative rho (up, down):  8.066E-01 0.000E+00

     total cpu time spent up to now is      187.1 secs

     total energy              =   -4441.71674102 Ry
     estimated scf accuracy    <       1.33396982 Ry

     iteration # 12     ecut=    60.00 Ry     beta= 0.15
     Davidson diagonalization with overlap

---- Real-time Memory Report at c_bands before calling an iterative solver
             0 MiB given to the printing process from OS
             0 MiB allocation reported by mallinfo(arena+hblkhd)
         22818 MiB available memory on the node where the printing process lives
------------------
     ethr =  3.10E-04,  avg # of iterations =  7.3

     negative rho (up, down):  8.144E-01 0.000E+00

     total cpu time spent up to now is      206.6 secs

     total energy              =   -4441.85760509 Ry
     estimated scf accuracy    <       1.24542148 Ry

     iteration # 13     ecut=    60.00 Ry     beta= 0.15
     Davidson diagonalization with overlap

---- Real-time Memory Report at c_bands before calling an iterative solver
             0 MiB given to the printing process from OS
             0 MiB allocation reported by mallinfo(arena+hblkhd)
         22801 MiB available memory on the node where the printing process lives
------------------
     ethr =  2.89E-04,  avg # of iterations =  2.7

     negative rho (up, down):  8.177E-01 0.000E+00

     total cpu time spent up to now is      223.2 secs

     total energy              =   -4441.78778143 Ry
     estimated scf accuracy    <       0.81815203 Ry

     iteration # 14     ecut=    60.00 Ry     beta= 0.15
     Davidson diagonalization with overlap

---- Real-time Memory Report at c_bands before calling an iterative solver
             0 MiB given to the printing process from OS
             0 MiB allocation reported by mallinfo(arena+hblkhd)
         22793 MiB available memory on the node where the printing process lives
------------------
     c_bands:  3 eigenvalues not converged
     ethr =  1.90E-04,  avg # of iterations =  8.8

     negative rho (up, down):  8.233E-01 0.000E+00

     total cpu time spent up to now is      243.7 secs

     total energy              =   -4441.73713529 Ry
     estimated scf accuracy    <       0.36232904 Ry

     iteration # 15     ecut=    60.00 Ry     beta= 0.15
     Davidson diagonalization with overlap

---- Real-time Memory Report at c_bands before calling an iterative solver
             0 MiB given to the printing process from OS
             0 MiB allocation reported by mallinfo(arena+hblkhd)
         22772 MiB available memory on the node where the printing process lives
------------------
     ethr =  8.41E-05,  avg # of iterations = 10.8

     negative rho (up, down):  8.314E-01 0.000E+00

     total cpu time spent up to now is      265.4 secs

     total energy              =   -4441.72461124 Ry
     estimated scf accuracy    <       0.31294421 Ry

     iteration # 16     ecut=    60.00 Ry     beta= 0.15
     Davidson diagonalization with overlap

---- Real-time Memory Report at c_bands before calling an iterative solver
             0 MiB given to the printing process from OS
             0 MiB allocation reported by mallinfo(arena+hblkhd)
         22749 MiB available memory on the node where the printing process lives
------------------
     ethr =  7.26E-05,  avg # of iterations =  5.7

     negative rho (up, down):  8.310E-01 0.000E+00

     total cpu time spent up to now is      284.4 secs

     total energy              =   -4441.71702586 Ry
     estimated scf accuracy    <       0.28962632 Ry

     iteration # 17     ecut=    60.00 Ry     beta= 0.15
     Davidson diagonalization with overlap

---- Real-time Memory Report at c_bands before calling an iterative solver
             0 MiB given to the printing process from OS
             0 MiB allocation reported by mallinfo(arena+hblkhd)
         22776 MiB available memory on the node where the printing process lives
------------------
     ethr =  6.72E-05,  avg # of iterations =  1.1

     negative rho (up, down):  8.155E-01 0.000E+00

     total cpu time spent up to now is      299.3 secs

     total energy              =   -4441.69573277 Ry
     estimated scf accuracy    <       0.20181233 Ry

     iteration # 18     ecut=    60.00 Ry     beta= 0.15
     Davidson diagonalization with overlap

---- Real-time Memory Report at c_bands before calling an iterative solver
             0 MiB given to the printing process from OS
             0 MiB allocation reported by mallinfo(arena+hblkhd)
         22768 MiB available memory on the node where the printing process lives
------------------
     ethr =  4.68E-05,  avg # of iterations =  6.1

     negative rho (up, down):  8.095E-01 0.000E+00

     total cpu time spent up to now is      319.4 secs

     total energy              =   -4441.67672981 Ry
     estimated scf accuracy    <       0.13919852 Ry

     iteration # 19     ecut=    60.00 Ry     beta= 0.15
     Davidson diagonalization with overlap

---- Real-time Memory Report at c_bands before calling an iterative solver
             0 MiB given to the printing process from OS
             0 MiB allocation reported by mallinfo(arena+hblkhd)
         22774 MiB available memory on the node where the printing process lives
------------------
     ethr =  3.23E-05,  avg # of iterations =  9.3

     negative rho (up, down):  8.175E-01 0.000E+00

     total cpu time spent up to now is      341.2 secs

     total energy              =   -4441.66344238 Ry
     estimated scf accuracy    <       0.08798443 Ry

     iteration # 20     ecut=    60.00 Ry     beta= 0.15
     Davidson diagonalization with overlap

---- Real-time Memory Report at c_bands before calling an iterative solver
             0 MiB given to the printing process from OS
             0 MiB allocation reported by mallinfo(arena+hblkhd)
         22721 MiB available memory on the node where the printing process lives
------------------
     ethr =  2.04E-05,  avg # of iterations = 10.6

     negative rho (up, down):  8.285E-01 0.000E+00

     total cpu time spent up to now is      364.3 secs

     total energy              =   -4441.66403333 Ry
     estimated scf accuracy    <       0.03635426 Ry

     iteration # 21     ecut=    60.00 Ry     beta= 0.15
     Davidson diagonalization with overlap

---- Real-time Memory Report at c_bands before calling an iterative solver
             0 MiB given to the printing process from OS
             0 MiB allocation reported by mallinfo(arena+hblkhd)
         22697 MiB available memory on the node where the printing process lives
------------------
     ethr =  8.43E-06,  avg # of iterations = 11.6

     negative rho (up, down):  8.252E-01 0.000E+00

     total cpu time spent up to now is      386.9 secs

     total energy              =   -4441.66378236 Ry
     estimated scf accuracy    <       0.02643677 Ry

     iteration # 22     ecut=    60.00 Ry     beta= 0.15
     Davidson diagonalization with overlap

---- Real-time Memory Report at c_bands before calling an iterative solver
             0 MiB given to the printing process from OS
             0 MiB allocation reported by mallinfo(arena+hblkhd)
         22646 MiB available memory on the node where the printing process lives
------------------
     ethr =  6.13E-06,  avg # of iterations =  1.1

     negative rho (up, down):  7.967E-01 0.000E+00

     total cpu time spent up to now is      402.6 secs

     total energy              =   -4441.65823558 Ry
     estimated scf accuracy    <       0.02231293 Ry

     iteration # 23     ecut=    60.00 Ry     beta= 0.15
     Davidson diagonalization with overlap

---- Real-time Memory Report at c_bands before calling an iterative solver
             0 MiB given to the printing process from OS
             0 MiB allocation reported by mallinfo(arena+hblkhd)
         22686 MiB available memory on the node where the printing process lives
------------------
     ethr =  5.18E-06,  avg # of iterations =  7.0

     negative rho (up, down):  7.999E-01 0.000E+00

     total cpu time spent up to now is      423.2 secs

     total energy              =   -4441.65840897 Ry
     estimated scf accuracy    <       0.01176127 Ry

     iteration # 24     ecut=    60.00 Ry     beta= 0.15
     Davidson diagonalization with overlap

---- Real-time Memory Report at c_bands before calling an iterative solver
             0 MiB given to the printing process from OS
             0 MiB allocation reported by mallinfo(arena+hblkhd)
         22700 MiB available memory on the node where the printing process lives
------------------
     ethr =  2.73E-06,  avg # of iterations = 12.6

     negative rho (up, down):  7.990E-01 0.000E+00

     total cpu time spent up to now is      446.4 secs

     total energy              =   -4441.65788000 Ry
     estimated scf accuracy    <       0.00806693 Ry

     iteration # 25     ecut=    60.00 Ry     beta= 0.15
     Davidson diagonalization with overlap

---- Real-time Memory Report at c_bands before calling an iterative solver
             0 MiB given to the printing process from OS
             0 MiB allocation reported by mallinfo(arena+hblkhd)
         22682 MiB available memory on the node where the printing process lives
------------------
     ethr =  1.87E-06,  avg # of iterations =  4.0

     negative rho (up, down):  7.966E-01 0.000E+00

     total cpu time spent up to now is      464.9 secs

     total energy              =   -4441.65680555 Ry
     estimated scf accuracy    <       0.00496425 Ry

     iteration # 26     ecut=    60.00 Ry     beta= 0.15
     Davidson diagonalization with overlap

---- Real-time Memory Report at c_bands before calling an iterative solver
             0 MiB given to the printing process from OS
             0 MiB allocation reported by mallinfo(arena+hblkhd)
         22679 MiB available memory on the node where the printing process lives
------------------
     ethr =  1.15E-06,  avg # of iterations = 10.0

     negative rho (up, down):  7.987E-01 0.000E+00

     total cpu time spent up to now is      487.6 secs

     total energy              =   -4441.65699810 Ry
     estimated scf accuracy    <       0.00187265 Ry

     iteration # 27     ecut=    60.00 Ry     beta= 0.15
     Davidson diagonalization with overlap

---- Real-time Memory Report at c_bands before calling an iterative solver
             0 MiB given to the printing process from OS
             0 MiB allocation reported by mallinfo(arena+hblkhd)
         22657 MiB available memory on the node where the printing process lives
------------------
     ethr =  4.34E-07,  avg # of iterations = 10.0

     negative rho (up, down):  7.974E-01 0.000E+00

     total cpu time spent up to now is      509.6 secs

     total energy              =   -4441.65703702 Ry
     estimated scf accuracy    <       0.00073123 Ry

     iteration # 28     ecut=    60.00 Ry     beta= 0.15
     Davidson diagonalization with overlap

---- Real-time Memory Report at c_bands before calling an iterative solver
             0 MiB given to the printing process from OS
             0 MiB allocation reported by mallinfo(arena+hblkhd)
         22642 MiB available memory on the node where the printing process lives
------------------
     ethr =  1.70E-07,  avg # of iterations =  7.2

     negative rho (up, down):  7.961E-01 0.000E+00

     total cpu time spent up to now is      528.9 secs

     total energy              =   -4441.65704362 Ry
     estimated scf accuracy    <       0.00037924 Ry

     iteration # 29     ecut=    60.00 Ry     beta= 0.15
     Davidson diagonalization with overlap

---- Real-time Memory Report at c_bands before calling an iterative solver
             0 MiB given to the printing process from OS
             0 MiB allocation reported by mallinfo(arena+hblkhd)
         22682 MiB available memory on the node where the printing process lives
------------------
     ethr =  8.80E-08,  avg # of iterations =  2.2

     negative rho (up, down):  7.949E-01 0.000E+00

     total cpu time spent up to now is      546.2 secs

     total energy              =   -4441.65703681 Ry
     estimated scf accuracy    <       0.00019575 Ry

     iteration # 30     ecut=    60.00 Ry     beta= 0.15
     Davidson diagonalization with overlap

---- Real-time Memory Report at c_bands before calling an iterative solver
             0 MiB given to the printing process from OS
             0 MiB allocation reported by mallinfo(arena+hblkhd)
         22719 MiB available memory on the node where the printing process lives
------------------
     ethr =  4.54E-08,  avg # of iterations =  4.0

     negative rho (up, down):  7.940E-01 0.000E+00

     total cpu time spent up to now is      564.4 secs

     total energy              =   -4441.65704784 Ry
     estimated scf accuracy    <       0.00008530 Ry

     iteration # 31     ecut=    60.00 Ry     beta= 0.15
     Davidson diagonalization with overlap

---- Real-time Memory Report at c_bands before calling an iterative solver
             0 MiB given to the printing process from OS
             0 MiB allocation reported by mallinfo(arena+hblkhd)
         22748 MiB available memory on the node where the printing process lives
------------------
     ethr =  1.98E-08,  avg # of iterations =  2.1

     negative rho (up, down):  7.924E-01 0.000E+00

     total cpu time spent up to now is      581.8 secs

     total energy              =   -4441.65705224 Ry
     estimated scf accuracy    <       0.00005058 Ry

     iteration # 32     ecut=    60.00 Ry     beta= 0.15
     Davidson diagonalization with overlap

---- Real-time Memory Report at c_bands before calling an iterative solver
             0 MiB given to the printing process from OS
             0 MiB allocation reported by mallinfo(arena+hblkhd)
         22749 MiB available memory on the node where the printing process lives
------------------
     ethr =  1.17E-08,  avg # of iterations =  6.3

     negative rho (up, down):  7.921E-01 0.000E+00

     total cpu time spent up to now is      601.3 secs

     total energy              =   -4441.65705051 Ry
     estimated scf accuracy    <       0.00002776 Ry

     iteration # 33     ecut=    60.00 Ry     beta= 0.15
     Davidson diagonalization with overlap

---- Real-time Memory Report at c_bands before calling an iterative solver
             0 MiB given to the printing process from OS
             0 MiB allocation reported by mallinfo(arena+hblkhd)
         22779 MiB available memory on the node where the printing process lives
------------------
     ethr =  6.44E-09,  avg # of iterations =  5.9

     negative rho (up, down):  7.922E-01 0.000E+00

     total cpu time spent up to now is      621.7 secs

     total energy              =   -4441.65704863 Ry
     estimated scf accuracy    <       0.00001041 Ry

     iteration # 34     ecut=    60.00 Ry     beta= 0.15
     Davidson diagonalization with overlap

---- Real-time Memory Report at c_bands before calling an iterative solver
             0 MiB given to the printing process from OS
             0 MiB allocation reported by mallinfo(arena+hblkhd)
         22751 MiB available memory on the node where the printing process lives
------------------
     ethr =  2.41E-09,  avg # of iterations =  2.2

     negative rho (up, down):  7.923E-01 0.000E+00

     total cpu time spent up to now is      639.2 secs

     total energy              =   -4441.65705262 Ry
     estimated scf accuracy    <       0.00000615 Ry

     iteration # 35     ecut=    60.00 Ry     beta= 0.15
     Davidson diagonalization with overlap

---- Real-time Memory Report at c_bands before calling an iterative solver
             0 MiB given to the printing process from OS
             0 MiB allocation reported by mallinfo(arena+hblkhd)
         22777 MiB available memory on the node where the printing process lives
------------------
     ethr =  1.43E-09,  avg # of iterations =  2.9

     negative rho (up, down):  7.924E-01 0.000E+00

     total cpu time spent up to now is      657.2 secs

     total energy              =   -4441.65705388 Ry
     estimated scf accuracy    <       0.00000198 Ry

     iteration # 36     ecut=    60.00 Ry     beta= 0.15
     Davidson diagonalization with overlap

---- Real-time Memory Report at c_bands before calling an iterative solver
             0 MiB given to the printing process from OS
             0 MiB allocation reported by mallinfo(arena+hblkhd)
         22773 MiB available memory on the node where the printing process lives
------------------
     ethr =  4.60E-10,  avg # of iterations =  3.8

     negative rho (up, down):  7.924E-01 0.000E+00

     total cpu time spent up to now is      676.5 secs

     total energy              =   -4441.65705439 Ry
     estimated scf accuracy    <       0.00000099 Ry

     iteration # 37     ecut=    60.00 Ry     beta= 0.15
     Davidson diagonalization with overlap

---- Real-time Memory Report at c_bands before calling an iterative solver
             0 MiB given to the printing process from OS
             0 MiB allocation reported by mallinfo(arena+hblkhd)
         22742 MiB available memory on the node where the printing process lives
------------------
     ethr =  2.29E-10,  avg # of iterations =  2.4

     negative rho (up, down):  7.924E-01 0.000E+00

     total cpu time spent up to now is      693.9 secs

     total energy              =   -4441.65705478 Ry
     estimated scf accuracy    <       0.00000064 Ry

     iteration # 38     ecut=    60.00 Ry     beta= 0.15
     Davidson diagonalization with overlap

---- Real-time Memory Report at c_bands before calling an iterative solver
             0 MiB given to the printing process from OS
             0 MiB allocation reported by mallinfo(arena+hblkhd)
         22766 MiB available memory on the node where the printing process lives
------------------
     ethr =  1.49E-10,  avg # of iterations =  2.8

     negative rho (up, down):  7.924E-01 0.000E+00

     total cpu time spent up to now is      711.4 secs

     total energy              =   -4441.65705493 Ry
     estimated scf accuracy    <       0.00000049 Ry

     iteration # 39     ecut=    60.00 Ry     beta= 0.15
     Davidson diagonalization with overlap

---- Real-time Memory Report at c_bands before calling an iterative solver
             0 MiB given to the printing process from OS
             0 MiB allocation reported by mallinfo(arena+hblkhd)
         22749 MiB available memory on the node where the printing process lives
------------------
     ethr =  1.13E-10,  avg # of iterations =  3.0

     negative rho (up, down):  7.924E-01 0.000E+00

     total cpu time spent up to now is      729.1 secs

     total energy              =   -4441.65705495 Ry
     estimated scf accuracy    <       0.00000039 Ry

     iteration # 40     ecut=    60.00 Ry     beta= 0.15
     Davidson diagonalization with overlap

---- Real-time Memory Report at c_bands before calling an iterative solver
             0 MiB given to the printing process from OS
             0 MiB allocation reported by mallinfo(arena+hblkhd)
         22756 MiB available memory on the node where the printing process lives
------------------
     ethr =  9.07E-11,  avg # of iterations =  2.2

     negative rho (up, down):  7.925E-01 0.000E+00

     total cpu time spent up to now is      746.3 secs

     total energy              =   -4441.65705494 Ry
     estimated scf accuracy    <       0.00000028 Ry

     iteration # 41     ecut=    60.00 Ry     beta= 0.15
     Davidson diagonalization with overlap

---- Real-time Memory Report at c_bands before calling an iterative solver
             0 MiB given to the printing process from OS
             0 MiB allocation reported by mallinfo(arena+hblkhd)
         22765 MiB available memory on the node where the printing process lives
------------------
     ethr =  6.53E-11,  avg # of iterations =  2.4

     negative rho (up, down):  7.925E-01 0.000E+00

     total cpu time spent up to now is      763.9 secs

     total energy              =   -4441.65705491 Ry
     estimated scf accuracy    <       0.00000023 Ry

     iteration # 42     ecut=    60.00 Ry     beta= 0.15
     Davidson diagonalization with overlap

---- Real-time Memory Report at c_bands before calling an iterative solver
             0 MiB given to the printing process from OS
             0 MiB allocation reported by mallinfo(arena+hblkhd)
         22764 MiB available memory on the node where the printing process lives
------------------
     ethr =  5.23E-11,  avg # of iterations =  1.9

     negative rho (up, down):  7.925E-01 0.000E+00

     total cpu time spent up to now is      780.6 secs

     total energy              =   -4441.65705492 Ry
     estimated scf accuracy    <       0.00000014 Ry

     iteration # 43     ecut=    60.00 Ry     beta= 0.15
     Davidson diagonalization with overlap

---- Real-time Memory Report at c_bands before calling an iterative solver
             0 MiB given to the printing process from OS
             0 MiB allocation reported by mallinfo(arena+hblkhd)
         22761 MiB available memory on the node where the printing process lives
------------------
     ethr =  3.27E-11,  avg # of iterations =  2.2

     negative rho (up, down):  7.925E-01 0.000E+00

     total cpu time spent up to now is      797.5 secs

     total energy              =   -4441.65705494 Ry
     estimated scf accuracy    <       0.00000007 Ry

     iteration # 44     ecut=    60.00 Ry     beta= 0.15
     Davidson diagonalization with overlap

---- Real-time Memory Report at c_bands before calling an iterative solver
             0 MiB given to the printing process from OS
             0 MiB allocation reported by mallinfo(arena+hblkhd)
         22765 MiB available memory on the node where the printing process lives
------------------
     ethr =  1.58E-11,  avg # of iterations =  3.2

     negative rho (up, down):  7.925E-01 0.000E+00

     total cpu time spent up to now is      815.1 secs

     total energy              =   -4441.65705494 Ry
     estimated scf accuracy    <       0.00000004 Ry

     iteration # 45     ecut=    60.00 Ry     beta= 0.15
     Davidson diagonalization with overlap

---- Real-time Memory Report at c_bands before calling an iterative solver
             0 MiB given to the printing process from OS
             0 MiB allocation reported by mallinfo(arena+hblkhd)
         22764 MiB available memory on the node where the printing process lives
------------------
     ethr =  1.02E-11,  avg # of iterations =  3.7

     negative rho (up, down):  7.925E-01 0.000E+00

     total cpu time spent up to now is      832.8 secs

     total energy              =   -4441.65705494 Ry
     estimated scf accuracy    <       0.00000002 Ry

     iteration # 46     ecut=    60.00 Ry     beta= 0.15
     Davidson diagonalization with overlap

---- Real-time Memory Report at c_bands before calling an iterative solver
             0 MiB given to the printing process from OS
             0 MiB allocation reported by mallinfo(arena+hblkhd)
         22764 MiB available memory on the node where the printing process lives
------------------
     ethr =  5.08E-12,  avg # of iterations =  2.2

     negative rho (up, down):  7.925E-01 0.000E+00

     total cpu time spent up to now is      849.8 secs

     total energy              =   -4441.65705494 Ry
     estimated scf accuracy    <       0.00000002 Ry

     iteration # 47     ecut=    60.00 Ry     beta= 0.15
     Davidson diagonalization with overlap

---- Real-time Memory Report at c_bands before calling an iterative solver
             0 MiB given to the printing process from OS
             0 MiB allocation reported by mallinfo(arena+hblkhd)
         22773 MiB available memory on the node where the printing process lives
------------------
     ethr =  3.66E-12,  avg # of iterations =  2.2

     negative rho (up, down):  7.925E-01 0.000E+00

     total cpu time spent up to now is      866.7 secs

     total energy              =   -4441.65705493 Ry
     estimated scf accuracy    <       0.00000001 Ry

     iteration # 48     ecut=    60.00 Ry     beta= 0.15
     Davidson diagonalization with overlap

---- Real-time Memory Report at c_bands before calling an iterative solver
             0 MiB given to the printing process from OS
             0 MiB allocation reported by mallinfo(arena+hblkhd)
         22787 MiB available memory on the node where the printing process lives
------------------
     ethr =  2.84E-12,  avg # of iterations =  3.8

     negative rho (up, down):  7.925E-01 0.000E+00

     total cpu time spent up to now is      884.3 secs

     End of self-consistent calculation

          k = 0.0000 0.0000 0.0000 ( 65197 PWs)   bands (ev):

   -92.6934 -92.6419 -92.5473 -92.5009 -92.4449 -92.4007 -92.3821 -92.2593
   -56.0468 -56.0288 -55.9046 -55.8940 -55.8873 -55.8809 -55.8449 -55.8165
   -55.8006 -55.8006 -55.7932 -55.7512 -55.7322 -55.6954 -55.6737 -55.6442
   -55.6367 -55.5880 -55.5863 -55.5856 -55.5771 -55.5339 -55.5126 -55.4257
   -31.2705 -31.2511 -31.1095 -31.0228 -30.9536 -30.9272 -30.8565 -30.7833
   -29.8401 -29.7967 -29.7712 -29.6634 -15.0737 -15.0295 -14.9487 -14.8184
   -14.6253 -14.5009 -14.2110 -14.1883 -14.1609 -14.1148 -14.0680 -14.0617
   -14.0489 -14.0281 -14.0045 -13.9667 -13.9457 -13.9212 -13.7699 -13.5920
   -13.5558 -13.5284 -13.4949 -13.4794 -13.4203 -13.3834 -13.3151 -13.2431
   -13.1104 -13.1016 -13.0903 -13.0674 -13.0492 -12.9989 -12.9940 -12.9832
   -12.9614 -12.9455 -12.9154 -12.8926 -12.8234 -12.8188 -12.7858 -12.7687
   -12.7515 -12.7303 -12.7125 -12.6702 -12.6511 -12.3350 -12.1895 -12.0211
   -11.9351 -11.8536 -11.7794 -11.7683 -11.7457 -11.7281 -11.6645 -11.6473
   -11.6122 -11.5831 -11.4723 -11.3921 -11.3884  -2.9335  -2.7016  -2.4714
    -2.3252  -2.2619  -2.1202  -1.8127  -1.7984  -1.7791  -1.6950  -1.6750
    -1.6066  -1.5899  -1.5483  -1.5068  -1.3238  -1.1082  -1.0974  -1.0629
    -0.9231  -0.9086  -0.8618  -0.8427  -0.7963  -0.7808  -0.7261  -0.6991
    -0.6222  -0.6148  -0.5389  -0.4060  -0.3945  -0.3648  -0.2843  -0.2586
    -0.2510  -0.1952  -0.1199  -0.0512  -0.0225   0.0052   0.1046   0.1357
     0.1916   0.2066   0.2341   0.4835   0.4958   0.6695   0.7344   0.8037
     0.8587   0.9368   0.9473   0.9615   1.0319   1.0584   1.0919   1.1509
     1.2816   1.3419   1.3621   1.3807   1.4003   1.4610   1.5292   1.6424
     1.6504   1.7169   1.7284   1.7718   1.7839   1.7969   1.8608   1.9210
     1.9258   1.9612   1.9896   2.0366   2.1690   2.2607   2.2961   2.3060
     2.4522   2.4618   2.4678   2.4938   2.5201   2.5473   2.6301   2.6660
     2.6912   2.7101   2.7254   2.8079   2.9144   2.9481   2.9601   2.9655
     3.0326   3.0374   3.0612   3.0685   3.0775   3.0892   3.0973   3.1110
     3.1174   3.1284   3.1367   3.1465   3.1646   3.1858   3.1906   3.2031
     3.2316   3.3448   3.4214   4.1172   4.4431   4.7747   4.8713   5.0637
     5.7918   5.9543   5.9935   6.0097   6.3218   6.3686   6.4882   6.4975
     6.7577   7.0092   7.1057   7.3256   7.5155   7.6369   7.6597   7.6706
     7.7033   7.8814   7.9384   8.1048   8.1197   8.2053   8.3870   8.4701
     8.6919   8.8083   8.8848

     occupation numbers 
     1.0000   1.0000   1.0000   1.0000   1.0000   1.0000   1.0000   1.0000
     1.0000   1.0000   1.0000   1.0000   1.0000   1.0000   1.0000   1.0000
     1.0000   1.0000   1.0000   1.0000   1.0000   1.0000   1.0000   1.0000
     1.0000   1.0000   1.0000   1.0000   1.0000   1.0000   1.0000   1.0000
     1.0000   1.0000   1.0000   1.0000   1.0000   1.0000   1.0000   1.0000
     1.0000   1.0000   1.0000   1.0000   1.0000   1.0000   1.0000   1.0000
     1.0000   1.0000   1.0000   1.0000   1.0000   1.0000   1.0000   1.0000
     1.0000   1.0000   1.0000   1.0000   1.0000   1.0000   1.0000   1.0000
     1.0000   1.0000   1.0000   1.0000   1.0000   1.0000   1.0000   1.0000
     1.0000   1.0000   1.0000   1.0000   1.0000   1.0000   1.0000   1.0000
     1.0000   1.0000   1.0000   1.0000   1.0000   1.0000   1.0000   1.0000
     1.0000   1.0000   1.0000   1.0000   1.0000   1.0000   1.0000   1.0000
     1.0000   1.0000   1.0000   1.0000   1.0000   1.0000   1.0000   1.0000
     1.0000   1.0000   1.0000   1.0000   1.0000   1.0000   1.0000   1.0000
     1.0000   1.0000   1.0000   1.0000   1.0000   1.0000   1.0000   1.0000
     1.0000   1.0000   1.0000   1.0000   1.0000   1.0000   1.0000   1.0000
     1.0000   1.0000   1.0000   1.0000   1.0000   1.0000   1.0000   1.0000
     1.0000   1.0000   1.0000   1.0000   1.0000   1.0000   1.0000   1.0000
     1.0000   1.0000   1.0000   1.0000   1.0000   1.0000   1.0000   1.0000
     1.0000   1.0000   1.0000   1.0000   1.0000   1.0000   0.9999   0.9999
     0.9999   0.9998   0.9998   0.9998   0.9997   0.9996   0.9996   0.9994
     0.9988   0.9985   0.9983   0.9981   0.9980   0.9973   0.9963   0.9940
     0.9938   0.9918   0.9915   0.9898   0.9893   0.9888   0.9857   0.9821
     0.9818   0.9793   0.9771   0.9730   0.9582   0.9445   0.9384   0.9366
     0.9049   0.9024   0.9009   0.8940   0.8867   0.8787   0.8521   0.8395
     0.8302   0.8230   0.8171   0.7828   0.7335   0.7168   0.7107   0.7080
     0.6729   0.6704   0.6575   0.6535   0.6485   0.6421   0.6375   0.6299
     0.6263   0.6201   0.6154   0.6098   0.5995   0.5872   0.5845   0.5772
     0.5606   0.4938   0.4485   0.1225   0.0498   0.0162   0.0112   0.0051
     0.0001   0.0001   0.0000   0.0000   0.0000   0.0000   0.0000   0.0000
     0.0000   0.0000   0.0000   0.0000   0.0000   0.0000   0.0000   0.0000
     0.0000   0.0000   0.0000   0.0000   0.0000   0.0000   0.0000   0.0000
     0.0000   0.0000   0.0000

          k = 0.0000 0.2500 0.0000 ( 65257 PWs)   bands (ev):

   -92.6934 -92.6419 -92.5473 -92.5009 -92.4449 -92.4007 -92.3821 -92.2593
   -56.0468 -56.0288 -55.9046 -55.8940 -55.8873 -55.8809 -55.8449 -55.8165
   -55.8006 -55.8006 -55.7932 -55.7512 -55.7322 -55.6954 -55.6737 -55.6442
   -55.6367 -55.5880 -55.5863 -55.5856 -55.5771 -55.5339 -55.5126 -55.4257
   -31.2703 -31.2510 -31.1097 -31.0229 -30.9524 -30.9284 -30.8561 -30.7837
   -29.8395 -29.7963 -29.7719 -29.6637 -15.0371 -15.0037 -14.9236 -14.7888
   -14.6662 -14.4907 -14.3568 -14.1771 -14.1400 -14.1192 -14.0911 -14.0319
   -14.0255 -14.0136 -13.9901 -13.9552 -13.9282 -13.8406 -13.8001 -13.6400
   -13.6136 -13.5687 -13.5339 -13.4869 -13.4418 -13.3811 -13.3348 -13.3002
   -13.2189 -13.1505 -13.1396 -13.1011 -13.0813 -12.9818 -12.9791 -12.9525
   -12.9273 -12.8945 -12.8670 -12.8592 -12.7928 -12.7801 -12.7590 -12.7453
   -12.7327 -12.7259 -12.6883 -12.5707 -12.4853 -12.3963 -12.2407 -12.0779
   -12.0027 -11.8191 -11.7761 -11.7484 -11.7202 -11.7036 -11.6562 -11.6450
   -11.6223 -11.5877 -11.4867 -11.4337 -11.4232  -2.7981  -2.5773  -2.4391
    -2.2576  -2.2139  -2.0504  -1.8308  -1.7466  -1.7335  -1.6760  -1.5714
    -1.5569  -1.5247  -1.4964  -1.4527  -1.2551  -1.1331  -1.1141  -1.0921
    -1.0386  -1.0278  -0.9229  -0.8939  -0.8349  -0.8091  -0.7700  -0.7066
    -0.6784  -0.6466  -0.6130  -0.5975  -0.5640  -0.4900  -0.4409  -0.3753
    -0.2558  -0.2407  -0.1995  -0.0757  -0.0157   0.0130   0.0752   0.1192
     0.1438   0.1735   0.2388   0.5320   0.6165   0.6618   0.7405   0.7812
     0.8108   0.9163   0.9355   1.0390   1.0608   1.0857   1.1977   1.2939
     1.3186   1.3437   1.3568   1.3821   1.4445   1.4705   1.5001   1.5458
     1.5824   1.6155   1.7075   1.7327   1.7704   1.8176   1.8827   1.9278
     1.9453   1.9658   1.9832   2.0851   2.2120   2.2788   2.2919   2.3680
     2.4126   2.4468   2.4590   2.4790   2.4959   2.5268   2.5623   2.6448
     2.6864   2.7022   2.8732   2.8950   2.9293   2.9514   2.9661   2.9749
     2.9830   2.9904   3.0206   3.0225   3.0405   3.0447   3.0551   3.0747
     3.0860   3.0939   3.1152   3.1268   3.1314   3.1668   3.1835   3.2439
     3.6229   3.6452   3.8854   4.3097   4.4360   4.7237   5.0267   5.0788
     5.6556   5.8101   5.9483   6.0020   6.0926   6.1130   6.1918   6.6046
     6.8946   7.0627   7.1119   7.3369   7.4939   7.5069   7.6497   7.6965
     7.8626   7.9500   8.0560   8.2023   8.2660   8.3674   8.4120   8.4280
     8.5432   8.8128   8.9371

     occupation numbers 
     1.0000   1.0000   1.0000   1.0000   1.0000   1.0000   1.0000   1.0000
     1.0000   1.0000   1.0000   1.0000   1.0000   1.0000   1.0000   1.0000
     1.0000   1.0000   1.0000   1.0000   1.0000   1.0000   1.0000   1.0000
     1.0000   1.0000   1.0000   1.0000   1.0000   1.0000   1.0000   1.0000
     1.0000   1.0000   1.0000   1.0000   1.0000   1.0000   1.0000   1.0000
     1.0000   1.0000   1.0000   1.0000   1.0000   1.0000   1.0000   1.0000
     1.0000   1.0000   1.0000   1.0000   1.0000   1.0000   1.0000   1.0000
     1.0000   1.0000   1.0000   1.0000   1.0000   1.0000   1.0000   1.0000
     1.0000   1.0000   1.0000   1.0000   1.0000   1.0000   1.0000   1.0000
     1.0000   1.0000   1.0000   1.0000   1.0000   1.0000   1.0000   1.0000
     1.0000   1.0000   1.0000   1.0000   1.0000   1.0000   1.0000   1.0000
     1.0000   1.0000   1.0000   1.0000   1.0000   1.0000   1.0000   1.0000
     1.0000   1.0000   1.0000   1.0000   1.0000   1.0000   1.0000   1.0000
     1.0000   1.0000   1.0000   1.0000   1.0000   1.0000   1.0000   1.0000
     1.0000   1.0000   1.0000   1.0000   1.0000   1.0000   1.0000   1.0000
     1.0000   1.0000   1.0000   1.0000   1.0000   1.0000   1.0000   1.0000
     1.0000   1.0000   1.0000   1.0000   1.0000   1.0000   1.0000   1.0000
     1.0000   1.0000   1.0000   1.0000   1.0000   1.0000   1.0000   1.0000
     1.0000   1.0000   1.0000   1.0000   1.0000   1.0000   1.0000   1.0000
     1.0000   1.0000   1.0000   1.0000   1.0000   1.0000   0.9999   0.9999
     0.9999   0.9998   0.9998   0.9997   0.9996   0.9996   0.9992   0.9988
     0.9986   0.9984   0.9983   0.9981   0.9975   0.9972   0.9968   0.9960
     0.9954   0.9946   0.9921   0.9913   0.9899   0.9878   0.9844   0.9816
     0.9804   0.9789   0.9776   0.9682   0.9522   0.9415   0.9392   0.9243
     0.9144   0.9062   0.9032   0.8980   0.8934   0.8847   0.8742   0.8471
     0.8320   0.8260   0.7532   0.7429   0.7262   0.7152   0.7077   0.7032
     0.6990   0.6952   0.6793   0.6783   0.6687   0.6664   0.6608   0.6501
     0.6438   0.6394   0.6276   0.6210   0.6184   0.5982   0.5886   0.5534
     0.3341   0.3222   0.2066   0.0738   0.0509   0.0195   0.0060   0.0048
     0.0003   0.0001   0.0001   0.0000   0.0000   0.0000   0.0000   0.0000
     0.0000   0.0000   0.0000   0.0000   0.0000   0.0000   0.0000   0.0000
     0.0000   0.0000   0.0000   0.0000   0.0000   0.0000   0.0000   0.0000
     0.0000   0.0000   0.0000

          k = 0.0000-0.5000 0.0000 ( 65180 PWs)   bands (ev):

   -92.6934 -92.6419 -92.5473 -92.5009 -92.4449 -92.4007 -92.3821 -92.2593
   -56.0468 -56.0288 -55.9046 -55.8940 -55.8873 -55.8809 -55.8449 -55.8165
   -55.8006 -55.8006 -55.7932 -55.7512 -55.7322 -55.6954 -55.6737 -55.6442
   -55.6367 -55.5880 -55.5863 -55.5856 -55.5771 -55.5339 -55.5126 -55.4257
   -31.2701 -31.2509 -31.1099 -31.0231 -30.9511 -30.9297 -30.8557 -30.7842
   -29.8388 -29.7960 -29.7725 -29.6640 -15.0019 -14.9535 -14.9007 -14.7688
   -14.6873 -14.5495 -14.3967 -14.2705 -14.1498 -14.0732 -14.0328 -14.0255
   -13.9768 -13.9614 -13.9515 -13.9156 -13.8908 -13.8680 -13.8328 -13.7789
   -13.7495 -13.5753 -13.5171 -13.4921 -13.4493 -13.3546 -13.3512 -13.3057
   -13.2758 -13.2455 -13.2106 -13.1019 -13.0818 -12.9658 -12.9580 -12.9380
   -12.9344 -12.9212 -12.8739 -12.7770 -12.7598 -12.7391 -12.7254 -12.7048
   -12.6983 -12.6971 -12.6445 -12.5073 -12.4209 -12.3158 -12.2677 -12.1749
   -12.1401 -11.7731 -11.7706 -11.7433 -11.7063 -11.6717 -11.6605 -11.6178
   -11.6138 -11.5692 -11.5085 -11.4946 -11.4805  -2.5830  -2.5249  -2.3740
    -2.3022  -2.0196  -1.9372  -1.8095  -1.6724  -1.6348  -1.6149  -1.5381
    -1.5043  -1.4241  -1.3883  -1.3099  -1.2709  -1.2325  -1.2053  -1.1482
    -1.1120  -1.1002  -1.0590  -1.0252  -0.9945  -0.9596  -0.8502  -0.8060
    -0.7700  -0.7676  -0.6811  -0.6517  -0.6268  -0.5812  -0.4952  -0.4179
    -0.3301  -0.3047  -0.1710  -0.1619  -0.0224   0.0158   0.0583   0.0887
     0.2181   0.3150   0.4001   0.4700   0.4804   0.6065   0.6851   0.7438
     0.8946   0.9878   1.0221   1.0629   1.0728   1.1026   1.1222   1.1590
     1.1765   1.2013   1.3016   1.3558   1.3831   1.4071   1.6817   1.7143
     1.7435   1.8212   1.8378   1.8846   1.9059   1.9234   1.9445   1.9629
     1.9772   2.0121   2.0370   2.0704   2.0743   2.1054   2.1606   2.2499
     2.2934   2.4485   2.4663   2.4753   2.6117   2.6272   2.6353   2.6785
     2.6859   2.6912   2.7404   2.7526   2.8067   2.8290   2.9078   2.9177
     2.9913   2.9922   3.0182   3.0218   3.0375   3.0408   3.0444   3.0513
     3.0556   3.0684   3.0857   3.0874   3.1520   3.1564   3.1731   3.2307
     4.1286   4.1546   4.2283   4.2663   4.7384   4.9260   5.0327   5.1757
     5.4204   5.4709   5.5933   5.7317   6.0347   6.0548   6.3768   6.4484
     6.8590   6.9605   7.2329   7.3002   7.3854   7.4778   7.7591   7.8253
     7.9156   8.1028   8.1191   8.2468   8.3117   8.4647   8.5079   8.6755
     8.8204   8.8675   8.8811

     occupation numbers 
     1.0000   1.0000   1.0000   1.0000   1.0000   1.0000   1.0000   1.0000
     1.0000   1.0000   1.0000   1.0000   1.0000   1.0000   1.0000   1.0000
     1.0000   1.0000   1.0000   1.0000   1.0000   1.0000   1.0000   1.0000
     1.0000   1.0000   1.0000   1.0000   1.0000   1.0000   1.0000   1.0000
     1.0000   1.0000   1.0000   1.0000   1.0000   1.0000   1.0000   1.0000
     1.0000   1.0000   1.0000   1.0000   1.0000   1.0000   1.0000   1.0000
     1.0000   1.0000   1.0000   1.0000   1.0000   1.0000   1.0000   1.0000
     1.0000   1.0000   1.0000   1.0000   1.0000   1.0000   1.0000   1.0000
     1.0000   1.0000   1.0000   1.0000   1.0000   1.0000   1.0000   1.0000
     1.0000   1.0000   1.0000   1.0000   1.0000   1.0000   1.0000   1.0000
     1.0000   1.0000   1.0000   1.0000   1.0000   1.0000   1.0000   1.0000
     1.0000   1.0000   1.0000   1.0000   1.0000   1.0000   1.0000   1.0000
     1.0000   1.0000   1.0000   1.0000   1.0000   1.0000   1.0000   1.0000
     1.0000   1.0000   1.0000   1.0000   1.0000   1.0000   1.0000   1.0000
     1.0000   1.0000   1.0000   1.0000   1.0000   1.0000   1.0000   1.0000
     1.0000   1.0000   1.0000   1.0000   1.0000   1.0000   1.0000   1.0000
     1.0000   1.0000   1.0000   1.0000   1.0000   1.0000   1.0000   1.0000
     1.0000   1.0000   1.0000   1.0000   1.0000   1.0000   1.0000   1.0000
     1.0000   1.0000   1.0000   1.0000   1.0000   1.0000   1.0000   1.0000
     1.0000   1.0000   1.0000   1.0000   1.0000   1.0000   1.0000   0.9999
     0.9999   0.9998   0.9997   0.9996   0.9996   0.9995   0.9995   0.9994
     0.9993   0.9992   0.9987   0.9983   0.9981   0.9979   0.9929   0.9919
     0.9909   0.9877   0.9869   0.9843   0.9830   0.9819   0.9805   0.9791
     0.9781   0.9752   0.9730   0.9697   0.9693   0.9660   0.9593   0.9463
     0.9389   0.9058   0.9013   0.8989   0.8584   0.8531   0.8504   0.8349
     0.8322   0.8302   0.8111   0.8061   0.7833   0.7735   0.7367   0.7319
     0.6947   0.6943   0.6806   0.6787   0.6703   0.6685   0.6666   0.6628
     0.6605   0.6535   0.6440   0.6430   0.6067   0.6041   0.5946   0.5611
     0.1191   0.1116   0.0922   0.0832   0.0185   0.0091   0.0058   0.0031
     0.0010   0.0008   0.0004   0.0002   0.0000   0.0000   0.0000   0.0000
     0.0000   0.0000   0.0000   0.0000   0.0000   0.0000   0.0000   0.0000
     0.0000   0.0000   0.0000   0.0000   0.0000   0.0000   0.0000   0.0000
     0.0000   0.0000   0.0000

          k = 0.2500 0.2500 0.0000 ( 65198 PWs)   bands (ev):

   -92.6934 -92.6419 -92.5473 -92.5009 -92.4449 -92.4007 -92.3821 -92.2593
   -56.0468 -56.0288 -55.9046 -55.8940 -55.8873 -55.8809 -55.8449 -55.8165
   -55.8006 -55.8006 -55.7932 -55.7512 -55.7322 -55.6954 -55.6737 -55.6442
   -55.6367 -55.5880 -55.5863 -55.5856 -55.5771 -55.5339 -55.5126 -55.4257
   -31.2686 -31.2527 -31.1093 -31.0233 -30.9522 -30.9280 -30.8565 -30.7839
   -29.8385 -29.7973 -29.7715 -29.6641 -15.0083 -14.9692 -14.8956 -14.7782
   -14.6587 -14.5318 -14.4620 -14.2530 -14.1001 -14.0861 -14.0501 -14.0195
   -13.9977 -13.9736 -13.9533 -13.9319 -13.8949 -13.8313 -13.8141 -13.6546
   -13.6401 -13.6107 -13.5919 -13.5351 -13.5019 -13.4193 -13.3991 -13.2765
   -13.2431 -13.2202 -13.1341 -13.0938 -13.0413 -13.0106 -12.9693 -12.9426
   -12.9276 -12.9087 -12.8665 -12.8164 -12.7813 -12.7495 -12.7408 -12.7315
   -12.7066 -12.6927 -12.6803 -12.5073 -12.4448 -12.3765 -12.2698 -12.1078
   -12.0531 -11.7913 -11.7597 -11.7489 -11.7416 -11.6792 -11.6443 -11.6378
   -11.6024 -11.5943 -11.5033 -11.4619 -11.4448  -2.6598  -2.4515  -2.3328
    -2.2395  -2.1184  -2.0538  -1.8556  -1.7113  -1.6922  -1.6629  -1.5662
    -1.5350  -1.4396  -1.4124  -1.3619  -1.2316  -1.1832  -1.1122  -1.0972
    -1.0645  -1.0183  -0.9960  -0.9725  -0.9293  -0.9147  -0.8241  -0.7732
    -0.7064  -0.6578  -0.6265  -0.5801  -0.5652  -0.5016  -0.4520  -0.3944
    -0.3614  -0.2747  -0.2172  -0.1940  -0.1536  -0.0993   0.0061   0.0131
     0.0370   0.1268   0.1549   0.4190   0.5718   0.6032   0.6695   0.7184
     0.7664   0.8087   0.8811   0.9125   1.1837   1.2493   1.3231   1.3491
     1.3983   1.4274   1.4638   1.5022   1.5187   1.5471   1.5947   1.5989
     1.6150   1.6568   1.6944   1.7367   1.8129   1.8385   1.8499   1.8897
     1.9214   1.9692   1.9932   2.1230   2.1905   2.2263   2.2427   2.3071
     2.3753   2.4034   2.4387   2.4527   2.4656   2.4810   2.5031   2.5882
     2.6274   2.7151   2.8845   2.9015   2.9075   2.9242   2.9402   2.9517
     2.9647   2.9705   2.9813   2.9947   3.0069   3.0250   3.0313   3.0432
     3.0654   3.0772   3.0871   3.1183   3.4185   3.5115   3.5549   3.6278
     3.6596   3.8643   3.9619   4.3254   4.5180   4.7243   5.0009   5.1727
     5.6610   5.7110   5.7742   5.8445   5.9042   6.1143   6.1637   6.2220
     6.9048   6.9848   7.1216   7.2762   7.5577   7.6137   7.7207   7.8524
     7.9003   8.0444   8.1692   8.2256   8.3170   8.3581   8.4544   8.5186
     8.5592   8.7132   8.8982

     occupation numbers 
     1.0000   1.0000   1.0000   1.0000   1.0000   1.0000   1.0000   1.0000
     1.0000   1.0000   1.0000   1.0000   1.0000   1.0000   1.0000   1.0000
     1.0000   1.0000   1.0000   1.0000   1.0000   1.0000   1.0000   1.0000
     1.0000   1.0000   1.0000   1.0000   1.0000   1.0000   1.0000   1.0000
     1.0000   1.0000   1.0000   1.0000   1.0000   1.0000   1.0000   1.0000
     1.0000   1.0000   1.0000   1.0000   1.0000   1.0000   1.0000   1.0000
     1.0000   1.0000   1.0000   1.0000   1.0000   1.0000   1.0000   1.0000
     1.0000   1.0000   1.0000   1.0000   1.0000   1.0000   1.0000   1.0000
     1.0000   1.0000   1.0000   1.0000   1.0000   1.0000   1.0000   1.0000
     1.0000   1.0000   1.0000   1.0000   1.0000   1.0000   1.0000   1.0000
     1.0000   1.0000   1.0000   1.0000   1.0000   1.0000   1.0000   1.0000
     1.0000   1.0000   1.0000   1.0000   1.0000   1.0000   1.0000   1.0000
     1.0000   1.0000   1.0000   1.0000   1.0000   1.0000   1.0000   1.0000
     1.0000   1.0000   1.0000   1.0000   1.0000   1.0000   1.0000   1.0000
     1.0000   1.0000   1.0000   1.0000   1.0000   1.0000   1.0000   1.0000
     1.0000   1.0000   1.0000   1.0000   1.0000   1.0000   1.0000   1.0000
     1.0000   1.0000   1.0000   1.0000   1.0000   1.0000   1.0000   1.0000
     1.0000   1.0000   1.0000   1.0000   1.0000   1.0000   1.0000   1.0000
     1.0000   1.0000   1.0000   1.0000   1.0000   1.0000   1.0000   1.0000
     1.0000   1.0000   1.0000   1.0000   1.0000   1.0000   1.0000   0.9999
     0.9999   0.9999   0.9999   0.9998   0.9993   0.9990   0.9986   0.9984
     0.9980   0.9977   0.9973   0.9967   0.9965   0.9960   0.9951   0.9950
     0.9947   0.9936   0.9926   0.9912   0.9881   0.9868   0.9862   0.9840
     0.9820   0.9787   0.9768   0.9640   0.9553   0.9500   0.9475   0.9364
     0.9228   0.9166   0.9082   0.9048   0.9015   0.8974   0.8914   0.8660
     0.8530   0.8211   0.7479   0.7398   0.7369   0.7287   0.7208   0.7150
     0.7084   0.7055   0.6999   0.6930   0.6866   0.6770   0.6736   0.6672
     0.6552   0.6487   0.6432   0.6258   0.4502   0.3962   0.3716   0.3315
     0.3145   0.2156   0.1757   0.0705   0.0394   0.0195   0.0067   0.0032
     0.0003   0.0002   0.0001   0.0001   0.0001   0.0000   0.0000   0.0000
     0.0000   0.0000   0.0000   0.0000   0.0000   0.0000   0.0000   0.0000
     0.0000   0.0000   0.0000   0.0000   0.0000   0.0000   0.0000   0.0000
     0.0000   0.0000   0.0000

          k = 0.2500-0.5000 0.0000 ( 65138 PWs)   bands (ev):

   -92.6934 -92.6419 -92.5473 -92.5009 -92.4449 -92.4007 -92.3821 -92.2593
   -56.0468 -56.0288 -55.9046 -55.8940 -55.8873 -55.8809 -55.8449 -55.8165
   -55.8006 -55.8006 -55.7932 -55.7512 -55.7322 -55.6954 -55.6737 -55.6442
   -55.6367 -55.5880 -55.5863 -55.5856 -55.5771 -55.5339 -55.5126 -55.4257
   -31.2684 -31.2526 -31.1095 -31.0234 -30.9509 -30.9293 -30.8561 -30.7844
   -29.8379 -29.7970 -29.7721 -29.6645 -14.9715 -14.9267 -14.8578 -14.7389
   -14.7098 -14.5907 -14.4985 -14.3678 -14.0648 -14.0093 -13.9841 -13.9614
   -13.9513 -13.9439 -13.9344 -13.8997 -13.8797 -13.8459 -13.8114 -13.7792
   -13.7323 -13.6578 -13.6094 -13.5513 -13.5310 -13.4608 -13.3956 -13.3398
   -13.3059 -13.1995 -13.1348 -13.1108 -13.0255 -12.9838 -12.9682 -12.9373
   -12.9134 -12.9033 -12.8859 -12.8014 -12.7692 -12.7532 -12.7264 -12.7093
   -12.7036 -12.6481 -12.6166 -12.5139 -12.4014 -12.3133 -12.2470 -12.1632
   -12.1392 -11.7669 -11.7549 -11.7441 -11.7169 -11.6852 -11.6570 -11.6152
   -11.5884 -11.5658 -11.5216 -11.4957 -11.4846  -2.4409  -2.3768  -2.2479
    -2.1709  -2.0400  -1.9573  -1.8339  -1.6838  -1.6300  -1.6071  -1.5447
    -1.5320  -1.4347  -1.3670  -1.2826  -1.2326  -1.2231  -1.1607  -1.1187
    -1.0988  -1.0827  -1.0352  -0.9974  -0.9624  -0.9239  -0.9116  -0.8666
    -0.8373  -0.7942  -0.7639  -0.6972  -0.5949  -0.5578  -0.4774  -0.4099
    -0.3585  -0.3207  -0.3004  -0.2291  -0.0821  -0.0589   0.0286   0.0608
     0.0702   0.1131   0.1625   0.1875   0.2298   0.2868   0.5797   0.6987
     0.7155   0.7726   1.0539   1.0689   1.1582   1.1823   1.3461   1.3811
     1.4220   1.4495   1.4590   1.4808   1.5432   1.5915   1.6267   1.6974
     1.8167   1.8390   1.8611   1.8672   1.9078   1.9167   1.9373   1.9762
     1.9814   2.0040   2.0253   2.0470   2.0683   2.1006   2.1607   2.2051
     2.2868   2.4154   2.4657   2.4710   2.5641   2.5795   2.5985   2.6307
     2.6562   2.6791   2.6998   2.7138   2.7371   2.8343   2.8860   2.9033
     2.9062   2.9208   2.9412   2.9545   2.9742   2.9823   3.0163   3.0248
     3.0406   3.0484   3.0565   3.0680   3.5825   3.6125   3.7506   3.8105
     4.1380   4.1945   4.2247   4.3279   4.7590   4.9458   5.0692   5.1489
     5.3122   5.4389   5.6136   5.6445   5.7773   5.7987   6.4040   6.4737
     6.5058   6.5722   7.3157   7.3769   7.5870   7.7055   7.7665   7.8295
     7.8902   8.0467   8.3801   8.4116   8.4524   8.5511   8.5601   8.5670
     8.7130   8.7255   8.7825

     occupation numbers 
     1.0000   1.0000   1.0000   1.0000   1.0000   1.0000   1.0000   1.0000
     1.0000   1.0000   1.0000   1.0000   1.0000   1.0000   1.0000   1.0000
     1.0000   1.0000   1.0000   1.0000   1.0000   1.0000   1.0000   1.0000
     1.0000   1.0000   1.0000   1.0000   1.0000   1.0000   1.0000   1.0000
     1.0000   1.0000   1.0000   1.0000   1.0000   1.0000   1.0000   1.0000
     1.0000   1.0000   1.0000   1.0000   1.0000   1.0000   1.0000   1.0000
     1.0000   1.0000   1.0000   1.0000   1.0000   1.0000   1.0000   1.0000
     1.0000   1.0000   1.0000   1.0000   1.0000   1.0000   1.0000   1.0000
     1.0000   1.0000   1.0000   1.0000   1.0000   1.0000   1.0000   1.0000
     1.0000   1.0000   1.0000   1.0000   1.0000   1.0000   1.0000   1.0000
     1.0000   1.0000   1.0000   1.0000   1.0000   1.0000   1.0000   1.0000
     1.0000   1.0000   1.0000   1.0000   1.0000   1.0000   1.0000   1.0000
     1.0000   1.0000   1.0000   1.0000   1.0000   1.0000   1.0000   1.0000
     1.0000   1.0000   1.0000   1.0000   1.0000   1.0000   1.0000   1.0000
     1.0000   1.0000   1.0000   1.0000   1.0000   1.0000   1.0000   1.0000
     1.0000   1.0000   1.0000   1.0000   1.0000   1.0000   1.0000   1.0000
     1.0000   1.0000   1.0000   1.0000   1.0000   1.0000   1.0000   1.0000
     1.0000   1.0000   1.0000   1.0000   1.0000   1.0000   1.0000   1.0000
     1.0000   1.0000   1.0000   1.0000   1.0000   1.0000   1.0000   1.0000
     1.0000   1.0000   1.0000   1.0000   1.0000   1.0000   1.0000   1.0000
     0.9999   0.9999   0.9996   0.9996   0.9994   0.9993   0.9984   0.9981
     0.9977   0.9974   0.9973   0.9970   0.9961   0.9952   0.9944   0.9925
     0.9879   0.9868   0.9856   0.9853   0.9829   0.9824   0.9810   0.9781
     0.9777   0.9759   0.9740   0.9720   0.9699   0.9665   0.9593   0.9532
     0.9401   0.9138   0.9014   0.9001   0.8736   0.8688   0.8627   0.8519
     0.8430   0.8347   0.8269   0.8216   0.8124   0.7711   0.7472   0.7389
     0.7375   0.7304   0.7203   0.7136   0.7036   0.6994   0.6816   0.6771
     0.6686   0.6644   0.6600   0.6537   0.3562   0.3397   0.2682   0.2398
     0.1163   0.1007   0.0930   0.0700   0.0172   0.0084   0.0050   0.0035
     0.0017   0.0009   0.0004   0.0003   0.0001   0.0001   0.0000   0.0000
     0.0000   0.0000   0.0000   0.0000   0.0000   0.0000   0.0000   0.0000
     0.0000   0.0000   0.0000   0.0000   0.0000   0.0000   0.0000   0.0000
     0.0000   0.0000   0.0000

          k =-0.5000-0.5000 0.0000 ( 65132 PWs)   bands (ev):

   -92.6934 -92.6419 -92.5473 -92.5009 -92.4449 -92.4007 -92.3821 -92.2593
   -56.0468 -56.0288 -55.9046 -55.8940 -55.8873 -55.8809 -55.8449 -55.8165
   -55.8006 -55.8006 -55.7932 -55.7512 -55.7322 -55.6954 -55.6737 -55.6442
   -55.6367 -55.5880 -55.5863 -55.5856 -55.5771 -55.5339 -55.5126 -55.4257
   -31.2662 -31.2548 -31.1092 -31.0238 -30.9507 -30.9289 -30.8565 -30.7846
   -29.8368 -29.7980 -29.7717 -29.6649 -14.9254 -14.8997 -14.7809 -14.7696
   -14.6720 -14.6394 -14.5991 -14.4674 -13.9755 -13.9609 -13.9509 -13.9289
   -13.9104 -13.8938 -13.8779 -13.8519 -13.8416 -13.8245 -13.8144 -13.7962
   -13.7244 -13.7185 -13.6795 -13.6535 -13.6420 -13.5507 -13.4436 -13.3750
   -13.3588 -13.1503 -13.1076 -13.0425 -13.0180 -12.9832 -12.9768 -12.9672
   -12.9486 -12.8823 -12.8428 -12.8074 -12.7796 -12.7522 -12.7492 -12.7272
   -12.7088 -12.5979 -12.5900 -12.5302 -12.3833 -12.3097 -12.2256 -12.1519
   -12.1384 -11.7636 -11.7511 -11.7332 -11.7165 -11.6814 -11.6635 -11.6291
   -11.5689 -11.5482 -11.5438 -11.4933 -11.4905  -2.2163  -2.1407  -2.1323
    -2.0618  -2.0221  -1.9434  -1.8754  -1.7500  -1.6344  -1.6041  -1.5644
    -1.5075  -1.4350  -1.4208  -1.3495  -1.3077  -1.1901  -1.1621  -1.1131
    -1.0976  -1.0846  -1.0201  -0.9725  -0.9540  -0.9408  -0.8892  -0.8451
    -0.8263  -0.7157  -0.6588  -0.6130  -0.5609  -0.5360  -0.5228  -0.4874
    -0.4448  -0.4088  -0.3988  -0.3149  -0.2351  -0.2021  -0.1703  -0.1014
    -0.0319  -0.0256   0.0377   0.0548   0.0620   0.0705   0.5386   0.6530
     0.6610   0.6858   1.0849   1.0951   1.1228   1.1578   1.4309   1.4510
     1.4573   1.4941   1.6254   1.7202   1.7483   1.7847   1.8219   1.8280
     1.8400   1.8709   1.8874   1.9066   1.9226   1.9534   1.9627   1.9868
     2.0176   2.0224   2.0343   2.0804   2.1004   2.1144   2.1481   2.1776
     2.2424   2.3075   2.4574   2.4667   2.5812   2.6080   2.6305   2.6456
     2.6609   2.6876   2.6930   2.7104   2.7207   2.7369   2.7584   2.7703
     2.8343   2.8384   2.8587   2.8735   2.8881   2.9046   2.9115   2.9225
     3.0210   3.0284   3.0535   3.0641   4.0008   4.0467   4.0738   4.1383
     4.3260   4.3989   4.4258   4.6670   4.7887   4.8715   5.0008   5.0891
     5.1154   5.2150   5.3077   5.4228   5.8582   5.8940   5.9668   6.0398
     6.6952   6.8454   6.9691   7.0869   7.8894   7.9348   7.9418   7.9773
     7.9864   8.0315   8.0919   8.2808   8.5593   8.5963   8.6228   8.6314
     8.6652   8.7470   8.7512

     occupation numbers 
     1.0000   1.0000   1.0000   1.0000   1.0000   1.0000   1.0000   1.0000
     1.0000   1.0000   1.0000   1.0000   1.0000   1.0000   1.0000   1.0000
     1.0000   1.0000   1.0000   1.0000   1.0000   1.0000   1.0000   1.0000
     1.0000   1.0000   1.0000   1.0000   1.0000   1.0000   1.0000   1.0000
     1.0000   1.0000   1.0000   1.0000   1.0000   1.0000   1.0000   1.0000
     1.0000   1.0000   1.0000   1.0000   1.0000   1.0000   1.0000   1.0000
     1.0000   1.0000   1.0000   1.0000   1.0000   1.0000   1.0000   1.0000
     1.0000   1.0000   1.0000   1.0000   1.0000   1.0000   1.0000   1.0000
     1.0000   1.0000   1.0000   1.0000   1.0000   1.0000   1.0000   1.0000
     1.0000   1.0000   1.0000   1.0000   1.0000   1.0000   1.0000   1.0000
     1.0000   1.0000   1.0000   1.0000   1.0000   1.0000   1.0000   1.0000
     1.0000   1.0000   1.0000   1.0000   1.0000   1.0000   1.0000   1.0000
     1.0000   1.0000   1.0000   1.0000   1.0000   1.0000   1.0000   1.0000
     1.0000   1.0000   1.0000   1.0000   1.0000   1.0000   1.0000   1.0000
     1.0000   1.0000   1.0000   1.0000   1.0000   1.0000   1.0000   1.0000
     1.0000   1.0000   1.0000   1.0000   1.0000   1.0000   1.0000   1.0000
     1.0000   1.0000   1.0000   1.0000   1.0000   1.0000   1.0000   1.0000
     1.0000   1.0000   1.0000   1.0000   1.0000   1.0000   1.0000   1.0000
     1.0000   1.0000   1.0000   1.0000   1.0000   1.0000   1.0000   1.0000
     1.0000   1.0000   1.0000   1.0000   1.0000   1.0000   1.0000   1.0000
     1.0000   1.0000   0.9996   0.9996   0.9995   0.9994   0.9976   0.9974
     0.9973   0.9969   0.9944   0.9917   0.9907   0.9893   0.9876   0.9873
     0.9868   0.9851   0.9842   0.9830   0.9820   0.9798   0.9792   0.9773
     0.9747   0.9743   0.9732   0.9687   0.9665   0.9650   0.9609   0.9571
     0.9475   0.9363   0.9036   0.9012   0.8683   0.8596   0.8520   0.8467
     0.8413   0.8315   0.8295   0.8229   0.8189   0.8125   0.8038   0.7988
     0.7711   0.7693   0.7600   0.7531   0.7462   0.7383   0.7349   0.7296
     0.6791   0.6752   0.6616   0.6559   0.1612   0.1450   0.1361   0.1163
     0.0704   0.0570   0.0525   0.0239   0.0154   0.0112   0.0067   0.0046
     0.0041   0.0026   0.0017   0.0010   0.0001   0.0001   0.0000   0.0000
     0.0000   0.0000   0.0000   0.0000   0.0000   0.0000   0.0000   0.0000
     0.0000   0.0000   0.0000   0.0000   0.0000   0.0000   0.0000   0.0000
     0.0000   0.0000   0.0000

          k = 0.2500 0.0000 0.0000 ( 65257 PWs)   bands (ev):

   -92.6934 -92.6419 -92.5473 -92.5009 -92.4449 -92.4007 -92.3821 -92.2593
   -56.0468 -56.0288 -55.9046 -55.8940 -55.8873 -55.8809 -55.8449 -55.8165
   -55.8006 -55.8006 -55.7932 -55.7512 -55.7322 -55.6954 -55.6737 -55.6442
   -55.6367 -55.5880 -55.5863 -55.5856 -55.5771 -55.5339 -55.5126 -55.4257
   -31.2688 -31.2529 -31.1091 -31.0232 -30.9534 -30.9268 -30.8570 -30.7835
   -29.8391 -29.7976 -29.7708 -29.6638 -15.0407 -14.9993 -14.9289 -14.7819
   -14.6744 -14.4808 -14.3461 -14.1660 -14.1501 -14.1196 -14.0885 -14.0633
[...]
     0.3557   0.3252   0.2029   0.0763   0.0461   0.0221   0.0060   0.0046
     0.0003   0.0001   0.0000   0.0000   0.0000   0.0000   0.0000   0.0000
     0.0000   0.0000   0.0000   0.0000   0.0000   0.0000   0.0000   0.0000
     0.0000   0.0000   0.0000   0.0000   0.0000   0.0000   0.0000   0.0000
     0.0000   0.0000   0.0000

          k =-0.5000 0.0000 0.0000 ( 65180 PWs)   bands (ev):

   -92.6934 -92.6419 -92.5473 -92.5009 -92.4449 -92.4007 -92.3821 -92.2593
   -56.0468 -56.0288 -55.9046 -55.8940 -55.8873 -55.8809 -55.8449 -55.8165
   -55.8006 -55.8006 -55.7932 -55.7512 -55.7322 -55.6954 -55.6737 -55.6442
   -55.6367 -55.5880 -55.5863 -55.5856 -55.5771 -55.5339 -55.5126 -55.4257
   -31.2666 -31.2551 -31.1088 -31.0235 -30.9532 -30.9264 -30.8574 -30.7837
   -29.8381 -29.7987 -29.7704 -29.6642 -15.0070 -14.9559 -14.8934 -14.7811
   -14.6803 -14.5369 -14.3914 -14.2421 -14.1244 -14.1088 -14.1006 -14.0336
   -13.9828 -13.9540 -13.9486 -13.9007 -13.8890 -13.8759 -13.8296 -13.7983
   -13.7022 -13.5473 -13.5170 -13.4869 -13.4791 -13.3648 -13.3551 -13.3057
   -13.2605 -13.2371 -13.2169 -13.0470 -13.0342 -13.0094 -13.0000 -12.9637
   -12.9393 -12.9249 -12.9130 -12.7987 -12.7810 -12.7486 -12.7255 -12.6795
   -12.6496 -12.6330 -12.6238 -12.5334 -12.4381 -12.3198 -12.2847 -12.1738
   -12.1301 -11.7703 -11.7491 -11.7421 -11.7277 -11.7094 -11.6678 -11.6054
   -11.5875 -11.5545 -11.5109 -11.5015 -11.4859  -2.5733  -2.5349  -2.3719
    -2.3323  -2.0187  -1.9440  -1.7964  -1.6780  -1.6390  -1.5941  -1.5456
    -1.5207  -1.3973  -1.3532  -1.3377  -1.2558  -1.2199  -1.2047  -1.1733
    -1.1182  -1.0959  -1.0444  -1.0181  -0.9848  -0.8893  -0.8455  -0.7970
    -0.7635  -0.7433  -0.7129  -0.6639  -0.6392  -0.5962  -0.5020  -0.4330
    -0.3632  -0.3041  -0.1182  -0.1073  -0.0474  -0.0093   0.0601   0.0873
     0.2145   0.2506   0.2730   0.4506   0.5499   0.5993   0.6732   0.7725
     0.8640   0.8956   1.0197   1.0424   1.0936   1.1181   1.1578   1.1758
     1.2196   1.2411   1.3148   1.3547   1.4002   1.4124   1.7183   1.7307
     1.7412   1.7771   1.8782   1.8822   1.8991   1.9059   1.9298   1.9504
     1.9863   2.0046   2.0359   2.0858   2.1024   2.1518   2.1735   2.2297
     2.3294   2.4458   2.4647   2.4655   2.5172   2.5426   2.6094   2.6341
     2.6672   2.7322   2.7391   2.7472   2.7758   2.8433   2.8923   2.9369
     2.9668   3.0073   3.0122   3.0142   3.0255   3.0388   3.0511   3.0660
     3.0693   3.0921   3.0941   3.1185   3.1368   3.1425   3.2719   3.2791
     4.0628   4.1429   4.2227   4.3339   4.8013   4.8855   5.0504   5.0598
     5.4932   5.5162   5.6099   5.6650   6.0431   6.0499   6.3262   6.5031
     6.8053   7.0105   7.2784   7.3314   7.3684   7.4772   7.6948   7.7850
     7.8958   8.0939   8.1510   8.2745   8.3435   8.4419   8.5261   8.6343
     8.7630   8.8059   8.9001

     occupation numbers 
     1.0000   1.0000   1.0000   1.0000   1.0000   1.0000   1.0000   1.0000
     1.0000   1.0000   1.0000   1.0000   1.0000   1.0000   1.0000   1.0000
     1.0000   1.0000   1.0000   1.0000   1.0000   1.0000   1.0000   1.0000
     1.0000   1.0000   1.0000   1.0000   1.0000   1.0000   1.0000   1.0000
     1.0000   1.0000   1.0000   1.0000   1.0000   1.0000   1.0000   1.0000
     1.0000   1.0000   1.0000   1.0000   1.0000   1.0000   1.0000   1.0000
     1.0000   1.0000   1.0000   1.0000   1.0000   1.0000   1.0000   1.0000
     1.0000   1.0000   1.0000   1.0000   1.0000   1.0000   1.0000   1.0000
     1.0000   1.0000   1.0000   1.0000   1.0000   1.0000   1.0000   1.0000
     1.0000   1.0000   1.0000   1.0000   1.0000   1.0000   1.0000   1.0000
     1.0000   1.0000   1.0000   1.0000   1.0000   1.0000   1.0000   1.0000
     1.0000   1.0000   1.0000   1.0000   1.0000   1.0000   1.0000   1.0000
     1.0000   1.0000   1.0000   1.0000   1.0000   1.0000   1.0000   1.0000
     1.0000   1.0000   1.0000   1.0000   1.0000   1.0000   1.0000   1.0000
     1.0000   1.0000   1.0000   1.0000   1.0000   1.0000   1.0000   1.0000
     1.0000   1.0000   1.0000   1.0000   1.0000   1.0000   1.0000   1.0000
     1.0000   1.0000   1.0000   1.0000   1.0000   1.0000   1.0000   1.0000
     1.0000   1.0000   1.0000   1.0000   1.0000   1.0000   1.0000   1.0000
     1.0000   1.0000   1.0000   1.0000   1.0000   1.0000   1.0000   1.0000
     1.0000   1.0000   1.0000   1.0000   1.0000   1.0000   1.0000   0.9999
     0.9999   0.9999   0.9997   0.9997   0.9996   0.9995   0.9994   0.9993
     0.9992   0.9991   0.9986   0.9984   0.9980   0.9978   0.9918   0.9914
     0.9910   0.9896   0.9847   0.9845   0.9835   0.9830   0.9815   0.9801
     0.9773   0.9758   0.9731   0.9681   0.9663   0.9604   0.9576   0.9495
     0.9322   0.9065   0.9017   0.9015   0.8875   0.8801   0.8591   0.8508
     0.8390   0.8144   0.8116   0.8083   0.7965   0.7670   0.7442   0.7224
     0.7074   0.6864   0.6838   0.6827   0.6767   0.6696   0.6630   0.6548
     0.6530   0.6404   0.6393   0.6257   0.6153   0.6121   0.5369   0.5327
     0.1397   0.1149   0.0936   0.0689   0.0147   0.0106   0.0054   0.0052
     0.0007   0.0006   0.0004   0.0003   0.0000   0.0000   0.0000   0.0000
     0.0000   0.0000   0.0000   0.0000   0.0000   0.0000   0.0000   0.0000
     0.0000   0.0000   0.0000   0.0000   0.0000   0.0000   0.0000   0.0000
     0.0000   0.0000   0.0000

          k =-0.2500 0.2500 0.0000 ( 65198 PWs)   bands (ev):

   -92.6934 -92.6419 -92.5473 -92.5009 -92.4449 -92.4007 -92.3821 -92.2593
   -56.0468 -56.0288 -55.9046 -55.8940 -55.8873 -55.8809 -55.8449 -55.8165
   -55.8006 -55.8006 -55.7932 -55.7512 -55.7322 -55.6954 -55.6737 -55.6442
   -55.6367 -55.5880 -55.5863 -55.5856 -55.5771 -55.5339 -55.5126 -55.4257
   -31.2686 -31.2527 -31.1093 -31.0233 -30.9522 -30.9280 -30.8565 -30.7839
   -29.8385 -29.7973 -29.7715 -29.6641 -15.0097 -14.9681 -14.8940 -14.7769
   -14.6643 -14.5371 -14.4538 -14.2435 -14.1065 -14.0778 -14.0625 -14.0156
   -13.9903 -13.9721 -13.9534 -13.9522 -13.8950 -13.8273 -13.8142 -13.6639
   -13.6364 -13.6070 -13.5880 -13.5403 -13.4882 -13.4280 -13.3866 -13.2824
   -13.2496 -13.2152 -13.1385 -13.0949 -13.0322 -12.9998 -12.9784 -12.9427
   -12.9308 -12.9184 -12.8519 -12.8310 -12.7796 -12.7644 -12.7509 -12.7291
   -12.6965 -12.6843 -12.6777 -12.4866 -12.4346 -12.3981 -12.2755 -12.1136
   -12.0456 -11.7905 -11.7690 -11.7420 -11.7297 -11.6887 -11.6540 -11.6309
   -11.6094 -11.5869 -11.5031 -11.4575 -11.4478  -2.6582  -2.4505  -2.3287
    -2.2411  -2.1226  -2.0566  -1.8532  -1.7082  -1.6899  -1.6608  -1.5667
    -1.5340  -1.4394  -1.4056  -1.3795  -1.2374  -1.1804  -1.1149  -1.0991
    -1.0835  -1.0215  -1.0016  -0.9622  -0.9335  -0.8934  -0.8296  -0.7819
    -0.7177  -0.6498  -0.6225  -0.5731  -0.5457  -0.4992  -0.4423  -0.3961
    -0.3572  -0.2541  -0.2236  -0.2090  -0.1670  -0.1009  -0.0004   0.0162
     0.0464   0.1331   0.1513   0.3996   0.5732   0.6130   0.6591   0.7227
     0.7662   0.8138   0.8888   0.9101   1.1913   1.3005   1.3414   1.3745
     1.3772   1.4205   1.4379   1.4831   1.5155   1.5283   1.5540   1.6027
     1.6168   1.6541   1.6731   1.7181   1.8264   1.8279   1.8510   1.8871
     1.9200   1.9572   2.0002   2.1134   2.2222   2.2429   2.2882   2.3072
     2.3736   2.4145   2.4420   2.4573   2.4687   2.4854   2.5038   2.5879
     2.6260   2.7147   2.8912   2.9007   2.9133   2.9231   2.9336   2.9483
     2.9560   2.9727   2.9797   2.9955   3.0051   3.0175   3.0263   3.0329
     3.0668   3.0774   3.0860   3.1200   3.4117   3.4932   3.5579   3.6271
     3.6729   3.8489   3.9709   4.3246   4.5163   4.7253   5.0099   5.1726
     5.6624   5.7083   5.7773   5.8414   5.9051   6.1152   6.1758   6.2090
     6.9046   6.9819   7.1265   7.2730   7.5705   7.6211   7.6807   7.8689
     7.9151   8.0401   8.1733   8.2110   8.3279   8.3624   8.4564   8.5042
     8.5610   8.7120   8.9128

     occupation numbers 
     1.0000   1.0000   1.0000   1.0000   1.0000   1.0000   1.0000   1.0000
     1.0000   1.0000   1.0000   1.0000   1.0000   1.0000   1.0000   1.0000
     1.0000   1.0000   1.0000   1.0000   1.0000   1.0000   1.0000   1.0000
     1.0000   1.0000   1.0000   1.0000   1.0000   1.0000   1.0000   1.0000
     1.0000   1.0000   1.0000   1.0000   1.0000   1.0000   1.0000   1.0000
     1.0000   1.0000   1.0000   1.0000   1.0000   1.0000   1.0000   1.0000
     1.0000   1.0000   1.0000   1.0000   1.0000   1.0000   1.0000   1.0000
     1.0000   1.0000   1.0000   1.0000   1.0000   1.0000   1.0000   1.0000
     1.0000   1.0000   1.0000   1.0000   1.0000   1.0000   1.0000   1.0000
     1.0000   1.0000   1.0000   1.0000   1.0000   1.0000   1.0000   1.0000
     1.0000   1.0000   1.0000   1.0000   1.0000   1.0000   1.0000   1.0000
     1.0000   1.0000   1.0000   1.0000   1.0000   1.0000   1.0000   1.0000
     1.0000   1.0000   1.0000   1.0000   1.0000   1.0000   1.0000   1.0000
     1.0000   1.0000   1.0000   1.0000   1.0000   1.0000   1.0000   1.0000
     1.0000   1.0000   1.0000   1.0000   1.0000   1.0000   1.0000   1.0000
     1.0000   1.0000   1.0000   1.0000   1.0000   1.0000   1.0000   1.0000
     1.0000   1.0000   1.0000   1.0000   1.0000   1.0000   1.0000   1.0000
     1.0000   1.0000   1.0000   1.0000   1.0000   1.0000   1.0000   1.0000
     1.0000   1.0000   1.0000   1.0000   1.0000   1.0000   1.0000   1.0000
     1.0000   1.0000   1.0000   1.0000   1.0000   1.0000   1.0000   0.9999
     0.9999   0.9999   0.9999   0.9998   0.9993   0.9987   0.9985   0.9982
     0.9982   0.9978   0.9976   0.9970   0.9965   0.9963   0.9959   0.9949
     0.9946   0.9937   0.9932   0.9918   0.9874   0.9873   0.9862   0.9842
     0.9821   0.9796   0.9762   0.9651   0.9507   0.9474   0.9398   0.9364
     0.9231   0.9140   0.9074   0.9036   0.9007   0.8963   0.8913   0.8661
     0.8535   0.8212   0.7447   0.7402   0.7340   0.7292   0.7241   0.7167
     0.7128   0.7043   0.7007   0.6926   0.6875   0.6810   0.6763   0.6727
     0.6544   0.6486   0.6438   0.6248   0.4542   0.4068   0.3700   0.3319
     0.3076   0.2224   0.1722   0.0707   0.0396   0.0194   0.0064   0.0032
     0.0003   0.0002   0.0001   0.0001   0.0001   0.0000   0.0000   0.0000
     0.0000   0.0000   0.0000   0.0000   0.0000   0.0000   0.0000   0.0000
     0.0000   0.0000   0.0000   0.0000   0.0000   0.0000   0.0000   0.0000
     0.0000   0.0000   0.0000

          k =-0.5000 0.2500 0.0000 ( 65138 PWs)   bands (ev):

   -92.6934 -92.6419 -92.5473 -92.5009 -92.4449 -92.4007 -92.3821 -92.2593
   -56.0468 -56.0288 -55.9046 -55.8940 -55.8873 -55.8809 -55.8449 -55.8165
   -55.8006 -55.8006 -55.7932 -55.7512 -55.7322 -55.6954 -55.6737 -55.6442
   -55.6367 -55.5880 -55.5863 -55.5856 -55.5771 -55.5339 -55.5126 -55.4257
   -31.2664 -31.2549 -31.1090 -31.0237 -30.9520 -30.9276 -30.8569 -30.7841
   -29.8375 -29.7984 -29.7711 -29.6645 -14.9743 -14.9297 -14.8506 -14.7481
   -14.7081 -14.5839 -14.4941 -14.3607 -14.0572 -14.0257 -14.0140 -13.9693
   -13.9523 -13.9453 -13.9235 -13.8873 -13.8734 -13.8561 -13.8155 -13.7973
   -13.6959 -13.6297 -13.5807 -13.5763 -13.5611 -13.4617 -13.4042 -13.3410
   -13.2881 -13.1929 -13.1562 -13.0591 -13.0191 -13.0083 -12.9782 -12.9440
   -12.9318 -12.9173 -12.8762 -12.8282 -12.7621 -12.7494 -12.7463 -12.6966
   -12.6782 -12.6148 -12.6072 -12.5315 -12.4086 -12.3150 -12.2552 -12.1640
   -12.1327 -11.7632 -11.7506 -11.7364 -11.7243 -11.7031 -11.6726 -11.5921
   -11.5840 -11.5602 -11.5254 -11.4971 -11.4883  -2.4307  -2.3892  -2.2416
    -2.1989  -2.0379  -1.9626  -1.8205  -1.6842  -1.6280  -1.6010  -1.5619
    -1.5231  -1.4427  -1.3271  -1.2702  -1.2468  -1.2211  -1.1458  -1.1165
    -1.1016  -1.0744  -1.0572  -0.9986  -0.9677  -0.9308  -0.8957  -0.8670
    -0.8086  -0.7808  -0.7387  -0.7040  -0.6010  -0.5707  -0.4841  -0.4249
    -0.3932  -0.3360  -0.2517  -0.2128  -0.1166  -0.0588  -0.0207   0.0427
     0.0677   0.1402   0.1562   0.1871   0.2390   0.2832   0.5941   0.7032
     0.7231   0.7335   1.0347   1.0825   1.1604   1.1828   1.3586   1.3952
     1.4330   1.4442   1.4624   1.4805   1.5503   1.5947   1.6395   1.6631
     1.8069   1.8367   1.8546   1.8641   1.9078   1.9340   1.9480   1.9621
     1.9815   2.0097   2.0449   2.0605   2.0947   2.1174   2.1516   2.2049
     2.3256   2.4281   2.4472   2.4607   2.4900   2.5347   2.5615   2.6251
     2.6625   2.6679   2.7050   2.7391   2.7608   2.8427   2.8887   2.9009
     2.9059   2.9268   2.9484   2.9612   2.9775   2.9909   3.0110   3.0225
     3.0337   3.0407   3.0511   3.0626   3.5886   3.6485   3.7812   3.8050
     4.0719   4.1705   4.2206   4.4166   4.7953   4.9027   5.0458   5.0883
     5.4147   5.4405   5.6008   5.6374   5.7561   5.7985   6.4005   6.4316
     6.5062   6.6392   7.2733   7.4006   7.5828   7.7244   7.7777   7.8059
     7.8983   8.0328   8.3713   8.4081   8.4519   8.5362   8.5765   8.5847
     8.6711   8.7291   8.7599

     occupation numbers 
     1.0000   1.0000   1.0000   1.0000   1.0000   1.0000   1.0000   1.0000
     1.0000   1.0000   1.0000   1.0000   1.0000   1.0000   1.0000   1.0000
     1.0000   1.0000   1.0000   1.0000   1.0000   1.0000   1.0000   1.0000
     1.0000   1.0000   1.0000   1.0000   1.0000   1.0000   1.0000   1.0000
     1.0000   1.0000   1.0000   1.0000   1.0000   1.0000   1.0000   1.0000
     1.0000   1.0000   1.0000   1.0000   1.0000   1.0000   1.0000   1.0000
     1.0000   1.0000   1.0000   1.0000   1.0000   1.0000   1.0000   1.0000
     1.0000   1.0000   1.0000   1.0000   1.0000   1.0000   1.0000   1.0000
     1.0000   1.0000   1.0000   1.0000   1.0000   1.0000   1.0000   1.0000
     1.0000   1.0000   1.0000   1.0000   1.0000   1.0000   1.0000   1.0000
     1.0000   1.0000   1.0000   1.0000   1.0000   1.0000   1.0000   1.0000
     1.0000   1.0000   1.0000   1.0000   1.0000   1.0000   1.0000   1.0000
     1.0000   1.0000   1.0000   1.0000   1.0000   1.0000   1.0000   1.0000
     1.0000   1.0000   1.0000   1.0000   1.0000   1.0000   1.0000   1.0000
     1.0000   1.0000   1.0000   1.0000   1.0000   1.0000   1.0000   1.0000
     1.0000   1.0000   1.0000   1.0000   1.0000   1.0000   1.0000   1.0000
     1.0000   1.0000   1.0000   1.0000   1.0000   1.0000   1.0000   1.0000
     1.0000   1.0000   1.0000   1.0000   1.0000   1.0000   1.0000   1.0000
     1.0000   1.0000   1.0000   1.0000   1.0000   1.0000   1.0000   1.0000
     1.0000   1.0000   1.0000   1.0000   1.0000   1.0000   1.0000   1.0000
     0.9999   0.9999   0.9997   0.9996   0.9994   0.9993   0.9983   0.9980
     0.9976   0.9975   0.9973   0.9970   0.9960   0.9951   0.9941   0.9935
     0.9883   0.9869   0.9860   0.9855   0.9829   0.9812   0.9802   0.9792
     0.9777   0.9754   0.9722   0.9707   0.9672   0.9646   0.9605   0.9532
     0.9329   0.9108   0.9061   0.9027   0.8950   0.8824   0.8744   0.8538
     0.8407   0.8388   0.8250   0.8116   0.8028   0.7673   0.7459   0.7401
     0.7377   0.7274   0.7167   0.7102   0.7019   0.6949   0.6844   0.6783
     0.6723   0.6686   0.6629   0.6567   0.3529   0.3204   0.2535   0.2423
     0.1367   0.1072   0.0941   0.0540   0.0150   0.0099   0.0055   0.0046
     0.0010   0.0009   0.0004   0.0003   0.0002   0.0001   0.0000   0.0000
     0.0000   0.0000   0.0000   0.0000   0.0000   0.0000   0.0000   0.0000
     0.0000   0.0000   0.0000   0.0000   0.0000   0.0000   0.0000   0.0000
     0.0000   0.0000   0.0000

     the Fermi energy is     3.3343 ev

!    total energy              =   -4441.65705492 Ry
     estimated scf accuracy    <          4.0E-09 Ry
     smearing contrib. (-TS)   =      -1.15455480 Ry
     internal energy E=F+TS    =   -4440.50250012 Ry

     The total energy is F=E-TS. E is the sum of the following terms:
     one-electron contribution =  -20804.68028478 Ry
     hartree contribution      =   10534.43270426 Ry
     xc contribution           =    -694.18115630 Ry
     ewald contribution        =    6800.09692184 Ry
     one-center paw contrib.   =    -276.17068514 Ry
      -> PAW hartree energy AE =      25.05778278 Ry
      -> PAW hartree energy PS =     -24.94287926 Ry
      -> PAW xc energy AE      =     -16.50240099 Ry
      -> PAW xc energy PS      =       6.86118845 Ry
      -> total E_H with PAW    =   10534.54760778 Ry
      -> total E_XC with PAW   =    -703.82236883 Ry

     convergence has been achieved in  48 iterations

     Writing all to output data dir /bsuhome/zayahcortright/scratch/pwscf.save/
 
     init_run     :      7.70s CPU      8.45s WALL (       1 calls)
     electrons    :    791.31s CPU    875.41s WALL (       1 calls)

     Called by init_run:
     wfcinit      :      6.03s CPU      6.25s WALL (       1 calls)
     wfcinit:atom :      0.04s CPU      0.06s WALL (       5 calls)
     wfcinit:wfcr :      5.71s CPU      5.84s WALL (       5 calls)
     potinit      :      0.16s CPU      0.19s WALL (       1 calls)
     hinit0       :      0.54s CPU      0.77s WALL (       1 calls)

     Called by electrons:
     c_bands      :    639.85s CPU    652.47s WALL (      48 calls)
     sum_band     :    113.00s CPU    153.02s WALL (      48 calls)
     v_of_rho     :      5.18s CPU      5.62s WALL (      49 calls)
     v_h          :      0.41s CPU      0.42s WALL (      49 calls)
     v_xc         :      4.77s CPU      5.20s WALL (      49 calls)
     newd         :     18.64s CPU     49.15s WALL (      49 calls)
     PAW_pot      :      1.62s CPU      1.67s WALL (      49 calls)
     mix_rho      :     12.65s CPU     13.14s WALL (      48 calls)

     Called by c_bands:
     init_us_2    :      7.09s CPU      7.19s WALL (     485 calls)
     init_us_2:cp :      7.09s CPU      7.19s WALL (     485 calls)
     cegterg      :    605.41s CPU    617.63s WALL (     240 calls)

     Called by sum_band:
     sum_band:wei :      0.34s CPU      0.35s WALL (      48 calls)
     sum_band:loo :     93.32s CPU     94.26s WALL (      48 calls)
     sum_band:buf :      1.52s CPU      1.68s WALL (     240 calls)
     sum_band:ini :      3.15s CPU      3.18s WALL (     240 calls)
     sum_band:cal :     19.27s CPU     19.42s WALL (     240 calls)
     sum_band:bec :      0.65s CPU      0.67s WALL (     240 calls)
     addusdens    :     17.51s CPU     56.48s WALL (      48 calls)
                                        0.00s GPU  (      48 calls)
     addusd:skk   :      0.31s CPU      2.32s WALL (     192 calls)
                                        0.00s GPU  (     192 calls)

     Called by *egterg:
     cdiaghg      :     59.67s CPU     59.98s WALL (    1336 calls)
     cegterg:over :     43.51s CPU     43.72s WALL (    1096 calls)
     cegterg:upda :     49.54s CPU     50.56s WALL (    1096 calls)
     cegterg:last :     70.14s CPU     70.52s WALL (     435 calls)
     cdiaghg:chol :      3.38s CPU      3.40s WALL (    1336 calls)
     cdiaghg:inve :      3.53s CPU      3.55s WALL (    1336 calls)
     cdiaghg:para :      7.65s CPU      7.71s WALL (    2672 calls)
     h_psi        :    313.88s CPU    318.90s WALL (    1341 calls)
     s_psi        :     44.16s CPU     44.35s WALL (    1341 calls)
     g_psi        :      2.46s CPU      2.48s WALL (    1096 calls)

     Called by h_psi:
     h_psi:calbec :     45.66s CPU     46.00s WALL (    1341 calls)
     vloc_psi     :    217.85s CPU    219.97s WALL (    1341 calls)
     add_vuspsi   :     45.18s CPU     45.51s WALL (    1341 calls)

     General routines
     calbec       :     64.93s CPU     65.41s WALL (    1581 calls)
     fft          :      4.19s CPU      4.26s WALL (     635 calls)
     ffts         :      4.61s CPU      4.66s WALL (    5180 calls)
     fftw         :    172.82s CPU    174.28s WALL (  326060 calls)
     interpolate  :      0.40s CPU      0.41s WALL (      49 calls)
 
     Parallel routines

     PAW routines
     PAW_pot      :      1.62s CPU      1.67s WALL (      49 calls)
 
     PWSCF        :  13m20.88s CPU  14m48.89s WALL

 
   This run was terminated on:  23:11:50  21Jun2024            

=------------------------------------------------------------------------------=
   JOB DONE.
=------------------------------------------------------------------------------=
