
     Program PWSCF v.7.2 starts on 21Jun2024 at 23:21: 3 

     This program is part of the open-source Quantum ESPRESSO suite
     for quantum simulation of materials; please cite
         "P. Giannozzi et al., J. Phys.:Condens. Matter 21 395502 (2009);
         "P. Giannozzi et al., J. Phys.:Condens. Matter 29 465901 (2017);
         "P. Giannozzi et al., J. Chem. Phys. 152 154105 (2020);
          URL http://www.quantum-espresso.org", 
     in publications or presentations arising from this work. More details at
     http://www.quantum-espresso.org/quote

     Parallel version (MPI & OpenMP), running on      48 processor cores
     Number of MPI processes:                48
     Threads/MPI process:                     1

     MPI processes distributed on     1 nodes
     60574 MiB available memory on the printing compute node when the environment starts
 
     Reading input from espresso.pwi
Warning: card &CELL ignored
Warning: card / ignored
Warning: card &FCP ignored
Warning: card / ignored
Warning: card &RISM ignored
Warning: card / ignored

     Current dimensions of program PWSCF are:
     Max number of different atomic species (ntypx) = 10
     Max number of k-points (npk) =  40000
     Max angular momentum in pseudopotentials (lmaxx) =  4
     file O.pbe-n-kjpaw_psl.0.1.UPF: wavefunction(s)  2P renormalized
     signal trapping enabled: kill the code with -SIGUSR1 to stop cleanly the simulation 
 
     K-points division:     npool     =       2
     R & G space division:  proc/nbgrp/npool/nimage =      24
     Subspace diagonalization in iterative solution of the eigenvalue problem:
     one sub-group per band group will be used
     scalapack distributed-memory algorithm (size of sub-group:  3*  3 procs)

 
     Parallelization info
     --------------------
     sticks:   dense  smooth     PW     G-vecs:    dense   smooth      PW
     Min         350     175     47                61430    21716    3036
     Max         351     177     48                61449    21727    3041
     Sum        8421    4205   1137              1474595   521381   72913
 
     Using Slab Decomposition
 


     bravais-lattice index     =            0
     lattice parameter (alat)  =      14.8599  a.u.
     unit-cell volume          =    8305.1283 (a.u.)^3
     number of atoms/cell      =           49
     number of atomic types    =            3
     number of electrons       =       430.00
     number of Kohn-Sham states=          258
     kinetic-energy cutoff     =      60.0000  Ry
     charge density cutoff     =     480.0000  Ry
     scf convergence threshold =      1.0E-08
     mixing beta               =       0.1500
     number of iterations used =            8  local-TF  mixing
     Exchange-correlation= SLA  PW   PBE  PBE
                           (   1   4   3   4   0   0   0)

     celldm(1)=  14.859904  celldm(2)=   0.000000  celldm(3)=   0.000000
     celldm(4)=   0.000000  celldm(5)=   0.000000  celldm(6)=   0.000000

     crystal axes: (cart. coord. in units of alat)
               a(1) = (   1.000000   0.000000   0.000000 )  
               a(2) = (   0.000000   1.000000   0.000000 )  
               a(3) = (   0.000000   0.000000   2.531036 )  

     reciprocal axes: (cart. coord. in units 2 pi/alat)
               b(1) = (  1.000000  0.000000  0.000000 )  
               b(2) = (  0.000000  1.000000  0.000000 )  
               b(3) = (  0.000000  0.000000  0.395095 )  


     PseudoPot. # 1 for Sr read from file:
     /bsuhome/zayahcortright/q-e/pseudo/Sr_pbe_v1.uspp.F.UPF
     MD5 check sum: 6b418c05fbe9db5448babca5e47b7a5b
     Pseudo is Ultrasoft + core correction, Zval = 10.0
     Generated by new atomic code, or converted to UPF format
     Using radial grid of  883 points,  6 beta functions with: 
                l(1) =   0
                l(2) =   0
                l(3) =   1
                l(4) =   1
                l(5) =   2
                l(6) =   2
     Q(r) pseudized with  6 coefficients,  rinner =    1.400   1.400   1.400
                                                       1.400   1.400

     PseudoPot. # 2 for O  read from file:
     /bsuhome/zayahcortright/q-e/pseudo/O.pbe-n-kjpaw_psl.0.1.UPF
     MD5 check sum: 0234752ac141de4415c5fc33072bef88
     Pseudo is Projector augmented-wave + core cor, Zval =  6.0
     Generated using "atomic" code by A. Dal Corso  v.5.0.99 svn rev. 10869
     Shape of augmentation charge: BESSEL
     Using radial grid of 1095 points,  4 beta functions with: 
                l(1) =   0
                l(2) =   0
                l(3) =   1
                l(4) =   1
     Q(r) pseudized with 0 coefficients 


     PseudoPot. # 3 for Co read from file:
     /bsuhome/zayahcortright/q-e/pseudo/Co_pbe_v1.2.uspp.F.UPF
     MD5 check sum: 5f91765df6ddd3222702df6e7b74a16d
     Pseudo is Ultrasoft + core correction, Zval = 17.0
     Generated by new atomic code, or converted to UPF format
     Using radial grid of  863 points,  6 beta functions with: 
                l(1) =   0
                l(2) =   0
                l(3) =   1
                l(4) =   1
                l(5) =   2
                l(6) =   2
     Q(r) pseudized with  8 coefficients,  rinner =    1.200   1.200   1.200
                                                       1.200   1.200

     atomic species   valence    mass     pseudopotential
        Sr            10.00    87.62000     Sr( 1.00)
        O              6.00    15.99900     O ( 1.00)
        Co            17.00    58.93319     Co( 1.00)

     No symmetry found


                                    s                        frac. trans.

      isym =  1     identity                                     

 cryst.   s( 1) = (     1          0          0      )
                  (     0          1          0      )
                  (     0          0          1      )

 cart.    s( 1) = (  1.0000000  0.0000000  0.0000000 )
                  (  0.0000000  1.0000000  0.0000000 )
                  (  0.0000000  0.0000000  1.0000000 )


   Cartesian axes

     site n.     atom                  positions (alat units)
         1           Sr  tau(   1) = (   0.2508693   0.7491307   1.7574407  )
         2           O   tau(   2) = (   0.4985141   0.5014859   1.7715967  )
         3           Sr  tau(   3) = (   0.7482398   0.7454518   1.7648669  )
         4           Sr  tau(   4) = (   0.7441748   0.2558252   1.7667843  )
         5           Sr  tau(   5) = (   0.2508693   0.7491307   1.2696799  )
         6           Sr  tau(   6) = (   0.2508693   0.7491307   0.7632319  )
         7           Co  tau(   7) = (   0.4998914   0.5001086   1.0164559  )
         8           Co  tau(   8) = (   0.4936915   0.5063085   1.5135603  )
         9           O   tau(   9) = (   0.4988895   0.7610401   1.0164559  )
        10           O   tau(  10) = (   0.2389599   0.5011105   1.0164559  )
        11           O   tau(  11) = (   0.0070918   0.7374880   1.0164559  )
        12           O   tau(  12) = (   0.0088340   0.7405089   1.5135603  )
        13           O   tau(  13) = (   0.5066944   0.7415376   1.5135603  )
        14           O   tau(  14) = (   0.2584624   0.4933056   1.5135603  )
        15           O   tau(  15) = (   0.4985141   0.5014859   0.7773880  )
        16           O   tau(  16) = (   0.4985141   0.5014859   1.2555238  )
        17           Sr  tau(  17) = (   0.7482398   0.7454518   0.7706582  )
        18           Sr  tau(  18) = (   0.7482398   0.7454518   1.2622536  )
        19           Sr  tau(  19) = (   0.7441748   0.2558252   0.7725755  )
        20           Sr  tau(  20) = (   0.7441748   0.2558252   1.2603363  )
        21           O   tau(  21) = (   0.7322655   0.0078049   1.5135603  )
        22           O   tau(  22) = (   0.7558175   0.4996027   1.5135603  )
        23           O   tau(  23) = (   0.5003973   0.2441825   1.5135603  )
        24           O   tau(  24) = (   0.7527966   0.4978604   1.0164559  )
        25           O   tau(  25) = (   0.5021396   0.2472034   1.0164559  )
        26           O   tau(  26) = (   0.7517679   0.0000000   1.0164559  )
        27           O   tau(  27) = (   0.0114961   0.4948124   1.7455321  )
        28           O   tau(  28) = (   0.0048226   0.0077944   1.7715967  )
        29           Sr  tau(  29) = (   0.2545482   0.2517602   1.7648669  )
        30           O   tau(  30) = (   0.5048017   0.0015068   1.7786929  )
        31           Co  tau(  31) = (   0.0056869   0.5006215   1.0164559  )
        32           Co  tau(  32) = (   0.0065315   0.4997770   1.5135603  )
        33           Co  tau(  33) = (   0.0061999   0.0064171   1.0164559  )
        34           Co  tau(  34) = (   0.0000000   0.0126169   1.5135603  )
        35           O   tau(  35) = (   0.0114961   0.4948124   1.2815885  )
        36           O   tau(  36) = (   0.0114961   0.4948124   0.7513233  )
        37           O   tau(  37) = (   0.0051979   0.2673486   1.0164559  )
        38           O   tau(  38) = (   0.0130029   0.2478461   1.5135603  )
        39           O   tau(  39) = (   0.0048226   0.0077944   0.7773880  )
        40           O   tau(  40) = (   0.0048226   0.0077944   1.2555238  )
        41           Sr  tau(  41) = (   0.2545482   0.2517602   0.7706582  )
        42           Sr  tau(  42) = (   0.2545482   0.2517602   1.2622536  )
        43           Co  tau(  43) = (   0.4989925   0.0073160   1.5135603  )
        44           Co  tau(  44) = (   0.4998370   0.0064714   1.0164559  )
        45           O   tau(  45) = (   0.5048017   0.0015068   0.7844841  )
        46           O   tau(  46) = (   0.5048017   0.0015068   1.2484277  )
        47           O   tau(  47) = (   0.2621260   0.0059111   1.5135603  )
        48           O   tau(  48) = (   0.2591051   0.0041689   1.0164559  )
        49           O   tau(  49) = (   0.7108228   0.4264937   2.1602013  )

   Crystallographic axes

     site n.     atom                  positions (cryst. coord.)
         1           Sr  tau(   1) = (  0.2508693  0.7491307  0.6943562  )
         2           O   tau(   2) = (  0.4985141  0.5014859  0.6999492  )
         3           Sr  tau(   3) = (  0.7482398  0.7454518  0.6972903  )
         4           Sr  tau(   4) = (  0.7441748  0.2558252  0.6980478  )
         5           Sr  tau(   5) = (  0.2508693  0.7491307  0.5016443  )
         6           Sr  tau(   6) = (  0.2508693  0.7491307  0.3015492  )
         7           Co  tau(   7) = (  0.4998914  0.5001086  0.4015968  )
         8           Co  tau(   8) = (  0.4936915  0.5063085  0.5980003  )
         9           O   tau(   9) = (  0.4988895  0.7610401  0.4015968  )
        10           O   tau(  10) = (  0.2389599  0.5011105  0.4015968  )
        11           O   tau(  11) = (  0.0070918  0.7374880  0.4015968  )
        12           O   tau(  12) = (  0.0088340  0.7405089  0.5980003  )
        13           O   tau(  13) = (  0.5066944  0.7415376  0.5980003  )
        14           O   tau(  14) = (  0.2584624  0.4933056  0.5980003  )
        15           O   tau(  15) = (  0.4985141  0.5014859  0.3071422  )
        16           O   tau(  16) = (  0.4985141  0.5014859  0.4960513  )
        17           Sr  tau(  17) = (  0.7482398  0.7454518  0.3044833  )
        18           Sr  tau(  18) = (  0.7482398  0.7454518  0.4987103  )
        19           Sr  tau(  19) = (  0.7441748  0.2558252  0.3052408  )
        20           Sr  tau(  20) = (  0.7441748  0.2558252  0.4979527  )
        21           O   tau(  21) = (  0.7322655  0.0078049  0.5980003  )
        22           O   tau(  22) = (  0.7558175  0.4996027  0.5980003  )
        23           O   tau(  23) = (  0.5003973  0.2441825  0.5980003  )
        24           O   tau(  24) = (  0.7527966  0.4978604  0.4015968  )
        25           O   tau(  25) = (  0.5021396  0.2472034  0.4015968  )
        26           O   tau(  26) = (  0.7517679  0.0000000  0.4015968  )
        27           O   tau(  27) = (  0.0114961  0.4948124  0.6896512  )
        28           O   tau(  28) = (  0.0048226  0.0077944  0.6999492  )
        29           Sr  tau(  29) = (  0.2545482  0.2517602  0.6972903  )
        30           O   tau(  30) = (  0.5048017  0.0015068  0.7027529  )
        31           Co  tau(  31) = (  0.0056869  0.5006215  0.4015968  )
        32           Co  tau(  32) = (  0.0065315  0.4997770  0.5980003  )
        33           Co  tau(  33) = (  0.0061999  0.0064171  0.4015968  )
        34           Co  tau(  34) = (  0.0000000  0.0126169  0.5980003  )
        35           O   tau(  35) = (  0.0114961  0.4948124  0.5063494  )
        36           O   tau(  36) = (  0.0114961  0.4948124  0.2968442  )
        37           O   tau(  37) = (  0.0051979  0.2673486  0.4015968  )
        38           O   tau(  38) = (  0.0130029  0.2478461  0.5980003  )
        39           O   tau(  39) = (  0.0048226  0.0077944  0.3071422  )
        40           O   tau(  40) = (  0.0048226  0.0077944  0.4960513  )
        41           Sr  tau(  41) = (  0.2545482  0.2517602  0.3044833  )
        42           Sr  tau(  42) = (  0.2545482  0.2517602  0.4987103  )
        43           Co  tau(  43) = (  0.4989925  0.0073160  0.5980003  )
        44           Co  tau(  44) = (  0.4998370  0.0064714  0.4015968  )
        45           O   tau(  45) = (  0.5048017  0.0015068  0.3099459  )
        46           O   tau(  46) = (  0.5048017  0.0015068  0.4932477  )
        47           O   tau(  47) = (  0.2621260  0.0059111  0.5980003  )
        48           O   tau(  48) = (  0.2591051  0.0041689  0.4015968  )
        49           O   tau(  49) = (  0.7108228  0.4264937  0.8534850  )

     number of k points=    10  Gaussian smearing, width (Ry)=  0.0700
                       cart. coord. in units 2pi/alat
        k(    1) = (   0.0000000   0.0000000   0.0000000), wk =   0.1250000
        k(    2) = (   0.0000000   0.2500000   0.0000000), wk =   0.2500000
        k(    3) = (   0.0000000  -0.5000000   0.0000000), wk =   0.1250000
        k(    4) = (   0.2500000   0.2500000   0.0000000), wk =   0.2500000
        k(    5) = (   0.2500000  -0.5000000   0.0000000), wk =   0.2500000
        k(    6) = (  -0.5000000  -0.5000000   0.0000000), wk =   0.1250000
        k(    7) = (   0.2500000   0.0000000   0.0000000), wk =   0.2500000
        k(    8) = (  -0.5000000   0.0000000   0.0000000), wk =   0.1250000
        k(    9) = (  -0.2500000   0.2500000   0.0000000), wk =   0.2500000
        k(   10) = (  -0.5000000   0.2500000   0.0000000), wk =   0.2500000

                       cryst. coord.
        k(    1) = (   0.0000000   0.0000000   0.0000000), wk =   0.1250000
        k(    2) = (   0.0000000   0.2500000   0.0000000), wk =   0.2500000
        k(    3) = (   0.0000000  -0.5000000   0.0000000), wk =   0.1250000
        k(    4) = (   0.2500000   0.2500000   0.0000000), wk =   0.2500000
        k(    5) = (   0.2500000  -0.5000000   0.0000000), wk =   0.2500000
        k(    6) = (  -0.5000000  -0.5000000   0.0000000), wk =   0.1250000
        k(    7) = (   0.2500000   0.0000000   0.0000000), wk =   0.2500000
        k(    8) = (  -0.5000000   0.0000000   0.0000000), wk =   0.1250000
        k(    9) = (  -0.2500000   0.2500000   0.0000000), wk =   0.2500000
        k(   10) = (  -0.5000000   0.2500000   0.0000000), wk =   0.2500000

     Dense  grid:  1474595 G-vectors     FFT dimensions: ( 108, 108, 270)

     Smooth grid:   521381 G-vectors     FFT dimensions: (  75,  75, 192)

     Dynamical RAM for                 wfc:      10.69 MB

     Dynamical RAM for     wfc (w. buffer):      64.13 MB

     Dynamical RAM for           str. fact:       2.81 MB

     Dynamical RAM for           local pot:       0.00 MB

     Dynamical RAM for          nlocal pot:      24.53 MB

     Dynamical RAM for                qrad:       5.27 MB

     Dynamical RAM for          rho,v,vnew:       6.02 MB

     Dynamical RAM for               rhoin:       2.01 MB

     Dynamical RAM for            rho*nmix:      15.00 MB

     Dynamical RAM for           G-vectors:       3.68 MB

     Dynamical RAM for          h,s,v(r/c):       1.35 MB

     Dynamical RAM for          <psi|beta>:       2.33 MB

     Dynamical RAM for                 psi:      21.38 MB

     Dynamical RAM for                hpsi:      21.38 MB

     Dynamical RAM for                spsi:      21.38 MB

     Dynamical RAM for      wfcinit/wfcrot:      34.39 MB

     Dynamical RAM for           addusdens:     101.26 MB

     Estimated static dynamical RAM per process >     117.53 MB

     Estimated max dynamical RAM per process >     233.79 MB

     Estimated total dynamical RAM >      10.61 GB

     Check: negative core charge=   -0.000004

     Initial potential from superposition of free atoms

     starting charge     421.5961, renormalised to     430.0000

     negative rho (up, down):  7.826E-01 0.000E+00
     Starting wfcs are  376 randomized atomic wfcs
     Checking if some PAW data can be deallocated... 
       PAW data deallocated on   19 nodes for type:  2

     total cpu time spent up to now is        9.2 secs

     Self-consistent Calculation

     iteration #  1     ecut=    60.00 Ry     beta= 0.15
     Davidson diagonalization with overlap

---- Real-time Memory Report at c_bands before calling an iterative solver
             0 MiB given to the printing process from OS
             0 MiB allocation reported by mallinfo(arena+hblkhd)
         51474 MiB available memory on the node where the printing process lives
------------------
     ethr =  1.00E-02,  avg # of iterations =  2.0

     negative rho (up, down):  7.718E-01 0.000E+00

     total cpu time spent up to now is       24.2 secs

     total energy              =   -4445.26971049 Ry
     estimated scf accuracy    <      53.94033426 Ry

     iteration #  2     ecut=    60.00 Ry     beta= 0.15
     Davidson diagonalization with overlap

---- Real-time Memory Report at c_bands before calling an iterative solver
             0 MiB given to the printing process from OS
             0 MiB allocation reported by mallinfo(arena+hblkhd)
         51827 MiB available memory on the node where the printing process lives
------------------
     ethr =  1.00E-02,  avg # of iterations =  1.0

     negative rho (up, down):  7.591E-01 0.000E+00

     total cpu time spent up to now is       36.8 secs

     total energy              =   -4441.91039968 Ry
     estimated scf accuracy    <      28.57467036 Ry

     iteration #  3     ecut=    60.00 Ry     beta= 0.15
     Davidson diagonalization with overlap

---- Real-time Memory Report at c_bands before calling an iterative solver
             0 MiB given to the printing process from OS
             0 MiB allocation reported by mallinfo(arena+hblkhd)
         51075 MiB available memory on the node where the printing process lives
------------------
     ethr =  6.65E-03,  avg # of iterations =  1.0

     negative rho (up, down):  7.532E-01 0.000E+00

     total cpu time spent up to now is       49.6 secs

     total energy              =   -4442.61500481 Ry
     estimated scf accuracy    <      29.56102245 Ry

     iteration #  4     ecut=    60.00 Ry     beta= 0.15
     Davidson diagonalization with overlap

---- Real-time Memory Report at c_bands before calling an iterative solver
             0 MiB given to the printing process from OS
             0 MiB allocation reported by mallinfo(arena+hblkhd)
         51025 MiB available memory on the node where the printing process lives
------------------
     ethr =  6.65E-03,  avg # of iterations =  1.0

     negative rho (up, down):  7.539E-01 0.000E+00

     total cpu time spent up to now is       62.5 secs

     total energy              =   -4442.61997016 Ry
     estimated scf accuracy    <      27.65547117 Ry

     iteration #  5     ecut=    60.00 Ry     beta= 0.15
     Davidson diagonalization with overlap

---- Real-time Memory Report at c_bands before calling an iterative solver
             0 MiB given to the printing process from OS
             0 MiB allocation reported by mallinfo(arena+hblkhd)
         51006 MiB available memory on the node where the printing process lives
------------------
     ethr =  6.43E-03,  avg # of iterations =  1.0

     negative rho (up, down):  7.383E-01 0.000E+00

     total cpu time spent up to now is       75.0 secs

     total energy              =   -4441.85359683 Ry
     estimated scf accuracy    <      21.23128391 Ry

     iteration #  6     ecut=    60.00 Ry     beta= 0.15
     Davidson diagonalization with overlap

---- Real-time Memory Report at c_bands before calling an iterative solver
             0 MiB given to the printing process from OS
             0 MiB allocation reported by mallinfo(arena+hblkhd)
         50986 MiB available memory on the node where the printing process lives
------------------
     ethr =  4.94E-03,  avg # of iterations =  1.0

     negative rho (up, down):  7.407E-01 0.000E+00

     total cpu time spent up to now is       87.7 secs

     total energy              =   -4443.79563670 Ry
     estimated scf accuracy    <      63.08545643 Ry

     iteration #  7     ecut=    60.00 Ry     beta= 0.15
     Davidson diagonalization with overlap

---- Real-time Memory Report at c_bands before calling an iterative solver
             0 MiB given to the printing process from OS
             0 MiB allocation reported by mallinfo(arena+hblkhd)
         50968 MiB available memory on the node where the printing process lives
------------------
     ethr =  4.94E-03,  avg # of iterations =  1.0

     negative rho (up, down):  7.481E-01 0.000E+00

     total cpu time spent up to now is      100.3 secs

     total energy              =   -4439.77359406 Ry
     estimated scf accuracy    <      58.96014148 Ry

     iteration #  8     ecut=    60.00 Ry     beta= 0.15
     Davidson diagonalization with overlap

---- Real-time Memory Report at c_bands before calling an iterative solver
             0 MiB given to the printing process from OS
             0 MiB allocation reported by mallinfo(arena+hblkhd)
         50954 MiB available memory on the node where the printing process lives
------------------
     ethr =  4.94E-03,  avg # of iterations =  1.0

     negative rho (up, down):  7.479E-01 0.000E+00

     total cpu time spent up to now is      112.8 secs

     total energy              =   -4441.51692279 Ry
     estimated scf accuracy    <       6.68133748 Ry

     iteration #  9     ecut=    60.00 Ry     beta= 0.15
     Davidson diagonalization with overlap

---- Real-time Memory Report at c_bands before calling an iterative solver
             0 MiB given to the printing process from OS
             0 MiB allocation reported by mallinfo(arena+hblkhd)
         50931 MiB available memory on the node where the printing process lives
------------------
     ethr =  1.55E-03,  avg # of iterations =  1.5

     negative rho (up, down):  7.591E-01 0.000E+00

     total cpu time spent up to now is      126.1 secs

     total energy              =   -4440.77691561 Ry
     estimated scf accuracy    <       5.99070152 Ry

     iteration # 10     ecut=    60.00 Ry     beta= 0.15
     Davidson diagonalization with overlap

---- Real-time Memory Report at c_bands before calling an iterative solver
             0 MiB given to the printing process from OS
             0 MiB allocation reported by mallinfo(arena+hblkhd)
         50909 MiB available memory on the node where the printing process lives
------------------
     ethr =  1.39E-03,  avg # of iterations =  2.0

     negative rho (up, down):  7.707E-01 0.000E+00

     total cpu time spent up to now is      140.2 secs

     total energy              =   -4440.52678979 Ry
     estimated scf accuracy    <       5.58291290 Ry

     iteration # 11     ecut=    60.00 Ry     beta= 0.15
     Davidson diagonalization with overlap

---- Real-time Memory Report at c_bands before calling an iterative solver
             0 MiB given to the printing process from OS
             0 MiB allocation reported by mallinfo(arena+hblkhd)
         50896 MiB available memory on the node where the printing process lives
------------------
     ethr =  1.30E-03,  avg # of iterations =  7.3

     negative rho (up, down):  7.783E-01 0.000E+00

     total cpu time spent up to now is      156.8 secs

     total energy              =   -4439.84954688 Ry
     estimated scf accuracy    <      19.56087938 Ry

     iteration # 12     ecut=    60.00 Ry     beta= 0.15
     Davidson diagonalization with overlap

---- Real-time Memory Report at c_bands before calling an iterative solver
             0 MiB given to the printing process from OS
             0 MiB allocation reported by mallinfo(arena+hblkhd)
         50720 MiB available memory on the node where the printing process lives
------------------
     ethr =  1.30E-03,  avg # of iterations =  1.9

     negative rho (up, down):  7.805E-01 0.000E+00

     total cpu time spent up to now is      170.7 secs

     total energy              =   -4440.60842903 Ry
     estimated scf accuracy    <       2.65617570 Ry

     iteration # 13     ecut=    60.00 Ry     beta= 0.15
     Davidson diagonalization with overlap

---- Real-time Memory Report at c_bands before calling an iterative solver
             0 MiB given to the printing process from OS
             0 MiB allocation reported by mallinfo(arena+hblkhd)
         50713 MiB available memory on the node where the printing process lives
------------------
     ethr =  6.18E-04,  avg # of iterations =  8.1

     negative rho (up, down):  7.885E-01 0.000E+00

     total cpu time spent up to now is      188.1 secs

     total energy              =   -4440.50117319 Ry
     estimated scf accuracy    <       2.19219491 Ry

     iteration # 14     ecut=    60.00 Ry     beta= 0.15
     Davidson diagonalization with overlap

---- Real-time Memory Report at c_bands before calling an iterative solver
             0 MiB given to the printing process from OS
             0 MiB allocation reported by mallinfo(arena+hblkhd)
         50642 MiB available memory on the node where the printing process lives
------------------
     ethr =  5.10E-04,  avg # of iterations =  1.8

     negative rho (up, down):  8.044E-01 0.000E+00

     total cpu time spent up to now is      202.0 secs

     total energy              =   -4440.43139947 Ry
     estimated scf accuracy    <       1.09847181 Ry

     iteration # 15     ecut=    60.00 Ry     beta= 0.15
     Davidson diagonalization with overlap

---- Real-time Memory Report at c_bands before calling an iterative solver
             0 MiB given to the printing process from OS
             0 MiB allocation reported by mallinfo(arena+hblkhd)
         50649 MiB available memory on the node where the printing process lives
------------------
     ethr =  2.55E-04,  avg # of iterations =  7.6

     negative rho (up, down):  8.178E-01 0.000E+00

     total cpu time spent up to now is      218.9 secs

     total energy              =   -4440.40425889 Ry
     estimated scf accuracy    <       0.59435430 Ry

     iteration # 16     ecut=    60.00 Ry     beta= 0.15
     Davidson diagonalization with overlap

---- Real-time Memory Report at c_bands before calling an iterative solver
             0 MiB given to the printing process from OS
             0 MiB allocation reported by mallinfo(arena+hblkhd)
         50571 MiB available memory on the node where the printing process lives
------------------
     ethr =  1.38E-04,  avg # of iterations =  9.6

     negative rho (up, down):  8.269E-01 0.000E+00

     total cpu time spent up to now is      237.2 secs

     total energy              =   -4440.38091601 Ry
     estimated scf accuracy    <       0.26334037 Ry

     iteration # 17     ecut=    60.00 Ry     beta= 0.15
     Davidson diagonalization with overlap

---- Real-time Memory Report at c_bands before calling an iterative solver
             0 MiB given to the printing process from OS
             0 MiB allocation reported by mallinfo(arena+hblkhd)
         50529 MiB available memory on the node where the printing process lives
------------------
     ethr =  6.12E-05,  avg # of iterations = 11.6

     negative rho (up, down):  8.279E-01 0.000E+00

     total cpu time spent up to now is      256.4 secs

     total energy              =   -4440.34746557 Ry
     estimated scf accuracy    <       0.28007047 Ry

     iteration # 18     ecut=    60.00 Ry     beta= 0.15
     Davidson diagonalization with overlap

---- Real-time Memory Report at c_bands before calling an iterative solver
             0 MiB given to the printing process from OS
             0 MiB allocation reported by mallinfo(arena+hblkhd)
         50506 MiB available memory on the node where the printing process lives
------------------
     ethr =  6.12E-05,  avg # of iterations =  4.6

     negative rho (up, down):  8.222E-01 0.000E+00

     total cpu time spent up to now is      271.9 secs

     total energy              =   -4440.35736140 Ry
     estimated scf accuracy    <       1.54098217 Ry

     iteration # 19     ecut=    60.00 Ry     beta= 0.15
     Davidson diagonalization with overlap

---- Real-time Memory Report at c_bands before calling an iterative solver
             0 MiB given to the printing process from OS
             0 MiB allocation reported by mallinfo(arena+hblkhd)
         50515 MiB available memory on the node where the printing process lives
------------------
     ethr =  6.12E-05,  avg # of iterations =  1.0

     negative rho (up, down):  8.035E-01 0.000E+00

     total cpu time spent up to now is      284.5 secs

     total energy              =   -4440.34377114 Ry
     estimated scf accuracy    <       0.25560874 Ry

     iteration # 20     ecut=    60.00 Ry     beta= 0.15
     Davidson diagonalization with overlap

---- Real-time Memory Report at c_bands before calling an iterative solver
             0 MiB given to the printing process from OS
             0 MiB allocation reported by mallinfo(arena+hblkhd)
         50517 MiB available memory on the node where the printing process lives
------------------
     ethr =  5.94E-05,  avg # of iterations =  6.0

     negative rho (up, down):  8.460E-01 0.000E+00

     total cpu time spent up to now is      300.6 secs

     total energy              =   -4440.29437783 Ry
     estimated scf accuracy    <       0.84440960 Ry

     iteration # 21     ecut=    60.00 Ry     beta= 0.15
     Davidson diagonalization with overlap

---- Real-time Memory Report at c_bands before calling an iterative solver
             0 MiB given to the printing process from OS
             0 MiB allocation reported by mallinfo(arena+hblkhd)
         50503 MiB available memory on the node where the printing process lives
------------------
     ethr =  5.94E-05,  avg # of iterations =  7.7

     negative rho (up, down):  8.551E-01 0.000E+00

     total cpu time spent up to now is      318.1 secs

     total energy              =   -4440.31757003 Ry
     estimated scf accuracy    <       0.14791477 Ry

     iteration # 22     ecut=    60.00 Ry     beta= 0.15
     Davidson diagonalization with overlap

---- Real-time Memory Report at c_bands before calling an iterative solver
             0 MiB given to the printing process from OS
             0 MiB allocation reported by mallinfo(arena+hblkhd)
         50386 MiB available memory on the node where the printing process lives
------------------
     ethr =  3.44E-05,  avg # of iterations =  2.0

     negative rho (up, down):  8.441E-01 0.000E+00

     total cpu time spent up to now is      332.6 secs

     total energy              =   -4440.31910867 Ry
     estimated scf accuracy    <       0.03424189 Ry

     iteration # 23     ecut=    60.00 Ry     beta= 0.15
     Davidson diagonalization with overlap

---- Real-time Memory Report at c_bands before calling an iterative solver
             0 MiB given to the printing process from OS
             0 MiB allocation reported by mallinfo(arena+hblkhd)
         50447 MiB available memory on the node where the printing process lives
------------------
     ethr =  7.96E-06,  avg # of iterations =  8.5

     negative rho (up, down):  8.084E-01 0.000E+00

     total cpu time spent up to now is      350.4 secs

     total energy              =   -4440.31465650 Ry
     estimated scf accuracy    <       0.02679366 Ry

     iteration # 24     ecut=    60.00 Ry     beta= 0.15
     Davidson diagonalization with overlap

---- Real-time Memory Report at c_bands before calling an iterative solver
             0 MiB given to the printing process from OS
             0 MiB allocation reported by mallinfo(arena+hblkhd)
         50417 MiB available memory on the node where the printing process lives
------------------
     ethr =  6.23E-06,  avg # of iterations =  2.7

     negative rho (up, down):  8.018E-01 0.000E+00

     total cpu time spent up to now is      365.6 secs

     total energy              =   -4440.31396162 Ry
     estimated scf accuracy    <       0.02537580 Ry

     iteration # 25     ecut=    60.00 Ry     beta= 0.15
     Davidson diagonalization with overlap

---- Real-time Memory Report at c_bands before calling an iterative solver
             0 MiB given to the printing process from OS
             0 MiB allocation reported by mallinfo(arena+hblkhd)
         50434 MiB available memory on the node where the printing process lives
------------------
     ethr =  5.90E-06,  avg # of iterations =  1.7

     negative rho (up, down):  7.943E-01 0.000E+00

     total cpu time spent up to now is      380.1 secs

     total energy              =   -4440.31280255 Ry
     estimated scf accuracy    <       0.01102842 Ry

     iteration # 26     ecut=    60.00 Ry     beta= 0.15
     Davidson diagonalization with overlap

---- Real-time Memory Report at c_bands before calling an iterative solver
             0 MiB given to the printing process from OS
             0 MiB allocation reported by mallinfo(arena+hblkhd)
         50447 MiB available memory on the node where the printing process lives
------------------
     ethr =  2.56E-06,  avg # of iterations =  8.2

     negative rho (up, down):  7.999E-01 0.000E+00

     total cpu time spent up to now is      397.1 secs

     total energy              =   -4440.31074536 Ry
     estimated scf accuracy    <       0.01012900 Ry

     iteration # 27     ecut=    60.00 Ry     beta= 0.15
     Davidson diagonalization with overlap

---- Real-time Memory Report at c_bands before calling an iterative solver
             0 MiB given to the printing process from OS
             0 MiB allocation reported by mallinfo(arena+hblkhd)
         50450 MiB available memory on the node where the printing process lives
------------------
     ethr =  2.36E-06,  avg # of iterations = 11.3

     negative rho (up, down):  8.034E-01 0.000E+00

     total cpu time spent up to now is      416.5 secs

     total energy              =   -4440.31153435 Ry
     estimated scf accuracy    <       0.00122694 Ry

     iteration # 28     ecut=    60.00 Ry     beta= 0.15
     Davidson diagonalization with overlap

---- Real-time Memory Report at c_bands before calling an iterative solver
             0 MiB given to the printing process from OS
             0 MiB allocation reported by mallinfo(arena+hblkhd)
         50286 MiB available memory on the node where the printing process lives
------------------
     ethr =  2.85E-07,  avg # of iterations =  5.5

     negative rho (up, down):  7.996E-01 0.000E+00

     total cpu time spent up to now is      432.8 secs

     total energy              =   -4440.31144924 Ry
     estimated scf accuracy    <       0.00076197 Ry

     iteration # 29     ecut=    60.00 Ry     beta= 0.15
     Davidson diagonalization with overlap

---- Real-time Memory Report at c_bands before calling an iterative solver
             0 MiB given to the printing process from OS
             0 MiB allocation reported by mallinfo(arena+hblkhd)
         50276 MiB available memory on the node where the printing process lives
------------------
     ethr =  1.77E-07,  avg # of iterations =  5.0

     negative rho (up, down):  7.950E-01 0.000E+00

     total cpu time spent up to now is      448.8 secs

     total energy              =   -4440.31141891 Ry
     estimated scf accuracy    <       0.00022596 Ry

     iteration # 30     ecut=    60.00 Ry     beta= 0.15
     Davidson diagonalization with overlap

---- Real-time Memory Report at c_bands before calling an iterative solver
             0 MiB given to the printing process from OS
             0 MiB allocation reported by mallinfo(arena+hblkhd)
         50312 MiB available memory on the node where the printing process lives
------------------
     ethr =  5.25E-08,  avg # of iterations =  6.3

     negative rho (up, down):  7.940E-01 0.000E+00

     total cpu time spent up to now is      465.2 secs

     total energy              =   -4440.31142037 Ry
     estimated scf accuracy    <       0.00011630 Ry

     iteration # 31     ecut=    60.00 Ry     beta= 0.15
     Davidson diagonalization with overlap

---- Real-time Memory Report at c_bands before calling an iterative solver
             0 MiB given to the printing process from OS
             0 MiB allocation reported by mallinfo(arena+hblkhd)
         50294 MiB available memory on the node where the printing process lives
------------------
     ethr =  2.70E-08,  avg # of iterations =  2.0

     negative rho (up, down):  7.931E-01 0.000E+00

     total cpu time spent up to now is      479.4 secs

     total energy              =   -4440.31142260 Ry
     estimated scf accuracy    <       0.00008468 Ry

     iteration # 32     ecut=    60.00 Ry     beta= 0.15
     Davidson diagonalization with overlap

---- Real-time Memory Report at c_bands before calling an iterative solver
             0 MiB given to the printing process from OS
             0 MiB allocation reported by mallinfo(arena+hblkhd)
         50321 MiB available memory on the node where the printing process lives
------------------
     ethr =  1.97E-08,  avg # of iterations =  2.0

     negative rho (up, down):  7.931E-01 0.000E+00

     total cpu time spent up to now is      493.6 secs

     total energy              =   -4440.31143700 Ry
     estimated scf accuracy    <       0.00006818 Ry

     iteration # 33     ecut=    60.00 Ry     beta= 0.15
     Davidson diagonalization with overlap

---- Real-time Memory Report at c_bands before calling an iterative solver
             0 MiB given to the printing process from OS
             0 MiB allocation reported by mallinfo(arena+hblkhd)
         50352 MiB available memory on the node where the printing process lives
------------------
     ethr =  1.59E-08,  avg # of iterations =  2.0

     negative rho (up, down):  7.928E-01 0.000E+00

     total cpu time spent up to now is      507.7 secs

     total energy              =   -4440.31144285 Ry
     estimated scf accuracy    <       0.00004743 Ry

     iteration # 34     ecut=    60.00 Ry     beta= 0.15
     Davidson diagonalization with overlap

---- Real-time Memory Report at c_bands before calling an iterative solver
             0 MiB given to the printing process from OS
             0 MiB allocation reported by mallinfo(arena+hblkhd)
         50357 MiB available memory on the node where the printing process lives
------------------
     ethr =  1.10E-08,  avg # of iterations =  1.0

     negative rho (up, down):  7.929E-01 0.000E+00

     total cpu time spent up to now is      520.3 secs

     total energy              =   -4440.31144919 Ry
     estimated scf accuracy    <       0.00003186 Ry

     iteration # 35     ecut=    60.00 Ry     beta= 0.15
     Davidson diagonalization with overlap

---- Real-time Memory Report at c_bands before calling an iterative solver
             0 MiB given to the printing process from OS
             0 MiB allocation reported by mallinfo(arena+hblkhd)
         50360 MiB available memory on the node where the printing process lives
------------------
     ethr =  7.41E-09,  avg # of iterations =  2.0

     negative rho (up, down):  7.925E-01 0.000E+00

     total cpu time spent up to now is      534.4 secs

     total energy              =   -4440.31145384 Ry
     estimated scf accuracy    <       0.00003018 Ry

     iteration # 36     ecut=    60.00 Ry     beta= 0.15
     Davidson diagonalization with overlap

---- Real-time Memory Report at c_bands before calling an iterative solver
             0 MiB given to the printing process from OS
             0 MiB allocation reported by mallinfo(arena+hblkhd)
         50376 MiB available memory on the node where the printing process lives
------------------
     ethr =  7.02E-09,  avg # of iterations =  2.0

     negative rho (up, down):  7.924E-01 0.000E+00

     total cpu time spent up to now is      548.8 secs

     total energy              =   -4440.31145450 Ry
     estimated scf accuracy    <       0.00002093 Ry

     iteration # 37     ecut=    60.00 Ry     beta= 0.15
     Davidson diagonalization with overlap

---- Real-time Memory Report at c_bands before calling an iterative solver
             0 MiB given to the printing process from OS
             0 MiB allocation reported by mallinfo(arena+hblkhd)
         50381 MiB available memory on the node where the printing process lives
------------------
     ethr =  4.87E-09,  avg # of iterations =  2.0

     negative rho (up, down):  7.923E-01 0.000E+00

     total cpu time spent up to now is      563.0 secs

     total energy              =   -4440.31144320 Ry
     estimated scf accuracy    <       0.00001629 Ry

     iteration # 38     ecut=    60.00 Ry     beta= 0.15
     Davidson diagonalization with overlap

---- Real-time Memory Report at c_bands before calling an iterative solver
             0 MiB given to the printing process from OS
             0 MiB allocation reported by mallinfo(arena+hblkhd)
         50384 MiB available memory on the node where the printing process lives
------------------
     ethr =  3.79E-09,  avg # of iterations =  2.7

     negative rho (up, down):  7.923E-01 0.000E+00

     total cpu time spent up to now is      577.9 secs

     total energy              =   -4440.31144542 Ry
     estimated scf accuracy    <       0.00001005 Ry

     iteration # 39     ecut=    60.00 Ry     beta= 0.15
     Davidson diagonalization with overlap

---- Real-time Memory Report at c_bands before calling an iterative solver
             0 MiB given to the printing process from OS
             0 MiB allocation reported by mallinfo(arena+hblkhd)
         50384 MiB available memory on the node where the printing process lives
------------------
     ethr =  2.34E-09,  avg # of iterations =  2.0

     negative rho (up, down):  7.924E-01 0.000E+00

     total cpu time spent up to now is      592.5 secs

     total energy              =   -4440.31145144 Ry
     estimated scf accuracy    <       0.00000696 Ry

     iteration # 40     ecut=    60.00 Ry     beta= 0.15
     Davidson diagonalization with overlap

---- Real-time Memory Report at c_bands before calling an iterative solver
             0 MiB given to the printing process from OS
             0 MiB allocation reported by mallinfo(arena+hblkhd)
         50390 MiB available memory on the node where the printing process lives
------------------
     ethr =  1.62E-09,  avg # of iterations =  2.2

     negative rho (up, down):  7.927E-01 0.000E+00

     total cpu time spent up to now is      607.0 secs

     total energy              =   -4440.31145371 Ry
     estimated scf accuracy    <       0.00000588 Ry

     iteration # 41     ecut=    60.00 Ry     beta= 0.15
     Davidson diagonalization with overlap

---- Real-time Memory Report at c_bands before calling an iterative solver
             0 MiB given to the printing process from OS
             0 MiB allocation reported by mallinfo(arena+hblkhd)
         50389 MiB available memory on the node where the printing process lives
------------------
     ethr =  1.37E-09,  avg # of iterations =  2.7

     negative rho (up, down):  7.928E-01 0.000E+00

     total cpu time spent up to now is      621.5 secs

     total energy              =   -4440.31145421 Ry
     estimated scf accuracy    <       0.00000290 Ry

     iteration # 42     ecut=    60.00 Ry     beta= 0.15
     Davidson diagonalization with overlap

---- Real-time Memory Report at c_bands before calling an iterative solver
             0 MiB given to the printing process from OS
             0 MiB allocation reported by mallinfo(arena+hblkhd)
         50383 MiB available memory on the node where the printing process lives
------------------
     ethr =  6.74E-10,  avg # of iterations =  2.0

     negative rho (up, down):  7.927E-01 0.000E+00

     total cpu time spent up to now is      635.6 secs

     total energy              =   -4440.31145510 Ry
     estimated scf accuracy    <       0.00000204 Ry

     iteration # 43     ecut=    60.00 Ry     beta= 0.15
     Davidson diagonalization with overlap

---- Real-time Memory Report at c_bands before calling an iterative solver
             0 MiB given to the printing process from OS
             0 MiB allocation reported by mallinfo(arena+hblkhd)
         50387 MiB available memory on the node where the printing process lives
------------------
     ethr =  4.75E-10,  avg # of iterations =  2.5

     negative rho (up, down):  7.926E-01 0.000E+00

     total cpu time spent up to now is      650.0 secs

     total energy              =   -4440.31145548 Ry
     estimated scf accuracy    <       0.00000156 Ry

     iteration # 44     ecut=    60.00 Ry     beta= 0.15
     Davidson diagonalization with overlap

---- Real-time Memory Report at c_bands before calling an iterative solver
             0 MiB given to the printing process from OS
             0 MiB allocation reported by mallinfo(arena+hblkhd)
         50385 MiB available memory on the node where the printing process lives
------------------
     ethr =  3.64E-10,  avg # of iterations =  3.4

     negative rho (up, down):  7.926E-01 0.000E+00

     total cpu time spent up to now is      665.1 secs

     total energy              =   -4440.31145555 Ry
     estimated scf accuracy    <       0.00000078 Ry

     iteration # 45     ecut=    60.00 Ry     beta= 0.15
     Davidson diagonalization with overlap

---- Real-time Memory Report at c_bands before calling an iterative solver
             0 MiB given to the printing process from OS
             0 MiB allocation reported by mallinfo(arena+hblkhd)
         50380 MiB available memory on the node where the printing process lives
------------------
     ethr =  1.82E-10,  avg # of iterations =  2.0

     negative rho (up, down):  7.926E-01 0.000E+00

     total cpu time spent up to now is      679.4 secs

     total energy              =   -4440.31145547 Ry
     estimated scf accuracy    <       0.00000042 Ry

     iteration # 46     ecut=    60.00 Ry     beta= 0.15
     Davidson diagonalization with overlap

---- Real-time Memory Report at c_bands before calling an iterative solver
             0 MiB given to the printing process from OS
             0 MiB allocation reported by mallinfo(arena+hblkhd)
         50384 MiB available memory on the node where the printing process lives
------------------
     ethr =  9.76E-11,  avg # of iterations =  2.0

     negative rho (up, down):  7.926E-01 0.000E+00

     total cpu time spent up to now is      693.6 secs

     total energy              =   -4440.31145544 Ry
     estimated scf accuracy    <       0.00000033 Ry

     iteration # 47     ecut=    60.00 Ry     beta= 0.15
     Davidson diagonalization with overlap

---- Real-time Memory Report at c_bands before calling an iterative solver
             0 MiB given to the printing process from OS
             0 MiB allocation reported by mallinfo(arena+hblkhd)
         50388 MiB available memory on the node where the printing process lives
------------------
     ethr =  7.76E-11,  avg # of iterations =  2.0

     negative rho (up, down):  7.926E-01 0.000E+00

     total cpu time spent up to now is      707.8 secs

     total energy              =   -4440.31145542 Ry
     estimated scf accuracy    <       0.00000024 Ry

     iteration # 48     ecut=    60.00 Ry     beta= 0.15
     Davidson diagonalization with overlap

---- Real-time Memory Report at c_bands before calling an iterative solver
             0 MiB given to the printing process from OS
             0 MiB allocation reported by mallinfo(arena+hblkhd)
         50390 MiB available memory on the node where the printing process lives
------------------
     ethr =  5.55E-11,  avg # of iterations =  1.4

     negative rho (up, down):  7.926E-01 0.000E+00

     total cpu time spent up to now is      721.3 secs

     total energy              =   -4440.31145543 Ry
     estimated scf accuracy    <       0.00000021 Ry

     iteration # 49     ecut=    60.00 Ry     beta= 0.15
     Davidson diagonalization with overlap

---- Real-time Memory Report at c_bands before calling an iterative solver
             0 MiB given to the printing process from OS
             0 MiB allocation reported by mallinfo(arena+hblkhd)
         50394 MiB available memory on the node where the printing process lives
------------------
     ethr =  4.98E-11,  avg # of iterations =  1.0

     negative rho (up, down):  7.926E-01 0.000E+00

     total cpu time spent up to now is      734.1 secs

     total energy              =   -4440.31145547 Ry
     estimated scf accuracy    <       0.00000015 Ry

     iteration # 50     ecut=    60.00 Ry     beta= 0.15
     Davidson diagonalization with overlap

---- Real-time Memory Report at c_bands before calling an iterative solver
             0 MiB given to the printing process from OS
             0 MiB allocation reported by mallinfo(arena+hblkhd)
         50394 MiB available memory on the node where the printing process lives
------------------
     ethr =  3.50E-11,  avg # of iterations =  2.0

     negative rho (up, down):  7.926E-01 0.000E+00

     total cpu time spent up to now is      748.3 secs

     total energy              =   -4440.31145547 Ry
     estimated scf accuracy    <       0.00000006 Ry

     iteration # 51     ecut=    60.00 Ry     beta= 0.15
     Davidson diagonalization with overlap

---- Real-time Memory Report at c_bands before calling an iterative solver
             0 MiB given to the printing process from OS
             0 MiB allocation reported by mallinfo(arena+hblkhd)
         50396 MiB available memory on the node where the printing process lives
------------------
     ethr =  1.32E-11,  avg # of iterations =  2.0

     negative rho (up, down):  7.926E-01 0.000E+00

     total cpu time spent up to now is      762.3 secs

     total energy              =   -4440.31145547 Ry
     estimated scf accuracy    <       0.00000003 Ry

     iteration # 52     ecut=    60.00 Ry     beta= 0.15
     Davidson diagonalization with overlap

---- Real-time Memory Report at c_bands before calling an iterative solver
             0 MiB given to the printing process from OS
             0 MiB allocation reported by mallinfo(arena+hblkhd)
         50397 MiB available memory on the node where the printing process lives
------------------
     ethr =  7.40E-12,  avg # of iterations =  2.0

     negative rho (up, down):  7.926E-01 0.000E+00

     total cpu time spent up to now is      776.6 secs

     total energy              =   -4440.31145545 Ry
     estimated scf accuracy    <       0.00000002 Ry

     iteration # 53     ecut=    60.00 Ry     beta= 0.15
     Davidson diagonalization with overlap

---- Real-time Memory Report at c_bands before calling an iterative solver
             0 MiB given to the printing process from OS
             0 MiB allocation reported by mallinfo(arena+hblkhd)
         50390 MiB available memory on the node where the printing process lives
------------------
     ethr =  3.72E-12,  avg # of iterations =  2.7

     negative rho (up, down):  7.926E-01 0.000E+00

     total cpu time spent up to now is      790.8 secs

     End of self-consistent calculation

          k = 0.0000 0.0000 0.0000 ( 65197 PWs)   bands (ev):

   -92.8960 -92.8471 -92.7503 -92.7047 -92.6456 -92.6032 -92.5849 -92.4639
   -56.2496 -56.2341 -56.1071 -56.0964 -56.0909 -56.0833 -56.0489 -56.0191
   -56.0038 -56.0033 -55.9983 -55.9522 -55.9357 -55.8966 -55.8772 -55.8445
   -55.8401 -55.7903 -55.7902 -55.7878 -55.7794 -55.7388 -55.7150 -55.6294
   -31.4587 -31.4394 -31.2966 -31.2108 -31.1552 -31.0987 -30.9552 -30.8402
   -30.0396 -29.9978 -29.9705 -29.8630 -15.2721 -15.2251 -15.1451 -15.0158
   -14.8145 -14.6941 -14.4069 -14.3856 -14.3588 -14.3098 -14.2613 -14.2467
   -14.2425 -14.2196 -14.2036 -14.1431 -14.1210 -13.9657 -13.7799 -13.7527
   -13.7239 -13.6852 -13.6734 -13.6110 -13.5745 -13.5013 -13.4337 -13.2938
   -13.2845 -13.2799 -13.2567 -13.2382 -13.1840 -13.1777 -13.1587 -13.1567
   -13.1307 -13.1039 -13.0813 -12.9978 -12.9842 -12.9744 -12.9132 -12.9012
   -12.8936 -12.7663 -12.7498 -12.7466 -12.5251 -12.3792 -12.1731 -12.0962
   -12.0530 -11.9924 -11.9794 -11.9680 -11.9453 -11.9277 -11.8643 -11.8465
   -11.8124 -11.7821 -11.6709 -11.5919 -11.5883  -3.1326  -2.9015  -2.6716
    -2.5239  -2.4620  -2.3207  -2.0124  -1.9976  -1.9796  -1.8926  -1.8733
    -1.8049  -1.7881  -1.7471  -1.7057  -1.5223  -1.2966  -1.2645  -1.1229
    -1.1078  -1.0604  -1.0382  -0.9927  -0.9771  -0.9264  -0.8980  -0.8196
    -0.8114  -0.7386  -0.6029  -0.5900  -0.5619  -0.4823  -0.4500  -0.4282
    -0.3861  -0.3183  -0.2538  -0.2171  -0.1900  -0.1101  -0.0568  -0.0099
     0.0129   0.0283   0.2871   0.3033   0.4772   0.5376   0.6060   0.6550
     0.7404   0.7506   0.7671   0.8360   0.8621   0.8955   0.9530   1.0818
     1.1431   1.1646   1.1897   1.2070   1.2642   1.3278   1.4467   1.4615
     1.5254   1.5287   1.5764   1.5916   1.6038   1.6607   1.7247   1.7293
     1.7733   1.7970   1.8400   1.9715   2.0655   2.1005   2.1159   2.2673
     2.2800   2.3186   2.3312   2.4292   2.4676   2.4898   2.5103   2.5288
     2.5487   2.6030   2.6148   2.6390   2.7178   2.7523   2.7611   2.7647
     2.8324   2.8403   2.8618   2.8678   2.8780   2.8906   2.8980   2.9130
     2.9196   2.9307   2.9367   2.9465   2.9640   2.9857   2.9900   3.0026
     3.0329   3.1441   3.2404   3.9271   4.2449   4.5965   4.8219   4.8635
     5.7616   5.8033   5.8190   5.8990   6.1230   6.1680   6.4274   6.4355
     6.9322   6.9854   7.0825   7.1498   7.4761   7.5322   7.5456   7.5797
     7.6973   7.8748   7.9113   8.0228   8.0292   8.1602   8.3504   8.5005
     8.7672   8.9207

     occupation numbers 
     1.0000   1.0000   1.0000   1.0000   1.0000   1.0000   1.0000   1.0000
     1.0000   1.0000   1.0000   1.0000   1.0000   1.0000   1.0000   1.0000
     1.0000   1.0000   1.0000   1.0000   1.0000   1.0000   1.0000   1.0000
     1.0000   1.0000   1.0000   1.0000   1.0000   1.0000   1.0000   1.0000
     1.0000   1.0000   1.0000   1.0000   1.0000   1.0000   1.0000   1.0000
     1.0000   1.0000   1.0000   1.0000   1.0000   1.0000   1.0000   1.0000
     1.0000   1.0000   1.0000   1.0000   1.0000   1.0000   1.0000   1.0000
     1.0000   1.0000   1.0000   1.0000   1.0000   1.0000   1.0000   1.0000
     1.0000   1.0000   1.0000   1.0000   1.0000   1.0000   1.0000   1.0000
     1.0000   1.0000   1.0000   1.0000   1.0000   1.0000   1.0000   1.0000
     1.0000   1.0000   1.0000   1.0000   1.0000   1.0000   1.0000   1.0000
     1.0000   1.0000   1.0000   1.0000   1.0000   1.0000   1.0000   1.0000
     1.0000   1.0000   1.0000   1.0000   1.0000   1.0000   1.0000   1.0000
     1.0000   1.0000   1.0000   1.0000   1.0000   1.0000   1.0000   1.0000
     1.0000   1.0000   1.0000   1.0000   1.0000   1.0000   1.0000   1.0000
     1.0000   1.0000   1.0000   1.0000   1.0000   1.0000   1.0000   1.0000
     1.0000   1.0000   1.0000   1.0000   1.0000   1.0000   1.0000   1.0000
     1.0000   1.0000   1.0000   1.0000   1.0000   1.0000   1.0000   1.0000
     1.0000   1.0000   1.0000   1.0000   1.0000   1.0000   1.0000   1.0000
     1.0000   1.0000   1.0000   1.0000   1.0000   0.9999   0.9999   0.9999
     0.9998   0.9998   0.9998   0.9997   0.9996   0.9996   0.9994   0.9988
     0.9984   0.9983   0.9980   0.9979   0.9972   0.9963   0.9939   0.9935
     0.9915   0.9914   0.9896   0.9889   0.9884   0.9856   0.9817   0.9814
     0.9782   0.9763   0.9725   0.9577   0.9435   0.9373   0.9345   0.9006
     0.8973   0.8867   0.8830   0.8519   0.8383   0.8301   0.8223   0.8151
     0.8071   0.7842   0.7791   0.7682   0.7311   0.7139   0.7094   0.7076
     0.6722   0.6680   0.6563   0.6530   0.6474   0.6404   0.6363   0.6279
     0.6242   0.6179   0.6145   0.6089   0.5989   0.5864   0.5839   0.5766
     0.5589   0.4933   0.4365   0.1191   0.0493   0.0149   0.0061   0.0051
     0.0000   0.0000   0.0000   0.0000   0.0000   0.0000   0.0000   0.0000
     0.0000   0.0000   0.0000   0.0000   0.0000   0.0000   0.0000   0.0000
     0.0000   0.0000   0.0000   0.0000   0.0000   0.0000   0.0000   0.0000
     0.0000   0.0000

          k = 0.0000 0.2500 0.0000 ( 65257 PWs)   bands (ev):

   -92.8960 -92.8472 -92.7503 -92.7047 -92.6456 -92.6032 -92.5849 -92.4639
   -56.2496 -56.2341 -56.1071 -56.0964 -56.0909 -56.0833 -56.0489 -56.0191
   -56.0038 -56.0033 -55.9983 -55.9522 -55.9357 -55.8966 -55.8772 -55.8445
   -55.8401 -55.7903 -55.7902 -55.7878 -55.7794 -55.7388 -55.7150 -55.6294
   -31.4585 -31.4393 -31.2968 -31.2109 -31.1551 -31.0985 -30.9554 -30.8403
   -30.0390 -29.9975 -29.9711 -29.8634 -15.2356 -15.1990 -15.1200 -14.9862
   -14.8589 -14.6827 -14.5534 -14.3733 -14.3345 -14.3151 -14.2841 -14.2291
   -14.2170 -14.2047 -14.1825 -14.1122 -14.0394 -13.9973 -13.8340 -13.8024
   -13.7653 -13.7278 -13.6739 -13.6369 -13.5661 -13.5271 -13.4872 -13.3909
   -13.3328 -13.3266 -13.2899 -13.2720 -13.1718 -13.1500 -13.1400 -13.1148
   -13.0833 -13.0497 -13.0145 -12.9986 -12.9803 -12.9709 -12.8990 -12.7923
   -12.7654 -12.7477 -12.7405 -12.6620 -12.5864 -12.4303 -12.2278 -12.1597
   -12.0187 -11.9926 -11.9762 -11.9471 -11.9198 -11.9035 -11.8560 -11.8445
   -11.8215 -11.7879 -11.6851 -11.6334 -11.6230  -2.9972  -2.7772  -2.6389
    -2.4570  -2.4134  -2.2505  -2.0285  -1.9473  -1.9341  -1.8734  -1.7710
    -1.7556  -1.7236  -1.6942  -1.6505  -1.4534  -1.3234  -1.3125  -1.2357
    -1.2266  -1.1229  -1.0932  -1.0314  -1.0054  -0.9691  -0.9039  -0.8757
    -0.8444  -0.8106  -0.7945  -0.7624  -0.6874  -0.6392  -0.5644  -0.4501
    -0.4290  -0.3879  -0.2751  -0.2254  -0.1768  -0.1243  -0.0698  -0.0565
    -0.0272   0.0354   0.3358   0.4226   0.4612   0.5430   0.5897   0.6132
     0.7194   0.7383   0.8412   0.8635   0.8872   0.9999   1.1000   1.1201
     1.1472   1.1643   1.1848   1.2451   1.2735   1.3033   1.3476   1.3875
     1.4208   1.5133   1.5451   1.5774   1.6273   1.6863   1.7351   1.7550
     1.7706   1.7872   1.8904   2.0126   2.0854   2.1004   2.1696   2.2180
     2.2631   2.2709   2.3264   2.3627   2.4467   2.4845   2.5053   2.5473
     2.6032   2.6405   2.6735   2.6976   2.7300   2.7552   2.7672   2.7756
     2.7827   2.7906   2.8213   2.8227   2.8405   2.8477   2.8554   2.8776
     2.8887   2.8966   2.9155   2.9265   2.9313   2.9672   2.9831   3.0436
     3.4250   3.4592   3.6880   4.1191   4.2414   4.5397   4.8772   4.9834
     5.5064   5.6304   5.7979   5.9017   5.9467   6.0545   6.0662   6.5397
     7.0179   7.0932   7.2175   7.2383   7.3366   7.3966   7.5364   7.7066
     7.7648   7.9621   8.0616   8.2540   8.2891   8.3182   8.3330   8.3828
     8.5601   8.8115

     occupation numbers 
     1.0000   1.0000   1.0000   1.0000   1.0000   1.0000   1.0000   1.0000
     1.0000   1.0000   1.0000   1.0000   1.0000   1.0000   1.0000   1.0000
     1.0000   1.0000   1.0000   1.0000   1.0000   1.0000   1.0000   1.0000
     1.0000   1.0000   1.0000   1.0000   1.0000   1.0000   1.0000   1.0000
     1.0000   1.0000   1.0000   1.0000   1.0000   1.0000   1.0000   1.0000
     1.0000   1.0000   1.0000   1.0000   1.0000   1.0000   1.0000   1.0000
     1.0000   1.0000   1.0000   1.0000   1.0000   1.0000   1.0000   1.0000
     1.0000   1.0000   1.0000   1.0000   1.0000   1.0000   1.0000   1.0000
     1.0000   1.0000   1.0000   1.0000   1.0000   1.0000   1.0000   1.0000
     1.0000   1.0000   1.0000   1.0000   1.0000   1.0000   1.0000   1.0000
     1.0000   1.0000   1.0000   1.0000   1.0000   1.0000   1.0000   1.0000
     1.0000   1.0000   1.0000   1.0000   1.0000   1.0000   1.0000   1.0000
     1.0000   1.0000   1.0000   1.0000   1.0000   1.0000   1.0000   1.0000
     1.0000   1.0000   1.0000   1.0000   1.0000   1.0000   1.0000   1.0000
     1.0000   1.0000   1.0000   1.0000   1.0000   1.0000   1.0000   1.0000
     1.0000   1.0000   1.0000   1.0000   1.0000   1.0000   1.0000   1.0000
     1.0000   1.0000   1.0000   1.0000   1.0000   1.0000   1.0000   1.0000
     1.0000   1.0000   1.0000   1.0000   1.0000   1.0000   1.0000   1.0000
     1.0000   1.0000   1.0000   1.0000   1.0000   1.0000   1.0000   1.0000
     1.0000   1.0000   1.0000   1.0000   1.0000   0.9999   0.9999   0.9999
     0.9998   0.9998   0.9997   0.9996   0.9996   0.9992   0.9987   0.9986
     0.9984   0.9983   0.9981   0.9975   0.9971   0.9967   0.9960   0.9952
     0.9945   0.9919   0.9908   0.9895   0.9873   0.9841   0.9810   0.9796
     0.9784   0.9771   0.9675   0.9519   0.9401   0.9374   0.9237   0.9128
     0.9017   0.8997   0.8844   0.8736   0.8458   0.8321   0.8242   0.8076
     0.7841   0.7676   0.7523   0.7409   0.7251   0.7125   0.7064   0.7020
     0.6984   0.6943   0.6781   0.6774   0.6678   0.6639   0.6598   0.6476
     0.6415   0.6371   0.6265   0.6203   0.6176   0.5971   0.5879   0.5527
     0.3322   0.3139   0.2048   0.0715   0.0499   0.0183   0.0048   0.0030
     0.0002   0.0001   0.0000   0.0000   0.0000   0.0000   0.0000   0.0000
     0.0000   0.0000   0.0000   0.0000   0.0000   0.0000   0.0000   0.0000
     0.0000   0.0000   0.0000   0.0000   0.0000   0.0000   0.0000   0.0000
     0.0000   0.0000

          k = 0.0000-0.5000 0.0000 ( 65180 PWs)   bands (ev):

   -92.8960 -92.8471 -92.7503 -92.7047 -92.6456 -92.6032 -92.5849 -92.4639
   -56.2496 -56.2341 -56.1071 -56.0964 -56.0909 -56.0833 -56.0489 -56.0191
   -56.0038 -56.0033 -55.9983 -55.9522 -55.9357 -55.8966 -55.8772 -55.8445
   -55.8401 -55.7903 -55.7902 -55.7878 -55.7794 -55.7388 -55.7150 -55.6294
   -31.4583 -31.4392 -31.2970 -31.2111 -31.1550 -31.0983 -30.9556 -30.8404
   -30.0384 -29.9972 -29.9718 -29.8637 -15.1993 -15.1512 -15.0952 -14.9652
   -14.8827 -14.7489 -14.5824 -14.4685 -14.3470 -14.2627 -14.2299 -14.2178
   -14.1703 -14.1582 -14.1067 -14.0803 -14.0622 -14.0281 -13.9764 -13.9271
   -13.7724 -13.7134 -13.6760 -13.6454 -13.5463 -13.5333 -13.4766 -13.4634
   -13.4323 -13.3976 -13.2908 -13.2729 -13.1507 -13.1473 -13.1365 -13.1098
   -13.0639 -13.0473 -13.0005 -12.9688 -12.8928 -12.8880 -12.8349 -12.7737
   -12.7570 -12.7501 -12.6970 -12.6099 -12.5053 -12.4672 -12.3220 -12.2688
   -11.9935 -11.9732 -11.9693 -11.9419 -11.9057 -11.8709 -11.8595 -11.8183
   -11.8141 -11.7700 -11.7067 -11.6938 -11.6802  -2.7820  -2.7241  -2.5741
    -2.5026  -2.2177  -2.1359  -2.0080  -1.8731  -1.8312  -1.8147  -1.7378
    -1.7049  -1.6222  -1.5873  -1.5071  -1.4700  -1.4332  -1.4055  -1.3447
    -1.3076  -1.2610  -1.2245  -1.1923  -1.1599  -1.0488  -1.0056  -0.9669
    -0.9621  -0.8776  -0.8495  -0.8259  -0.7776  -0.6894  -0.6135  -0.5221
    -0.4914  -0.3788  -0.3568  -0.2211  -0.1677  -0.1428  -0.1001   0.0270
     0.1010   0.2003   0.2718   0.2844   0.4067   0.4789   0.5609   0.6902
     0.7914   0.8250   0.8675   0.8808   0.9103   0.9270   0.9614   0.9783
     0.9987   1.1026   1.1628   1.1931   1.2165   1.4955   1.5178   1.5433
     1.6322   1.6494   1.6892   1.7096   1.7238   1.7530   1.7656   1.7783
     1.8158   1.8450   1.8763   1.8779   1.9093   1.9627   2.0549   2.1003
     2.2552   2.4100   2.4183   2.4398   2.4751   2.4778   2.4889   2.5380
     2.5509   2.5574   2.6026   2.6071   2.6273   2.6472   2.7078   2.7231
     2.7925   2.7962   2.8211   2.8231   2.8374   2.8414   2.8455   2.8523
     2.8565   2.8720   2.8848   2.8910   2.9535   2.9548   2.9726   3.0312
     3.9372   3.9611   4.0246   4.0828   4.5460   4.7320   4.8929   4.9983
     5.2726   5.3568   5.4810   5.5799   5.8488   5.8622   6.3772   6.6459
     6.7797   6.8890   7.1297   7.3036   7.5643   7.6448   7.7394   7.7691
     7.8339   7.9818   8.1295   8.2517   8.2767   8.3329   8.4369   8.5109
     8.6776   8.7273

     occupation numbers 
     1.0000   1.0000   1.0000   1.0000   1.0000   1.0000   1.0000   1.0000
     1.0000   1.0000   1.0000   1.0000   1.0000   1.0000   1.0000   1.0000
     1.0000   1.0000   1.0000   1.0000   1.0000   1.0000   1.0000   1.0000
     1.0000   1.0000   1.0000   1.0000   1.0000   1.0000   1.0000   1.0000
     1.0000   1.0000   1.0000   1.0000   1.0000   1.0000   1.0000   1.0000
     1.0000   1.0000   1.0000   1.0000   1.0000   1.0000   1.0000   1.0000
     1.0000   1.0000   1.0000   1.0000   1.0000   1.0000   1.0000   1.0000
     1.0000   1.0000   1.0000   1.0000   1.0000   1.0000   1.0000   1.0000
     1.0000   1.0000   1.0000   1.0000   1.0000   1.0000   1.0000   1.0000
     1.0000   1.0000   1.0000   1.0000   1.0000   1.0000   1.0000   1.0000
     1.0000   1.0000   1.0000   1.0000   1.0000   1.0000   1.0000   1.0000
     1.0000   1.0000   1.0000   1.0000   1.0000   1.0000   1.0000   1.0000
     1.0000   1.0000   1.0000   1.0000   1.0000   1.0000   1.0000   1.0000
     1.0000   1.0000   1.0000   1.0000   1.0000   1.0000   1.0000   1.0000
     1.0000   1.0000   1.0000   1.0000   1.0000   1.0000   1.0000   1.0000
     1.0000   1.0000   1.0000   1.0000   1.0000   1.0000   1.0000   1.0000
     1.0000   1.0000   1.0000   1.0000   1.0000   1.0000   1.0000   1.0000
     1.0000   1.0000   1.0000   1.0000   1.0000   1.0000   1.0000   1.0000
     1.0000   1.0000   1.0000   1.0000   1.0000   1.0000   1.0000   1.0000
     1.0000   1.0000   1.0000   1.0000   1.0000   1.0000   0.9999   0.9999
     0.9997   0.9997   0.9996   0.9996   0.9995   0.9995   0.9994   0.9993
     0.9992   0.9987   0.9983   0.9980   0.9978   0.9925   0.9918   0.9909
     0.9871   0.9862   0.9840   0.9827   0.9818   0.9798   0.9788   0.9779
     0.9747   0.9721   0.9690   0.9688   0.9654   0.9588   0.9453   0.9374
     0.9037   0.8584   0.8556   0.8482   0.8356   0.8346   0.8305   0.8114
     0.8062   0.8035   0.7844   0.7825   0.7735   0.7645   0.7360   0.7285
     0.6933   0.6913   0.6782   0.6772   0.6695   0.6673   0.6651   0.6615
     0.6591   0.6507   0.6436   0.6402   0.6049   0.6042   0.5940   0.5599
     0.1161   0.1093   0.0927   0.0792   0.0179   0.0088   0.0045   0.0028
     0.0007   0.0005   0.0002   0.0001   0.0000   0.0000   0.0000   0.0000
     0.0000   0.0000   0.0000   0.0000   0.0000   0.0000   0.0000   0.0000
     0.0000   0.0000   0.0000   0.0000   0.0000   0.0000   0.0000   0.0000
     0.0000   0.0000

          k = 0.2500 0.2500 0.0000 ( 65198 PWs)   bands (ev):

   -92.8960 -92.8471 -92.7503 -92.7047 -92.6456 -92.6032 -92.5849 -92.4639
   -56.2496 -56.2341 -56.1071 -56.0964 -56.0909 -56.0833 -56.0489 -56.0191
   -56.0038 -56.0033 -55.9983 -55.9522 -55.9357 -55.8966 -55.8772 -55.8445
   -55.8401 -55.7903 -55.7902 -55.7878 -55.7794 -55.7388 -55.7150 -55.6294
   -31.4568 -31.4410 -31.2965 -31.2113 -31.1545 -31.0991 -30.9551 -30.8406
   -30.0380 -29.9985 -29.9708 -29.8638 -15.2067 -15.1652 -15.0917 -14.9757
   -14.8507 -14.7259 -14.6587 -14.4456 -14.2963 -14.2815 -14.2438 -14.2168
   -14.1911 -14.1650 -14.1275 -14.0763 -14.0268 -14.0101 -13.8482 -13.8344
   -13.8041 -13.7860 -13.7178 -13.6967 -13.6111 -13.5788 -13.4550 -13.4249
   -13.4041 -13.3233 -13.2824 -13.2311 -13.2001 -13.1573 -13.1299 -13.1123
   -13.0964 -13.0294 -12.9772 -12.9490 -12.9263 -12.8995 -12.8940 -12.8506
   -12.8095 -12.7467 -12.6348 -12.6203 -12.5529 -12.4594 -12.2672 -12.2010
   -11.9944 -11.9891 -11.9598 -11.9481 -11.9407 -11.8794 -11.8438 -11.8377
   -11.8021 -11.7931 -11.7021 -11.6617 -11.6444  -2.8587  -2.6514  -2.5325
    -2.4377  -2.3182  -2.2540  -2.0531  -1.9115  -1.8930  -1.8607  -1.7658
    -1.7342  -1.6382  -1.6107  -1.5595  -1.4298  -1.3812  -1.3068  -1.2630
    -1.2175  -1.1953  -1.1720  -1.1274  -1.1140  -1.0226  -0.9718  -0.9016
    -0.8549  -0.8242  -0.7784  -0.7613  -0.6984  -0.6496  -0.5856  -0.5577
    -0.4659  -0.4159  -0.3866  -0.3502  -0.2950  -0.1997  -0.1831  -0.1535
    -0.0723  -0.0455   0.2237   0.3759   0.4054   0.4705   0.5143   0.5706
     0.6135   0.6878   0.7202   0.9909   1.0526   1.1254   1.1506   1.2052
     1.2293   1.2665   1.3050   1.3207   1.3484   1.3989   1.4053   1.4209
     1.4648   1.5010   1.5420   1.6157   1.6481   1.6573   1.6970   1.7236
     1.7797   1.8013   1.9275   1.9924   2.0278   2.0427   2.1166   2.1798
     2.2072   2.2415   2.2726   2.2827   2.3917   2.4278   2.5189   2.5410
     2.5992   2.6413   2.6858   2.7031   2.7076   2.7255   2.7415   2.7540
     2.7656   2.7704   2.7833   2.7955   2.8101   2.8251   2.8326   2.8439
     2.8684   2.8777   2.8874   2.9182   3.2177   3.3112   3.3604   3.4333
     3.4638   3.6724   3.7618   4.1284   4.3296   4.5432   4.8021   5.1229
     5.4932   5.5518   5.5949   5.6472   5.7099   6.0839   6.1484   6.1968
     6.8283   7.1600   7.2356   7.3911   7.4442   7.4756   7.5833   7.7499
     7.9117   8.0636   8.1966   8.3153   8.3219   8.3405   8.4468   8.4828
     8.5535   8.6690

     occupation numbers 
     1.0000   1.0000   1.0000   1.0000   1.0000   1.0000   1.0000   1.0000
     1.0000   1.0000   1.0000   1.0000   1.0000   1.0000   1.0000   1.0000
     1.0000   1.0000   1.0000   1.0000   1.0000   1.0000   1.0000   1.0000
     1.0000   1.0000   1.0000   1.0000   1.0000   1.0000   1.0000   1.0000
     1.0000   1.0000   1.0000   1.0000   1.0000   1.0000   1.0000   1.0000
     1.0000   1.0000   1.0000   1.0000   1.0000   1.0000   1.0000   1.0000
     1.0000   1.0000   1.0000   1.0000   1.0000   1.0000   1.0000   1.0000
     1.0000   1.0000   1.0000   1.0000   1.0000   1.0000   1.0000   1.0000
     1.0000   1.0000   1.0000   1.0000   1.0000   1.0000   1.0000   1.0000
     1.0000   1.0000   1.0000   1.0000   1.0000   1.0000   1.0000   1.0000
     1.0000   1.0000   1.0000   1.0000   1.0000   1.0000   1.0000   1.0000
     1.0000   1.0000   1.0000   1.0000   1.0000   1.0000   1.0000   1.0000
     1.0000   1.0000   1.0000   1.0000   1.0000   1.0000   1.0000   1.0000
     1.0000   1.0000   1.0000   1.0000   1.0000   1.0000   1.0000   1.0000
     1.0000   1.0000   1.0000   1.0000   1.0000   1.0000   1.0000   1.0000
     1.0000   1.0000   1.0000   1.0000   1.0000   1.0000   1.0000   1.0000
     1.0000   1.0000   1.0000   1.0000   1.0000   1.0000   1.0000   1.0000
     1.0000   1.0000   1.0000   1.0000   1.0000   1.0000   1.0000   1.0000
     1.0000   1.0000   1.0000   1.0000   1.0000   1.0000   1.0000   1.0000
     1.0000   1.0000   1.0000   1.0000   1.0000   1.0000   0.9999   0.9999
     0.9999   0.9999   0.9998   0.9993   0.9990   0.9986   0.9984   0.9979
     0.9976   0.9972   0.9967   0.9964   0.9960   0.9950   0.9948   0.9945
     0.9934   0.9923   0.9909   0.9879   0.9863   0.9858   0.9835   0.9818
     0.9777   0.9760   0.9632   0.9548   0.9496   0.9472   0.9343   0.9215
     0.9153   0.9072   0.8992   0.8966   0.8644   0.8524   0.8190   0.8102
     0.7859   0.7672   0.7465   0.7383   0.7361   0.7273   0.7194   0.7131
     0.7072   0.7047   0.6981   0.6918   0.6841   0.6761   0.6721   0.6660
     0.6527   0.6475   0.6422   0.6250   0.4498   0.3955   0.3677   0.3277
     0.3115   0.2115   0.1751   0.0697   0.0378   0.0181   0.0066   0.0016
     0.0002   0.0002   0.0001   0.0001   0.0001   0.0000   0.0000   0.0000
     0.0000   0.0000   0.0000   0.0000   0.0000   0.0000   0.0000   0.0000
     0.0000   0.0000   0.0000   0.0000   0.0000   0.0000   0.0000   0.0000
     0.0000   0.0000

          k = 0.2500-0.5000 0.0000 ( 65138 PWs)   bands (ev):

   -92.8960 -92.8471 -92.7503 -92.7047 -92.6456 -92.6032 -92.5849 -92.4639
   -56.2496 -56.2341 -56.1071 -56.0964 -56.0909 -56.0833 -56.0489 -56.0191
   -56.0038 -56.0033 -55.9983 -55.9522 -55.9357 -55.8966 -55.8772 -55.8445
   -55.8401 -55.7903 -55.7902 -55.7878 -55.7794 -55.7388 -55.7150 -55.6294
   -31.4566 -31.4409 -31.2967 -31.2115 -31.1545 -31.0989 -30.9554 -30.8407
   -30.0374 -29.9982 -29.9714 -29.8641 -15.1687 -15.1245 -15.0527 -14.9373
   -14.9034 -14.7893 -14.6868 -14.5641 -14.2612 -14.2023 -14.1812 -14.1541
   -14.1401 -14.1301 -14.0900 -14.0693 -14.0421 -14.0059 -13.9746 -13.9137
   -13.8533 -13.8045 -13.7325 -13.7250 -13.6523 -13.5772 -13.5114 -13.4787
   -13.3890 -13.3233 -13.3014 -13.2164 -13.1710 -13.1545 -13.1256 -13.1062
   -13.0942 -13.0265 -13.0019 -12.9464 -12.9019 -12.8385 -12.8196 -12.8088
   -12.8067 -12.7519 -12.7033 -12.5616 -12.5027 -12.4205 -12.3140 -12.2785
   -11.9932 -11.9664 -11.9542 -11.9434 -11.9158 -11.8850 -11.8559 -11.8154
   -11.7884 -11.7662 -11.7201 -11.6948 -11.6844  -2.6394  -2.5756  -2.4477
    -2.3710  -2.2380  -2.1557  -2.0324  -1.8839  -1.8276  -1.8065  -1.7449
    -1.7320  -1.6327  -1.5670  -1.4828  -1.4302  -1.4209  -1.3604  -1.3157
    -1.2826  -1.2339  -1.1966  -1.1614  -1.1236  -1.1078  -1.0658  -1.0361
    -0.9913  -0.9616  -0.8952  -0.7907  -0.7534  -0.6728  -0.6054  -0.5516
    -0.5144  -0.4970  -0.4287  -0.2777  -0.2625  -0.1567  -0.1338  -0.1243
    -0.0821  -0.0376  -0.0077   0.0267   0.0864   0.3850   0.4810   0.5292
     0.5814   0.8623   0.8745   0.9626   0.9910   1.1502   1.1874   1.2256
     1.2511   1.2603   1.2832   1.3480   1.3995   1.4329   1.5057   1.6209
     1.6482   1.6645   1.6714   1.7130   1.7195   1.7418   1.7792   1.7850
     1.8090   1.8355   1.8516   1.8718   1.9063   1.9633   2.0100   2.0925
     2.2199   2.3622   2.3801   2.3984   2.4252   2.4509   2.4767   2.4980
     2.5141   2.5279   2.5564   2.5981   2.6334   2.6463   2.6874   2.7054
     2.7110   2.7222   2.7417   2.7544   2.7750   2.7818   2.8233   2.8282
     2.8426   2.8484   2.8584   2.8681   3.3872   3.4187   3.5497   3.6098
     3.9432   4.0007   4.0251   4.1366   4.5654   4.7511   4.9116   4.9603
     5.1217   5.2962   5.4965   5.5249   5.6173   5.6653   6.3302   6.4417
     6.4760   6.7442   7.3743   7.5745   7.6578   7.7079   7.7672   7.7968
     7.8999   7.9916   8.2769   8.3531   8.3899   8.4222   8.5417   8.5794
     8.6269   8.6431

     occupation numbers 
     1.0000   1.0000   1.0000   1.0000   1.0000   1.0000   1.0000   1.0000
     1.0000   1.0000   1.0000   1.0000   1.0000   1.0000   1.0000   1.0000
     1.0000   1.0000   1.0000   1.0000   1.0000   1.0000   1.0000   1.0000
     1.0000   1.0000   1.0000   1.0000   1.0000   1.0000   1.0000   1.0000
     1.0000   1.0000   1.0000   1.0000   1.0000   1.0000   1.0000   1.0000
     1.0000   1.0000   1.0000   1.0000   1.0000   1.0000   1.0000   1.0000
     1.0000   1.0000   1.0000   1.0000   1.0000   1.0000   1.0000   1.0000
     1.0000   1.0000   1.0000   1.0000   1.0000   1.0000   1.0000   1.0000
     1.0000   1.0000   1.0000   1.0000   1.0000   1.0000   1.0000   1.0000
     1.0000   1.0000   1.0000   1.0000   1.0000   1.0000   1.0000   1.0000
     1.0000   1.0000   1.0000   1.0000   1.0000   1.0000   1.0000   1.0000
     1.0000   1.0000   1.0000   1.0000   1.0000   1.0000   1.0000   1.0000
     1.0000   1.0000   1.0000   1.0000   1.0000   1.0000   1.0000   1.0000
     1.0000   1.0000   1.0000   1.0000   1.0000   1.0000   1.0000   1.0000
     1.0000   1.0000   1.0000   1.0000   1.0000   1.0000   1.0000   1.0000
     1.0000   1.0000   1.0000   1.0000   1.0000   1.0000   1.0000   1.0000
     1.0000   1.0000   1.0000   1.0000   1.0000   1.0000   1.0000   1.0000
     1.0000   1.0000   1.0000   1.0000   1.0000   1.0000   1.0000   1.0000
     1.0000   1.0000   1.0000   1.0000   1.0000   1.0000   1.0000   1.0000
     1.0000   1.0000   1.0000   1.0000   1.0000   1.0000   1.0000   0.9999
     0.9999   0.9996   0.9996   0.9994   0.9993   0.9984   0.9981   0.9977
     0.9974   0.9973   0.9970   0.9960   0.9950   0.9942   0.9922   0.9876
     0.9863   0.9854   0.9850   0.9825   0.9821   0.9806   0.9778   0.9773
     0.9753   0.9730   0.9714   0.9694   0.9657   0.9588   0.9523   0.9388
     0.9124   0.8737   0.8681   0.8622   0.8533   0.8443   0.8350   0.8270
     0.8208   0.8154   0.8039   0.7864   0.7708   0.7650   0.7458   0.7371
     0.7344   0.7289   0.7193   0.7129   0.7024   0.6988   0.6771   0.6744
     0.6667   0.6635   0.6581   0.6528   0.3528   0.3356   0.2679   0.2393
     0.1144   0.0987   0.0926   0.0680   0.0167   0.0081   0.0041   0.0033
     0.0016   0.0007   0.0002   0.0002   0.0001   0.0001   0.0000   0.0000
     0.0000   0.0000   0.0000   0.0000   0.0000   0.0000   0.0000   0.0000
     0.0000   0.0000   0.0000   0.0000   0.0000   0.0000   0.0000   0.0000
     0.0000   0.0000

          k =-0.5000-0.5000 0.0000 ( 65132 PWs)   bands (ev):

   -92.8960 -92.8471 -92.7503 -92.7047 -92.6456 -92.6032 -92.5849 -92.4639
   -56.2496 -56.2341 -56.1071 -56.0964 -56.0909 -56.0833 -56.0489 -56.0191
   -56.0038 -56.0033 -55.9983 -55.9522 -55.9357 -55.8966 -55.8772 -55.8445
   -55.8401 -55.7903 -55.7902 -55.7878 -55.7794 -55.7388 -55.7150 -55.6294
   -31.4544 -31.4431 -31.2963 -31.2119 -31.1539 -31.0994 -30.9551 -30.8409
   -30.0363 -29.9993 -29.9710 -29.8646 -15.1226 -15.0974 -14.9799 -14.9655
   -14.8629 -14.8379 -14.7908 -14.6621 -14.1729 -14.1569 -14.1284 -14.1056
   -14.0903 -14.0663 -14.0504 -14.0377 -14.0127 -14.0109 -13.9917 -13.9185
   -13.9123 -13.8635 -13.8459 -13.8183 -13.7393 -13.6314 -13.5441 -13.5180
   -13.3403 -13.2984 -13.2308 -13.2073 -13.1707 -13.1664 -13.1569 -13.1386
   -13.0608 -13.0413 -12.9455 -12.9407 -12.9151 -12.8764 -12.8382 -12.7901
   -12.7797 -12.7607 -12.7186 -12.5252 -12.4988 -12.3738 -12.3067 -12.2938
   -11.9929 -11.9635 -11.9504 -11.9325 -11.9158 -11.8805 -11.8646 -11.8273
   -11.7688 -11.7482 -11.7430 -11.6926 -11.6901  -2.4133  -2.3397  -2.3310
    -2.2598  -2.2213  -2.1426  -2.0744  -1.9481  -1.8343  -1.8043  -1.7629
    -1.7079  -1.6352  -1.6191  -1.5501  -1.5073  -1.3884  -1.3580  -1.3096
    -1.2852  -1.2204  -1.1714  -1.1534  -1.1408  -1.0853  -1.0452  -1.0233
    -0.9142  -0.8587  -0.8120  -0.7604  -0.7306  -0.7160  -0.6827  -0.6402
    -0.6015  -0.5948  -0.5112  -0.4395  -0.4017  -0.3686  -0.3001  -0.2284
    -0.2245  -0.1609  -0.1344  -0.1293  -0.1176   0.3542   0.4188   0.4787
     0.4941   0.8873   0.9010   0.9353   0.9674   1.2377   1.2571   1.2635
     1.3028   1.4288   1.5200   1.5496   1.5860   1.6251   1.6338   1.6431
     1.6755   1.6957   1.7139   1.7247   1.7573   1.7643   1.7913   1.8211
     1.8288   1.8449   1.8854   1.9064   1.9212   1.9523   1.9842   2.0440
     2.1105   2.3756   2.4050   2.4252   2.4433   2.4563   2.4722   2.4870
     2.5076   2.5181   2.5359   2.5485   2.5613   2.5719   2.5980   2.6360
     2.6378   2.6488   2.6611   2.6732   2.6977   2.7097   2.7113   2.7264
     2.8251   2.8346   2.8542   2.8675   3.8137   3.8599   3.8765   3.9377
     4.1254   4.1999   4.2246   4.4660   4.5883   4.6702   4.8038   4.9083
     4.9296   5.0166   5.1545   5.2578   5.8077   5.8315   5.8878   6.0060
     6.6537   6.8838   7.0319   7.5870   7.8271   7.8416   7.9210   8.0599
     8.1637   8.1738   8.2355   8.3151   8.4489   8.4795   8.4842   8.5220
     8.5561   8.6236

     occupation numbers 
     1.0000   1.0000   1.0000   1.0000   1.0000   1.0000   1.0000   1.0000
     1.0000   1.0000   1.0000   1.0000   1.0000   1.0000   1.0000   1.0000
     1.0000   1.0000   1.0000   1.0000   1.0000   1.0000   1.0000   1.0000
     1.0000   1.0000   1.0000   1.0000   1.0000   1.0000   1.0000   1.0000
     1.0000   1.0000   1.0000   1.0000   1.0000   1.0000   1.0000   1.0000
     1.0000   1.0000   1.0000   1.0000   1.0000   1.0000   1.0000   1.0000
[...]
     0.6330   0.6208   0.6185   0.6138   0.6102   0.6045   0.5989   0.5227
     0.3521   0.3166   0.2017   0.0747   0.0445   0.0207   0.0048   0.0029
     0.0002   0.0001   0.0000   0.0000   0.0000   0.0000   0.0000   0.0000
     0.0000   0.0000   0.0000   0.0000   0.0000   0.0000   0.0000   0.0000
     0.0000   0.0000   0.0000   0.0000   0.0000   0.0000   0.0000   0.0000
     0.0000   0.0000

          k =-0.5000 0.0000 0.0000 ( 65180 PWs)   bands (ev):

   -92.8960 -92.8471 -92.7503 -92.7047 -92.6456 -92.6032 -92.5849 -92.4639
   -56.2496 -56.2341 -56.1071 -56.0964 -56.0909 -56.0833 -56.0489 -56.0191
   -56.0038 -56.0033 -55.9983 -55.9522 -55.9357 -55.8966 -55.8772 -55.8445
   -55.8401 -55.7903 -55.7902 -55.7878 -55.7794 -55.7388 -55.7150 -55.6294
   -31.4547 -31.4434 -31.2959 -31.2116 -31.1541 -31.0999 -30.9546 -30.8407
   -30.0375 -29.9999 -29.9697 -29.8639 -15.2052 -15.1528 -15.0909 -14.9717
   -14.8786 -14.7331 -14.5888 -14.4248 -14.3220 -14.3019 -14.2979 -14.2328
   -14.1775 -14.1481 -14.0972 -14.0766 -14.0666 -14.0217 -13.9809 -13.8857
   -13.7444 -13.7044 -13.6828 -13.6751 -13.5588 -13.5503 -13.4836 -13.4475
   -13.4243 -13.3920 -13.2355 -13.2227 -13.1970 -13.1880 -13.1360 -13.1164
   -13.1050 -13.0839 -12.9414 -12.8959 -12.8917 -12.8728 -12.8605 -12.8231
   -12.8137 -12.7459 -12.7234 -12.5470 -12.5092 -12.3944 -12.3382 -12.3105
   -11.9927 -11.9696 -11.9483 -11.9412 -11.9284 -11.9098 -11.8683 -11.8049
   -11.7859 -11.7524 -11.7105 -11.7016 -11.6857  -2.7725  -2.7342  -2.5719
    -2.5320  -2.2168  -2.1415  -1.9966  -1.8776  -1.8379  -1.7923  -1.7456
    -1.7212  -1.5961  -1.5530  -1.5361  -1.4550  -1.4187  -1.4024  -1.3724
    -1.3102  -1.2448  -1.2178  -1.1818  -1.0866  -1.0451  -0.9960  -0.9620
    -0.9421  -0.9087  -0.8615  -0.8373  -0.7952  -0.6934  -0.6282  -0.5519
    -0.4936  -0.3203  -0.2957  -0.2459  -0.1948  -0.1357  -0.1235   0.0167
     0.0454   0.0798   0.2497   0.3497   0.4008   0.4888   0.5678   0.6709
     0.6890   0.8237   0.8446   0.8972   0.9306   0.9625   0.9773   1.0243
     1.0428   1.1169   1.1629   1.2067   1.2229   1.5210   1.5349   1.5548
     1.5813   1.6783   1.6892   1.7059   1.7117   1.7405   1.7546   1.7903
     1.8066   1.8382   1.8864   1.9083   1.9571   1.9809   2.0340   2.1419
     2.2530   2.3131   2.3304   2.4049   2.4330   2.4586   2.5304   2.5381
     2.5445   2.5491   2.5774   2.6019   2.6385   2.6494   2.6940   2.7500
     2.7678   2.8077   2.8139   2.8183   2.8249   2.8410   2.8521   2.8652
     2.8706   2.8934   2.8949   2.9183   2.9361   2.9422   3.0719   3.0796
     3.8726   3.9523   4.0254   4.1449   4.6059   4.6954   4.8759   4.9164
     5.3613   5.3976   5.4759   5.5128   5.8502   5.8612   6.3249   6.7283
     6.7393   6.9379   7.1949   7.2463   7.6111   7.6459   7.6824   7.7177
     7.7838   7.9721   8.1686   8.2002   8.2685   8.3627   8.4721   8.5118
     8.6259   8.7945

     occupation numbers 
     1.0000   1.0000   1.0000   1.0000   1.0000   1.0000   1.0000   1.0000
     1.0000   1.0000   1.0000   1.0000   1.0000   1.0000   1.0000   1.0000
     1.0000   1.0000   1.0000   1.0000   1.0000   1.0000   1.0000   1.0000
     1.0000   1.0000   1.0000   1.0000   1.0000   1.0000   1.0000   1.0000
     1.0000   1.0000   1.0000   1.0000   1.0000   1.0000   1.0000   1.0000
     1.0000   1.0000   1.0000   1.0000   1.0000   1.0000   1.0000   1.0000
     1.0000   1.0000   1.0000   1.0000   1.0000   1.0000   1.0000   1.0000
     1.0000   1.0000   1.0000   1.0000   1.0000   1.0000   1.0000   1.0000
     1.0000   1.0000   1.0000   1.0000   1.0000   1.0000   1.0000   1.0000
     1.0000   1.0000   1.0000   1.0000   1.0000   1.0000   1.0000   1.0000
     1.0000   1.0000   1.0000   1.0000   1.0000   1.0000   1.0000   1.0000
     1.0000   1.0000   1.0000   1.0000   1.0000   1.0000   1.0000   1.0000
     1.0000   1.0000   1.0000   1.0000   1.0000   1.0000   1.0000   1.0000
     1.0000   1.0000   1.0000   1.0000   1.0000   1.0000   1.0000   1.0000
     1.0000   1.0000   1.0000   1.0000   1.0000   1.0000   1.0000   1.0000
     1.0000   1.0000   1.0000   1.0000   1.0000   1.0000   1.0000   1.0000
     1.0000   1.0000   1.0000   1.0000   1.0000   1.0000   1.0000   1.0000
     1.0000   1.0000   1.0000   1.0000   1.0000   1.0000   1.0000   1.0000
     1.0000   1.0000   1.0000   1.0000   1.0000   1.0000   1.0000   1.0000
     1.0000   1.0000   1.0000   1.0000   1.0000   1.0000   0.9999   0.9999
     0.9999   0.9997   0.9997   0.9995   0.9995   0.9994   0.9993   0.9991
     0.9990   0.9986   0.9983   0.9979   0.9977   0.9917   0.9912   0.9904
     0.9894   0.9846   0.9840   0.9829   0.9826   0.9806   0.9796   0.9769
     0.9755   0.9727   0.9679   0.9655   0.9596   0.9564   0.9486   0.9294
     0.9043   0.8882   0.8832   0.8601   0.8506   0.8416   0.8144   0.8114
     0.8088   0.8069   0.7952   0.7847   0.7685   0.7635   0.7426   0.7151
     0.7060   0.6853   0.6821   0.6797   0.6762   0.6676   0.6616   0.6544
     0.6515   0.6388   0.6380   0.6249   0.6149   0.6114   0.5360   0.5314
     0.1360   0.1118   0.0925   0.0664   0.0144   0.0102   0.0048   0.0040
     0.0005   0.0004   0.0003   0.0002   0.0000   0.0000   0.0000   0.0000
     0.0000   0.0000   0.0000   0.0000   0.0000   0.0000   0.0000   0.0000
     0.0000   0.0000   0.0000   0.0000   0.0000   0.0000   0.0000   0.0000
     0.0000   0.0000

          k =-0.2500 0.2500 0.0000 ( 65198 PWs)   bands (ev):

   -92.8960 -92.8471 -92.7503 -92.7047 -92.6456 -92.6032 -92.5849 -92.4639
   -56.2496 -56.2341 -56.1071 -56.0964 -56.0909 -56.0833 -56.0489 -56.0191
   -56.0038 -56.0033 -55.9983 -55.9522 -55.9357 -55.8966 -55.8772 -55.8445
   -55.8401 -55.7903 -55.7902 -55.7878 -55.7794 -55.7388 -55.7150 -55.6294
   -31.4568 -31.4410 -31.2965 -31.2113 -31.1545 -31.0991 -30.9551 -30.8406
   -30.0380 -29.9985 -29.9708 -29.8638 -15.2080 -15.1639 -15.0905 -14.9743
   -14.8560 -14.7315 -14.6502 -14.4363 -14.3021 -14.2743 -14.2569 -14.2117
   -14.1873 -14.1625 -14.1396 -14.0843 -14.0216 -14.0103 -13.8575 -13.8314
   -13.8000 -13.7812 -13.7202 -13.6847 -13.6190 -13.5795 -13.4564 -13.4167
   -13.3989 -13.3277 -13.2837 -13.2219 -13.1894 -13.1659 -13.1288 -13.1145
   -13.1050 -13.0319 -12.9749 -12.9535 -12.9460 -12.8999 -12.8737 -12.8432
   -12.8243 -12.7456 -12.6522 -12.6245 -12.5163 -12.4650 -12.2551 -12.2166
   -11.9941 -11.9885 -11.9685 -11.9417 -11.9292 -11.8886 -11.8537 -11.8311
   -11.8083 -11.7863 -11.7019 -11.6573 -11.6475  -2.8570  -2.6502  -2.5284
    -2.4393  -2.3225  -2.2568  -2.0507  -1.9086  -1.8906  -1.8588  -1.7664
    -1.7331  -1.6379  -1.6034  -1.5772  -1.4358  -1.3787  -1.3101  -1.2826
    -1.2206  -1.2012  -1.1612  -1.1328  -1.0924  -1.0289  -0.9796  -0.9130
    -0.8465  -0.8199  -0.7722  -0.7435  -0.6961  -0.6388  -0.5880  -0.5531
    -0.4455  -0.4200  -0.4034  -0.3617  -0.2969  -0.2064  -0.1806  -0.1429
    -0.0664  -0.0489   0.2034   0.3784   0.4134   0.4586   0.5226   0.5692
     0.6195   0.6906   0.7200   0.9992   1.1023   1.1442   1.1762   1.1847
     1.2242   1.2401   1.2855   1.3185   1.3299   1.3552   1.4071   1.4231
     1.4594   1.4817   1.5270   1.6339   1.6358   1.6583   1.6932   1.7230
     1.7623   1.8106   1.9166   2.0255   2.0469   2.0928   2.1121   2.1777
     2.2181   2.2449   2.2746   2.2920   2.3908   2.4273   2.5180   2.5415
     2.5989   2.6397   2.6926   2.7012   2.7156   2.7234   2.7350   2.7495
     2.7576   2.7754   2.7838   2.7956   2.8056   2.8169   2.8261   2.8358
     2.8690   2.8787   2.8864   2.9202   3.2110   3.2926   3.3631   3.4343
     3.4748   3.6577   3.7707   4.1277   4.3271   4.5448   4.8111   5.1230
     5.4949   5.5484   5.5985   5.6433   5.7109   6.0995   6.1317   6.1971
     6.8294   7.1267   7.2712   7.3938   7.4568   7.4779   7.5600   7.7605
     7.9043   8.0774   8.1956   8.2406   8.3183   8.4388   8.4619   8.4819
     8.5619   8.6111

     occupation numbers 
     1.0000   1.0000   1.0000   1.0000   1.0000   1.0000   1.0000   1.0000
     1.0000   1.0000   1.0000   1.0000   1.0000   1.0000   1.0000   1.0000
     1.0000   1.0000   1.0000   1.0000   1.0000   1.0000   1.0000   1.0000
     1.0000   1.0000   1.0000   1.0000   1.0000   1.0000   1.0000   1.0000
     1.0000   1.0000   1.0000   1.0000   1.0000   1.0000   1.0000   1.0000
     1.0000   1.0000   1.0000   1.0000   1.0000   1.0000   1.0000   1.0000
     1.0000   1.0000   1.0000   1.0000   1.0000   1.0000   1.0000   1.0000
     1.0000   1.0000   1.0000   1.0000   1.0000   1.0000   1.0000   1.0000
     1.0000   1.0000   1.0000   1.0000   1.0000   1.0000   1.0000   1.0000
     1.0000   1.0000   1.0000   1.0000   1.0000   1.0000   1.0000   1.0000
     1.0000   1.0000   1.0000   1.0000   1.0000   1.0000   1.0000   1.0000
     1.0000   1.0000   1.0000   1.0000   1.0000   1.0000   1.0000   1.0000
     1.0000   1.0000   1.0000   1.0000   1.0000   1.0000   1.0000   1.0000
     1.0000   1.0000   1.0000   1.0000   1.0000   1.0000   1.0000   1.0000
     1.0000   1.0000   1.0000   1.0000   1.0000   1.0000   1.0000   1.0000
     1.0000   1.0000   1.0000   1.0000   1.0000   1.0000   1.0000   1.0000
     1.0000   1.0000   1.0000   1.0000   1.0000   1.0000   1.0000   1.0000
     1.0000   1.0000   1.0000   1.0000   1.0000   1.0000   1.0000   1.0000
     1.0000   1.0000   1.0000   1.0000   1.0000   1.0000   1.0000   1.0000
     1.0000   1.0000   1.0000   1.0000   1.0000   1.0000   0.9999   0.9999
     0.9999   0.9999   0.9998   0.9992   0.9987   0.9984   0.9982   0.9981
     0.9977   0.9975   0.9970   0.9965   0.9963   0.9958   0.9948   0.9944
     0.9935   0.9929   0.9914   0.9870   0.9869   0.9857   0.9837   0.9818
     0.9791   0.9752   0.9645   0.9499   0.9466   0.9387   0.9352   0.9219
     0.9128   0.9063   0.8987   0.8940   0.8647   0.8526   0.8193   0.8100
     0.7860   0.7680   0.7433   0.7392   0.7322   0.7283   0.7226   0.7153
     0.7112   0.7022   0.6978   0.6917   0.6864   0.6804   0.6756   0.6704
     0.6523   0.6470   0.6427   0.6239   0.4537   0.4062   0.3662   0.3271
     0.3058   0.2178   0.1717   0.0698   0.0381   0.0180   0.0063   0.0016
     0.0002   0.0002   0.0001   0.0001   0.0001   0.0000   0.0000   0.0000
     0.0000   0.0000   0.0000   0.0000   0.0000   0.0000   0.0000   0.0000
     0.0000   0.0000   0.0000   0.0000   0.0000   0.0000   0.0000   0.0000
     0.0000   0.0000

          k =-0.5000 0.2500 0.0000 ( 65138 PWs)   bands (ev):

   -92.8960 -92.8471 -92.7503 -92.7047 -92.6456 -92.6032 -92.5849 -92.4639
   -56.2496 -56.2341 -56.1071 -56.0964 -56.0909 -56.0833 -56.0489 -56.0191
   -56.0038 -56.0033 -55.9983 -55.9522 -55.9357 -55.8966 -55.8772 -55.8445
   -55.8401 -55.7903 -55.7902 -55.7878 -55.7794 -55.7388 -55.7150 -55.6294
   -31.4546 -31.4433 -31.2961 -31.2117 -31.1540 -31.0996 -30.9549 -30.8408
   -30.0369 -29.9996 -29.9703 -29.8642 -15.1723 -15.1265 -15.0481 -14.9418
   -14.9022 -14.7810 -14.6909 -14.5500 -14.2536 -14.2229 -14.2101 -14.1664
   -14.1406 -14.1191 -14.0836 -14.0606 -14.0474 -14.0094 -13.9834 -13.8811
   -13.8245 -13.7756 -13.7680 -13.7459 -13.6532 -13.5955 -13.5144 -13.4552
   -13.3820 -13.3458 -13.2474 -13.2087 -13.1978 -13.1674 -13.1329 -13.1211
   -13.0784 -13.0683 -12.9559 -12.9126 -12.8920 -12.8811 -12.8536 -12.8053
   -12.7970 -12.7487 -12.7208 -12.5362 -12.5044 -12.3846 -12.3230 -12.3016
   -11.9929 -11.9624 -11.9502 -11.9362 -11.9234 -11.9032 -11.8730 -11.7907
   -11.7836 -11.7592 -11.7247 -11.6971 -11.6879  -2.6294  -2.5882  -2.4414
    -2.3984  -2.2361  -2.1601  -2.0206  -1.8832  -1.8267  -1.7998  -1.7618
    -1.7237  -1.6423  -1.5261  -1.4690  -1.4455  -1.4194  -1.3423  -1.3143
    -1.2745  -1.2588  -1.1987  -1.1652  -1.1301  -1.0954  -1.0662  -1.0072
    -0.9783  -0.9359  -0.9011  -0.7974  -0.7692  -0.6752  -0.6190  -0.5884
    -0.5275  -0.4483  -0.4096  -0.3139  -0.2617  -0.2122  -0.1521  -0.1281
    -0.0627  -0.0397  -0.0073   0.0407   0.0833   0.4068   0.4888   0.5275
     0.5406   0.8375   0.8936   0.9681   0.9916   1.1645   1.1996   1.2375
     1.2456   1.2644   1.2828   1.3520   1.4009   1.4450   1.4721   1.6083
     1.6435   1.6613   1.6718   1.7150   1.7396   1.7551   1.7646   1.7835
     1.8103   1.8505   1.8630   1.9001   1.9253   1.9592   2.0090   2.1337
     2.2326   2.2631   2.3292   2.3599   2.4226   2.4547   2.4641   2.5073
     2.5322   2.5422   2.5657   2.5975   2.6403   2.6497   2.6918   2.7018
     2.7118   2.7308   2.7489   2.7612   2.7769   2.7936   2.8144   2.8251
     2.8348   2.8419   2.8518   2.8645   3.3949   3.4499   3.5817   3.6038
     3.8810   3.9740   4.0260   4.2238   4.5982   4.7077   4.8662   4.9308
     5.2266   5.2557   5.4847   5.5659   5.6052   5.6356   6.3288   6.4281
     6.4493   6.8501   7.2753   7.5943   7.6625   7.7202   7.7738   7.8020
     7.8966   7.9762   8.2814   8.3338   8.4054   8.4185   8.4915   8.5536
     8.6542   8.6921

     occupation numbers 
     1.0000   1.0000   1.0000   1.0000   1.0000   1.0000   1.0000   1.0000
     1.0000   1.0000   1.0000   1.0000   1.0000   1.0000   1.0000   1.0000
     1.0000   1.0000   1.0000   1.0000   1.0000   1.0000   1.0000   1.0000
     1.0000   1.0000   1.0000   1.0000   1.0000   1.0000   1.0000   1.0000
     1.0000   1.0000   1.0000   1.0000   1.0000   1.0000   1.0000   1.0000
     1.0000   1.0000   1.0000   1.0000   1.0000   1.0000   1.0000   1.0000
     1.0000   1.0000   1.0000   1.0000   1.0000   1.0000   1.0000   1.0000
     1.0000   1.0000   1.0000   1.0000   1.0000   1.0000   1.0000   1.0000
     1.0000   1.0000   1.0000   1.0000   1.0000   1.0000   1.0000   1.0000
     1.0000   1.0000   1.0000   1.0000   1.0000   1.0000   1.0000   1.0000
     1.0000   1.0000   1.0000   1.0000   1.0000   1.0000   1.0000   1.0000
     1.0000   1.0000   1.0000   1.0000   1.0000   1.0000   1.0000   1.0000
     1.0000   1.0000   1.0000   1.0000   1.0000   1.0000   1.0000   1.0000
     1.0000   1.0000   1.0000   1.0000   1.0000   1.0000   1.0000   1.0000
     1.0000   1.0000   1.0000   1.0000   1.0000   1.0000   1.0000   1.0000
     1.0000   1.0000   1.0000   1.0000   1.0000   1.0000   1.0000   1.0000
     1.0000   1.0000   1.0000   1.0000   1.0000   1.0000   1.0000   1.0000
     1.0000   1.0000   1.0000   1.0000   1.0000   1.0000   1.0000   1.0000
     1.0000   1.0000   1.0000   1.0000   1.0000   1.0000   1.0000   1.0000
     1.0000   1.0000   1.0000   1.0000   1.0000   1.0000   1.0000   0.9999
     0.9999   0.9997   0.9996   0.9993   0.9993   0.9983   0.9980   0.9976
     0.9975   0.9972   0.9970   0.9959   0.9949   0.9939   0.9932   0.9882
     0.9865   0.9856   0.9850   0.9824   0.9807   0.9796   0.9789   0.9774
     0.9752   0.9715   0.9703   0.9664   0.9635   0.9593   0.9524   0.9310
     0.9093   0.9017   0.8836   0.8744   0.8542   0.8430   0.8396   0.8235
     0.8137   0.8097   0.8001   0.7866   0.7677   0.7634   0.7437   0.7389
     0.7340   0.7247   0.7156   0.7094   0.7014   0.6927   0.6818   0.6761
     0.6709   0.6671   0.6617   0.6548   0.3485   0.3188   0.2525   0.2421
     0.1333   0.1058   0.0924   0.0526   0.0148   0.0097   0.0050   0.0038
     0.0009   0.0008   0.0002   0.0002   0.0001   0.0001   0.0000   0.0000
     0.0000   0.0000   0.0000   0.0000   0.0000   0.0000   0.0000   0.0000
     0.0000   0.0000   0.0000   0.0000   0.0000   0.0000   0.0000   0.0000
     0.0000   0.0000

     the Fermi energy is     3.1327 ev

!    total energy              =   -4440.31145546 Ry
     estimated scf accuracy    <          5.9E-09 Ry
     smearing contrib. (-TS)   =      -1.20776469 Ry
     internal energy E=F+TS    =   -4439.10369076 Ry

     The total energy is F=E-TS. E is the sum of the following terms:
     one-electron contribution =  -20889.68285976 Ry
     hartree contribution      =   10573.68415995 Ry
     xc contribution           =    -693.24970537 Ry
     ewald contribution        =    6846.33567174 Ry
     one-center paw contrib.   =    -276.19095733 Ry
      -> PAW hartree energy AE =      25.07673378 Ry
      -> PAW hartree energy PS =     -24.96158759 Ry
      -> PAW xc energy AE      =     -16.50512141 Ry
      -> PAW xc energy PS      =       6.86403219 Ry
      -> total E_H with PAW    =   10573.79930614 Ry
      -> total E_XC with PAW   =    -702.89079458 Ry

     convergence has been achieved in  53 iterations

     Writing all to output data dir /bsuhome/zayahcortright/scratch/pwscf.save/
 
     init_run     :      7.75s CPU      8.48s WALL (       1 calls)
     electrons    :    745.39s CPU    781.81s WALL (       1 calls)

     Called by init_run:
     wfcinit      :      6.19s CPU      6.43s WALL (       1 calls)
     wfcinit:atom :      0.04s CPU      0.06s WALL (       5 calls)
     wfcinit:wfcr :      5.88s CPU      6.03s WALL (       5 calls)
     potinit      :      0.15s CPU      0.18s WALL (       1 calls)
     hinit0       :      0.55s CPU      0.73s WALL (       1 calls)

     Called by electrons:
     c_bands      :    586.80s CPU    594.25s WALL (      53 calls)
     sum_band     :    118.80s CPU    134.92s WALL (      53 calls)
     v_of_rho     :      5.73s CPU      6.14s WALL (      54 calls)
     v_h          :      0.50s CPU      0.50s WALL (      54 calls)
     v_xc         :      5.24s CPU      5.64s WALL (      54 calls)
     newd         :     17.73s CPU     29.80s WALL (      54 calls)
     PAW_pot      :      1.72s CPU      1.76s WALL (      54 calls)
     mix_rho      :     14.13s CPU     14.54s WALL (      53 calls)

     Called by c_bands:
     init_us_2    :      7.58s CPU      7.70s WALL (     535 calls)
     init_us_2:cp :      7.57s CPU      7.69s WALL (     535 calls)
     cegterg      :    552.60s CPU    559.64s WALL (     265 calls)

     Called by sum_band:
     sum_band:wei :      0.37s CPU      0.38s WALL (      53 calls)
     sum_band:loo :    100.13s CPU    100.94s WALL (      53 calls)
     sum_band:buf :      1.67s CPU      1.73s WALL (     265 calls)
     sum_band:ini :      3.63s CPU      3.64s WALL (     265 calls)
     sum_band:cal :     21.06s CPU     21.14s WALL (     265 calls)
     sum_band:bec :      0.58s CPU      0.59s WALL (     265 calls)
     addusdens    :     16.94s CPU     32.18s WALL (      53 calls)
                                        0.00s GPU  (      53 calls)
     addusd:skk   :      0.32s CPU      1.03s WALL (     159 calls)
                                        0.00s GPU  (     159 calls)

     Called by *egterg:
     cdiaghg      :     50.77s CPU     50.99s WALL (    1152 calls)
     cegterg:over :     39.73s CPU     39.88s WALL (     887 calls)
     cegterg:upda :     28.60s CPU     29.10s WALL (     887 calls)
     cegterg:last :     60.37s CPU     60.63s WALL (     466 calls)
     cdiaghg:chol :      2.91s CPU      2.93s WALL (    1152 calls)
     cdiaghg:inve :      2.58s CPU      2.59s WALL (    1152 calls)
     cdiaghg:para :      6.46s CPU      6.49s WALL (    2304 calls)
     h_psi        :    314.21s CPU    317.60s WALL (    1157 calls)
     s_psi        :     41.83s CPU     41.96s WALL (    1157 calls)
     g_psi        :      1.20s CPU      1.21s WALL (     887 calls)

     Called by h_psi:
     h_psi:calbec :     46.73s CPU     46.96s WALL (    1157 calls)
     vloc_psi     :    222.54s CPU    224.75s WALL (    1157 calls)
     add_vuspsi   :     41.65s CPU     41.86s WALL (    1157 calls)

     General routines
     calbec       :     67.78s CPU     68.10s WALL (    1422 calls)
     fft          :      3.97s CPU      4.01s WALL (     700 calls)
     ffts         :      5.05s CPU      5.10s WALL (    5857 calls)
     fftw         :    187.41s CPU    189.01s WALL (  354148 calls)
     interpolate  :      0.44s CPU      0.45s WALL (      54 calls)
 
     Parallel routines

     PAW routines
     PAW_pot      :      1.72s CPU      1.76s WALL (      54 calls)
 
     PWSCF        :  12m35.03s CPU  13m15.26s WALL

 
   This run was terminated on:  23:34:18  21Jun2024            

=------------------------------------------------------------------------------=
   JOB DONE.
=------------------------------------------------------------------------------=
