
     Program PWSCF v.7.2 starts on 21Jun2024 at 23: 4:56 

     This program is part of the open-source Quantum ESPRESSO suite
     for quantum simulation of materials; please cite
         "P. Giannozzi et al., J. Phys.:Condens. Matter 21 395502 (2009);
         "P. Giannozzi et al., J. Phys.:Condens. Matter 29 465901 (2017);
         "P. Giannozzi et al., J. Chem. Phys. 152 154105 (2020);
          URL http://www.quantum-espresso.org", 
     in publications or presentations arising from this work. More details at
     http://www.quantum-espresso.org/quote

     Parallel version (MPI & OpenMP), running on      48 processor cores
     Number of MPI processes:                48
     Threads/MPI process:                     1

     MPI processes distributed on     1 nodes
     180150 MiB available memory on the printing compute node when the environment starts
 
     Reading input from espresso.pwi
Warning: card &CELL ignored
Warning: card / ignored
Warning: card &FCP ignored
Warning: card / ignored
Warning: card &RISM ignored
Warning: card / ignored

     Current dimensions of program PWSCF are:
     Max number of different atomic species (ntypx) = 10
     Max number of k-points (npk) =  40000
     Max angular momentum in pseudopotentials (lmaxx) =  4
     file O.pbe-n-kjpaw_psl.0.1.UPF: wavefunction(s)  2P renormalized
     signal trapping enabled: kill the code with -SIGUSR1 to stop cleanly the simulation 
 
     K-points division:     npool     =       2
     R & G space division:  proc/nbgrp/npool/nimage =      24
     Subspace diagonalization in iterative solution of the eigenvalue problem:
     one sub-group per band group will be used
     scalapack distributed-memory algorithm (size of sub-group:  3*  3 procs)

 
     Parallelization info
     --------------------
     sticks:   dense  smooth     PW     G-vecs:    dense   smooth      PW
     Min         350     175     47                61430    21716    3036
     Max         351     177     48                61449    21727    3041
     Sum        8421    4205   1137              1474595   521381   72913
 
     Using Slab Decomposition
 


     bravais-lattice index     =            0
     lattice parameter (alat)  =      14.8599  a.u.
     unit-cell volume          =    8305.1283 (a.u.)^3
     number of atoms/cell      =           49
     number of atomic types    =            4
     number of electrons       =       425.00
     number of Kohn-Sham states=          256
     kinetic-energy cutoff     =      60.0000  Ry
     charge density cutoff     =     480.0000  Ry
     scf convergence threshold =      1.0E-08
     mixing beta               =       0.1500
     number of iterations used =            8  local-TF  mixing
     Exchange-correlation= PBE
                           (   1   4   3   4   0   0   0)

     celldm(1)=  14.859904  celldm(2)=   0.000000  celldm(3)=   0.000000
     celldm(4)=   0.000000  celldm(5)=   0.000000  celldm(6)=   0.000000

     crystal axes: (cart. coord. in units of alat)
               a(1) = (   1.000000   0.000000   0.000000 )  
               a(2) = (   0.000000   1.000000   0.000000 )  
               a(3) = (   0.000000   0.000000   2.531036 )  

     reciprocal axes: (cart. coord. in units 2 pi/alat)
               b(1) = (  1.000000  0.000000  0.000000 )  
               b(2) = (  0.000000  1.000000  0.000000 )  
               b(3) = (  0.000000  0.000000  0.395095 )  


     PseudoPot. # 1 for Sr read from file:
     /bsuhome/zayahcortright/q-e/pseudo/Sr_pbe_v1.uspp.F.UPF
     MD5 check sum: 6b418c05fbe9db5448babca5e47b7a5b
     Pseudo is Ultrasoft + core correction, Zval = 10.0
     Generated by new atomic code, or converted to UPF format
     Using radial grid of  883 points,  6 beta functions with: 
                l(1) =   0
                l(2) =   0
                l(3) =   1
                l(4) =   1
                l(5) =   2
                l(6) =   2
     Q(r) pseudized with  6 coefficients,  rinner =    1.400   1.400   1.400
                                                       1.400   1.400

     PseudoPot. # 2 for O  read from file:
     /bsuhome/zayahcortright/q-e/pseudo/O.pbe-n-kjpaw_psl.0.1.UPF
     MD5 check sum: 0234752ac141de4415c5fc33072bef88
     Pseudo is Projector augmented-wave + core cor, Zval =  6.0
     Generated using "atomic" code by A. Dal Corso  v.5.0.99 svn rev. 10869
     Shape of augmentation charge: BESSEL
     Using radial grid of 1095 points,  4 beta functions with: 
                l(1) =   0
                l(2) =   0
                l(3) =   1
                l(4) =   1
     Q(r) pseudized with 0 coefficients 


     PseudoPot. # 3 for Co read from file:
     /bsuhome/zayahcortright/q-e/pseudo/Co_pbe_v1.2.uspp.F.UPF
     MD5 check sum: 5f91765df6ddd3222702df6e7b74a16d
     Pseudo is Ultrasoft + core correction, Zval = 17.0
     Generated by new atomic code, or converted to UPF format
     Using radial grid of  863 points,  6 beta functions with: 
                l(1) =   0
                l(2) =   0
                l(3) =   1
                l(4) =   1
                l(5) =   2
                l(6) =   2
     Q(r) pseudized with  8 coefficients,  rinner =    1.200   1.200   1.200
                                                       1.200   1.200

     PseudoPot. # 4 for H  read from file:
     /bsuhome/zayahcortright/q-e/pseudo/H.pbe-rrkjus_psl.1.0.0.UPF
     MD5 check sum: f52b6d4d1c606e5624b1dc7b2218f220
     Pseudo is Ultrasoft, Zval =  1.0
     Generated using "atomic" code by A. Dal Corso  v.5.1
     Using radial grid of  929 points,  2 beta functions with: 
                l(1) =   0
                l(2) =   0
     Q(r) pseudized with 0 coefficients 


     atomic species   valence    mass     pseudopotential
        Sr            10.00    87.62000     Sr( 1.00)
        O              6.00    15.99900     O ( 1.00)
        Co            17.00    58.93319     Co( 1.00)
        H              1.00     1.00800     H ( 1.00)

     No symmetry found


                                    s                        frac. trans.

      isym =  1     identity                                     

 cryst.   s( 1) = (     1          0          0      )
                  (     0          1          0      )
                  (     0          0          1      )

 cart.    s( 1) = (  1.0000000  0.0000000  0.0000000 )
                  (  0.0000000  1.0000000  0.0000000 )
                  (  0.0000000  0.0000000  1.0000000 )


   Cartesian axes

     site n.     atom                  positions (alat units)
         1           Sr  tau(   1) = (   0.2508693   0.7491307   1.7574407  )
         2           O   tau(   2) = (   0.4985141   0.5014859   1.7715967  )
         3           Sr  tau(   3) = (   0.7482398   0.7454518   1.7648669  )
         4           Sr  tau(   4) = (   0.7441748   0.2558252   1.7667843  )
         5           Sr  tau(   5) = (   0.2508693   0.7491307   1.2696799  )
         6           Sr  tau(   6) = (   0.2508693   0.7491307   0.7632319  )
         7           Co  tau(   7) = (   0.4998914   0.5001086   1.0164559  )
         8           Co  tau(   8) = (   0.4936915   0.5063085   1.5135603  )
         9           O   tau(   9) = (   0.4988895   0.7610401   1.0164559  )
        10           O   tau(  10) = (   0.2389599   0.5011105   1.0164559  )
        11           O   tau(  11) = (   0.0070918   0.7374880   1.0164559  )
        12           O   tau(  12) = (   0.0088340   0.7405089   1.5135603  )
        13           O   tau(  13) = (   0.5066944   0.7415376   1.5135603  )
        14           O   tau(  14) = (   0.2584624   0.4933056   1.5135603  )
        15           O   tau(  15) = (   0.4985141   0.5014859   0.7773880  )
        16           O   tau(  16) = (   0.4985141   0.5014859   1.2555238  )
        17           Sr  tau(  17) = (   0.7482398   0.7454518   0.7706582  )
        18           Sr  tau(  18) = (   0.7482398   0.7454518   1.2622536  )
        19           Sr  tau(  19) = (   0.7441748   0.2558252   0.7725755  )
        20           Sr  tau(  20) = (   0.7441748   0.2558252   1.2603363  )
        21           O   tau(  21) = (   0.7322655   0.0078049   1.5135603  )
        22           O   tau(  22) = (   0.7558175   0.4996027   1.5135603  )
        23           O   tau(  23) = (   0.5003973   0.2441825   1.5135603  )
        24           O   tau(  24) = (   0.7527966   0.4978604   1.0164559  )
        25           O   tau(  25) = (   0.5021396   0.2472034   1.0164559  )
        26           O   tau(  26) = (   0.7517679   0.0000000   1.0164559  )
        27           O   tau(  27) = (   0.0114961   0.4948124   1.7455321  )
        28           O   tau(  28) = (   0.0048226   0.0077944   1.7715967  )
        29           Sr  tau(  29) = (   0.2545482   0.2517602   1.7648669  )
        30           O   tau(  30) = (   0.5048017   0.0015068   1.7786929  )
        31           Co  tau(  31) = (   0.0056869   0.5006215   1.0164559  )
        32           Co  tau(  32) = (   0.0065315   0.4997770   1.5135603  )
        33           Co  tau(  33) = (   0.0061999   0.0064171   1.0164559  )
        34           Co  tau(  34) = (   0.0000000   0.0126169   1.5135603  )
        35           O   tau(  35) = (   0.0114961   0.4948124   1.2815885  )
        36           O   tau(  36) = (   0.0114961   0.4948124   0.7513233  )
        37           O   tau(  37) = (   0.0051979   0.2673486   1.0164559  )
        38           O   tau(  38) = (   0.0130029   0.2478461   1.5135603  )
        39           O   tau(  39) = (   0.0048226   0.0077944   0.7773880  )
        40           O   tau(  40) = (   0.0048226   0.0077944   1.2555238  )
        41           Sr  tau(  41) = (   0.2545482   0.2517602   0.7706582  )
        42           Sr  tau(  42) = (   0.2545482   0.2517602   1.2622536  )
        43           Co  tau(  43) = (   0.4989925   0.0073160   1.5135603  )
        44           Co  tau(  44) = (   0.4998370   0.0064714   1.0164559  )
        45           O   tau(  45) = (   0.5048017   0.0015068   0.7844841  )
        46           O   tau(  46) = (   0.5048017   0.0015068   1.2484277  )
        47           O   tau(  47) = (   0.2621260   0.0059111   1.5135603  )
        48           O   tau(  48) = (   0.2591051   0.0041689   1.0164559  )
        49           H   tau(  49) = (   0.8529874   0.9951520   2.1602013  )

   Crystallographic axes

     site n.     atom                  positions (cryst. coord.)
         1           Sr  tau(   1) = (  0.2508693  0.7491307  0.6943562  )
         2           O   tau(   2) = (  0.4985141  0.5014859  0.6999492  )
         3           Sr  tau(   3) = (  0.7482398  0.7454518  0.6972903  )
         4           Sr  tau(   4) = (  0.7441748  0.2558252  0.6980478  )
         5           Sr  tau(   5) = (  0.2508693  0.7491307  0.5016443  )
         6           Sr  tau(   6) = (  0.2508693  0.7491307  0.3015492  )
         7           Co  tau(   7) = (  0.4998914  0.5001086  0.4015968  )
         8           Co  tau(   8) = (  0.4936915  0.5063085  0.5980003  )
         9           O   tau(   9) = (  0.4988895  0.7610401  0.4015968  )
        10           O   tau(  10) = (  0.2389599  0.5011105  0.4015968  )
        11           O   tau(  11) = (  0.0070918  0.7374880  0.4015968  )
        12           O   tau(  12) = (  0.0088340  0.7405089  0.5980003  )
        13           O   tau(  13) = (  0.5066944  0.7415376  0.5980003  )
        14           O   tau(  14) = (  0.2584624  0.4933056  0.5980003  )
        15           O   tau(  15) = (  0.4985141  0.5014859  0.3071422  )
        16           O   tau(  16) = (  0.4985141  0.5014859  0.4960513  )
        17           Sr  tau(  17) = (  0.7482398  0.7454518  0.3044833  )
        18           Sr  tau(  18) = (  0.7482398  0.7454518  0.4987103  )
        19           Sr  tau(  19) = (  0.7441748  0.2558252  0.3052408  )
        20           Sr  tau(  20) = (  0.7441748  0.2558252  0.4979527  )
        21           O   tau(  21) = (  0.7322655  0.0078049  0.5980003  )
        22           O   tau(  22) = (  0.7558175  0.4996027  0.5980003  )
        23           O   tau(  23) = (  0.5003973  0.2441825  0.5980003  )
        24           O   tau(  24) = (  0.7527966  0.4978604  0.4015968  )
        25           O   tau(  25) = (  0.5021396  0.2472034  0.4015968  )
        26           O   tau(  26) = (  0.7517679  0.0000000  0.4015968  )
        27           O   tau(  27) = (  0.0114961  0.4948124  0.6896512  )
        28           O   tau(  28) = (  0.0048226  0.0077944  0.6999492  )
        29           Sr  tau(  29) = (  0.2545482  0.2517602  0.6972903  )
        30           O   tau(  30) = (  0.5048017  0.0015068  0.7027529  )
        31           Co  tau(  31) = (  0.0056869  0.5006215  0.4015968  )
        32           Co  tau(  32) = (  0.0065315  0.4997770  0.5980003  )
        33           Co  tau(  33) = (  0.0061999  0.0064171  0.4015968  )
        34           Co  tau(  34) = (  0.0000000  0.0126169  0.5980003  )
        35           O   tau(  35) = (  0.0114961  0.4948124  0.5063494  )
        36           O   tau(  36) = (  0.0114961  0.4948124  0.2968442  )
        37           O   tau(  37) = (  0.0051979  0.2673486  0.4015968  )
        38           O   tau(  38) = (  0.0130029  0.2478461  0.5980003  )
        39           O   tau(  39) = (  0.0048226  0.0077944  0.3071422  )
        40           O   tau(  40) = (  0.0048226  0.0077944  0.4960513  )
        41           Sr  tau(  41) = (  0.2545482  0.2517602  0.3044833  )
        42           Sr  tau(  42) = (  0.2545482  0.2517602  0.4987103  )
        43           Co  tau(  43) = (  0.4989925  0.0073160  0.5980003  )
        44           Co  tau(  44) = (  0.4998370  0.0064714  0.4015968  )
        45           O   tau(  45) = (  0.5048017  0.0015068  0.3099459  )
        46           O   tau(  46) = (  0.5048017  0.0015068  0.4932477  )
        47           O   tau(  47) = (  0.2621260  0.0059111  0.5980003  )
        48           O   tau(  48) = (  0.2591051  0.0041689  0.4015968  )
        49           H   tau(  49) = (  0.8529874  0.9951520  0.8534850  )

     number of k points=    10  Gaussian smearing, width (Ry)=  0.0700
                       cart. coord. in units 2pi/alat
        k(    1) = (   0.0000000   0.0000000   0.0000000), wk =   0.1250000
        k(    2) = (   0.0000000   0.2500000   0.0000000), wk =   0.2500000
        k(    3) = (   0.0000000  -0.5000000   0.0000000), wk =   0.1250000
        k(    4) = (   0.2500000   0.2500000   0.0000000), wk =   0.2500000
        k(    5) = (   0.2500000  -0.5000000   0.0000000), wk =   0.2500000
        k(    6) = (  -0.5000000  -0.5000000   0.0000000), wk =   0.1250000
        k(    7) = (   0.2500000   0.0000000   0.0000000), wk =   0.2500000
        k(    8) = (  -0.5000000   0.0000000   0.0000000), wk =   0.1250000
        k(    9) = (  -0.2500000   0.2500000   0.0000000), wk =   0.2500000
        k(   10) = (  -0.5000000   0.2500000   0.0000000), wk =   0.2500000

                       cryst. coord.
        k(    1) = (   0.0000000   0.0000000   0.0000000), wk =   0.1250000
        k(    2) = (   0.0000000   0.2500000   0.0000000), wk =   0.2500000
        k(    3) = (   0.0000000  -0.5000000   0.0000000), wk =   0.1250000
        k(    4) = (   0.2500000   0.2500000   0.0000000), wk =   0.2500000
        k(    5) = (   0.2500000  -0.5000000   0.0000000), wk =   0.2500000
        k(    6) = (  -0.5000000  -0.5000000   0.0000000), wk =   0.1250000
        k(    7) = (   0.2500000   0.0000000   0.0000000), wk =   0.2500000
        k(    8) = (  -0.5000000   0.0000000   0.0000000), wk =   0.1250000
        k(    9) = (  -0.2500000   0.2500000   0.0000000), wk =   0.2500000
        k(   10) = (  -0.5000000   0.2500000   0.0000000), wk =   0.2500000

     Dense  grid:  1474595 G-vectors     FFT dimensions: ( 108, 108, 270)

     Smooth grid:   521381 G-vectors     FFT dimensions: (  75,  75, 192)

     Dynamical RAM for                 wfc:      10.61 MB

     Dynamical RAM for     wfc (w. buffer):      63.63 MB

     Dynamical RAM for           str. fact:       3.75 MB

     Dynamical RAM for           local pot:       0.00 MB

     Dynamical RAM for          nlocal pot:      24.28 MB

     Dynamical RAM for                qrad:       7.03 MB

     Dynamical RAM for          rho,v,vnew:       6.02 MB

     Dynamical RAM for               rhoin:       2.01 MB

     Dynamical RAM for            rho*nmix:      15.00 MB

     Dynamical RAM for           G-vectors:       3.68 MB

     Dynamical RAM for          h,s,v(r/c):       1.32 MB

     Dynamical RAM for          <psi|beta>:       2.29 MB

     Dynamical RAM for                 psi:      21.21 MB

     Dynamical RAM for                hpsi:      21.21 MB

     Dynamical RAM for                spsi:      21.21 MB

     Dynamical RAM for      wfcinit/wfcrot:      34.09 MB

     Dynamical RAM for           addusdens:     100.79 MB

     Estimated static dynamical RAM per process >     120.42 MB

     Estimated max dynamical RAM per process >     236.21 MB

     Estimated total dynamical RAM >      10.72 GB

     Check: negative core charge=   -0.000004

     Initial potential from superposition of free atoms

     starting charge     416.5961, renormalised to     425.0000

     negative rho (up, down):  7.827E-01 0.000E+00
     Starting wfcs are  373 randomized atomic wfcs
     Checking if some PAW data can be deallocated... 
       PAW data deallocated on   20 nodes for type:  2

     total cpu time spent up to now is        9.2 secs

     Self-consistent Calculation

     iteration #  1     ecut=    60.00 Ry     beta= 0.15
     Davidson diagonalization with overlap

---- Real-time Memory Report at c_bands before calling an iterative solver
             0 MiB given to the printing process from OS
             0 MiB allocation reported by mallinfo(arena+hblkhd)
        170464 MiB available memory on the node where the printing process lives
------------------
     ethr =  1.00E-02,  avg # of iterations =  2.0

     negative rho (up, down):  7.715E-01 0.000E+00

     total cpu time spent up to now is       23.6 secs

     total energy              =   -4404.69292521 Ry
     estimated scf accuracy    <      42.17583085 Ry

     iteration #  2     ecut=    60.00 Ry     beta= 0.15
     Davidson diagonalization with overlap

---- Real-time Memory Report at c_bands before calling an iterative solver
             0 MiB given to the printing process from OS
             0 MiB allocation reported by mallinfo(arena+hblkhd)
        170690 MiB available memory on the node where the printing process lives
------------------
     ethr =  9.92E-03,  avg # of iterations =  1.0

     negative rho (up, down):  7.531E-01 0.000E+00

     total cpu time spent up to now is       35.8 secs

     total energy              =   -4400.04381010 Ry
     estimated scf accuracy    <      26.39896503 Ry

     iteration #  3     ecut=    60.00 Ry     beta= 0.15
     Davidson diagonalization with overlap

---- Real-time Memory Report at c_bands before calling an iterative solver
             0 MiB given to the printing process from OS
             0 MiB allocation reported by mallinfo(arena+hblkhd)
        169952 MiB available memory on the node where the printing process lives
------------------
     ethr =  6.21E-03,  avg # of iterations =  2.0

     negative rho (up, down):  7.543E-01 0.000E+00

     total cpu time spent up to now is       49.3 secs

     total energy              =   -4402.38922766 Ry
     estimated scf accuracy    <      49.13931205 Ry

     iteration #  4     ecut=    60.00 Ry     beta= 0.15
     Davidson diagonalization with overlap

---- Real-time Memory Report at c_bands before calling an iterative solver
             0 MiB given to the printing process from OS
             0 MiB allocation reported by mallinfo(arena+hblkhd)
        169833 MiB available memory on the node where the printing process lives
------------------
     ethr =  6.21E-03,  avg # of iterations =  1.0

     negative rho (up, down):  7.411E-01 0.000E+00

     total cpu time spent up to now is       61.4 secs

     total energy              =   -4401.65181263 Ry
     estimated scf accuracy    <      29.61044313 Ry

     iteration #  5     ecut=    60.00 Ry     beta= 0.15
     Davidson diagonalization with overlap

---- Real-time Memory Report at c_bands before calling an iterative solver
             0 MiB given to the printing process from OS
             0 MiB allocation reported by mallinfo(arena+hblkhd)
        169808 MiB available memory on the node where the printing process lives
------------------
     ethr =  6.21E-03,  avg # of iterations =  1.0

     negative rho (up, down):  7.471E-01 0.000E+00

     total cpu time spent up to now is       73.6 secs

     total energy              =   -4399.91937888 Ry
     estimated scf accuracy    <      44.03450508 Ry

     iteration #  6     ecut=    60.00 Ry     beta= 0.15
     Davidson diagonalization with overlap

---- Real-time Memory Report at c_bands before calling an iterative solver
             0 MiB given to the printing process from OS
             0 MiB allocation reported by mallinfo(arena+hblkhd)
        169794 MiB available memory on the node where the printing process lives
------------------
     ethr =  6.21E-03,  avg # of iterations =  1.0

     negative rho (up, down):  7.425E-01 0.000E+00

     total cpu time spent up to now is       85.7 secs

     total energy              =   -4400.66994649 Ry
     estimated scf accuracy    <      11.56293973 Ry

     iteration #  7     ecut=    60.00 Ry     beta= 0.15
     Davidson diagonalization with overlap

---- Real-time Memory Report at c_bands before calling an iterative solver
             0 MiB given to the printing process from OS
             0 MiB allocation reported by mallinfo(arena+hblkhd)
        169775 MiB available memory on the node where the printing process lives
------------------
     ethr =  2.72E-03,  avg # of iterations =  1.1

     negative rho (up, down):  7.446E-01 0.000E+00

     total cpu time spent up to now is       98.0 secs

     total energy              =   -4400.80413306 Ry
     estimated scf accuracy    <       4.10152401 Ry

     iteration #  8     ecut=    60.00 Ry     beta= 0.15
     Davidson diagonalization with overlap

---- Real-time Memory Report at c_bands before calling an iterative solver
             0 MiB given to the printing process from OS
             0 MiB allocation reported by mallinfo(arena+hblkhd)
        169750 MiB available memory on the node where the printing process lives
------------------
     ethr =  9.65E-04,  avg # of iterations =  1.5

     negative rho (up, down):  7.535E-01 0.000E+00

     total cpu time spent up to now is      110.5 secs

     total energy              =   -4400.36017542 Ry
     estimated scf accuracy    <       3.67894152 Ry

     iteration #  9     ecut=    60.00 Ry     beta= 0.15
     Davidson diagonalization with overlap

---- Real-time Memory Report at c_bands before calling an iterative solver
             0 MiB given to the printing process from OS
             0 MiB allocation reported by mallinfo(arena+hblkhd)
        169735 MiB available memory on the node where the printing process lives
------------------
     ethr =  8.66E-04,  avg # of iterations =  2.9

     negative rho (up, down):  7.762E-01 0.000E+00

     total cpu time spent up to now is      124.7 secs

     total energy              =   -4399.79425499 Ry
     estimated scf accuracy    <      43.29971466 Ry

     iteration # 10     ecut=    60.00 Ry     beta= 0.15
     Davidson diagonalization with overlap

---- Real-time Memory Report at c_bands before calling an iterative solver
             0 MiB given to the printing process from OS
             0 MiB allocation reported by mallinfo(arena+hblkhd)
        169653 MiB available memory on the node where the printing process lives
------------------
     ethr =  8.66E-04,  avg # of iterations =  9.2

     negative rho (up, down):  7.786E-01 0.000E+00

     total cpu time spent up to now is      142.8 secs

     total energy              =   -4399.80116062 Ry
     estimated scf accuracy    <      11.23141338 Ry

     iteration # 11     ecut=    60.00 Ry     beta= 0.15
     Davidson diagonalization with overlap

---- Real-time Memory Report at c_bands before calling an iterative solver
             0 MiB given to the printing process from OS
             0 MiB allocation reported by mallinfo(arena+hblkhd)
        169324 MiB available memory on the node where the printing process lives
------------------
     ethr =  8.66E-04,  avg # of iterations =  1.1

     negative rho (up, down):  7.816E-01 0.000E+00

     total cpu time spent up to now is      155.3 secs

     total energy              =   -4400.12699051 Ry
     estimated scf accuracy    <       1.11797412 Ry

     iteration # 12     ecut=    60.00 Ry     beta= 0.15
     Davidson diagonalization with overlap

---- Real-time Memory Report at c_bands before calling an iterative solver
             0 MiB given to the printing process from OS
             0 MiB allocation reported by mallinfo(arena+hblkhd)
        169316 MiB available memory on the node where the printing process lives
------------------
     ethr =  2.63E-04,  avg # of iterations =  2.5

     negative rho (up, down):  7.893E-01 0.000E+00

     total cpu time spent up to now is      169.1 secs

     total energy              =   -4400.10668973 Ry
     estimated scf accuracy    <       1.04928632 Ry

     iteration # 13     ecut=    60.00 Ry     beta= 0.15
     Davidson diagonalization with overlap

---- Real-time Memory Report at c_bands before calling an iterative solver
             0 MiB given to the printing process from OS
             0 MiB allocation reported by mallinfo(arena+hblkhd)
        169323 MiB available memory on the node where the printing process lives
------------------
     ethr =  2.47E-04,  avg # of iterations =  1.2

     negative rho (up, down):  8.001E-01 0.000E+00

     total cpu time spent up to now is      181.3 secs

     total energy              =   -4400.09968586 Ry
     estimated scf accuracy    <       1.91063550 Ry

     iteration # 14     ecut=    60.00 Ry     beta= 0.15
     Davidson diagonalization with overlap

---- Real-time Memory Report at c_bands before calling an iterative solver
             0 MiB given to the printing process from OS
             0 MiB allocation reported by mallinfo(arena+hblkhd)
        169324 MiB available memory on the node where the printing process lives
------------------
     ethr =  2.47E-04,  avg # of iterations =  6.3

     negative rho (up, down):  8.018E-01 0.000E+00

     total cpu time spent up to now is      197.6 secs

     total energy              =   -4400.01184367 Ry
     estimated scf accuracy    <       2.06436086 Ry

     iteration # 15     ecut=    60.00 Ry     beta= 0.15
     Davidson diagonalization with overlap

---- Real-time Memory Report at c_bands before calling an iterative solver
             0 MiB given to the printing process from OS
             0 MiB allocation reported by mallinfo(arena+hblkhd)
        169287 MiB available memory on the node where the printing process lives
------------------
     ethr =  2.47E-04,  avg # of iterations =  3.0

     negative rho (up, down):  8.070E-01 0.000E+00

     total cpu time spent up to now is      211.1 secs

     total energy              =   -4400.04350374 Ry
     estimated scf accuracy    <       0.38672487 Ry

     iteration # 16     ecut=    60.00 Ry     beta= 0.15
     Davidson diagonalization with overlap

---- Real-time Memory Report at c_bands before calling an iterative solver
             0 MiB given to the printing process from OS
             0 MiB allocation reported by mallinfo(arena+hblkhd)
        169284 MiB available memory on the node where the printing process lives
------------------
     c_bands:  1 eigenvalues not converged
     ethr =  9.10E-05,  avg # of iterations = 11.1

     negative rho (up, down):  8.131E-01 0.000E+00

     total cpu time spent up to now is      229.0 secs

     total energy              =   -4400.01661083 Ry
     estimated scf accuracy    <       0.31506929 Ry

     iteration # 17     ecut=    60.00 Ry     beta= 0.15
     Davidson diagonalization with overlap

---- Real-time Memory Report at c_bands before calling an iterative solver
             0 MiB given to the printing process from OS
             0 MiB allocation reported by mallinfo(arena+hblkhd)
        169238 MiB available memory on the node where the printing process lives
------------------
     c_bands:  1 eigenvalues not converged
     ethr =  7.41E-05,  avg # of iterations = 10.3

     negative rho (up, down):  8.177E-01 0.000E+00

     total cpu time spent up to now is      246.2 secs

     total energy              =   -4399.94890615 Ry
     estimated scf accuracy    <       0.31731842 Ry

     iteration # 18     ecut=    60.00 Ry     beta= 0.15
     Davidson diagonalization with overlap

---- Real-time Memory Report at c_bands before calling an iterative solver
             0 MiB given to the printing process from OS
             0 MiB allocation reported by mallinfo(arena+hblkhd)
        169300 MiB available memory on the node where the printing process lives
------------------
     ethr =  7.41E-05,  avg # of iterations =  8.2

     negative rho (up, down):  8.270E-01 0.000E+00

     total cpu time spent up to now is      263.0 secs

     total energy              =   -4399.93768670 Ry
     estimated scf accuracy    <       0.19419420 Ry

     iteration # 19     ecut=    60.00 Ry     beta= 0.15
     Davidson diagonalization with overlap

---- Real-time Memory Report at c_bands before calling an iterative solver
             0 MiB given to the printing process from OS
             0 MiB allocation reported by mallinfo(arena+hblkhd)
        169250 MiB available memory on the node where the printing process lives
------------------
     c_bands:  2 eigenvalues not converged
     ethr =  4.57E-05,  avg # of iterations =  5.3

     negative rho (up, down):  8.272E-01 0.000E+00

     total cpu time spent up to now is      278.8 secs

     total energy              =   -4399.94036955 Ry
     estimated scf accuracy    <       0.10873134 Ry

     iteration # 20     ecut=    60.00 Ry     beta= 0.15
     Davidson diagonalization with overlap

---- Real-time Memory Report at c_bands before calling an iterative solver
             0 MiB given to the printing process from OS
             0 MiB allocation reported by mallinfo(arena+hblkhd)
        169246 MiB available memory on the node where the printing process lives
------------------
     ethr =  2.56E-05,  avg # of iterations =  4.8

     negative rho (up, down):  8.156E-01 0.000E+00

     total cpu time spent up to now is      293.5 secs

     total energy              =   -4399.92347886 Ry
     estimated scf accuracy    <       0.09693378 Ry

     iteration # 21     ecut=    60.00 Ry     beta= 0.15
     Davidson diagonalization with overlap

---- Real-time Memory Report at c_bands before calling an iterative solver
             0 MiB given to the printing process from OS
             0 MiB allocation reported by mallinfo(arena+hblkhd)
        169238 MiB available memory on the node where the printing process lives
------------------
     ethr =  2.28E-05,  avg # of iterations =  9.1

     negative rho (up, down):  8.160E-01 0.000E+00

     total cpu time spent up to now is      311.0 secs

     total energy              =   -4399.92277332 Ry
     estimated scf accuracy    <       0.05061159 Ry

     iteration # 22     ecut=    60.00 Ry     beta= 0.15
     Davidson diagonalization with overlap

---- Real-time Memory Report at c_bands before calling an iterative solver
             0 MiB given to the printing process from OS
             0 MiB allocation reported by mallinfo(arena+hblkhd)
        169221 MiB available memory on the node where the printing process lives
------------------
     c_bands:  1 eigenvalues not converged
     ethr =  1.19E-05,  avg # of iterations = 11.5

     negative rho (up, down):  8.107E-01 0.000E+00

     total cpu time spent up to now is      328.9 secs

     total energy              =   -4399.92101536 Ry
     estimated scf accuracy    <       0.03759108 Ry

     iteration # 23     ecut=    60.00 Ry     beta= 0.15
     Davidson diagonalization with overlap

---- Real-time Memory Report at c_bands before calling an iterative solver
             0 MiB given to the printing process from OS
             0 MiB allocation reported by mallinfo(arena+hblkhd)
        169073 MiB available memory on the node where the printing process lives
------------------
     ethr =  8.84E-06,  avg # of iterations =  3.0

     negative rho (up, down):  7.936E-01 0.000E+00

     total cpu time spent up to now is      343.2 secs

     total energy              =   -4399.91452713 Ry
     estimated scf accuracy    <       0.03154215 Ry

     iteration # 24     ecut=    60.00 Ry     beta= 0.15
     Davidson diagonalization with overlap

---- Real-time Memory Report at c_bands before calling an iterative solver
             0 MiB given to the printing process from OS
             0 MiB allocation reported by mallinfo(arena+hblkhd)
        169104 MiB available memory on the node where the printing process lives
------------------
     ethr =  7.42E-06,  avg # of iterations = 10.3

     negative rho (up, down):  7.973E-01 0.000E+00

     total cpu time spent up to now is      361.8 secs

     total energy              =   -4399.91503196 Ry
     estimated scf accuracy    <       0.01298519 Ry

     iteration # 25     ecut=    60.00 Ry     beta= 0.15
     Davidson diagonalization with overlap

---- Real-time Memory Report at c_bands before calling an iterative solver
             0 MiB given to the printing process from OS
             0 MiB allocation reported by mallinfo(arena+hblkhd)
        169081 MiB available memory on the node where the printing process lives
------------------
     ethr =  3.06E-06,  avg # of iterations = 13.9

     negative rho (up, down):  7.959E-01 0.000E+00

     total cpu time spent up to now is      380.9 secs

     total energy              =   -4399.91509541 Ry
     estimated scf accuracy    <       0.00905072 Ry

     iteration # 26     ecut=    60.00 Ry     beta= 0.15
     Davidson diagonalization with overlap

---- Real-time Memory Report at c_bands before calling an iterative solver
             0 MiB given to the printing process from OS
             0 MiB allocation reported by mallinfo(arena+hblkhd)
        169079 MiB available memory on the node where the printing process lives
------------------
     ethr =  2.13E-06,  avg # of iterations =  2.9

     negative rho (up, down):  7.905E-01 0.000E+00

     total cpu time spent up to now is      395.1 secs

     total energy              =   -4399.91444542 Ry
     estimated scf accuracy    <       0.00697154 Ry

     iteration # 27     ecut=    60.00 Ry     beta= 0.15
     Davidson diagonalization with overlap

---- Real-time Memory Report at c_bands before calling an iterative solver
             0 MiB given to the printing process from OS
             0 MiB allocation reported by mallinfo(arena+hblkhd)
        169115 MiB available memory on the node where the printing process lives
------------------
     ethr =  1.64E-06,  avg # of iterations =  4.5

     negative rho (up, down):  7.922E-01 0.000E+00

     total cpu time spent up to now is      409.7 secs

     total energy              =   -4399.91394079 Ry
     estimated scf accuracy    <       0.00467347 Ry

     iteration # 28     ecut=    60.00 Ry     beta= 0.15
     Davidson diagonalization with overlap

---- Real-time Memory Report at c_bands before calling an iterative solver
             0 MiB given to the printing process from OS
             0 MiB allocation reported by mallinfo(arena+hblkhd)
        169123 MiB available memory on the node where the printing process lives
------------------
     ethr =  1.10E-06,  avg # of iterations =  7.8

     negative rho (up, down):  7.926E-01 0.000E+00

     total cpu time spent up to now is      426.5 secs

     total energy              =   -4399.91397570 Ry
     estimated scf accuracy    <       0.00215818 Ry

     iteration # 29     ecut=    60.00 Ry     beta= 0.15
     Davidson diagonalization with overlap

---- Real-time Memory Report at c_bands before calling an iterative solver
             0 MiB given to the printing process from OS
             0 MiB allocation reported by mallinfo(arena+hblkhd)
        169027 MiB available memory on the node where the printing process lives
------------------
     c_bands:  1 eigenvalues not converged
     ethr =  5.08E-07,  avg # of iterations =  9.8

     negative rho (up, down):  7.940E-01 0.000E+00

     total cpu time spent up to now is      443.6 secs

     total energy              =   -4399.91395738 Ry
     estimated scf accuracy    <       0.00102777 Ry

     iteration # 30     ecut=    60.00 Ry     beta= 0.15
     Davidson diagonalization with overlap

---- Real-time Memory Report at c_bands before calling an iterative solver
             0 MiB given to the printing process from OS
             0 MiB allocation reported by mallinfo(arena+hblkhd)
        169029 MiB available memory on the node where the printing process lives
------------------
     c_bands:  1 eigenvalues not converged
     ethr =  2.42E-07,  avg # of iterations = 10.4

     negative rho (up, down):  7.946E-01 0.000E+00

     total cpu time spent up to now is      461.1 secs

     total energy              =   -4399.91394732 Ry
     estimated scf accuracy    <       0.00052606 Ry

     iteration # 31     ecut=    60.00 Ry     beta= 0.15
     Davidson diagonalization with overlap

---- Real-time Memory Report at c_bands before calling an iterative solver
             0 MiB given to the printing process from OS
             0 MiB allocation reported by mallinfo(arena+hblkhd)
        169050 MiB available memory on the node where the printing process lives
------------------
     ethr =  1.24E-07,  avg # of iterations =  4.5

     negative rho (up, down):  7.943E-01 0.000E+00

     total cpu time spent up to now is      475.8 secs

     total energy              =   -4399.91395628 Ry
     estimated scf accuracy    <       0.00023344 Ry

     iteration # 32     ecut=    60.00 Ry     beta= 0.15
     Davidson diagonalization with overlap

---- Real-time Memory Report at c_bands before calling an iterative solver
             0 MiB given to the printing process from OS
             0 MiB allocation reported by mallinfo(arena+hblkhd)
        169055 MiB available memory on the node where the printing process lives
------------------
     ethr =  5.49E-08,  avg # of iterations =  1.2

     negative rho (up, down):  7.928E-01 0.000E+00

     total cpu time spent up to now is      488.0 secs

     total energy              =   -4399.91392056 Ry
     estimated scf accuracy    <       0.00015971 Ry

     iteration # 33     ecut=    60.00 Ry     beta= 0.15
     Davidson diagonalization with overlap

---- Real-time Memory Report at c_bands before calling an iterative solver
             0 MiB given to the printing process from OS
             0 MiB allocation reported by mallinfo(arena+hblkhd)
        169060 MiB available memory on the node where the printing process lives
------------------
     ethr =  3.76E-08,  avg # of iterations =  2.3

     negative rho (up, down):  7.926E-01 0.000E+00

     total cpu time spent up to now is      502.1 secs

     total energy              =   -4399.91393052 Ry
     estimated scf accuracy    <       0.00005315 Ry

     iteration # 34     ecut=    60.00 Ry     beta= 0.15
     Davidson diagonalization with overlap

---- Real-time Memory Report at c_bands before calling an iterative solver
             0 MiB given to the printing process from OS
             0 MiB allocation reported by mallinfo(arena+hblkhd)
        169080 MiB available memory on the node where the printing process lives
------------------
     ethr =  1.25E-08,  avg # of iterations =  2.1

     negative rho (up, down):  7.925E-01 0.000E+00

     total cpu time spent up to now is      515.8 secs

     total energy              =   -4399.91393015 Ry
     estimated scf accuracy    <       0.00002661 Ry

     iteration # 35     ecut=    60.00 Ry     beta= 0.15
     Davidson diagonalization with overlap

---- Real-time Memory Report at c_bands before calling an iterative solver
             0 MiB given to the printing process from OS
             0 MiB allocation reported by mallinfo(arena+hblkhd)
        169110 MiB available memory on the node where the printing process lives
------------------
     ethr =  6.26E-09,  avg # of iterations =  2.2

     negative rho (up, down):  7.923E-01 0.000E+00

     total cpu time spent up to now is      530.2 secs

     total energy              =   -4399.91393298 Ry
     estimated scf accuracy    <       0.00001486 Ry

     iteration # 36     ecut=    60.00 Ry     beta= 0.15
     Davidson diagonalization with overlap

---- Real-time Memory Report at c_bands before calling an iterative solver
             0 MiB given to the printing process from OS
             0 MiB allocation reported by mallinfo(arena+hblkhd)
        169117 MiB available memory on the node where the printing process lives
------------------
     ethr =  3.50E-09,  avg # of iterations =  2.0

     negative rho (up, down):  7.922E-01 0.000E+00

     total cpu time spent up to now is      543.7 secs

     total energy              =   -4399.91393516 Ry
     estimated scf accuracy    <       0.00000727 Ry

     iteration # 37     ecut=    60.00 Ry     beta= 0.15
     Davidson diagonalization with overlap

---- Real-time Memory Report at c_bands before calling an iterative solver
             0 MiB given to the printing process from OS
             0 MiB allocation reported by mallinfo(arena+hblkhd)
        169118 MiB available memory on the node where the printing process lives
------------------
     ethr =  1.71E-09,  avg # of iterations =  2.9

     negative rho (up, down):  7.923E-01 0.000E+00

     total cpu time spent up to now is      558.0 secs

     total energy              =   -4399.91393580 Ry
     estimated scf accuracy    <       0.00000442 Ry

     iteration # 38     ecut=    60.00 Ry     beta= 0.15
     Davidson diagonalization with overlap

---- Real-time Memory Report at c_bands before calling an iterative solver
             0 MiB given to the printing process from OS
             0 MiB allocation reported by mallinfo(arena+hblkhd)
        169149 MiB available memory on the node where the printing process lives
------------------
     ethr =  1.04E-09,  avg # of iterations =  2.2

     negative rho (up, down):  7.924E-01 0.000E+00

     total cpu time spent up to now is      571.8 secs

     total energy              =   -4399.91393627 Ry
     estimated scf accuracy    <       0.00000240 Ry

     iteration # 39     ecut=    60.00 Ry     beta= 0.15
     Davidson diagonalization with overlap

---- Real-time Memory Report at c_bands before calling an iterative solver
             0 MiB given to the printing process from OS
             0 MiB allocation reported by mallinfo(arena+hblkhd)
        169173 MiB available memory on the node where the printing process lives
------------------
     ethr =  5.65E-10,  avg # of iterations =  2.2

     negative rho (up, down):  7.925E-01 0.000E+00

     total cpu time spent up to now is      585.5 secs

     total energy              =   -4399.91393625 Ry
     estimated scf accuracy    <       0.00000114 Ry

     iteration # 40     ecut=    60.00 Ry     beta= 0.15
     Davidson diagonalization with overlap

---- Real-time Memory Report at c_bands before calling an iterative solver
             0 MiB given to the printing process from OS
             0 MiB allocation reported by mallinfo(arena+hblkhd)
        169175 MiB available memory on the node where the printing process lives
------------------
     ethr =  2.68E-10,  avg # of iterations =  2.8

     negative rho (up, down):  7.925E-01 0.000E+00

     total cpu time spent up to now is      599.4 secs

     total energy              =   -4399.91393625 Ry
     estimated scf accuracy    <       0.00000070 Ry

     iteration # 41     ecut=    60.00 Ry     beta= 0.15
     Davidson diagonalization with overlap

---- Real-time Memory Report at c_bands before calling an iterative solver
             0 MiB given to the printing process from OS
             0 MiB allocation reported by mallinfo(arena+hblkhd)
        169183 MiB available memory on the node where the printing process lives
------------------
     ethr =  1.65E-10,  avg # of iterations =  2.3

     negative rho (up, down):  7.925E-01 0.000E+00

     total cpu time spent up to now is      613.2 secs

     total energy              =   -4399.91393621 Ry
     estimated scf accuracy    <       0.00000044 Ry

     iteration # 42     ecut=    60.00 Ry     beta= 0.15
     Davidson diagonalization with overlap

---- Real-time Memory Report at c_bands before calling an iterative solver
             0 MiB given to the printing process from OS
             0 MiB allocation reported by mallinfo(arena+hblkhd)
        169185 MiB available memory on the node where the printing process lives
------------------
     ethr =  1.03E-10,  avg # of iterations =  2.3

     negative rho (up, down):  7.925E-01 0.000E+00

     total cpu time spent up to now is      626.7 secs

     total energy              =   -4399.91393620 Ry
     estimated scf accuracy    <       0.00000038 Ry

     iteration # 43     ecut=    60.00 Ry     beta= 0.15
     Davidson diagonalization with overlap

---- Real-time Memory Report at c_bands before calling an iterative solver
             0 MiB given to the printing process from OS
             0 MiB allocation reported by mallinfo(arena+hblkhd)
        169192 MiB available memory on the node where the printing process lives
------------------
     ethr =  8.85E-11,  avg # of iterations =  2.2

     negative rho (up, down):  7.925E-01 0.000E+00

     total cpu time spent up to now is      640.3 secs

     total energy              =   -4399.91393624 Ry
     estimated scf accuracy    <       0.00000029 Ry

     iteration # 44     ecut=    60.00 Ry     beta= 0.15
     Davidson diagonalization with overlap

---- Real-time Memory Report at c_bands before calling an iterative solver
             0 MiB given to the printing process from OS
             0 MiB allocation reported by mallinfo(arena+hblkhd)
        169191 MiB available memory on the node where the printing process lives
------------------
     ethr =  6.73E-11,  avg # of iterations =  1.2

     negative rho (up, down):  7.925E-01 0.000E+00

     total cpu time spent up to now is      652.7 secs

     total energy              =   -4399.91393627 Ry
     estimated scf accuracy    <       0.00000029 Ry

     iteration # 45     ecut=    60.00 Ry     beta= 0.15
     Davidson diagonalization with overlap

---- Real-time Memory Report at c_bands before calling an iterative solver
             0 MiB given to the printing process from OS
             0 MiB allocation reported by mallinfo(arena+hblkhd)
        169201 MiB available memory on the node where the printing process lives
------------------
     ethr =  6.73E-11,  avg # of iterations =  1.7

     negative rho (up, down):  7.924E-01 0.000E+00

     total cpu time spent up to now is      666.3 secs

     total energy              =   -4399.91393630 Ry
     estimated scf accuracy    <       0.00000026 Ry

     iteration # 46     ecut=    60.00 Ry     beta= 0.15
     Davidson diagonalization with overlap

---- Real-time Memory Report at c_bands before calling an iterative solver
             0 MiB given to the printing process from OS
             0 MiB allocation reported by mallinfo(arena+hblkhd)
        169203 MiB available memory on the node where the printing process lives
------------------
     ethr =  6.10E-11,  avg # of iterations =  2.1

     negative rho (up, down):  7.924E-01 0.000E+00

     total cpu time spent up to now is      679.9 secs

     total energy              =   -4399.91393633 Ry
     estimated scf accuracy    <       0.00000013 Ry

     iteration # 47     ecut=    60.00 Ry     beta= 0.15
     Davidson diagonalization with overlap

---- Real-time Memory Report at c_bands before calling an iterative solver
             0 MiB given to the printing process from OS
             0 MiB allocation reported by mallinfo(arena+hblkhd)
        169205 MiB available memory on the node where the printing process lives
------------------
     ethr =  3.15E-11,  avg # of iterations =  2.8

     negative rho (up, down):  7.924E-01 0.000E+00

     total cpu time spent up to now is      693.7 secs

     total energy              =   -4399.91393633 Ry
     estimated scf accuracy    <       0.00000008 Ry

     iteration # 48     ecut=    60.00 Ry     beta= 0.15
     Davidson diagonalization with overlap

---- Real-time Memory Report at c_bands before calling an iterative solver
             0 MiB given to the printing process from OS
             0 MiB allocation reported by mallinfo(arena+hblkhd)
        169211 MiB available memory on the node where the printing process lives
------------------
     ethr =  1.91E-11,  avg # of iterations =  1.8

     negative rho (up, down):  7.924E-01 0.000E+00

     total cpu time spent up to now is      707.1 secs

     total energy              =   -4399.91393636 Ry
     estimated scf accuracy    <       0.00000004 Ry

     iteration # 49     ecut=    60.00 Ry     beta= 0.15
     Davidson diagonalization with overlap

---- Real-time Memory Report at c_bands before calling an iterative solver
             0 MiB given to the printing process from OS
             0 MiB allocation reported by mallinfo(arena+hblkhd)
        169209 MiB available memory on the node where the printing process lives
------------------
     ethr =  9.77E-12,  avg # of iterations =  3.1

     negative rho (up, down):  7.924E-01 0.000E+00

     total cpu time spent up to now is      721.1 secs

     total energy              =   -4399.91393637 Ry
     estimated scf accuracy    <       0.00000003 Ry

     iteration # 50     ecut=    60.00 Ry     beta= 0.15
     Davidson diagonalization with overlap

---- Real-time Memory Report at c_bands before calling an iterative solver
             0 MiB given to the printing process from OS
             0 MiB allocation reported by mallinfo(arena+hblkhd)
        169214 MiB available memory on the node where the printing process lives
------------------
     ethr =  7.09E-12,  avg # of iterations =  2.3

     negative rho (up, down):  7.924E-01 0.000E+00

     total cpu time spent up to now is      734.4 secs

     End of self-consistent calculation

          k = 0.0000 0.0000 0.0000 ( 65197 PWs)   bands (ev):

   -92.7126 -92.6585 -92.5664 -92.5185 -92.4591 -92.4188 -92.4019 -92.2771
   -56.0661 -56.0452 -55.9238 -55.9133 -55.9063 -55.9002 -55.8637 -55.8357
   -55.8206 -55.8182 -55.8088 -55.7672 -55.7488 -55.7106 -55.6927 -55.6590
   -55.6542 -55.6075 -55.6042 -55.6031 -55.5957 -55.5501 -55.5322 -55.4456
   -31.2888 -31.2698 -31.1276 -31.0414 -31.0275 -30.9548 -30.9533 -30.8440
   -29.8606 -29.8178 -29.7914 -29.6838 -15.0935 -15.0555 -14.9703 -14.8401
   -14.6518 -14.5292 -14.2321 -14.2121 -14.1833 -14.1369 -14.0945 -14.0866
   -14.0728 -14.0554 -14.0370 -13.9901 -13.9427 -13.7926 -13.6191 -13.5810
   -13.5502 -13.5209 -13.5035 -13.4511 -13.4161 -13.3334 -13.2621 -13.1439
   -13.1217 -13.1106 -13.0865 -13.0685 -13.0675 -13.0254 -13.0133 -13.0024
   -12.9664 -12.9349 -12.9157 -12.8824 -12.8660 -12.8617 -12.8234 -12.8129
   -12.7944 -12.7715 -12.7275 -12.7162 -12.3537 -12.2081 -12.0688 -11.9982
   -11.8745 -11.8001 -11.7888 -11.7667 -11.7490 -11.6853 -11.6678 -11.6333
   -11.6037 -11.4931 -11.4127 -11.4091  -2.9548  -2.7219  -2.4922  -2.3463
    -2.2825  -2.1399  -1.8334  -1.8193  -1.7986  -1.7159  -1.6964  -1.6281
    -1.6121  -1.5706  -1.5245  -1.3451  -1.1215  -1.0924  -0.9429  -0.9289
    -0.8850  -0.8656  -0.8207  -0.8048  -0.7465  -0.7199  -0.6499  -0.6369
    -0.5592  -0.4286  -0.4149  -0.3871  -0.3058  -0.2978  -0.2843  -0.2130
    -0.1418  -0.1065  -0.0456  -0.0212   0.0366   0.1210   0.1670   0.1907
     0.1988   0.4555   0.4700   0.6428   0.7091   0.7734   0.8183   0.9094
     0.9235   0.9410   1.0079   1.0351   1.0695   1.1279   1.2609   1.3167
     1.3383   1.3582   1.3689   1.4360   1.5095   1.6099   1.6223   1.6839
     1.7004   1.7417   1.7621   1.7675   1.8235   1.8755   1.8884   1.9215
     1.9599   2.0110   2.1431   2.2235   2.2700   2.2926   2.4382   2.4535
     2.4957   2.5010   2.6008   2.6436   2.6675   2.6874   2.7035   2.7680
     2.8175   2.8935   2.9258   2.9392   2.9462   3.0128   3.0165   3.0417
     3.0494   3.0580   3.0748   3.0772   3.0917   3.0953   3.1128   3.1180
     3.1249   3.1445   3.1656   3.1713   3.1828   3.2125   3.3237   3.4341
     4.1016   4.4124   4.7561   4.8639   5.0245   5.8335   5.9183   5.9772
     6.0268   6.3031   6.3496   6.4785   6.4889   6.7337   7.0035   7.0917
     7.1306   7.2283   7.3055   7.5825   7.6384   7.6543   7.6835   7.9337
     8.0105   8.1073   8.1263   8.1814   8.5335   8.6674   8.7028   8.8598

     occupation numbers 
     1.0000   1.0000   1.0000   1.0000   1.0000   1.0000   1.0000   1.0000
     1.0000   1.0000   1.0000   1.0000   1.0000   1.0000   1.0000   1.0000
     1.0000   1.0000   1.0000   1.0000   1.0000   1.0000   1.0000   1.0000
     1.0000   1.0000   1.0000   1.0000   1.0000   1.0000   1.0000   1.0000
     1.0000   1.0000   1.0000   1.0000   1.0000   1.0000   1.0000   1.0000
     1.0000   1.0000   1.0000   1.0000   1.0000   1.0000   1.0000   1.0000
     1.0000   1.0000   1.0000   1.0000   1.0000   1.0000   1.0000   1.0000
     1.0000   1.0000   1.0000   1.0000   1.0000   1.0000   1.0000   1.0000
     1.0000   1.0000   1.0000   1.0000   1.0000   1.0000   1.0000   1.0000
     1.0000   1.0000   1.0000   1.0000   1.0000   1.0000   1.0000   1.0000
     1.0000   1.0000   1.0000   1.0000   1.0000   1.0000   1.0000   1.0000
     1.0000   1.0000   1.0000   1.0000   1.0000   1.0000   1.0000   1.0000
     1.0000   1.0000   1.0000   1.0000   1.0000   1.0000   1.0000   1.0000
     1.0000   1.0000   1.0000   1.0000   1.0000   1.0000   1.0000   1.0000
     1.0000   1.0000   1.0000   1.0000   1.0000   1.0000   1.0000   1.0000
     1.0000   1.0000   1.0000   1.0000   1.0000   1.0000   1.0000   1.0000
     1.0000   1.0000   1.0000   1.0000   1.0000   1.0000   1.0000   1.0000
     1.0000   1.0000   1.0000   1.0000   1.0000   1.0000   1.0000   1.0000
     1.0000   1.0000   1.0000   1.0000   1.0000   1.0000   1.0000   1.0000
     1.0000   1.0000   1.0000   1.0000   0.9999   0.9999   0.9999   0.9998
     0.9998   0.9998   0.9997   0.9996   0.9996   0.9994   0.9989   0.9985
     0.9983   0.9982   0.9981   0.9974   0.9963   0.9943   0.9940   0.9923
     0.9917   0.9903   0.9894   0.9892   0.9866   0.9837   0.9829   0.9807
     0.9779   0.9736   0.9591   0.9475   0.9396   0.9355   0.9036   0.8996
     0.8881   0.8866   0.8556   0.8406   0.8319   0.8243   0.8181   0.7917
     0.7700   0.7344   0.7184   0.7116   0.7081   0.6732   0.6712   0.6576
     0.6534   0.6486   0.6393   0.6380   0.6299   0.6279   0.6181   0.6151
     0.6112   0.6000   0.5878   0.5845   0.5779   0.5605   0.4949   0.4299
     0.1214   0.0516   0.0162   0.0107   0.0056   0.0001   0.0001   0.0000
     0.0000   0.0000   0.0000   0.0000   0.0000   0.0000   0.0000   0.0000
     0.0000   0.0000   0.0000   0.0000   0.0000   0.0000   0.0000   0.0000
     0.0000   0.0000   0.0000   0.0000   0.0000   0.0000   0.0000   0.0000

          k = 0.0000 0.2500 0.0000 ( 65257 PWs)   bands (ev):

   -92.7126 -92.6585 -92.5664 -92.5185 -92.4591 -92.4188 -92.4019 -92.2771
   -56.0661 -56.0452 -55.9238 -55.9133 -55.9063 -55.9002 -55.8637 -55.8357
   -55.8206 -55.8182 -55.8088 -55.7672 -55.7488 -55.7106 -55.6927 -55.6590
   -55.6542 -55.6075 -55.6042 -55.6031 -55.5957 -55.5501 -55.5322 -55.4456
   -31.2886 -31.2696 -31.1278 -31.0415 -31.0271 -30.9545 -30.9537 -30.8443
   -29.8600 -29.8175 -29.7920 -29.6841 -15.0566 -15.0295 -14.9453 -14.8108
   -14.6923 -14.5187 -14.3780 -14.1977 -14.1654 -14.1419 -14.1129 -14.0581
   -14.0508 -14.0381 -14.0192 -13.9687 -13.8624 -13.8238 -13.6599 -13.6442
   -13.5909 -13.5561 -13.5134 -13.4681 -13.4289 -13.3546 -13.3190 -13.2553
   -13.1972 -13.1589 -13.1199 -13.1026 -13.0527 -12.9991 -12.9749 -12.9461
   -12.9255 -12.9121 -12.8795 -12.8690 -12.8354 -12.8193 -12.8067 -12.7770
   -12.7639 -12.7327 -12.6369 -12.5499 -12.4151 -12.2594 -12.1253 -12.0655
   -11.8401 -11.7969 -11.7691 -11.7408 -11.7243 -11.6772 -11.6657 -11.6429
   -11.6090 -11.5074 -11.4544 -11.4438  -2.8196  -2.5976  -2.4602  -2.2783
    -2.2347  -2.0705  -1.8522  -1.7665  -1.7535  -1.6971  -1.5938  -1.5782
    -1.5432  -1.5176  -1.4739  -1.2762  -1.1479  -1.1361  -1.0596  -1.0493
    -0.9446  -0.9138  -0.8574  -0.8325  -0.7906  -0.7276  -0.7014  -0.6690
    -0.6378  -0.6209  -0.5880  -0.5138  -0.4626  -0.4000  -0.2878  -0.2691
    -0.2255  -0.1082  -0.0749  -0.0084   0.0387   0.1043   0.1183   0.1468
     0.2032   0.5018   0.5906   0.6198   0.7104   0.7557   0.7755   0.8973
     0.9148   1.0093   1.0348   1.0624   1.1777   1.2675   1.2926   1.3151
     1.3341   1.3614   1.4210   1.4485   1.4754   1.5241   1.5575   1.5866
     1.6658   1.6984   1.7381   1.7907   1.8438   1.8832   1.9120   1.9403
     1.9600   2.0461   2.1765   2.2500   2.2742   2.3466   2.3929   2.4307
     2.4409   2.5015   2.5423   2.6173   2.6594   2.6796   2.7941   2.8537
     2.8837   2.9075   2.9305   2.9484   2.9564   2.9622   2.9735   3.0018
     3.0031   3.0230   3.0280   3.0393   3.0553   3.0714   3.0761   3.0973
     3.1066   3.1117   3.1462   3.1632   3.2271   3.5874   3.6432   3.8718
     4.2906   4.4115   4.6922   5.0133   5.0569   5.6251   5.7655   5.9309
     5.9653   6.0787   6.1155   6.1758   6.5960   6.8548   6.9058   7.1079
     7.3251   7.3851   7.4754   7.4905   7.6369   7.7185   7.7871   8.0178
     8.0521   8.0941   8.1644   8.3055   8.4011   8.6039   8.7890   8.8575

     occupation numbers 
     1.0000   1.0000   1.0000   1.0000   1.0000   1.0000   1.0000   1.0000
     1.0000   1.0000   1.0000   1.0000   1.0000   1.0000   1.0000   1.0000
     1.0000   1.0000   1.0000   1.0000   1.0000   1.0000   1.0000   1.0000
     1.0000   1.0000   1.0000   1.0000   1.0000   1.0000   1.0000   1.0000
     1.0000   1.0000   1.0000   1.0000   1.0000   1.0000   1.0000   1.0000
     1.0000   1.0000   1.0000   1.0000   1.0000   1.0000   1.0000   1.0000
     1.0000   1.0000   1.0000   1.0000   1.0000   1.0000   1.0000   1.0000
     1.0000   1.0000   1.0000   1.0000   1.0000   1.0000   1.0000   1.0000
     1.0000   1.0000   1.0000   1.0000   1.0000   1.0000   1.0000   1.0000
     1.0000   1.0000   1.0000   1.0000   1.0000   1.0000   1.0000   1.0000
     1.0000   1.0000   1.0000   1.0000   1.0000   1.0000   1.0000   1.0000
     1.0000   1.0000   1.0000   1.0000   1.0000   1.0000   1.0000   1.0000
     1.0000   1.0000   1.0000   1.0000   1.0000   1.0000   1.0000   1.0000
     1.0000   1.0000   1.0000   1.0000   1.0000   1.0000   1.0000   1.0000
     1.0000   1.0000   1.0000   1.0000   1.0000   1.0000   1.0000   1.0000
     1.0000   1.0000   1.0000   1.0000   1.0000   1.0000   1.0000   1.0000
     1.0000   1.0000   1.0000   1.0000   1.0000   1.0000   1.0000   1.0000
     1.0000   1.0000   1.0000   1.0000   1.0000   1.0000   1.0000   1.0000
     1.0000   1.0000   1.0000   1.0000   1.0000   1.0000   1.0000   1.0000
     1.0000   1.0000   1.0000   1.0000   0.9999   0.9999   0.9999   0.9998
     0.9998   0.9997   0.9996   0.9996   0.9992   0.9988   0.9987   0.9985
     0.9984   0.9981   0.9975   0.9972   0.9968   0.9961   0.9955   0.9949
     0.9928   0.9918   0.9904   0.9882   0.9855   0.9833   0.9814   0.9794
     0.9779   0.9702   0.9545   0.9431   0.9389   0.9248   0.9145   0.9054
     0.9029   0.8865   0.8744   0.8499   0.8349   0.8273   0.7804   0.7533
     0.7391   0.7275   0.7160   0.7069   0.7029   0.6999   0.6940   0.6791
     0.6784   0.6678   0.6650   0.6589   0.6501   0.6413   0.6386   0.6268
     0.6215   0.6186   0.5990   0.5892   0.5520   0.3430   0.3131   0.2042
     0.0737   0.0518   0.0204   0.0058   0.0048   0.0003   0.0001   0.0001
     0.0000   0.0000   0.0000   0.0000   0.0000   0.0000   0.0000   0.0000
     0.0000   0.0000   0.0000   0.0000   0.0000   0.0000   0.0000   0.0000
     0.0000   0.0000   0.0000   0.0000   0.0000   0.0000   0.0000   0.0000

          k = 0.0000-0.5000 0.0000 ( 65180 PWs)   bands (ev):

   -92.7126 -92.6585 -92.5664 -92.5185 -92.4591 -92.4188 -92.4019 -92.2771
   -56.0661 -56.0452 -55.9238 -55.9133 -55.9063 -55.9002 -55.8637 -55.8357
   -55.8206 -55.8182 -55.8088 -55.7672 -55.7488 -55.7106 -55.6927 -55.6590
   -55.6542 -55.6075 -55.6042 -55.6031 -55.5957 -55.5501 -55.5322 -55.4456
   -31.2884 -31.2695 -31.1280 -31.0416 -31.0267 -30.9543 -30.9541 -30.8446
   -29.8594 -29.8172 -29.7927 -29.6845 -15.0240 -14.9751 -14.9229 -14.7958
   -14.7092 -14.5720 -14.4219 -14.2980 -14.1691 -14.0975 -14.0576 -14.0498
   -14.0014 -13.9834 -13.9357 -13.9169 -13.8909 -13.8551 -13.8239 -13.7830
   -13.5952 -13.5380 -13.5212 -13.4680 -13.4281 -13.3703 -13.3287 -13.2943
   -13.2825 -13.2290 -13.1207 -13.1035 -13.0391 -12.9832 -12.9793 -12.9645
   -12.9401 -12.8932 -12.8698 -12.8318 -12.8132 -12.7699 -12.7571 -12.7315
   -12.7166 -12.6632 -12.5261 -12.4876 -12.3345 -12.3248 -12.2355 -12.1907
   -11.7939 -11.7917 -11.7641 -11.7265 -11.6922 -11.6810 -11.6388 -11.6349
   -11.5909 -11.5289 -11.5152 -11.5010  -2.6052  -2.5452  -2.3946  -2.3222
    -2.0417  -1.9572  -1.8305  -1.6923  -1.6567  -1.6362  -1.5564  -1.5257
    -1.4445  -1.4088  -1.3325  -1.2915  -1.2527  -1.2256  -1.1696  -1.1306
    -1.0856  -1.0482  -1.0151  -0.9814  -0.8709  -0.8260  -0.7921  -0.7912
    -0.7053  -0.6716  -0.6501  -0.6007  -0.5163  -0.4454  -0.3638  -0.3378
    -0.2302  -0.1842  -0.0415  -0.0083   0.0192   0.0804   0.1957   0.2438
     0.3799   0.4468   0.4537   0.5822   0.6251   0.7368   0.8597   0.9694
     0.9999   1.0369   1.0411   1.0840   1.0983   1.1354   1.1514   1.1623
     1.2712   1.3328   1.3611   1.3867   1.6462   1.6790   1.6963   1.7977
     1.8195   1.8503   1.8659   1.8971   1.9067   1.9216   1.9514   1.9886
     2.0184   2.0451   2.0548   2.0850   2.1387   2.2186   2.2469   2.4337
     2.5906   2.5999   2.6089   2.6523   2.6564   2.6686   2.7186   2.7320
     2.7777   2.7921   2.8223   2.8929   2.9007   2.9651   2.9836   2.9974
     2.9997   3.0189   3.0262   3.0295   3.0311   3.0381   3.0593   3.0662
     3.0816   3.1313   3.1405   3.1526   3.2066   4.1193   4.1484   4.1630
     4.2428   4.7403   4.8845   5.0200   5.1387   5.4076   5.4551   5.5835
     5.6891   5.9877   6.0327   6.0400   6.7325   6.8523   6.9477   7.2165
     7.3186   7.3420   7.4092   7.4667   7.7436   7.8373   7.8568   7.8996
     8.1012   8.1683   8.4156   8.4961   8.6604   8.7056   8.8047   8.8478

     occupation numbers 
     1.0000   1.0000   1.0000   1.0000   1.0000   1.0000   1.0000   1.0000
     1.0000   1.0000   1.0000   1.0000   1.0000   1.0000   1.0000   1.0000
     1.0000   1.0000   1.0000   1.0000   1.0000   1.0000   1.0000   1.0000
     1.0000   1.0000   1.0000   1.0000   1.0000   1.0000   1.0000   1.0000
     1.0000   1.0000   1.0000   1.0000   1.0000   1.0000   1.0000   1.0000
     1.0000   1.0000   1.0000   1.0000   1.0000   1.0000   1.0000   1.0000
     1.0000   1.0000   1.0000   1.0000   1.0000   1.0000   1.0000   1.0000
     1.0000   1.0000   1.0000   1.0000   1.0000   1.0000   1.0000   1.0000
     1.0000   1.0000   1.0000   1.0000   1.0000   1.0000   1.0000   1.0000
     1.0000   1.0000   1.0000   1.0000   1.0000   1.0000   1.0000   1.0000
     1.0000   1.0000   1.0000   1.0000   1.0000   1.0000   1.0000   1.0000
     1.0000   1.0000   1.0000   1.0000   1.0000   1.0000   1.0000   1.0000
     1.0000   1.0000   1.0000   1.0000   1.0000   1.0000   1.0000   1.0000
     1.0000   1.0000   1.0000   1.0000   1.0000   1.0000   1.0000   1.0000
     1.0000   1.0000   1.0000   1.0000   1.0000   1.0000   1.0000   1.0000
     1.0000   1.0000   1.0000   1.0000   1.0000   1.0000   1.0000   1.0000
     1.0000   1.0000   1.0000   1.0000   1.0000   1.0000   1.0000   1.0000
     1.0000   1.0000   1.0000   1.0000   1.0000   1.0000   1.0000   1.0000
     1.0000   1.0000   1.0000   1.0000   1.0000   1.0000   1.0000   1.0000
     1.0000   1.0000   1.0000   1.0000   1.0000   0.9999   0.9999   0.9998
     0.9997   0.9996   0.9996   0.9995   0.9995   0.9994   0.9993   0.9993
     0.9988   0.9984   0.9981   0.9979   0.9934   0.9924   0.9919   0.9879
     0.9868   0.9852   0.9843   0.9824   0.9817   0.9807   0.9786   0.9756
     0.9729   0.9703   0.9694   0.9661   0.9597   0.9482   0.9436   0.9047
     0.8590   0.8559   0.8528   0.8375   0.8360   0.8314   0.8121   0.8067
     0.7876   0.7813   0.7678   0.7346   0.7308   0.6983   0.6887   0.6814
     0.6802   0.6700   0.6660   0.6643   0.6634   0.6596   0.6480   0.6441
     0.6356   0.6075   0.6023   0.5953   0.5640   0.1162   0.1080   0.1040
     0.0842   0.0172   0.0099   0.0057   0.0034   0.0009   0.0007   0.0004
     0.0002   0.0000   0.0000   0.0000   0.0000   0.0000   0.0000   0.0000
     0.0000   0.0000   0.0000   0.0000   0.0000   0.0000   0.0000   0.0000
     0.0000   0.0000   0.0000   0.0000   0.0000   0.0000   0.0000   0.0000

          k = 0.2500 0.2500 0.0000 ( 65198 PWs)   bands (ev):

   -92.7126 -92.6585 -92.5664 -92.5185 -92.4591 -92.4188 -92.4019 -92.2771
   -56.0661 -56.0452 -55.9238 -55.9133 -55.9063 -55.9002 -55.8637 -55.8357
   -55.8206 -55.8182 -55.8088 -55.7672 -55.7488 -55.7106 -55.6927 -55.6590
   -55.6542 -55.6074 -55.6042 -55.6031 -55.5957 -55.5501 -55.5322 -55.4456
   -31.2869 -31.2714 -31.1275 -31.0419 -31.0267 -30.9550 -30.9535 -30.8446
   -29.8590 -29.8185 -29.7916 -29.6846 -15.0285 -14.9945 -14.9174 -14.8003
   -14.6838 -14.5591 -14.4830 -14.2785 -14.1208 -14.1080 -14.0727 -14.0436
   -14.0226 -13.9990 -13.9657 -13.9294 -13.8532 -13.8375 -13.6752 -13.6624
   -13.6335 -13.6124 -13.5681 -13.5231 -13.4678 -13.4378 -13.3186 -13.2797
   -13.2404 -13.1535 -13.1127 -13.0612 -13.0303 -13.0031 -12.9878 -12.9584
   -12.9317 -12.9215 -12.8932 -12.8408 -12.8101 -12.7877 -12.7577 -12.7515
   -12.7445 -12.7247 -12.5601 -12.4636 -12.4374 -12.2885 -12.1566 -12.1158
   -11.8122 -11.7806 -11.7697 -11.7621 -11.7003 -11.6649 -11.6587 -11.6234
   -11.6148 -11.5241 -11.4826 -11.4652  -2.6814  -2.4719  -2.3541  -2.2607
    -2.1391  -2.0738  -1.8771  -1.7318  -1.7116  -1.6837  -1.5888  -1.5531
    -1.4605  -1.4338  -1.3833  -1.2514  -1.2042  -1.1315  -1.0863  -1.0422
    -1.0178  -0.9930  -0.9507  -0.9356  -0.8452  -0.7953  -0.7317  -0.6818
    -0.6520  -0.6005  -0.5883  -0.5250  -0.4754  -0.4204  -0.3839  -0.3000
    -0.2471  -0.2182  -0.1780  -0.1228  -0.0552  -0.0129   0.0137   0.0855
     0.1281   0.3941   0.5402   0.5781   0.6318   0.6757   0.7366   0.7876
     0.8482   0.8849   1.1579   1.2261   1.2995   1.3254   1.3724   1.4055
     1.4400   1.4768   1.4948   1.5226   1.5641   1.5743   1.5900   1.6336
     1.6753   1.7137   1.7637   1.8070   1.8134   1.8491   1.8833   1.9415
     1.9646   2.0905   2.1589   2.1953   2.2229   2.2878   2.3542   2.3822
     2.4190   2.4424   2.4549   2.5621   2.6032   2.6922   2.8098   2.8685
     2.8819   2.8876   2.9035   2.9194   2.9324   2.9436   2.9506   2.9623
     2.9746   2.9881   3.0076   3.0131   3.0251   3.0453   3.0576   3.0667
     3.0995   3.3998   3.4941   3.5337   3.6017   3.6470   3.8512   3.9429
     4.2912   4.5028   4.7026   4.9664   5.1667   5.6338   5.6828   5.7345
     5.8233   5.8832   6.0374   6.1534   6.2211   6.7141   6.8948   7.0629
     7.1854   7.5459   7.5957   7.6986   7.7280   7.8610   7.9276   8.1029
     8.1527   8.1820   8.3102   8.3248   8.4367   8.4780   8.6656   8.8763

     occupation numbers 
     1.0000   1.0000   1.0000   1.0000   1.0000   1.0000   1.0000   1.0000
     1.0000   1.0000   1.0000   1.0000   1.0000   1.0000   1.0000   1.0000
     1.0000   1.0000   1.0000   1.0000   1.0000   1.0000   1.0000   1.0000
     1.0000   1.0000   1.0000   1.0000   1.0000   1.0000   1.0000   1.0000
     1.0000   1.0000   1.0000   1.0000   1.0000   1.0000   1.0000   1.0000
     1.0000   1.0000   1.0000   1.0000   1.0000   1.0000   1.0000   1.0000
     1.0000   1.0000   1.0000   1.0000   1.0000   1.0000   1.0000   1.0000
     1.0000   1.0000   1.0000   1.0000   1.0000   1.0000   1.0000   1.0000
     1.0000   1.0000   1.0000   1.0000   1.0000   1.0000   1.0000   1.0000
     1.0000   1.0000   1.0000   1.0000   1.0000   1.0000   1.0000   1.0000
     1.0000   1.0000   1.0000   1.0000   1.0000   1.0000   1.0000   1.0000
     1.0000   1.0000   1.0000   1.0000   1.0000   1.0000   1.0000   1.0000
     1.0000   1.0000   1.0000   1.0000   1.0000   1.0000   1.0000   1.0000
     1.0000   1.0000   1.0000   1.0000   1.0000   1.0000   1.0000   1.0000
     1.0000   1.0000   1.0000   1.0000   1.0000   1.0000   1.0000   1.0000
     1.0000   1.0000   1.0000   1.0000   1.0000   1.0000   1.0000   1.0000
     1.0000   1.0000   1.0000   1.0000   1.0000   1.0000   1.0000   1.0000
     1.0000   1.0000   1.0000   1.0000   1.0000   1.0000   1.0000   1.0000
     1.0000   1.0000   1.0000   1.0000   1.0000   1.0000   1.0000   1.0000
     1.0000   1.0000   1.0000   1.0000   1.0000   1.0000   0.9999   0.9999
     0.9999   0.9998   0.9993   0.9990   0.9986   0.9984   0.9980   0.9977
     0.9973   0.9968   0.9966   0.9961   0.9953   0.9951   0.9948   0.9937
     0.9926   0.9913   0.9894   0.9874   0.9871   0.9853   0.9832   0.9793
     0.9775   0.9655   0.9570   0.9518   0.9476   0.9364   0.9232   0.9170
     0.9083   0.9025   0.8992   0.8682   0.8547   0.8225   0.7734   0.7464
     0.7399   0.7372   0.7295   0.7216   0.7150   0.7094   0.7058   0.6998
     0.6934   0.6864   0.6760   0.6730   0.6666   0.6556   0.6489   0.6439
     0.6255   0.4499   0.3952   0.3727   0.3352   0.3110   0.2130   0.1756
     0.0736   0.0389   0.0197   0.0071   0.0030   0.0003   0.0002   0.0002
     0.0001   0.0001   0.0000   0.0000   0.0000   0.0000   0.0000   0.0000
     0.0000   0.0000   0.0000   0.0000   0.0000   0.0000   0.0000   0.0000
     0.0000   0.0000   0.0000   0.0000   0.0000   0.0000   0.0000   0.0000

          k = 0.2500-0.5000 0.0000 ( 65138 PWs)   bands (ev):

   -92.7126 -92.6585 -92.5664 -92.5185 -92.4591 -92.4188 -92.4019 -92.2771
   -56.0661 -56.0452 -55.9238 -55.9133 -55.9063 -55.9002 -55.8637 -55.8357
   -55.8206 -55.8182 -55.8088 -55.7672 -55.7488 -55.7106 -55.6927 -55.6590
   -55.6542 -55.6074 -55.6042 -55.6031 -55.5957 -55.5501 -55.5322 -55.4456
   -31.2867 -31.2712 -31.1277 -31.0420 -31.0263 -30.9547 -30.9539 -30.8449
   -29.8584 -29.8182 -29.7923 -29.6849 -14.9939 -14.9482 -14.8801 -14.7652
   -14.7322 -14.6122 -14.5234 -14.3950 -14.0847 -14.0334 -14.0070 -13.9860
   -13.9690 -13.9556 -13.9208 -13.9051 -13.8710 -13.8313 -13.8098 -13.7743
   -13.6781 -13.6291 -13.5846 -13.5498 -13.4870 -13.4746 -13.3686 -13.3367
   -13.2183 -13.1534 -13.1313 -13.0454 -13.0024 -12.9913 -12.9847 -12.9558
   -12.9376 -12.9234 -12.8929 -12.8251 -12.8128 -12.7957 -12.7619 -12.7479
   -12.6668 -12.6353 -12.5327 -12.4624 -12.3320 -12.2964 -12.2274 -12.1935
   -11.7877 -11.7758 -11.7648 -11.7374 -11.7061 -11.6775 -11.6364 -11.6092
   -11.5869 -11.5421 -11.5162 -11.5051  -2.4637  -2.3970  -2.2686  -2.1910
    -2.0623  -1.9773  -1.8549  -1.7038  -1.6512  -1.6286  -1.5649  -1.5516
    -1.4551  -1.3879  -1.3029  -1.2542  -1.2447  -1.1806  -1.1394  -1.1037
    -1.0564  -1.0196  -0.9849  -0.9445  -0.9333  -0.8879  -0.8592  -0.8177
    -0.7869  -0.7193  -0.6187  -0.5776  -0.5008  -0.4364  -0.3890  -0.3446
    -0.3227  -0.2739  -0.1103  -0.0997   0.0040   0.0424   0.0530   0.0965
     0.1234   0.1649   0.1900   0.2622   0.5292   0.6201   0.7028   0.7557
     1.0155   1.0428   1.1303   1.1563   1.3232   1.3560   1.3992   1.4217
     1.4378   1.4581   1.5191   1.5652   1.6015   1.6829   1.7661   1.8087
     1.8307   1.8389   1.8768   1.8909   1.8949   1.9388   1.9539   1.9700
     2.0093   2.0228   2.0464   2.0787   2.1376   2.1738   2.2529   2.3929
     2.5429   2.5569   2.5771   2.6046   2.6298   2.6554   2.6793   2.6897
     2.7139   2.7926   2.8313   2.8682   2.8827   2.8987   2.9042   2.9214
     2.9354   2.9561   2.9626   2.9923   3.0045   3.0195   3.0296   3.0382
     3.0518   3.5767   3.5928   3.7309   3.7802   4.1238   4.1668   4.1905
     4.3014   4.7579   4.9076   5.0552   5.1140   5.2934   5.4232   5.5966
     5.6145   5.7557   5.7773   6.1132   6.3939   6.4851   6.6708   6.9669
     7.4516   7.5240   7.6957   7.7727   7.8057   7.8701   8.0325   8.1498
     8.3022   8.3861   8.4335   8.5267   8.5393   8.6248   8.7088   8.7627

     occupation numbers 
     1.0000   1.0000   1.0000   1.0000   1.0000   1.0000   1.0000   1.0000
     1.0000   1.0000   1.0000   1.0000   1.0000   1.0000   1.0000   1.0000
     1.0000   1.0000   1.0000   1.0000   1.0000   1.0000   1.0000   1.0000
     1.0000   1.0000   1.0000   1.0000   1.0000   1.0000   1.0000   1.0000
     1.0000   1.0000   1.0000   1.0000   1.0000   1.0000   1.0000   1.0000
     1.0000   1.0000   1.0000   1.0000   1.0000   1.0000   1.0000   1.0000
     1.0000   1.0000   1.0000   1.0000   1.0000   1.0000   1.0000   1.0000
     1.0000   1.0000   1.0000   1.0000   1.0000   1.0000   1.0000   1.0000
     1.0000   1.0000   1.0000   1.0000   1.0000   1.0000   1.0000   1.0000
     1.0000   1.0000   1.0000   1.0000   1.0000   1.0000   1.0000   1.0000
     1.0000   1.0000   1.0000   1.0000   1.0000   1.0000   1.0000   1.0000
     1.0000   1.0000   1.0000   1.0000   1.0000   1.0000   1.0000   1.0000
     1.0000   1.0000   1.0000   1.0000   1.0000   1.0000   1.0000   1.0000
     1.0000   1.0000   1.0000   1.0000   1.0000   1.0000   1.0000   1.0000
     1.0000   1.0000   1.0000   1.0000   1.0000   1.0000   1.0000   1.0000
     1.0000   1.0000   1.0000   1.0000   1.0000   1.0000   1.0000   1.0000
     1.0000   1.0000   1.0000   1.0000   1.0000   1.0000   1.0000   1.0000
     1.0000   1.0000   1.0000   1.0000   1.0000   1.0000   1.0000   1.0000
     1.0000   1.0000   1.0000   1.0000   1.0000   1.0000   1.0000   1.0000
     1.0000   1.0000   1.0000   1.0000   1.0000   1.0000   0.9999   0.9999
     0.9997   0.9996   0.9994   0.9993   0.9985   0.9982   0.9978   0.9975
     0.9973   0.9971   0.9962   0.9953   0.9945   0.9923   0.9893   0.9874
     0.9862   0.9858   0.9836   0.9828   0.9825   0.9795   0.9784   0.9771
     0.9737   0.9725   0.9702   0.9668   0.9598   0.9549   0.9426   0.9146
     0.8742   0.8699   0.8634   0.8543   0.8456   0.8363   0.8274   0.8234
     0.8140   0.7811   0.7637   0.7465   0.7396   0.7318   0.7291   0.7206
     0.7136   0.7030   0.6996   0.6842   0.6777   0.6696   0.6642   0.6595
     0.6521   0.3488   0.3400   0.2685   0.2449   0.1149   0.1030   0.0968
     0.0715   0.0161   0.0090   0.0049   0.0038   0.0017   0.0009   0.0004
     0.0003   0.0001   0.0001   0.0000   0.0000   0.0000   0.0000   0.0000
     0.0000   0.0000   0.0000   0.0000   0.0000   0.0000   0.0000   0.0000
     0.0000   0.0000   0.0000   0.0000   0.0000   0.0000   0.0000   0.0000

          k =-0.5000-0.5000 0.0000 ( 65132 PWs)   bands (ev):

   -92.7126 -92.6585 -92.5664 -92.5185 -92.4591 -92.4188 -92.4019 -92.2771
   -56.0661 -56.0452 -55.9238 -55.9133 -55.9063 -55.9002 -55.8637 -55.8357
   -55.8206 -55.8182 -55.8088 -55.7672 -55.7488 -55.7106 -55.6927 -55.6590
   -55.6542 -55.6074 -55.6042 -55.6031 -55.5957 -55.5501 -55.5322 -55.4456
   -31.2845 -31.2735 -31.1273 -31.0424 -31.0259 -30.9551 -30.9536 -30.8451
   -29.8573 -29.8193 -29.7919 -29.6853 -14.9488 -14.9208 -14.8037 -14.7920
   -14.6959 -14.6603 -14.6253 -14.4944 -13.9977 -13.9857 -13.9512 -13.9314
   -13.9152 -13.9036 -13.8731 -13.8630 -13.8458 -13.8395 -13.8217 -13.7451
   -13.7389 -13.7072 -13.6813 -13.6742 -13.5717 -13.5485 -13.4117 -13.3800
   -13.1699 -13.1277 -13.0608 -13.0367 -13.0022 -12.9961 -12.9867 -12.9675
   -12.9457 -12.9067 -12.8914 -12.8337 -12.8181 -12.8064 -12.7866 -12.7608
   -12.6165 -12.6086 -12.5492 -12.4399 -12.3284 -12.2633 -12.2248 -12.1959
   -11.7844 -11.7718 -11.7539 -11.7373 -11.7023 -11.6852 -11.6495 -11.5897
   -11.5690 -11.5644 -11.5139 -11.5111  -2.2401  -2.1640  -2.1533  -2.0800
    -2.0425  -1.9643  -1.8965  -1.7706  -1.6542  -1.6245  -1.5856  -1.5277
    -1.4555  -1.4413  -1.3704  -1.3270  -1.2106  -1.1832  -1.1340  -1.1041
    -1.0402  -0.9955  -0.9761  -0.9645  -0.9115  -0.8648  -0.8507  -0.7376
    -0.6811  -0.6346  -0.5837  -0.5573  -0.5468  -0.5103  -0.4682  -0.4348
    -0.4213  -0.3365  -0.2710  -0.2224  -0.2000  -0.1240  -0.0722  -0.0539
     0.0008   0.0245   0.0388   0.0553   0.5000   0.5356   0.6525   0.6663
     1.0495   1.0618   1.0939   1.1329   1.4075   1.4275   1.4343   1.4715
     1.6031   1.6985   1.7255   1.7608   1.7766   1.8058   1.8131   1.8450
     1.8527   1.8669   1.8788   1.9356   1.9362   1.9661   1.9812   1.9985
     2.0138   2.0500   2.0778   2.0875   2.1216   2.1513   2.2188   2.2838
     2.5529   2.5871   2.6058   2.6256   2.6336   2.6648   2.6693   2.6883
     2.6993   2.7163   2.7319   2.7465   2.7909   2.8177   2.8201   2.8452
     2.8528   2.8717   2.8886   2.8942   2.9260   3.0014   3.0050   3.0388
     3.0441   4.0088   4.0262   4.0507   4.0623   4.3098   4.3856   4.4068
     4.6476   4.7693   4.8522   4.9815   5.0654   5.0875   5.1933   5.2921
     5.3721   5.8484   5.8867   5.9556   6.0259   6.4044   6.4903   6.6077
     7.7020   7.8324   7.8840   7.9052   7.9243   7.9687   8.0082   8.0795
     8.2576   8.3214   8.5376   8.5811   8.6042   8.6102   8.6511   8.7571

     occupation numbers 
     1.0000   1.0000   1.0000   1.0000   1.0000   1.0000   1.0000   1.0000
     1.0000   1.0000   1.0000   1.0000   1.0000   1.0000   1.0000   1.0000
     1.0000   1.0000   1.0000   1.0000   1.0000   1.0000   1.0000   1.0000
     1.0000   1.0000   1.0000   1.0000   1.0000   1.0000   1.0000   1.0000
     1.0000   1.0000   1.0000   1.0000   1.0000   1.0000   1.0000   1.0000
     1.0000   1.0000   1.0000   1.0000   1.0000   1.0000   1.0000   1.0000
     1.0000   1.0000   1.0000   1.0000   1.0000   1.0000   1.0000   1.0000
     1.0000   1.0000   1.0000   1.0000   1.0000   1.0000   1.0000   1.0000
     1.0000   1.0000   1.0000   1.0000   1.0000   1.0000   1.0000   1.0000
     1.0000   1.0000   1.0000   1.0000   1.0000   1.0000   1.0000   1.0000
     1.0000   1.0000   1.0000   1.0000   1.0000   1.0000   1.0000   1.0000
     1.0000   1.0000   1.0000   1.0000   1.0000   1.0000   1.0000   1.0000
     1.0000   1.0000   1.0000   1.0000   1.0000   1.0000   1.0000   1.0000
     1.0000   1.0000   1.0000   1.0000   1.0000   1.0000   1.0000   1.0000
     1.0000   1.0000   1.0000   1.0000   1.0000   1.0000   1.0000   1.0000
     1.0000   1.0000   1.0000   1.0000   1.0000   1.0000   1.0000   1.0000
     1.0000   1.0000   1.0000   1.0000   1.0000   1.0000   1.0000   1.0000
     1.0000   1.0000   1.0000   1.0000   1.0000   1.0000   1.0000   1.0000
     1.0000   1.0000   1.0000   1.0000   1.0000   1.0000   1.0000   1.0000
     1.0000   1.0000   1.0000   1.0000   1.0000   1.0000   1.0000   1.0000
     0.9996   0.9996   0.9995   0.9994   0.9977   0.9975   0.9974   0.9969
     0.9945   0.9918   0.9909   0.9895   0.9888   0.9875   0.9871   0.9855
     0.9851   0.9842   0.9835   0.9797   0.9797   0.9774   0.9762   0.9747
     0.9733   0.9698   0.9669   0.9658   0.9618   0.9580   0.9482   0.9371
     0.8711   0.8602   0.8539   0.8470   0.8442   0.8329   0.8312   0.8240
     0.8197   0.8130   0.8068   0.8008   0.7818   0.7699   0.7688   0.7573
[...]
     0.7437   0.7298   0.7181   0.7151   0.7042   0.6989   0.6914   0.6806
     0.6779   0.6624   0.6580   0.6536   0.6470   0.6359   0.6213   0.6196
     0.6151   0.6103   0.6055   0.5995   0.5277   0.3502   0.3158   0.2052
     0.0788   0.0463   0.0221   0.0056   0.0050   0.0003   0.0001   0.0001
     0.0000   0.0000   0.0000   0.0000   0.0000   0.0000   0.0000   0.0000
     0.0000   0.0000   0.0000   0.0000   0.0000   0.0000   0.0000   0.0000
     0.0000   0.0000   0.0000   0.0000   0.0000   0.0000   0.0000   0.0000

          k =-0.5000 0.0000 0.0000 ( 65180 PWs)   bands (ev):

   -92.7126 -92.6585 -92.5664 -92.5185 -92.4591 -92.4188 -92.4019 -92.2771
   -56.0661 -56.0452 -55.9238 -55.9133 -55.9063 -55.9002 -55.8637 -55.8357
   -55.8206 -55.8182 -55.8088 -55.7672 -55.7488 -55.7106 -55.6927 -55.6590
   -55.6542 -55.6074 -55.6042 -55.6031 -55.5957 -55.5501 -55.5322 -55.4456
   -31.2848 -31.2738 -31.1269 -31.0421 -31.0267 -30.9557 -30.9528 -30.8446
   -29.8586 -29.8199 -29.7906 -29.6846 -15.0280 -14.9796 -14.9164 -14.8056
   -14.7028 -14.5575 -14.4191 -14.2675 -14.1445 -14.1351 -14.1199 -14.0658
   -14.0051 -13.9741 -13.9271 -13.9174 -13.9002 -13.8499 -13.8290 -13.7330
   -13.5667 -13.5484 -13.5071 -13.4988 -13.4464 -13.3763 -13.3349 -13.2791
   -13.2556 -13.2433 -13.0654 -13.0537 -13.0305 -13.0280 -13.0179 -13.0028
   -12.9561 -12.9355 -12.8528 -12.8278 -12.8168 -12.7803 -12.7570 -12.7310
   -12.6514 -12.6422 -12.5523 -12.4846 -12.3385 -12.3249 -12.2312 -12.1975
   -11.7909 -11.7698 -11.7627 -11.7488 -11.7306 -11.6894 -11.6258 -11.6079
   -11.5748 -11.5318 -11.5224 -11.5064  -2.5949  -2.5559  -2.3921  -2.3527
    -2.0406  -1.9654  -1.8169  -1.6986  -1.6600  -1.6135  -1.5662  -1.5404
    -1.4179  -1.3731  -1.3587  -1.2759  -1.2396  -1.2267  -1.1931  -1.1362
    -1.0678  -1.0377  -1.0100  -0.9144  -0.8671  -0.8192  -0.7859  -0.7644
    -0.7347  -0.6860  -0.6612  -0.6243  -0.5284  -0.4528  -0.3905  -0.3267
    -0.1679  -0.1229  -0.0686  -0.0410   0.0191   0.0414   0.1771   0.2103
     0.2557   0.4277   0.5266   0.5736   0.6562   0.7198   0.8466   0.8566
     0.9896   1.0171   1.0706   1.0978   1.1380   1.1478   1.1937   1.2178
     1.2825   1.3331   1.3801   1.3881   1.6837   1.6890   1.7086   1.7256
     1.8400   1.8525   1.8651   1.8773   1.9078   1.9193   1.9562   1.9856
     2.0073   2.0653   2.0762   2.1300   2.1490   2.2069   2.3210   2.4138
     2.4893   2.5031   2.5794   2.6146   2.6432   2.7023   2.7172   2.7259
     2.7551   2.7885   2.8341   2.8830   2.9205   2.9437   2.9901   2.9922
     2.9963   3.0103   3.0211   3.0321   3.0456   3.0505   3.0733   3.0792
     3.0982   3.1174   3.1221   3.2516   3.2601   4.0840   4.1082   4.1700
     4.3150   4.7790   4.8477   5.0303   5.0463   5.4834   5.5060   5.5825
     5.6387   6.0067   6.0218   6.0972   6.6267   6.7934   7.0021   7.2754
     7.3068   7.3336   7.4171   7.4844   7.5851   7.7667   7.8782   7.9117
     8.0724   8.2737   8.4831   8.5144   8.6198   8.7495   8.7751   8.8273

     occupation numbers 
     1.0000   1.0000   1.0000   1.0000   1.0000   1.0000   1.0000   1.0000
     1.0000   1.0000   1.0000   1.0000   1.0000   1.0000   1.0000   1.0000
     1.0000   1.0000   1.0000   1.0000   1.0000   1.0000   1.0000   1.0000
     1.0000   1.0000   1.0000   1.0000   1.0000   1.0000   1.0000   1.0000
     1.0000   1.0000   1.0000   1.0000   1.0000   1.0000   1.0000   1.0000
     1.0000   1.0000   1.0000   1.0000   1.0000   1.0000   1.0000   1.0000
     1.0000   1.0000   1.0000   1.0000   1.0000   1.0000   1.0000   1.0000
     1.0000   1.0000   1.0000   1.0000   1.0000   1.0000   1.0000   1.0000
     1.0000   1.0000   1.0000   1.0000   1.0000   1.0000   1.0000   1.0000
     1.0000   1.0000   1.0000   1.0000   1.0000   1.0000   1.0000   1.0000
     1.0000   1.0000   1.0000   1.0000   1.0000   1.0000   1.0000   1.0000
     1.0000   1.0000   1.0000   1.0000   1.0000   1.0000   1.0000   1.0000
     1.0000   1.0000   1.0000   1.0000   1.0000   1.0000   1.0000   1.0000
     1.0000   1.0000   1.0000   1.0000   1.0000   1.0000   1.0000   1.0000
     1.0000   1.0000   1.0000   1.0000   1.0000   1.0000   1.0000   1.0000
     1.0000   1.0000   1.0000   1.0000   1.0000   1.0000   1.0000   1.0000
     1.0000   1.0000   1.0000   1.0000   1.0000   1.0000   1.0000   1.0000
     1.0000   1.0000   1.0000   1.0000   1.0000   1.0000   1.0000   1.0000
     1.0000   1.0000   1.0000   1.0000   1.0000   1.0000   1.0000   1.0000
     1.0000   1.0000   1.0000   1.0000   1.0000   0.9999   0.9999   0.9999
     0.9997   0.9997   0.9996   0.9995   0.9994   0.9994   0.9992   0.9991
     0.9987   0.9984   0.9980   0.9979   0.9923   0.9921   0.9915   0.9909
     0.9857   0.9851   0.9843   0.9836   0.9817   0.9809   0.9782   0.9758
     0.9739   0.9683   0.9671   0.9608   0.9583   0.9501   0.9300   0.9096
     0.8899   0.8860   0.8627   0.8508   0.8408   0.8185   0.8127   0.8092
     0.7971   0.7829   0.7625   0.7394   0.7210   0.7093   0.6853   0.6842
     0.6820   0.6746   0.6687   0.6628   0.6555   0.6528   0.6402   0.6369
     0.6263   0.6155   0.6128   0.5375   0.5325   0.1268   0.1195   0.1021
     0.0688   0.0149   0.0114   0.0054   0.0051   0.0006   0.0006   0.0004
     0.0003   0.0000   0.0000   0.0000   0.0000   0.0000   0.0000   0.0000
     0.0000   0.0000   0.0000   0.0000   0.0000   0.0000   0.0000   0.0000
     0.0000   0.0000   0.0000   0.0000   0.0000   0.0000   0.0000   0.0000

          k =-0.2500 0.2500 0.0000 ( 65198 PWs)   bands (ev):

   -92.7126 -92.6585 -92.5664 -92.5185 -92.4591 -92.4188 -92.4019 -92.2771
   -56.0661 -56.0452 -55.9238 -55.9133 -55.9063 -55.9002 -55.8637 -55.8357
   -55.8206 -55.8182 -55.8088 -55.7672 -55.7488 -55.7106 -55.6927 -55.6590
   -55.6542 -55.6074 -55.6042 -55.6031 -55.5957 -55.5501 -55.5322 -55.4456
   -31.2869 -31.2714 -31.1275 -31.0419 -31.0267 -30.9550 -30.9535 -30.8446
   -29.8590 -29.8185 -29.7916 -29.6846 -15.0300 -14.9933 -14.9159 -14.7985
   -14.6898 -14.5642 -14.4747 -14.2697 -14.1278 -14.0986 -14.0848 -14.0401
   -14.0143 -13.9970 -13.9845 -13.9328 -13.8488 -13.8377 -13.6842 -13.6583
   -13.6321 -13.6092 -13.5716 -13.5095 -13.4597 -13.4464 -13.3223 -13.2819
   -13.2345 -13.1577 -13.1141 -13.0518 -13.0215 -12.9996 -12.9972 -12.9595
   -12.9388 -12.9158 -12.9041 -12.8395 -12.8070 -12.7941 -12.7809 -12.7651
   -12.7318 -12.7029 -12.5454 -12.4533 -12.4512 -12.2942 -12.1587 -12.1126
   -11.8114 -11.7897 -11.7628 -11.7503 -11.7098 -11.6747 -11.6520 -11.6300
   -11.6077 -11.5238 -11.4781 -11.4685  -2.6797  -2.4708  -2.3498  -2.2625
    -2.1433  -2.0765  -1.8747  -1.7285  -1.7094  -1.6817  -1.5894  -1.5519
    -1.4605  -1.4268  -1.4008  -1.2574  -1.2018  -1.1344  -1.1061  -1.0460
    -1.0230  -0.9830  -0.9541  -0.9144  -0.8515  -0.8041  -0.7427  -0.6732
    -0.6480  -0.5961  -0.5671  -0.5221  -0.4656  -0.4234  -0.3785  -0.2814
    -0.2468  -0.2375  -0.1911  -0.1252  -0.0570  -0.0104   0.0200   0.0888
     0.1261   0.3756   0.5428   0.5861   0.6231   0.6804   0.7360   0.7911
     0.8548   0.8829   1.1653   1.2769   1.3160   1.3488   1.3555   1.3975
     1.4152   1.4593   1.4902   1.5056   1.5316   1.5735   1.5874   1.6345
     1.6499   1.6959   1.7754   1.7977   1.8137   1.8541   1.8807   1.9220
     1.9730   2.0805   2.1863   2.2200   2.2675   2.2872   2.3514   2.3946
     2.4203   2.4425   2.4654   2.5659   2.6010   2.6903   2.8127   2.8715
     2.8817   2.8939   2.9049   2.9134   2.9271   2.9340   2.9522   2.9621
     2.9751   2.9861   2.9973   3.0078   3.0165   3.0472   3.0581   3.0665
     3.1006   3.3931   3.4758   3.5371   3.6172   3.6410   3.8388   3.9515
     4.2906   4.5008   4.7034   4.9755   5.1668   5.6345   5.6800   5.7371
     5.8198   5.8842   6.0329   6.1719   6.2042   6.7424   6.8944   7.0635
     7.1487   7.5600   7.6029   7.6620   7.7319   7.8746   7.9139   8.1143
     8.1589   8.2076   8.3017   8.3351   8.4367   8.4651   8.6714   8.8614

     occupation numbers 
     1.0000   1.0000   1.0000   1.0000   1.0000   1.0000   1.0000   1.0000
     1.0000   1.0000   1.0000   1.0000   1.0000   1.0000   1.0000   1.0000
     1.0000   1.0000   1.0000   1.0000   1.0000   1.0000   1.0000   1.0000
     1.0000   1.0000   1.0000   1.0000   1.0000   1.0000   1.0000   1.0000
     1.0000   1.0000   1.0000   1.0000   1.0000   1.0000   1.0000   1.0000
     1.0000   1.0000   1.0000   1.0000   1.0000   1.0000   1.0000   1.0000
     1.0000   1.0000   1.0000   1.0000   1.0000   1.0000   1.0000   1.0000
     1.0000   1.0000   1.0000   1.0000   1.0000   1.0000   1.0000   1.0000
     1.0000   1.0000   1.0000   1.0000   1.0000   1.0000   1.0000   1.0000
     1.0000   1.0000   1.0000   1.0000   1.0000   1.0000   1.0000   1.0000
     1.0000   1.0000   1.0000   1.0000   1.0000   1.0000   1.0000   1.0000
     1.0000   1.0000   1.0000   1.0000   1.0000   1.0000   1.0000   1.0000
     1.0000   1.0000   1.0000   1.0000   1.0000   1.0000   1.0000   1.0000
     1.0000   1.0000   1.0000   1.0000   1.0000   1.0000   1.0000   1.0000
     1.0000   1.0000   1.0000   1.0000   1.0000   1.0000   1.0000   1.0000
     1.0000   1.0000   1.0000   1.0000   1.0000   1.0000   1.0000   1.0000
     1.0000   1.0000   1.0000   1.0000   1.0000   1.0000   1.0000   1.0000
     1.0000   1.0000   1.0000   1.0000   1.0000   1.0000   1.0000   1.0000
     1.0000   1.0000   1.0000   1.0000   1.0000   1.0000   1.0000   1.0000
     1.0000   1.0000   1.0000   1.0000   1.0000   1.0000   0.9999   0.9999
     0.9999   0.9998   0.9993   0.9988   0.9985   0.9982   0.9982   0.9978
     0.9976   0.9971   0.9966   0.9964   0.9960   0.9951   0.9948   0.9937
     0.9933   0.9919   0.9889   0.9879   0.9871   0.9850   0.9834   0.9807
     0.9769   0.9666   0.9531   0.9480   0.9401   0.9365   0.9238   0.9142
     0.9080   0.9025   0.8965   0.8670   0.8555   0.8232   0.7721   0.7450
     0.7401   0.7342   0.7288   0.7245   0.7177   0.7143   0.7050   0.6999
     0.6932   0.6874   0.6815   0.6759   0.6712   0.6546   0.6486   0.6440
     0.6250   0.4539   0.4057   0.3708   0.3268   0.3142   0.2184   0.1723
     0.0737   0.0391   0.0196   0.0068   0.0030   0.0003   0.0002   0.0002
     0.0001   0.0001   0.0000   0.0000   0.0000   0.0000   0.0000   0.0000
     0.0000   0.0000   0.0000   0.0000   0.0000   0.0000   0.0000   0.0000
     0.0000   0.0000   0.0000   0.0000   0.0000   0.0000   0.0000   0.0000

          k =-0.5000 0.2500 0.0000 ( 65138 PWs)   bands (ev):

   -92.7126 -92.6585 -92.5664 -92.5185 -92.4591 -92.4188 -92.4019 -92.2771
   -56.0661 -56.0452 -55.9238 -55.9133 -55.9063 -55.9002 -55.8637 -55.8357
   -55.8206 -55.8182 -55.8088 -55.7672 -55.7488 -55.7106 -55.6927 -55.6590
   -55.6542 -55.6074 -55.6042 -55.6031 -55.5957 -55.5501 -55.5322 -55.4456
   -31.2847 -31.2736 -31.1271 -31.0423 -31.0263 -30.9554 -30.9532 -30.8449
   -29.8580 -29.8196 -29.7912 -29.6850 -14.9958 -14.9528 -14.8736 -14.7723
   -14.7306 -14.6045 -14.5211 -14.3866 -14.0785 -14.0483 -14.0369 -13.9941
   -13.9720 -13.9459 -13.9121 -13.9023 -13.8795 -13.8373 -13.8262 -13.7229
   -13.6494 -13.6065 -13.5992 -13.5871 -13.4993 -13.4803 -13.3730 -13.3132
   -13.2120 -13.1750 -13.0780 -13.0391 -13.0272 -12.9996 -12.9798 -12.9627
   -12.9523 -12.9506 -12.8876 -12.8329 -12.8040 -12.7913 -12.7661 -12.7491
   -12.6335 -12.6258 -12.5505 -12.4611 -12.3337 -12.2965 -12.2245 -12.1978
   -11.7838 -11.7714 -11.7572 -11.7450 -11.7243 -11.6940 -11.6126 -11.6046
   -11.5806 -11.5461 -11.5180 -11.5088  -2.4528  -2.4103  -2.2619  -2.2195
    -2.0597  -1.9839  -1.8411  -1.7046  -1.6488  -1.6207  -1.5824  -1.5429
    -1.4629  -1.3475  -1.2906  -1.2669  -1.2419  -1.1670  -1.1361  -1.0994
    -1.0804  -1.0203  -0.9919  -0.9522  -0.9167  -0.8881  -0.8304  -0.8035
    -0.7615  -0.7274  -0.6235  -0.5973  -0.5111  -0.4456  -0.4167  -0.3602
    -0.2729  -0.2411  -0.1404  -0.1055  -0.0438   0.0039   0.0255   0.1051
     0.1356   0.1681   0.2192   0.2571   0.5666   0.6176   0.6992   0.7117
     0.9988   1.0577   1.1321   1.1557   1.3362   1.3726   1.4098   1.4227
     1.4405   1.4587   1.5268   1.5711   1.6098   1.6378   1.7549   1.7913
     1.8295   1.8412   1.8760   1.9003   1.9157   1.9322   1.9514   1.9750
     2.0224   2.0387   2.0726   2.0954   2.1240   2.1868   2.3084   2.4068
     2.4340   2.5026   2.5412   2.5972   2.6394   2.6461   2.6815   2.7150
     2.7392   2.7865   2.8341   2.8762   2.8824   2.8975   2.9066   2.9319
     2.9422   2.9561   2.9708   2.9911   3.0038   3.0135   3.0208   3.0340
     3.0453   3.5793   3.6108   3.7641   3.7841   4.0829   4.1347   4.1810
     4.3964   4.7735   4.8662   5.0285   5.0726   5.3906   5.4204   5.5761
     5.6254   5.7358   5.7685   6.1998   6.3859   6.4600   6.5416   7.0839
     7.4477   7.5279   7.6461   7.7108   7.7897   7.8813   8.0163   8.1471
     8.3457   8.3893   8.4560   8.5039   8.5591   8.6310   8.6974   8.7387

     occupation numbers 
     1.0000   1.0000   1.0000   1.0000   1.0000   1.0000   1.0000   1.0000
     1.0000   1.0000   1.0000   1.0000   1.0000   1.0000   1.0000   1.0000
     1.0000   1.0000   1.0000   1.0000   1.0000   1.0000   1.0000   1.0000
     1.0000   1.0000   1.0000   1.0000   1.0000   1.0000   1.0000   1.0000
     1.0000   1.0000   1.0000   1.0000   1.0000   1.0000   1.0000   1.0000
     1.0000   1.0000   1.0000   1.0000   1.0000   1.0000   1.0000   1.0000
     1.0000   1.0000   1.0000   1.0000   1.0000   1.0000   1.0000   1.0000
     1.0000   1.0000   1.0000   1.0000   1.0000   1.0000   1.0000   1.0000
     1.0000   1.0000   1.0000   1.0000   1.0000   1.0000   1.0000   1.0000
     1.0000   1.0000   1.0000   1.0000   1.0000   1.0000   1.0000   1.0000
     1.0000   1.0000   1.0000   1.0000   1.0000   1.0000   1.0000   1.0000
     1.0000   1.0000   1.0000   1.0000   1.0000   1.0000   1.0000   1.0000
     1.0000   1.0000   1.0000   1.0000   1.0000   1.0000   1.0000   1.0000
     1.0000   1.0000   1.0000   1.0000   1.0000   1.0000   1.0000   1.0000
     1.0000   1.0000   1.0000   1.0000   1.0000   1.0000   1.0000   1.0000
     1.0000   1.0000   1.0000   1.0000   1.0000   1.0000   1.0000   1.0000
     1.0000   1.0000   1.0000   1.0000   1.0000   1.0000   1.0000   1.0000
     1.0000   1.0000   1.0000   1.0000   1.0000   1.0000   1.0000   1.0000
     1.0000   1.0000   1.0000   1.0000   1.0000   1.0000   1.0000   1.0000
     1.0000   1.0000   1.0000   1.0000   1.0000   1.0000   0.9999   0.9999
     0.9997   0.9996   0.9994   0.9993   0.9984   0.9980   0.9977   0.9975
     0.9973   0.9971   0.9960   0.9952   0.9943   0.9936   0.9897   0.9882
     0.9863   0.9857   0.9837   0.9822   0.9811   0.9800   0.9786   0.9767
     0.9725   0.9710   0.9675   0.9649   0.9615   0.9531   0.9325   0.9113
     0.9046   0.8862   0.8748   0.8568   0.8421   0.8397   0.8266   0.8135
     0.8038   0.7838   0.7624   0.7427   0.7397   0.7324   0.7279   0.7153
     0.7101   0.7030   0.6954   0.6848   0.6780   0.6729   0.6689   0.6618
     0.6556   0.3474   0.3303   0.2525   0.2431   0.1271   0.1118   0.0993
     0.0542   0.0152   0.0106   0.0055   0.0045   0.0010   0.0009   0.0004
     0.0003   0.0002   0.0001   0.0000   0.0000   0.0000   0.0000   0.0000
     0.0000   0.0000   0.0000   0.0000   0.0000   0.0000   0.0000   0.0000
     0.0000   0.0000   0.0000   0.0000   0.0000   0.0000   0.0000   0.0000

     the Fermi energy is     3.3151 ev

!    total energy              =   -4399.91393637 Ry
     estimated scf accuracy    <          7.4E-09 Ry
     smearing contrib. (-TS)   =      -1.14574592 Ry
     internal energy E=F+TS    =   -4398.76819045 Ry

     The total energy is F=E-TS. E is the sum of the following terms:
     one-electron contribution =  -21252.87990641 Ry
     hartree contribution      =   10754.35856147 Ry
     xc contribution           =    -686.72803662 Ry
     ewald contribution        =    7053.12638862 Ry
     one-center paw contrib.   =    -266.64519750 Ry
      -> PAW hartree energy AE =      25.18075880 Ry
      -> PAW hartree energy PS =     -25.06448228 Ry
      -> PAW xc energy AE      =     -16.52000342 Ry
      -> PAW xc energy PS      =       6.87959744 Ry
      -> total E_H with PAW    =   10754.47483799 Ry
      -> total E_XC with PAW   =    -696.36844260 Ry

     convergence has been achieved in  50 iterations

     Writing all to output data dir /bsuhome/zayahcortright/scratch/pwscf.save/
 
     init_run     :      7.77s CPU      8.32s WALL (       1 calls)
     electrons    :    713.03s CPU    725.42s WALL (       1 calls)

     Called by init_run:
     wfcinit      :      6.00s CPU      6.11s WALL (       1 calls)
     wfcinit:atom :      0.05s CPU      0.05s WALL (       5 calls)
     wfcinit:wfcr :      5.67s CPU      5.74s WALL (       5 calls)
     potinit      :      0.16s CPU      0.18s WALL (       1 calls)
     hinit0       :      0.41s CPU      0.75s WALL (       1 calls)

     Called by electrons:
     c_bands      :    561.75s CPU    566.51s WALL (      50 calls)
     sum_band     :    113.69s CPU    118.09s WALL (      50 calls)
     v_of_rho     :      5.50s CPU      5.77s WALL (      51 calls)
     v_h          :      0.49s CPU      0.49s WALL (      51 calls)
     v_xc         :      5.01s CPU      5.28s WALL (      51 calls)
     newd         :     17.12s CPU     19.66s WALL (      51 calls)
     PAW_pot      :      1.64s CPU      1.66s WALL (      51 calls)
     mix_rho      :     12.96s CPU     13.22s WALL (      50 calls)

     Called by c_bands:
     init_us_2    :      7.08s CPU      7.14s WALL (     505 calls)
     init_us_2:cp :      7.07s CPU      7.13s WALL (     505 calls)
     cegterg      :    525.74s CPU    530.30s WALL (     250 calls)

     Called by sum_band:
     sum_band:wei :      0.35s CPU      0.35s WALL (      50 calls)
     sum_band:loo :     93.30s CPU     93.94s WALL (      50 calls)
     sum_band:buf :      1.56s CPU      1.57s WALL (     250 calls)
     sum_band:ini :      3.31s CPU      3.32s WALL (     250 calls)
     sum_band:cal :     18.61s CPU     18.65s WALL (     250 calls)
     sum_band:bec :      0.56s CPU      0.56s WALL (     250 calls)
     addusdens    :     18.69s CPU     22.42s WALL (      50 calls)
                                        0.00s GPU  (      50 calls)
     addusd:skk   :      0.34s CPU      0.69s WALL (     200 calls)
                                        0.00s GPU  (     200 calls)

     Called by *egterg:
     cdiaghg      :     54.26s CPU     54.44s WALL (    1318 calls)
     cegterg:over :     37.79s CPU     37.90s WALL (    1068 calls)
     cegterg:upda :     27.84s CPU     28.16s WALL (    1068 calls)
     cegterg:last :     56.37s CPU     56.52s WALL (     449 calls)
     cdiaghg:chol :      3.06s CPU      3.08s WALL (    1318 calls)
     cdiaghg:inve :      3.14s CPU      3.15s WALL (    1318 calls)
     cdiaghg:para :      6.97s CPU      6.99s WALL (    2636 calls)
     h_psi        :    294.73s CPU    297.46s WALL (    1323 calls)
     s_psi        :     38.94s CPU     39.06s WALL (    1323 calls)
     g_psi        :      1.09s CPU      1.10s WALL (    1068 calls)

     Called by h_psi:
     h_psi:calbec :     42.84s CPU     42.97s WALL (    1323 calls)
     vloc_psi     :    209.94s CPU    212.00s WALL (    1323 calls)
     add_vuspsi   :     38.68s CPU     38.79s WALL (    1323 calls)

     General routines
     calbec       :     61.44s CPU     61.61s WALL (    1573 calls)
     fft          :      3.61s CPU      3.65s WALL (     661 calls)
     ffts         :      4.64s CPU      4.68s WALL (    5328 calls)
     fftw         :    178.76s CPU    180.20s WALL (  333646 calls)
     interpolate  :      0.41s CPU      0.42s WALL (      51 calls)
 
     Parallel routines

     PAW routines
     PAW_pot      :      1.64s CPU      1.66s WALL (      51 calls)
 
     PWSCF        :  12m 2.92s CPU  12m19.08s WALL

 
   This run was terminated on:  23:17:15  21Jun2024            

=------------------------------------------------------------------------------=
   JOB DONE.
=------------------------------------------------------------------------------=
