
     Program PWSCF v.7.2 starts on 21Jun2024 at 20: 2:47 

     This program is part of the open-source Quantum ESPRESSO suite
     for quantum simulation of materials; please cite
         "P. Giannozzi et al., J. Phys.:Condens. Matter 21 395502 (2009);
         "P. Giannozzi et al., J. Phys.:Condens. Matter 29 465901 (2017);
         "P. Giannozzi et al., J. Chem. Phys. 152 154105 (2020);
          URL http://www.quantum-espresso.org", 
     in publications or presentations arising from this work. More details at
     http://www.quantum-espresso.org/quote

     Parallel version (MPI & OpenMP), running on      48 processor cores
     Number of MPI processes:                48
     Threads/MPI process:                     1

     MPI processes distributed on     1 nodes
     180153 MiB available memory on the printing compute node when the environment starts
 
     Reading input from espresso.pwi
Warning: card &CELL ignored
Warning: card / ignored
Warning: card &FCP ignored
Warning: card / ignored
Warning: card &RISM ignored
Warning: card / ignored

     Current dimensions of program PWSCF are:
     Max number of different atomic species (ntypx) = 10
     Max number of k-points (npk) =  40000
     Max angular momentum in pseudopotentials (lmaxx) =  4
     file O.pbe-n-kjpaw_psl.0.1.UPF: wavefunction(s)  2P renormalized
     signal trapping enabled: kill the code with -SIGUSR1 to stop cleanly the simulation 
 
     K-points division:     npool     =       2
     R & G space division:  proc/nbgrp/npool/nimage =      24
     Subspace diagonalization in iterative solution of the eigenvalue problem:
     one sub-group per band group will be used
     scalapack distributed-memory algorithm (size of sub-group:  3*  3 procs)

 
     Parallelization info
     --------------------
     sticks:   dense  smooth     PW     G-vecs:    dense   smooth      PW
     Min         350     175     47                61430    21716    3036
     Max         351     177     48                61449    21727    3041
     Sum        8421    4205   1137              1474595   521381   72913
 
     Using Slab Decomposition
 


     bravais-lattice index     =            0
     lattice parameter (alat)  =      14.8599  a.u.
     unit-cell volume          =    8305.1283 (a.u.)^3
     number of atoms/cell      =           49
     number of atomic types    =            4
     number of electrons       =       425.00
     number of Kohn-Sham states=          256
     kinetic-energy cutoff     =      60.0000  Ry
     charge density cutoff     =     480.0000  Ry
     scf convergence threshold =      1.0E-08
     mixing beta               =       0.1500
     number of iterations used =            8  local-TF  mixing
     Exchange-correlation= PBE
                           (   1   4   3   4   0   0   0)

     celldm(1)=  14.859904  celldm(2)=   0.000000  celldm(3)=   0.000000
     celldm(4)=   0.000000  celldm(5)=   0.000000  celldm(6)=   0.000000

     crystal axes: (cart. coord. in units of alat)
               a(1) = (   1.000000   0.000000   0.000000 )  
               a(2) = (   0.000000   1.000000   0.000000 )  
               a(3) = (   0.000000   0.000000   2.531036 )  

     reciprocal axes: (cart. coord. in units 2 pi/alat)
               b(1) = (  1.000000  0.000000  0.000000 )  
               b(2) = (  0.000000  1.000000  0.000000 )  
               b(3) = (  0.000000  0.000000  0.395095 )  


     PseudoPot. # 1 for Sr read from file:
     /bsuhome/zayahcortright/q-e/pseudo/Sr_pbe_v1.uspp.F.UPF
     MD5 check sum: 6b418c05fbe9db5448babca5e47b7a5b
     Pseudo is Ultrasoft + core correction, Zval = 10.0
     Generated by new atomic code, or converted to UPF format
     Using radial grid of  883 points,  6 beta functions with: 
                l(1) =   0
                l(2) =   0
                l(3) =   1
                l(4) =   1
                l(5) =   2
                l(6) =   2
     Q(r) pseudized with  6 coefficients,  rinner =    1.400   1.400   1.400
                                                       1.400   1.400

     PseudoPot. # 2 for O  read from file:
     /bsuhome/zayahcortright/q-e/pseudo/O.pbe-n-kjpaw_psl.0.1.UPF
     MD5 check sum: 0234752ac141de4415c5fc33072bef88
     Pseudo is Projector augmented-wave + core cor, Zval =  6.0
     Generated using "atomic" code by A. Dal Corso  v.5.0.99 svn rev. 10869
     Shape of augmentation charge: BESSEL
     Using radial grid of 1095 points,  4 beta functions with: 
                l(1) =   0
                l(2) =   0
                l(3) =   1
                l(4) =   1
     Q(r) pseudized with 0 coefficients 


     PseudoPot. # 3 for Co read from file:
     /bsuhome/zayahcortright/q-e/pseudo/Co_pbe_v1.2.uspp.F.UPF
     MD5 check sum: 5f91765df6ddd3222702df6e7b74a16d
     Pseudo is Ultrasoft + core correction, Zval = 17.0
     Generated by new atomic code, or converted to UPF format
     Using radial grid of  863 points,  6 beta functions with: 
                l(1) =   0
                l(2) =   0
                l(3) =   1
                l(4) =   1
                l(5) =   2
                l(6) =   2
     Q(r) pseudized with  8 coefficients,  rinner =    1.200   1.200   1.200
                                                       1.200   1.200

     PseudoPot. # 4 for H  read from file:
     /bsuhome/zayahcortright/q-e/pseudo/H.pbe-rrkjus_psl.1.0.0.UPF
     MD5 check sum: f52b6d4d1c606e5624b1dc7b2218f220
     Pseudo is Ultrasoft, Zval =  1.0
     Generated using "atomic" code by A. Dal Corso  v.5.1
     Using radial grid of  929 points,  2 beta functions with: 
                l(1) =   0
                l(2) =   0
     Q(r) pseudized with 0 coefficients 


     atomic species   valence    mass     pseudopotential
        Sr            10.00    87.62000     Sr( 1.00)
        O              6.00    15.99900     O ( 1.00)
        Co            17.00    58.93319     Co( 1.00)
        H              1.00     1.00800     H ( 1.00)

     No symmetry found


                                    s                        frac. trans.

      isym =  1     identity                                     

 cryst.   s( 1) = (     1          0          0      )
                  (     0          1          0      )
                  (     0          0          1      )

 cart.    s( 1) = (  1.0000000  0.0000000  0.0000000 )
                  (  0.0000000  1.0000000  0.0000000 )
                  (  0.0000000  0.0000000  1.0000000 )


   Cartesian axes

     site n.     atom                  positions (alat units)
         1           Sr  tau(   1) = (   0.2508693   0.7491307   1.7574407  )
         2           O   tau(   2) = (   0.4985141   0.5014859   1.7715967  )
         3           Sr  tau(   3) = (   0.7482398   0.7454518   1.7648669  )
         4           Sr  tau(   4) = (   0.7441748   0.2558252   1.7667843  )
         5           Sr  tau(   5) = (   0.2508693   0.7491307   1.2696799  )
         6           Sr  tau(   6) = (   0.2508693   0.7491307   0.7632319  )
         7           Co  tau(   7) = (   0.4998914   0.5001086   1.0164559  )
         8           Co  tau(   8) = (   0.4936915   0.5063085   1.5135603  )
         9           O   tau(   9) = (   0.4988895   0.7610401   1.0164559  )
        10           O   tau(  10) = (   0.2389599   0.5011105   1.0164559  )
        11           O   tau(  11) = (   0.0070918   0.7374880   1.0164559  )
        12           O   tau(  12) = (   0.0088340   0.7405089   1.5135603  )
        13           O   tau(  13) = (   0.5066944   0.7415376   1.5135603  )
        14           O   tau(  14) = (   0.2584624   0.4933056   1.5135603  )
        15           O   tau(  15) = (   0.4985141   0.5014859   0.7773880  )
        16           O   tau(  16) = (   0.4985141   0.5014859   1.2555238  )
        17           Sr  tau(  17) = (   0.7482398   0.7454518   0.7706582  )
        18           Sr  tau(  18) = (   0.7482398   0.7454518   1.2622536  )
        19           Sr  tau(  19) = (   0.7441748   0.2558252   0.7725755  )
        20           Sr  tau(  20) = (   0.7441748   0.2558252   1.2603363  )
        21           O   tau(  21) = (   0.7322655   0.0078049   1.5135603  )
        22           O   tau(  22) = (   0.7558175   0.4996027   1.5135603  )
        23           O   tau(  23) = (   0.5003973   0.2441825   1.5135603  )
        24           O   tau(  24) = (   0.7527966   0.4978604   1.0164559  )
        25           O   tau(  25) = (   0.5021396   0.2472034   1.0164559  )
        26           O   tau(  26) = (   0.7517679   0.0000000   1.0164559  )
        27           O   tau(  27) = (   0.0114961   0.4948124   1.7455321  )
        28           O   tau(  28) = (   0.0048226   0.0077944   1.7715967  )
        29           Sr  tau(  29) = (   0.2545482   0.2517602   1.7648669  )
        30           O   tau(  30) = (   0.5048017   0.0015068   1.7786929  )
        31           Co  tau(  31) = (   0.0056869   0.5006215   1.0164559  )
        32           Co  tau(  32) = (   0.0065315   0.4997770   1.5135603  )
        33           Co  tau(  33) = (   0.0061999   0.0064171   1.0164559  )
        34           Co  tau(  34) = (   0.0000000   0.0126169   1.5135603  )
        35           O   tau(  35) = (   0.0114961   0.4948124   1.2815885  )
        36           O   tau(  36) = (   0.0114961   0.4948124   0.7513233  )
        37           O   tau(  37) = (   0.0051979   0.2673486   1.0164559  )
        38           O   tau(  38) = (   0.0130029   0.2478461   1.5135603  )
        39           O   tau(  39) = (   0.0048226   0.0077944   0.7773880  )
        40           O   tau(  40) = (   0.0048226   0.0077944   1.2555238  )
        41           Sr  tau(  41) = (   0.2545482   0.2517602   0.7706582  )
        42           Sr  tau(  42) = (   0.2545482   0.2517602   1.2622536  )
        43           Co  tau(  43) = (   0.4989925   0.0073160   1.5135603  )
        44           Co  tau(  44) = (   0.4998370   0.0064714   1.0164559  )
        45           O   tau(  45) = (   0.5048017   0.0015068   0.7844841  )
        46           O   tau(  46) = (   0.5048017   0.0015068   1.2484277  )
        47           O   tau(  47) = (   0.2621260   0.0059111   1.5135603  )
        48           O   tau(  48) = (   0.2591051   0.0041689   1.0164559  )
        49           H   tau(  49) = (   0.7108228   0.0000000   2.1602013  )

   Crystallographic axes

     site n.     atom                  positions (cryst. coord.)
         1           Sr  tau(   1) = (  0.2508693  0.7491307  0.6943562  )
         2           O   tau(   2) = (  0.4985141  0.5014859  0.6999492  )
         3           Sr  tau(   3) = (  0.7482398  0.7454518  0.6972903  )
         4           Sr  tau(   4) = (  0.7441748  0.2558252  0.6980478  )
         5           Sr  tau(   5) = (  0.2508693  0.7491307  0.5016443  )
         6           Sr  tau(   6) = (  0.2508693  0.7491307  0.3015492  )
         7           Co  tau(   7) = (  0.4998914  0.5001086  0.4015968  )
         8           Co  tau(   8) = (  0.4936915  0.5063085  0.5980003  )
         9           O   tau(   9) = (  0.4988895  0.7610401  0.4015968  )
        10           O   tau(  10) = (  0.2389599  0.5011105  0.4015968  )
        11           O   tau(  11) = (  0.0070918  0.7374880  0.4015968  )
        12           O   tau(  12) = (  0.0088340  0.7405089  0.5980003  )
        13           O   tau(  13) = (  0.5066944  0.7415376  0.5980003  )
        14           O   tau(  14) = (  0.2584624  0.4933056  0.5980003  )
        15           O   tau(  15) = (  0.4985141  0.5014859  0.3071422  )
        16           O   tau(  16) = (  0.4985141  0.5014859  0.4960513  )
        17           Sr  tau(  17) = (  0.7482398  0.7454518  0.3044833  )
        18           Sr  tau(  18) = (  0.7482398  0.7454518  0.4987103  )
        19           Sr  tau(  19) = (  0.7441748  0.2558252  0.3052408  )
        20           Sr  tau(  20) = (  0.7441748  0.2558252  0.4979527  )
        21           O   tau(  21) = (  0.7322655  0.0078049  0.5980003  )
        22           O   tau(  22) = (  0.7558175  0.4996027  0.5980003  )
        23           O   tau(  23) = (  0.5003973  0.2441825  0.5980003  )
        24           O   tau(  24) = (  0.7527966  0.4978604  0.4015968  )
        25           O   tau(  25) = (  0.5021396  0.2472034  0.4015968  )
        26           O   tau(  26) = (  0.7517679  0.0000000  0.4015968  )
        27           O   tau(  27) = (  0.0114961  0.4948124  0.6896512  )
        28           O   tau(  28) = (  0.0048226  0.0077944  0.6999492  )
        29           Sr  tau(  29) = (  0.2545482  0.2517602  0.6972903  )
        30           O   tau(  30) = (  0.5048017  0.0015068  0.7027529  )
        31           Co  tau(  31) = (  0.0056869  0.5006215  0.4015968  )
        32           Co  tau(  32) = (  0.0065315  0.4997770  0.5980003  )
        33           Co  tau(  33) = (  0.0061999  0.0064171  0.4015968  )
        34           Co  tau(  34) = (  0.0000000  0.0126169  0.5980003  )
        35           O   tau(  35) = (  0.0114961  0.4948124  0.5063494  )
        36           O   tau(  36) = (  0.0114961  0.4948124  0.2968442  )
        37           O   tau(  37) = (  0.0051979  0.2673486  0.4015968  )
        38           O   tau(  38) = (  0.0130029  0.2478461  0.5980003  )
        39           O   tau(  39) = (  0.0048226  0.0077944  0.3071422  )
        40           O   tau(  40) = (  0.0048226  0.0077944  0.4960513  )
        41           Sr  tau(  41) = (  0.2545482  0.2517602  0.3044833  )
        42           Sr  tau(  42) = (  0.2545482  0.2517602  0.4987103  )
        43           Co  tau(  43) = (  0.4989925  0.0073160  0.5980003  )
        44           Co  tau(  44) = (  0.4998370  0.0064714  0.4015968  )
        45           O   tau(  45) = (  0.5048017  0.0015068  0.3099459  )
        46           O   tau(  46) = (  0.5048017  0.0015068  0.4932477  )
        47           O   tau(  47) = (  0.2621260  0.0059111  0.5980003  )
        48           O   tau(  48) = (  0.2591051  0.0041689  0.4015968  )
        49           H   tau(  49) = (  0.7108228  0.0000000  0.8534850  )

     number of k points=    10  Gaussian smearing, width (Ry)=  0.0700
                       cart. coord. in units 2pi/alat
        k(    1) = (   0.0000000   0.0000000   0.0000000), wk =   0.1250000
        k(    2) = (   0.0000000   0.2500000   0.0000000), wk =   0.2500000
        k(    3) = (   0.0000000  -0.5000000   0.0000000), wk =   0.1250000
        k(    4) = (   0.2500000   0.2500000   0.0000000), wk =   0.2500000
        k(    5) = (   0.2500000  -0.5000000   0.0000000), wk =   0.2500000
        k(    6) = (  -0.5000000  -0.5000000   0.0000000), wk =   0.1250000
        k(    7) = (   0.2500000   0.0000000   0.0000000), wk =   0.2500000
        k(    8) = (  -0.5000000   0.0000000   0.0000000), wk =   0.1250000
        k(    9) = (  -0.2500000   0.2500000   0.0000000), wk =   0.2500000
        k(   10) = (  -0.5000000   0.2500000   0.0000000), wk =   0.2500000

                       cryst. coord.
        k(    1) = (   0.0000000   0.0000000   0.0000000), wk =   0.1250000
        k(    2) = (   0.0000000   0.2500000   0.0000000), wk =   0.2500000
        k(    3) = (   0.0000000  -0.5000000   0.0000000), wk =   0.1250000
        k(    4) = (   0.2500000   0.2500000   0.0000000), wk =   0.2500000
        k(    5) = (   0.2500000  -0.5000000   0.0000000), wk =   0.2500000
        k(    6) = (  -0.5000000  -0.5000000   0.0000000), wk =   0.1250000
        k(    7) = (   0.2500000   0.0000000   0.0000000), wk =   0.2500000
        k(    8) = (  -0.5000000   0.0000000   0.0000000), wk =   0.1250000
        k(    9) = (  -0.2500000   0.2500000   0.0000000), wk =   0.2500000
        k(   10) = (  -0.5000000   0.2500000   0.0000000), wk =   0.2500000

     Dense  grid:  1474595 G-vectors     FFT dimensions: ( 108, 108, 270)

     Smooth grid:   521381 G-vectors     FFT dimensions: (  75,  75, 192)

     Dynamical RAM for                 wfc:      10.61 MB

     Dynamical RAM for     wfc (w. buffer):      63.63 MB

     Dynamical RAM for           str. fact:       3.75 MB

     Dynamical RAM for           local pot:       0.00 MB

     Dynamical RAM for          nlocal pot:      24.28 MB

     Dynamical RAM for                qrad:       7.03 MB

     Dynamical RAM for          rho,v,vnew:       6.02 MB

     Dynamical RAM for               rhoin:       2.01 MB

     Dynamical RAM for            rho*nmix:      15.00 MB

     Dynamical RAM for           G-vectors:       3.68 MB

     Dynamical RAM for          h,s,v(r/c):       1.32 MB

     Dynamical RAM for          <psi|beta>:       2.29 MB

     Dynamical RAM for                 psi:      21.21 MB

     Dynamical RAM for                hpsi:      21.21 MB

     Dynamical RAM for                spsi:      21.21 MB

     Dynamical RAM for      wfcinit/wfcrot:      34.09 MB

     Dynamical RAM for           addusdens:     100.79 MB

     Estimated static dynamical RAM per process >     120.42 MB

     Estimated max dynamical RAM per process >     236.21 MB

     Estimated total dynamical RAM >      10.72 GB

     Check: negative core charge=   -0.000004

     Initial potential from superposition of free atoms

     starting charge     416.5961, renormalised to     425.0000

     negative rho (up, down):  7.827E-01 0.000E+00
     Starting wfcs are  373 randomized atomic wfcs
     Checking if some PAW data can be deallocated... 
       PAW data deallocated on   20 nodes for type:  2

     total cpu time spent up to now is        8.6 secs

     Self-consistent Calculation

     iteration #  1     ecut=    60.00 Ry     beta= 0.15
     Davidson diagonalization with overlap

---- Real-time Memory Report at c_bands before calling an iterative solver
             0 MiB given to the printing process from OS
             0 MiB allocation reported by mallinfo(arena+hblkhd)
        170477 MiB available memory on the node where the printing process lives
------------------
     ethr =  1.00E-02,  avg # of iterations =  2.0

     negative rho (up, down):  7.718E-01 0.000E+00

     total cpu time spent up to now is       22.9 secs

     total energy              =   -4404.77068181 Ry
     estimated scf accuracy    <      42.17955574 Ry

     iteration #  2     ecut=    60.00 Ry     beta= 0.15
     Davidson diagonalization with overlap

---- Real-time Memory Report at c_bands before calling an iterative solver
             0 MiB given to the printing process from OS
             0 MiB allocation reported by mallinfo(arena+hblkhd)
        170688 MiB available memory on the node where the printing process lives
------------------
     ethr =  9.92E-03,  avg # of iterations =  1.0

     negative rho (up, down):  7.532E-01 0.000E+00

     total cpu time spent up to now is       35.0 secs

     total energy              =   -4400.01652085 Ry
     estimated scf accuracy    <      26.68295986 Ry

     iteration #  3     ecut=    60.00 Ry     beta= 0.15
     Davidson diagonalization with overlap

---- Real-time Memory Report at c_bands before calling an iterative solver
             0 MiB given to the printing process from OS
             0 MiB allocation reported by mallinfo(arena+hblkhd)
        169955 MiB available memory on the node where the printing process lives
------------------
     ethr =  6.28E-03,  avg # of iterations =  2.0

     negative rho (up, down):  7.544E-01 0.000E+00

     total cpu time spent up to now is       48.6 secs

     total energy              =   -4402.39593056 Ry
     estimated scf accuracy    <      49.55840859 Ry

     iteration #  4     ecut=    60.00 Ry     beta= 0.15
     Davidson diagonalization with overlap

---- Real-time Memory Report at c_bands before calling an iterative solver
             0 MiB given to the printing process from OS
             0 MiB allocation reported by mallinfo(arena+hblkhd)
        169839 MiB available memory on the node where the printing process lives
------------------
     ethr =  6.28E-03,  avg # of iterations =  1.0

     negative rho (up, down):  7.410E-01 0.000E+00

     total cpu time spent up to now is       60.6 secs

     total energy              =   -4401.66858266 Ry
     estimated scf accuracy    <      29.67134895 Ry

     iteration #  5     ecut=    60.00 Ry     beta= 0.15
     Davidson diagonalization with overlap

---- Real-time Memory Report at c_bands before calling an iterative solver
             0 MiB given to the printing process from OS
             0 MiB allocation reported by mallinfo(arena+hblkhd)
        169820 MiB available memory on the node where the printing process lives
------------------
     ethr =  6.28E-03,  avg # of iterations =  1.0

     negative rho (up, down):  7.469E-01 0.000E+00

     total cpu time spent up to now is       72.6 secs

     total energy              =   -4399.89851111 Ry
     estimated scf accuracy    <      44.55540727 Ry

     iteration #  6     ecut=    60.00 Ry     beta= 0.15
     Davidson diagonalization with overlap

---- Real-time Memory Report at c_bands before calling an iterative solver
             0 MiB given to the printing process from OS
             0 MiB allocation reported by mallinfo(arena+hblkhd)
        169801 MiB available memory on the node where the printing process lives
------------------
     ethr =  6.28E-03,  avg # of iterations =  1.0

     negative rho (up, down):  7.421E-01 0.000E+00

     total cpu time spent up to now is       84.8 secs

     total energy              =   -4400.66632901 Ry
     estimated scf accuracy    <      11.78789069 Ry

     iteration #  7     ecut=    60.00 Ry     beta= 0.15
     Davidson diagonalization with overlap

---- Real-time Memory Report at c_bands before calling an iterative solver
             0 MiB given to the printing process from OS
             0 MiB allocation reported by mallinfo(arena+hblkhd)
        169781 MiB available memory on the node where the printing process lives
------------------
     ethr =  2.77E-03,  avg # of iterations =  1.1

     negative rho (up, down):  7.443E-01 0.000E+00

     total cpu time spent up to now is       97.0 secs

     total energy              =   -4400.80254397 Ry
     estimated scf accuracy    <       4.17710173 Ry

     iteration #  8     ecut=    60.00 Ry     beta= 0.15
     Davidson diagonalization with overlap

---- Real-time Memory Report at c_bands before calling an iterative solver
             0 MiB given to the printing process from OS
             0 MiB allocation reported by mallinfo(arena+hblkhd)
        169752 MiB available memory on the node where the printing process lives
------------------
     ethr =  9.83E-04,  avg # of iterations =  1.6

     negative rho (up, down):  7.534E-01 0.000E+00

     total cpu time spent up to now is      109.4 secs

     total energy              =   -4400.33315876 Ry
     estimated scf accuracy    <       3.63937432 Ry

     iteration #  9     ecut=    60.00 Ry     beta= 0.15
     Davidson diagonalization with overlap

---- Real-time Memory Report at c_bands before calling an iterative solver
             0 MiB given to the printing process from OS
             0 MiB allocation reported by mallinfo(arena+hblkhd)
        169741 MiB available memory on the node where the printing process lives
------------------
     ethr =  8.56E-04,  avg # of iterations =  4.0

     negative rho (up, down):  7.765E-01 0.000E+00

     total cpu time spent up to now is      124.3 secs

     total energy              =   -4399.85149033 Ry
     estimated scf accuracy    <      41.23252813 Ry

     iteration # 10     ecut=    60.00 Ry     beta= 0.15
     Davidson diagonalization with overlap

---- Real-time Memory Report at c_bands before calling an iterative solver
             0 MiB given to the printing process from OS
             0 MiB allocation reported by mallinfo(arena+hblkhd)
        169653 MiB available memory on the node where the printing process lives
------------------
     ethr =  8.56E-04,  avg # of iterations =  9.3

     negative rho (up, down):  7.785E-01 0.000E+00

     total cpu time spent up to now is      142.4 secs

     total energy              =   -4399.81129029 Ry
     estimated scf accuracy    <      12.11176145 Ry

     iteration # 11     ecut=    60.00 Ry     beta= 0.15
     Davidson diagonalization with overlap

---- Real-time Memory Report at c_bands before calling an iterative solver
             0 MiB given to the printing process from OS
             0 MiB allocation reported by mallinfo(arena+hblkhd)
        169285 MiB available memory on the node where the printing process lives
------------------
     ethr =  8.56E-04,  avg # of iterations =  1.1

     negative rho (up, down):  7.812E-01 0.000E+00

     total cpu time spent up to now is      154.9 secs

     total energy              =   -4400.11965517 Ry
     estimated scf accuracy    <       1.27836302 Ry

     iteration # 12     ecut=    60.00 Ry     beta= 0.15
     Davidson diagonalization with overlap

---- Real-time Memory Report at c_bands before calling an iterative solver
             0 MiB given to the printing process from OS
             0 MiB allocation reported by mallinfo(arena+hblkhd)
        169306 MiB available memory on the node where the printing process lives
------------------
     ethr =  3.01E-04,  avg # of iterations =  2.8

     negative rho (up, down):  7.891E-01 0.000E+00

     total cpu time spent up to now is      169.4 secs

     total energy              =   -4400.08724720 Ry
     estimated scf accuracy    <       0.73260442 Ry

     iteration # 13     ecut=    60.00 Ry     beta= 0.15
     Davidson diagonalization with overlap

---- Real-time Memory Report at c_bands before calling an iterative solver
             0 MiB given to the printing process from OS
             0 MiB allocation reported by mallinfo(arena+hblkhd)
        169266 MiB available memory on the node where the printing process lives
------------------
     ethr =  1.72E-04,  avg # of iterations =  5.1

     negative rho (up, down):  8.016E-01 0.000E+00

     total cpu time spent up to now is      184.5 secs

     total energy              =   -4400.08711718 Ry
     estimated scf accuracy    <       1.12777614 Ry

     iteration # 14     ecut=    60.00 Ry     beta= 0.15
     Davidson diagonalization with overlap

---- Real-time Memory Report at c_bands before calling an iterative solver
             0 MiB given to the printing process from OS
             0 MiB allocation reported by mallinfo(arena+hblkhd)
        169245 MiB available memory on the node where the printing process lives
------------------
     ethr =  1.72E-04,  avg # of iterations =  6.3

     negative rho (up, down):  8.033E-01 0.000E+00

     total cpu time spent up to now is      200.0 secs

     total energy              =   -4400.01853804 Ry
     estimated scf accuracy    <       1.77095948 Ry

     iteration # 15     ecut=    60.00 Ry     beta= 0.15
     Davidson diagonalization with overlap

---- Real-time Memory Report at c_bands before calling an iterative solver
             0 MiB given to the printing process from OS
             0 MiB allocation reported by mallinfo(arena+hblkhd)
        169241 MiB available memory on the node where the printing process lives
------------------
     ethr =  1.72E-04,  avg # of iterations =  3.4

     negative rho (up, down):  8.062E-01 0.000E+00

     total cpu time spent up to now is      213.8 secs

     total energy              =   -4400.05032205 Ry
     estimated scf accuracy    <       0.38841005 Ry

     iteration # 16     ecut=    60.00 Ry     beta= 0.15
     Davidson diagonalization with overlap

---- Real-time Memory Report at c_bands before calling an iterative solver
             0 MiB given to the printing process from OS
             0 MiB allocation reported by mallinfo(arena+hblkhd)
        169237 MiB available memory on the node where the printing process lives
------------------
     c_bands:  1 eigenvalues not converged
     ethr =  9.14E-05,  avg # of iterations =  5.5

     negative rho (up, down):  8.094E-01 0.000E+00

     total cpu time spent up to now is      229.2 secs

     total energy              =   -4400.02046195 Ry
     estimated scf accuracy    <       0.31735643 Ry

     iteration # 17     ecut=    60.00 Ry     beta= 0.15
     Davidson diagonalization with overlap

---- Real-time Memory Report at c_bands before calling an iterative solver
             0 MiB given to the printing process from OS
             0 MiB allocation reported by mallinfo(arena+hblkhd)
        169240 MiB available memory on the node where the printing process lives
------------------
     ethr =  7.47E-05,  avg # of iterations =  9.9

     negative rho (up, down):  8.178E-01 0.000E+00

     total cpu time spent up to now is      245.9 secs

     total energy              =   -4399.94719915 Ry
     estimated scf accuracy    <       0.28222827 Ry

     iteration # 18     ecut=    60.00 Ry     beta= 0.15
     Davidson diagonalization with overlap

---- Real-time Memory Report at c_bands before calling an iterative solver
             0 MiB given to the printing process from OS
             0 MiB allocation reported by mallinfo(arena+hblkhd)
        169282 MiB available memory on the node where the printing process lives
------------------
     ethr =  6.64E-05,  avg # of iterations = 10.9

     negative rho (up, down):  8.252E-01 0.000E+00

     total cpu time spent up to now is      264.9 secs

     total energy              =   -4399.94593876 Ry
     estimated scf accuracy    <       0.11780785 Ry

     iteration # 19     ecut=    60.00 Ry     beta= 0.15
     Davidson diagonalization with overlap

---- Real-time Memory Report at c_bands before calling an iterative solver
             0 MiB given to the printing process from OS
             0 MiB allocation reported by mallinfo(arena+hblkhd)
        169125 MiB available memory on the node where the printing process lives
------------------
     c_bands:  1 eigenvalues not converged
     ethr =  2.77E-05,  avg # of iterations =  6.5

     negative rho (up, down):  8.227E-01 0.000E+00

     total cpu time spent up to now is      281.0 secs

     total energy              =   -4399.93415706 Ry
     estimated scf accuracy    <       0.09599583 Ry

     iteration # 20     ecut=    60.00 Ry     beta= 0.15
     Davidson diagonalization with overlap

---- Real-time Memory Report at c_bands before calling an iterative solver
             0 MiB given to the printing process from OS
             0 MiB allocation reported by mallinfo(arena+hblkhd)
        169141 MiB available memory on the node where the printing process lives
------------------
     ethr =  2.26E-05,  avg # of iterations =  5.9

     negative rho (up, down):  8.131E-01 0.000E+00

     total cpu time spent up to now is      296.9 secs

     total energy              =   -4399.92091028 Ry
     estimated scf accuracy    <       0.12273475 Ry

     iteration # 21     ecut=    60.00 Ry     beta= 0.15
     Davidson diagonalization with overlap

---- Real-time Memory Report at c_bands before calling an iterative solver
             0 MiB given to the printing process from OS
             0 MiB allocation reported by mallinfo(arena+hblkhd)
        169144 MiB available memory on the node where the printing process lives
------------------
     ethr =  2.26E-05,  avg # of iterations =  7.4

     negative rho (up, down):  8.101E-01 0.000E+00

     total cpu time spent up to now is      313.8 secs

     total energy              =   -4399.92070805 Ry
     estimated scf accuracy    <       0.04141434 Ry

     iteration # 22     ecut=    60.00 Ry     beta= 0.15
     Davidson diagonalization with overlap

---- Real-time Memory Report at c_bands before calling an iterative solver
             0 MiB given to the printing process from OS
             0 MiB allocation reported by mallinfo(arena+hblkhd)
        169089 MiB available memory on the node where the printing process lives
------------------
     ethr =  9.74E-06,  avg # of iterations =  9.5

     negative rho (up, down):  8.047E-01 0.000E+00

     total cpu time spent up to now is      330.8 secs

     total energy              =   -4399.91828197 Ry
     estimated scf accuracy    <       0.02761871 Ry

     iteration # 23     ecut=    60.00 Ry     beta= 0.15
     Davidson diagonalization with overlap

---- Real-time Memory Report at c_bands before calling an iterative solver
             0 MiB given to the printing process from OS
             0 MiB allocation reported by mallinfo(arena+hblkhd)
        169028 MiB available memory on the node where the printing process lives
------------------
     c_bands:  1 eigenvalues not converged
     ethr =  6.50E-06,  avg # of iterations =  7.6

     negative rho (up, down):  7.984E-01 0.000E+00

     total cpu time spent up to now is      347.3 secs

     total energy              =   -4399.91690672 Ry
     estimated scf accuracy    <       0.01854049 Ry

     iteration # 24     ecut=    60.00 Ry     beta= 0.15
     Davidson diagonalization with overlap

---- Real-time Memory Report at c_bands before calling an iterative solver
             0 MiB given to the printing process from OS
             0 MiB allocation reported by mallinfo(arena+hblkhd)
        168968 MiB available memory on the node where the printing process lives
------------------
     ethr =  4.36E-06,  avg # of iterations =  9.5

     negative rho (up, down):  7.949E-01 0.000E+00

     total cpu time spent up to now is      364.1 secs

     total energy              =   -4399.91644807 Ry
     estimated scf accuracy    <       0.01139903 Ry

     iteration # 25     ecut=    60.00 Ry     beta= 0.15
     Davidson diagonalization with overlap

---- Real-time Memory Report at c_bands before calling an iterative solver
             0 MiB given to the printing process from OS
             0 MiB allocation reported by mallinfo(arena+hblkhd)
        168988 MiB available memory on the node where the printing process lives
------------------
     ethr =  2.68E-06,  avg # of iterations =  5.4

     negative rho (up, down):  7.920E-01 0.000E+00

     total cpu time spent up to now is      379.4 secs

     total energy              =   -4399.91528066 Ry
     estimated scf accuracy    <       0.00861372 Ry

     iteration # 26     ecut=    60.00 Ry     beta= 0.15
     Davidson diagonalization with overlap

---- Real-time Memory Report at c_bands before calling an iterative solver
             0 MiB given to the printing process from OS
             0 MiB allocation reported by mallinfo(arena+hblkhd)
        168995 MiB available memory on the node where the printing process lives
------------------
     c_bands:  1 eigenvalues not converged
     c_bands:  1 eigenvalues not converged
     ethr =  2.03E-06,  avg # of iterations = 12.2

     negative rho (up, down):  7.975E-01 0.000E+00

     total cpu time spent up to now is      398.3 secs

     total energy              =   -4399.91543386 Ry
     estimated scf accuracy    <       0.00330230 Ry

     iteration # 27     ecut=    60.00 Ry     beta= 0.15
     Davidson diagonalization with overlap

---- Real-time Memory Report at c_bands before calling an iterative solver
             0 MiB given to the printing process from OS
             0 MiB allocation reported by mallinfo(arena+hblkhd)
        169011 MiB available memory on the node where the printing process lives
------------------
     ethr =  7.77E-07,  avg # of iterations = 10.6

     negative rho (up, down):  7.992E-01 0.000E+00

     total cpu time spent up to now is      416.2 secs

     total energy              =   -4399.91563270 Ry
     estimated scf accuracy    <       0.00140967 Ry

     iteration # 28     ecut=    60.00 Ry     beta= 0.15
     Davidson diagonalization with overlap

---- Real-time Memory Report at c_bands before calling an iterative solver
             0 MiB given to the printing process from OS
             0 MiB allocation reported by mallinfo(arena+hblkhd)
        168967 MiB available memory on the node where the printing process lives
------------------
     ethr =  3.32E-07,  avg # of iterations =  9.7

     negative rho (up, down):  7.959E-01 0.000E+00

     total cpu time spent up to now is      432.7 secs

     total energy              =   -4399.91547593 Ry
     estimated scf accuracy    <       0.00090947 Ry

     iteration # 29     ecut=    60.00 Ry     beta= 0.15
     Davidson diagonalization with overlap

---- Real-time Memory Report at c_bands before calling an iterative solver
             0 MiB given to the printing process from OS
             0 MiB allocation reported by mallinfo(arena+hblkhd)
        168918 MiB available memory on the node where the printing process lives
------------------
     ethr =  2.14E-07,  avg # of iterations =  6.9

     negative rho (up, down):  7.952E-01 0.000E+00

     total cpu time spent up to now is      448.4 secs

     total energy              =   -4399.91538732 Ry
     estimated scf accuracy    <       0.00059964 Ry

     iteration # 30     ecut=    60.00 Ry     beta= 0.15
     Davidson diagonalization with overlap

---- Real-time Memory Report at c_bands before calling an iterative solver
             0 MiB given to the printing process from OS
             0 MiB allocation reported by mallinfo(arena+hblkhd)
        168958 MiB available memory on the node where the printing process lives
------------------
     ethr =  1.41E-07,  avg # of iterations =  5.3

     negative rho (up, down):  7.938E-01 0.000E+00

     total cpu time spent up to now is      463.3 secs

     total energy              =   -4399.91532891 Ry
     estimated scf accuracy    <       0.00026849 Ry

     iteration # 31     ecut=    60.00 Ry     beta= 0.15
     Davidson diagonalization with overlap

---- Real-time Memory Report at c_bands before calling an iterative solver
             0 MiB given to the printing process from OS
             0 MiB allocation reported by mallinfo(arena+hblkhd)
        169004 MiB available memory on the node where the printing process lives
------------------
     ethr =  6.32E-08,  avg # of iterations =  3.1

     negative rho (up, down):  7.935E-01 0.000E+00

     total cpu time spent up to now is      477.9 secs

     total energy              =   -4399.91533111 Ry
     estimated scf accuracy    <       0.00009622 Ry

     iteration # 32     ecut=    60.00 Ry     beta= 0.15
     Davidson diagonalization with overlap

---- Real-time Memory Report at c_bands before calling an iterative solver
             0 MiB given to the printing process from OS
             0 MiB allocation reported by mallinfo(arena+hblkhd)
        169008 MiB available memory on the node where the printing process lives
------------------
     ethr =  2.26E-08,  avg # of iterations =  3.7

     negative rho (up, down):  7.931E-01 0.000E+00

     total cpu time spent up to now is      492.8 secs

     total energy              =   -4399.91533125 Ry
     estimated scf accuracy    <       0.00003910 Ry

     iteration # 33     ecut=    60.00 Ry     beta= 0.15
     Davidson diagonalization with overlap

---- Real-time Memory Report at c_bands before calling an iterative solver
             0 MiB given to the printing process from OS
             0 MiB allocation reported by mallinfo(arena+hblkhd)
        169023 MiB available memory on the node where the printing process lives
------------------
     ethr =  9.20E-09,  avg # of iterations =  2.2

     negative rho (up, down):  7.929E-01 0.000E+00

     total cpu time spent up to now is      506.4 secs

     total energy              =   -4399.91533413 Ry
     estimated scf accuracy    <       0.00002997 Ry

     iteration # 34     ecut=    60.00 Ry     beta= 0.15
     Davidson diagonalization with overlap

---- Real-time Memory Report at c_bands before calling an iterative solver
             0 MiB given to the printing process from OS
             0 MiB allocation reported by mallinfo(arena+hblkhd)
        169025 MiB available memory on the node where the printing process lives
------------------
     ethr =  7.05E-09,  avg # of iterations =  1.2

     negative rho (up, down):  7.925E-01 0.000E+00

     total cpu time spent up to now is      518.7 secs

     total energy              =   -4399.91534375 Ry
     estimated scf accuracy    <       0.00002214 Ry

     iteration # 35     ecut=    60.00 Ry     beta= 0.15
     Davidson diagonalization with overlap

---- Real-time Memory Report at c_bands before calling an iterative solver
             0 MiB given to the printing process from OS
             0 MiB allocation reported by mallinfo(arena+hblkhd)
        169023 MiB available memory on the node where the printing process lives
------------------
     ethr =  5.21E-09,  avg # of iterations =  3.2

     negative rho (up, down):  7.924E-01 0.000E+00

     total cpu time spent up to now is      532.8 secs

     total energy              =   -4399.91534620 Ry
     estimated scf accuracy    <       0.00000977 Ry

     iteration # 36     ecut=    60.00 Ry     beta= 0.15
     Davidson diagonalization with overlap

---- Real-time Memory Report at c_bands before calling an iterative solver
             0 MiB given to the printing process from OS
             0 MiB allocation reported by mallinfo(arena+hblkhd)
        169032 MiB available memory on the node where the printing process lives
------------------
     ethr =  2.30E-09,  avg # of iterations =  3.2

     negative rho (up, down):  7.923E-01 0.000E+00

     total cpu time spent up to now is      546.8 secs

     total energy              =   -4399.91534804 Ry
     estimated scf accuracy    <       0.00000440 Ry

     iteration # 37     ecut=    60.00 Ry     beta= 0.15
     Davidson diagonalization with overlap

---- Real-time Memory Report at c_bands before calling an iterative solver
             0 MiB given to the printing process from OS
             0 MiB allocation reported by mallinfo(arena+hblkhd)
        169040 MiB available memory on the node where the printing process lives
------------------
     ethr =  1.03E-09,  avg # of iterations =  2.6

     negative rho (up, down):  7.923E-01 0.000E+00

     total cpu time spent up to now is      560.9 secs

     total energy              =   -4399.91534895 Ry
     estimated scf accuracy    <       0.00000256 Ry

     iteration # 38     ecut=    60.00 Ry     beta= 0.15
     Davidson diagonalization with overlap

---- Real-time Memory Report at c_bands before calling an iterative solver
             0 MiB given to the printing process from OS
             0 MiB allocation reported by mallinfo(arena+hblkhd)
        169054 MiB available memory on the node where the printing process lives
------------------
     ethr =  6.02E-10,  avg # of iterations =  3.0

     negative rho (up, down):  7.923E-01 0.000E+00

     total cpu time spent up to now is      574.9 secs

     total energy              =   -4399.91534952 Ry
     estimated scf accuracy    <       0.00000125 Ry

     iteration # 39     ecut=    60.00 Ry     beta= 0.15
     Davidson diagonalization with overlap

---- Real-time Memory Report at c_bands before calling an iterative solver
             0 MiB given to the printing process from OS
             0 MiB allocation reported by mallinfo(arena+hblkhd)
        169044 MiB available memory on the node where the printing process lives
------------------
     ethr =  2.95E-10,  avg # of iterations =  3.0

     negative rho (up, down):  7.924E-01 0.000E+00

     total cpu time spent up to now is      589.1 secs

     total energy              =   -4399.91534956 Ry
     estimated scf accuracy    <       0.00000089 Ry

     iteration # 40     ecut=    60.00 Ry     beta= 0.15
     Davidson diagonalization with overlap

---- Real-time Memory Report at c_bands before calling an iterative solver
             0 MiB given to the printing process from OS
             0 MiB allocation reported by mallinfo(arena+hblkhd)
        169044 MiB available memory on the node where the printing process lives
------------------
     ethr =  2.10E-10,  avg # of iterations =  1.1

     negative rho (up, down):  7.924E-01 0.000E+00

     total cpu time spent up to now is      601.9 secs

     total energy              =   -4399.91534975 Ry
     estimated scf accuracy    <       0.00000063 Ry

     iteration # 41     ecut=    60.00 Ry     beta= 0.15
     Davidson diagonalization with overlap

---- Real-time Memory Report at c_bands before calling an iterative solver
             0 MiB given to the printing process from OS
             0 MiB allocation reported by mallinfo(arena+hblkhd)
        169044 MiB available memory on the node where the printing process lives
------------------
     ethr =  1.49E-10,  avg # of iterations =  2.2

     negative rho (up, down):  7.924E-01 0.000E+00

     total cpu time spent up to now is      615.8 secs

     total energy              =   -4399.91534986 Ry
     estimated scf accuracy    <       0.00000040 Ry

     iteration # 42     ecut=    60.00 Ry     beta= 0.15
     Davidson diagonalization with overlap

---- Real-time Memory Report at c_bands before calling an iterative solver
             0 MiB given to the printing process from OS
             0 MiB allocation reported by mallinfo(arena+hblkhd)
        169046 MiB available memory on the node where the printing process lives
------------------
     ethr =  9.40E-11,  avg # of iterations =  2.9

     negative rho (up, down):  7.924E-01 0.000E+00

     total cpu time spent up to now is      630.0 secs

     total energy              =   -4399.91534991 Ry
     estimated scf accuracy    <       0.00000019 Ry

     iteration # 43     ecut=    60.00 Ry     beta= 0.15
     Davidson diagonalization with overlap

---- Real-time Memory Report at c_bands before calling an iterative solver
             0 MiB given to the printing process from OS
             0 MiB allocation reported by mallinfo(arena+hblkhd)
        169049 MiB available memory on the node where the printing process lives
------------------
     ethr =  4.45E-11,  avg # of iterations =  3.2

     negative rho (up, down):  7.924E-01 0.000E+00

     total cpu time spent up to now is      644.6 secs

     total energy              =   -4399.91534992 Ry
     estimated scf accuracy    <       0.00000010 Ry

     iteration # 44     ecut=    60.00 Ry     beta= 0.15
     Davidson diagonalization with overlap

---- Real-time Memory Report at c_bands before calling an iterative solver
             0 MiB given to the printing process from OS
             0 MiB allocation reported by mallinfo(arena+hblkhd)
        169047 MiB available memory on the node where the printing process lives
------------------
     ethr =  2.24E-11,  avg # of iterations =  2.3

     negative rho (up, down):  7.924E-01 0.000E+00

     total cpu time spent up to now is      658.6 secs

     total energy              =   -4399.91534991 Ry
     estimated scf accuracy    <       0.00000008 Ry

     iteration # 45     ecut=    60.00 Ry     beta= 0.15
     Davidson diagonalization with overlap

---- Real-time Memory Report at c_bands before calling an iterative solver
             0 MiB given to the printing process from OS
             0 MiB allocation reported by mallinfo(arena+hblkhd)
        169048 MiB available memory on the node where the printing process lives
------------------
     ethr =  1.78E-11,  avg # of iterations =  2.5

     negative rho (up, down):  7.924E-01 0.000E+00

     total cpu time spent up to now is      673.0 secs

     total energy              =   -4399.91534992 Ry
     estimated scf accuracy    <       0.00000005 Ry

     iteration # 46     ecut=    60.00 Ry     beta= 0.15
     Davidson diagonalization with overlap

---- Real-time Memory Report at c_bands before calling an iterative solver
             0 MiB given to the printing process from OS
             0 MiB allocation reported by mallinfo(arena+hblkhd)
        169042 MiB available memory on the node where the printing process lives
------------------
     ethr =  1.06E-11,  avg # of iterations =  2.0

     negative rho (up, down):  7.924E-01 0.000E+00

     total cpu time spent up to now is      687.1 secs

     total energy              =   -4399.91534993 Ry
     estimated scf accuracy    <       0.00000004 Ry

     iteration # 47     ecut=    60.00 Ry     beta= 0.15
     Davidson diagonalization with overlap

---- Real-time Memory Report at c_bands before calling an iterative solver
             0 MiB given to the printing process from OS
             0 MiB allocation reported by mallinfo(arena+hblkhd)
        169045 MiB available memory on the node where the printing process lives
------------------
     ethr =  8.86E-12,  avg # of iterations =  2.3

     negative rho (up, down):  7.924E-01 0.000E+00

     total cpu time spent up to now is      701.2 secs

     total energy              =   -4399.91534994 Ry
     estimated scf accuracy    <       0.00000003 Ry

     iteration # 48     ecut=    60.00 Ry     beta= 0.15
     Davidson diagonalization with overlap

---- Real-time Memory Report at c_bands before calling an iterative solver
             0 MiB given to the printing process from OS
             0 MiB allocation reported by mallinfo(arena+hblkhd)
        169049 MiB available memory on the node where the printing process lives
------------------
     ethr =  6.58E-12,  avg # of iterations =  3.7

     negative rho (up, down):  7.924E-01 0.000E+00

     total cpu time spent up to now is      716.0 secs

     total energy              =   -4399.91534993 Ry
     estimated scf accuracy    <       0.00000001 Ry

     iteration # 49     ecut=    60.00 Ry     beta= 0.15
     Davidson diagonalization with overlap

---- Real-time Memory Report at c_bands before calling an iterative solver
             0 MiB given to the printing process from OS
             0 MiB allocation reported by mallinfo(arena+hblkhd)
        169050 MiB available memory on the node where the printing process lives
------------------
     ethr =  2.79E-12,  avg # of iterations =  3.8

     negative rho (up, down):  7.924E-01 0.000E+00

     total cpu time spent up to now is      729.9 secs

     End of self-consistent calculation

          k = 0.0000 0.0000 0.0000 ( 65197 PWs)   bands (ev):

   -92.7144 -92.6594 -92.5678 -92.5185 -92.4613 -92.4204 -92.4032 -92.2808
   -56.0678 -56.0458 -55.9253 -55.9150 -55.9061 -55.9019 -55.8642 -55.8371
   -55.8218 -55.8199 -55.8103 -55.7692 -55.7503 -55.7125 -55.6941 -55.6614
   -55.6527 -55.6089 -55.6061 -55.6058 -55.5973 -55.5556 -55.5336 -55.4482
   -31.2903 -31.2713 -31.1291 -31.0429 -31.0162 -30.9641 -30.9290 -30.8503
   -29.8622 -29.8196 -29.7930 -29.6855 -15.0950 -15.0568 -14.9716 -14.8417
   -14.6531 -14.5303 -14.2335 -14.2136 -14.1845 -14.1378 -14.0955 -14.0876
   -14.0744 -14.0560 -14.0378 -13.9888 -13.9443 -13.7936 -13.6212 -13.5821
   -13.5514 -13.5231 -13.5048 -13.4514 -13.4171 -13.3349 -13.2635 -13.1368
   -13.1229 -13.1120 -13.0879 -13.0697 -13.0601 -13.0271 -13.0142 -13.0041
   -12.9672 -12.9363 -12.9162 -12.8766 -12.8615 -12.8567 -12.8147 -12.8076
   -12.7933 -12.7714 -12.7243 -12.7170 -12.3553 -12.2097 -12.0643 -11.9969
   -11.8762 -11.8018 -11.7904 -11.7684 -11.7506 -11.6870 -11.6694 -11.6349
   -11.6052 -11.4947 -11.4143 -11.4108  -2.9563  -2.7234  -2.4939  -2.3477
    -2.2840  -2.1413  -1.8348  -1.8207  -1.8002  -1.7175  -1.6978  -1.6297
    -1.6135  -1.5720  -1.5274  -1.3465  -1.1234  -1.0939  -0.9444  -0.9304
    -0.8865  -0.8668  -0.8219  -0.8061  -0.7480  -0.7213  -0.6506  -0.6377
    -0.5606  -0.4295  -0.4159  -0.3885  -0.3073  -0.3034  -0.2854  -0.2153
    -0.1433  -0.1023  -0.0472  -0.0205   0.0376   0.1179   0.1658   0.1882
     0.1967   0.4543   0.4688   0.6419   0.7083   0.7743   0.8156   0.9090
     0.9223   0.9389   1.0069   1.0339   1.0681   1.1269   1.2595   1.3164
     1.3366   1.3551   1.3679   1.4352   1.5081   1.6091   1.6205   1.6857
     1.7013   1.7408   1.7608   1.7658   1.8246   1.8755   1.8853   1.9233
     1.9626   2.0105   2.1415   2.2236   2.2690   2.2876   2.4385   2.4543
     2.4949   2.4997   2.6007   2.6424   2.6674   2.6869   2.7011   2.7631
     2.8101   2.8968   2.9243   2.9379   2.9448   3.0119   3.0160   3.0399
     3.0477   3.0558   3.0735   3.0752   3.0883   3.0930   3.1085   3.1153
     3.1224   3.1430   3.1643   3.1695   3.1816   3.2235   3.3227   3.4216
     4.0961   4.4177   4.7593   4.8608   5.0219   5.8053   5.9270   5.9849
     6.0102   6.3011   6.3480   6.4777   6.4878   6.7344   7.0016   7.0891
     7.1364   7.2722   7.3041   7.5945   7.6507   7.6663   7.6808   7.9336
     7.9755   8.1055   8.1216   8.1924   8.5657   8.6433   8.7138   8.8480

     occupation numbers 
     1.0000   1.0000   1.0000   1.0000   1.0000   1.0000   1.0000   1.0000
     1.0000   1.0000   1.0000   1.0000   1.0000   1.0000   1.0000   1.0000
     1.0000   1.0000   1.0000   1.0000   1.0000   1.0000   1.0000   1.0000
     1.0000   1.0000   1.0000   1.0000   1.0000   1.0000   1.0000   1.0000
     1.0000   1.0000   1.0000   1.0000   1.0000   1.0000   1.0000   1.0000
     1.0000   1.0000   1.0000   1.0000   1.0000   1.0000   1.0000   1.0000
     1.0000   1.0000   1.0000   1.0000   1.0000   1.0000   1.0000   1.0000
     1.0000   1.0000   1.0000   1.0000   1.0000   1.0000   1.0000   1.0000
     1.0000   1.0000   1.0000   1.0000   1.0000   1.0000   1.0000   1.0000
     1.0000   1.0000   1.0000   1.0000   1.0000   1.0000   1.0000   1.0000
     1.0000   1.0000   1.0000   1.0000   1.0000   1.0000   1.0000   1.0000
     1.0000   1.0000   1.0000   1.0000   1.0000   1.0000   1.0000   1.0000
     1.0000   1.0000   1.0000   1.0000   1.0000   1.0000   1.0000   1.0000
     1.0000   1.0000   1.0000   1.0000   1.0000   1.0000   1.0000   1.0000
     1.0000   1.0000   1.0000   1.0000   1.0000   1.0000   1.0000   1.0000
     1.0000   1.0000   1.0000   1.0000   1.0000   1.0000   1.0000   1.0000
     1.0000   1.0000   1.0000   1.0000   1.0000   1.0000   1.0000   1.0000
     1.0000   1.0000   1.0000   1.0000   1.0000   1.0000   1.0000   1.0000
     1.0000   1.0000   1.0000   1.0000   1.0000   1.0000   1.0000   1.0000
     1.0000   1.0000   1.0000   1.0000   0.9999   0.9999   0.9999   0.9998
     0.9998   0.9998   0.9997   0.9996   0.9996   0.9994   0.9989   0.9985
     0.9983   0.9982   0.9981   0.9974   0.9963   0.9943   0.9940   0.9922
     0.9917   0.9902   0.9894   0.9892   0.9865   0.9836   0.9830   0.9805
     0.9776   0.9735   0.9591   0.9472   0.9396   0.9362   0.9031   0.8990
     0.8879   0.8866   0.8551   0.8405   0.8313   0.8239   0.8184   0.7931
     0.7726   0.7320   0.7184   0.7115   0.7080   0.6729   0.6707   0.6577
     0.6535   0.6490   0.6392   0.6383   0.6310   0.6284   0.6196   0.6158
     0.6117   0.6000   0.5877   0.5847   0.5776   0.5532   0.4946   0.4363
     0.1226   0.0505   0.0159   0.0108   0.0056   0.0001   0.0001   0.0000
     0.0000   0.0000   0.0000   0.0000   0.0000   0.0000   0.0000   0.0000
     0.0000   0.0000   0.0000   0.0000   0.0000   0.0000   0.0000   0.0000
     0.0000   0.0000   0.0000   0.0000   0.0000   0.0000   0.0000   0.0000

          k = 0.0000 0.2500 0.0000 ( 65257 PWs)   bands (ev):

   -92.7144 -92.6594 -92.5678 -92.5185 -92.4613 -92.4204 -92.4032 -92.2808
   -56.0678 -56.0458 -55.9253 -55.9150 -55.9061 -55.9019 -55.8642 -55.8371
   -55.8218 -55.8199 -55.8103 -55.7692 -55.7503 -55.7125 -55.6941 -55.6614
   -55.6527 -55.6089 -55.6061 -55.6058 -55.5973 -55.5556 -55.5336 -55.4482
   -31.2901 -31.2712 -31.1293 -31.0431 -31.0158 -30.9638 -30.9294 -30.8506
   -29.8616 -29.8193 -29.7936 -29.6859 -15.0581 -15.0309 -14.9466 -14.8123
   -14.6935 -14.5199 -14.3795 -14.1991 -14.1669 -14.1429 -14.1137 -14.0596
   -14.0514 -14.0393 -14.0199 -13.9673 -13.8641 -13.8248 -13.6614 -13.6456
   -13.5921 -13.5576 -13.5160 -13.4686 -13.4277 -13.3559 -13.3203 -13.2484
   -13.1977 -13.1604 -13.1214 -13.1039 -13.0480 -12.9998 -12.9756 -12.9472
   -12.9195 -12.9114 -12.8806 -12.8680 -12.8345 -12.8152 -12.8066 -12.7777
   -12.7511 -12.7234 -12.6393 -12.5514 -12.4166 -12.2609 -12.1206 -12.0640
   -11.8417 -11.7986 -11.7706 -11.7425 -11.7259 -11.6789 -11.6673 -11.6445
   -11.6105 -11.5090 -11.4560 -11.4454  -2.8211  -2.5990  -2.4618  -2.2797
    -2.2361  -2.0720  -1.8537  -1.7679  -1.7549  -1.6988  -1.5953  -1.5796
    -1.5457  -1.5191  -1.4755  -1.2776  -1.1494  -1.1375  -1.0615  -1.0509
    -0.9461  -0.9153  -0.8586  -0.8339  -0.7921  -0.7293  -0.7030  -0.6705
    -0.6382  -0.6217  -0.5891  -0.5145  -0.4639  -0.4038  -0.2890  -0.2720
    -0.2264  -0.1074  -0.0742  -0.0091   0.0385   0.1015   0.1150   0.1460
     0.2035   0.5009   0.5895   0.6196   0.7089   0.7554   0.7740   0.8955
     0.9130   1.0089   1.0340   1.0611   1.1760   1.2658   1.2920   1.3138
     1.3315   1.3599   1.4199   1.4470   1.4745   1.5229   1.5565   1.5859
     1.6651   1.6971   1.7398   1.7891   1.8455   1.8858   1.9130   1.9388
     1.9606   2.0457   2.1764   2.2488   2.2695   2.3451   2.3933   2.4307
     2.4405   2.5009   2.5408   2.6181   2.6596   2.6768   2.7859   2.8521
     2.8834   2.9066   2.9283   2.9468   2.9540   2.9611   2.9734   3.0003
     3.0011   3.0215   3.0260   3.0364   3.0549   3.0672   3.0746   3.0957
     3.1054   3.1100   3.1448   3.1621   3.2243   3.5954   3.6377   3.8654
     4.2816   4.4205   4.6923   5.0144   5.0504   5.6233   5.7581   5.9149
     5.9787   6.0786   6.1068   6.1750   6.5948   6.8395   6.9049   7.1044
     7.3238   7.4286   7.4745   7.4897   7.6344   7.7280   7.7769   8.0217
     8.0707   8.1079   8.1621   8.3123   8.4000   8.6451   8.7999   8.8622

     occupation numbers 
     1.0000   1.0000   1.0000   1.0000   1.0000   1.0000   1.0000   1.0000
     1.0000   1.0000   1.0000   1.0000   1.0000   1.0000   1.0000   1.0000
     1.0000   1.0000   1.0000   1.0000   1.0000   1.0000   1.0000   1.0000
     1.0000   1.0000   1.0000   1.0000   1.0000   1.0000   1.0000   1.0000
     1.0000   1.0000   1.0000   1.0000   1.0000   1.0000   1.0000   1.0000
     1.0000   1.0000   1.0000   1.0000   1.0000   1.0000   1.0000   1.0000
     1.0000   1.0000   1.0000   1.0000   1.0000   1.0000   1.0000   1.0000
     1.0000   1.0000   1.0000   1.0000   1.0000   1.0000   1.0000   1.0000
     1.0000   1.0000   1.0000   1.0000   1.0000   1.0000   1.0000   1.0000
     1.0000   1.0000   1.0000   1.0000   1.0000   1.0000   1.0000   1.0000
     1.0000   1.0000   1.0000   1.0000   1.0000   1.0000   1.0000   1.0000
     1.0000   1.0000   1.0000   1.0000   1.0000   1.0000   1.0000   1.0000
     1.0000   1.0000   1.0000   1.0000   1.0000   1.0000   1.0000   1.0000
     1.0000   1.0000   1.0000   1.0000   1.0000   1.0000   1.0000   1.0000
     1.0000   1.0000   1.0000   1.0000   1.0000   1.0000   1.0000   1.0000
     1.0000   1.0000   1.0000   1.0000   1.0000   1.0000   1.0000   1.0000
     1.0000   1.0000   1.0000   1.0000   1.0000   1.0000   1.0000   1.0000
     1.0000   1.0000   1.0000   1.0000   1.0000   1.0000   1.0000   1.0000
     1.0000   1.0000   1.0000   1.0000   1.0000   1.0000   1.0000   1.0000
     1.0000   1.0000   1.0000   1.0000   0.9999   0.9999   0.9999   0.9998
     0.9998   0.9997   0.9996   0.9996   0.9992   0.9988   0.9987   0.9985
     0.9984   0.9981   0.9975   0.9972   0.9968   0.9961   0.9955   0.9948
     0.9928   0.9918   0.9903   0.9882   0.9854   0.9830   0.9812   0.9794
     0.9777   0.9701   0.9543   0.9431   0.9395   0.9248   0.9141   0.9051
     0.9026   0.8862   0.8744   0.8491   0.8342   0.8278   0.7833   0.7534
     0.7385   0.7271   0.7163   0.7070   0.7033   0.6996   0.6932   0.6791
     0.6786   0.6677   0.6653   0.6597   0.6495   0.6427   0.6386   0.6268
     0.6213   0.6188   0.5989   0.5889   0.5527   0.3377   0.3152   0.2062
     0.0753   0.0501   0.0203   0.0058   0.0050   0.0003   0.0001   0.0001
     0.0000   0.0000   0.0000   0.0000   0.0000   0.0000   0.0000   0.0000
     0.0000   0.0000   0.0000   0.0000   0.0000   0.0000   0.0000   0.0000
     0.0000   0.0000   0.0000   0.0000   0.0000   0.0000   0.0000   0.0000

          k = 0.0000-0.5000 0.0000 ( 65180 PWs)   bands (ev):

   -92.7144 -92.6594 -92.5678 -92.5185 -92.4613 -92.4204 -92.4032 -92.2808
   -56.0678 -56.0458 -55.9253 -55.9150 -55.9061 -55.9019 -55.8642 -55.8371
   -55.8218 -55.8199 -55.8103 -55.7692 -55.7503 -55.7125 -55.6941 -55.6614
   -55.6527 -55.6089 -55.6061 -55.6058 -55.5973 -55.5556 -55.5336 -55.4482
   -31.2899 -31.2710 -31.1295 -31.0432 -31.0155 -30.9635 -30.9298 -30.8509
   -29.8610 -29.8190 -29.7943 -29.6862 -15.0255 -14.9764 -14.9242 -14.7970
   -14.7106 -14.5738 -14.4228 -14.2993 -14.1706 -14.0972 -14.0581 -14.0511
   -14.0029 -13.9848 -13.9364 -13.9186 -13.8920 -13.8567 -13.8243 -13.7823
   -13.5966 -13.5398 -13.5240 -13.4697 -13.4221 -13.3720 -13.3275 -13.2958
   -13.2808 -13.2305 -13.1222 -13.1047 -13.0358 -12.9833 -12.9737 -12.9620
   -12.9416 -12.8944 -12.8688 -12.8309 -12.8065 -12.7728 -12.7462 -12.7216
   -12.7176 -12.6645 -12.5276 -12.4891 -12.3361 -12.3272 -12.2314 -12.1854
   -11.7955 -11.7932 -11.7656 -11.7282 -11.6938 -11.6825 -11.6405 -11.6366
   -11.5924 -11.5306 -11.5168 -11.5026  -2.6068  -2.5466  -2.3961  -2.3236
    -2.0435  -1.9583  -1.8320  -1.6937  -1.6589  -1.6375  -1.5587  -1.5273
    -1.4458  -1.4101  -1.3340  -1.2929  -1.2542  -1.2270  -1.1716  -1.1318
    -1.0871  -1.0497  -1.0165  -0.9828  -0.8723  -0.8274  -0.7936  -0.7928
    -0.7067  -0.6737  -0.6511  -0.6016  -0.5187  -0.4455  -0.3662  -0.3397
    -0.2293  -0.1833  -0.0431  -0.0130   0.0186   0.0769   0.1974   0.2458
     0.3784   0.4455   0.4525   0.5810   0.6240   0.7349   0.8591   0.9681
     0.9986   1.0355   1.0398   1.0818   1.0969   1.1346   1.1509   1.1619
     1.2707   1.3327   1.3579   1.3832   1.6438   1.6793   1.6980   1.7958
     1.8200   1.8510   1.8676   1.8970   1.9090   1.9217   1.9525   1.9868
     2.0161   2.0429   2.0530   2.0840   2.1378   2.2176   2.2470   2.4344
     2.5892   2.5988   2.6098   2.6470   2.6540   2.6667   2.7148   2.7307
     2.7833   2.7981   2.8108   2.8921   2.8957   2.9633   2.9843   2.9959
     2.9972   3.0171   3.0241   3.0276   3.0300   3.0349   3.0557   3.0645
     3.0785   3.1300   3.1383   3.1515   3.2052   4.1150   4.1517   4.1719
     4.2395   4.7284   4.8843   5.0195   5.1353   5.4059   5.4533   5.5838
     5.6853   5.9845   6.0340   6.0436   6.6973   6.8509   6.9466   7.2164
     7.3196   7.3379   7.4042   7.4627   7.7418   7.8509   7.8875   7.9069
     8.1171   8.2056   8.4467   8.5278   8.6609   8.7130   8.8041   8.8452

     occupation numbers 
     1.0000   1.0000   1.0000   1.0000   1.0000   1.0000   1.0000   1.0000
     1.0000   1.0000   1.0000   1.0000   1.0000   1.0000   1.0000   1.0000
     1.0000   1.0000   1.0000   1.0000   1.0000   1.0000   1.0000   1.0000
     1.0000   1.0000   1.0000   1.0000   1.0000   1.0000   1.0000   1.0000
     1.0000   1.0000   1.0000   1.0000   1.0000   1.0000   1.0000   1.0000
     1.0000   1.0000   1.0000   1.0000   1.0000   1.0000   1.0000   1.0000
     1.0000   1.0000   1.0000   1.0000   1.0000   1.0000   1.0000   1.0000
     1.0000   1.0000   1.0000   1.0000   1.0000   1.0000   1.0000   1.0000
     1.0000   1.0000   1.0000   1.0000   1.0000   1.0000   1.0000   1.0000
     1.0000   1.0000   1.0000   1.0000   1.0000   1.0000   1.0000   1.0000
     1.0000   1.0000   1.0000   1.0000   1.0000   1.0000   1.0000   1.0000
     1.0000   1.0000   1.0000   1.0000   1.0000   1.0000   1.0000   1.0000
     1.0000   1.0000   1.0000   1.0000   1.0000   1.0000   1.0000   1.0000
     1.0000   1.0000   1.0000   1.0000   1.0000   1.0000   1.0000   1.0000
     1.0000   1.0000   1.0000   1.0000   1.0000   1.0000   1.0000   1.0000
     1.0000   1.0000   1.0000   1.0000   1.0000   1.0000   1.0000   1.0000
     1.0000   1.0000   1.0000   1.0000   1.0000   1.0000   1.0000   1.0000
     1.0000   1.0000   1.0000   1.0000   1.0000   1.0000   1.0000   1.0000
     1.0000   1.0000   1.0000   1.0000   1.0000   1.0000   1.0000   1.0000
     1.0000   1.0000   1.0000   1.0000   1.0000   0.9999   0.9999   0.9998
     0.9997   0.9996   0.9996   0.9995   0.9995   0.9994   0.9993   0.9993
     0.9988   0.9984   0.9982   0.9979   0.9934   0.9924   0.9918   0.9879
     0.9867   0.9851   0.9841   0.9823   0.9815   0.9806   0.9784   0.9756
     0.9730   0.9704   0.9694   0.9661   0.9596   0.9482   0.9434   0.9041
     0.8589   0.8557   0.8520   0.8388   0.8363   0.8316   0.8130   0.8066
     0.7844   0.7780   0.7723   0.7342   0.7325   0.6985   0.6875   0.6814
     0.6807   0.6701   0.6663   0.6644   0.6631   0.6605   0.6491   0.6442
     0.6364   0.6074   0.6026   0.5951   0.5639   0.1170   0.1067   0.1012
     0.0846   0.0178   0.0098   0.0057   0.0034   0.0009   0.0007   0.0004
     0.0002   0.0000   0.0000   0.0000   0.0000   0.0000   0.0000   0.0000
     0.0000   0.0000   0.0000   0.0000   0.0000   0.0000   0.0000   0.0000
     0.0000   0.0000   0.0000   0.0000   0.0000   0.0000   0.0000   0.0000

          k = 0.2500 0.2500 0.0000 ( 65198 PWs)   bands (ev):

   -92.7144 -92.6594 -92.5678 -92.5185 -92.4613 -92.4204 -92.4032 -92.2808
   -56.0678 -56.0458 -55.9253 -55.9150 -55.9061 -55.9019 -55.8642 -55.8371
   -55.8218 -55.8199 -55.8103 -55.7692 -55.7503 -55.7125 -55.6941 -55.6614
   -55.6527 -55.6089 -55.6061 -55.6058 -55.5973 -55.5556 -55.5336 -55.4482
   -31.2884 -31.2729 -31.1289 -31.0434 -31.0152 -30.9644 -30.9290 -30.8510
   -29.8606 -29.8203 -29.7933 -29.6863 -15.0300 -14.9960 -14.9187 -14.8018
   -14.6851 -14.5601 -14.4844 -14.2795 -14.1222 -14.1094 -14.0737 -14.0449
   -14.0236 -14.0005 -13.9668 -13.9281 -13.8545 -13.8389 -13.6765 -13.6635
   -13.6349 -13.6136 -13.5714 -13.5244 -13.4635 -13.4392 -13.3154 -13.2779
   -13.2415 -13.1550 -13.1141 -13.0625 -13.0318 -12.9989 -12.9871 -12.9599
   -12.9306 -12.9125 -12.8923 -12.8395 -12.8040 -12.7838 -12.7571 -12.7516
   -12.7404 -12.7260 -12.5556 -12.4651 -12.4382 -12.2901 -12.1520 -12.1140
   -11.8138 -11.7823 -11.7712 -11.7637 -11.7020 -11.6665 -11.6603 -11.6251
   -11.6164 -11.5257 -11.4843 -11.4669  -2.6829  -2.4733  -2.3558  -2.2620
    -2.1405  -2.0752  -1.8787  -1.7331  -1.7132  -1.6854  -1.5903  -1.5556
    -1.4619  -1.4353  -1.3847  -1.2528  -1.2056  -1.1332  -1.0878  -1.0439
    -1.0193  -0.9945  -0.9520  -0.9370  -0.8467  -0.7965  -0.7334  -0.6833
    -0.6527  -0.6017  -0.5889  -0.5261  -0.4770  -0.4231  -0.3856  -0.3022
    -0.2477  -0.2195  -0.1793  -0.1242  -0.0525  -0.0129   0.0114   0.0862
     0.1240   0.3929   0.5390   0.5770   0.6313   0.6758   0.7343   0.7868
     0.8475   0.8838   1.1560   1.2246   1.2980   1.3245   1.3702   1.4043
     1.4385   1.4758   1.4933   1.5212   1.5637   1.5729   1.5888   1.6312
     1.6735   1.7125   1.7659   1.8094   1.8140   1.8499   1.8852   1.9402
     1.9665   2.0899   2.1582   2.1941   2.2212   2.2838   2.3536   2.3810
     2.4173   2.4418   2.4558   2.5620   2.6013   2.6902   2.8018   2.8687
     2.8801   2.8872   2.9023   2.9185   2.9303   2.9424   2.9494   2.9619
     2.9730   2.9866   3.0050   3.0105   3.0226   3.0437   3.0563   3.0653
     3.0975   3.3981   3.4933   3.5310   3.6003   3.6531   3.8409   3.9409
     4.2871   4.5096   4.7014   4.9626   5.1643   5.6330   5.6763   5.7325
     5.8232   5.8821   6.0272   6.1489   6.2231   6.7209   6.8925   7.0617
     7.1832   7.5447   7.5945   7.6997   7.7571   7.8597   7.9330   8.1079
     8.1516   8.2054   8.3038   8.3172   8.4365   8.4814   8.7293   8.8572

     occupation numbers 
     1.0000   1.0000   1.0000   1.0000   1.0000   1.0000   1.0000   1.0000
     1.0000   1.0000   1.0000   1.0000   1.0000   1.0000   1.0000   1.0000
     1.0000   1.0000   1.0000   1.0000   1.0000   1.0000   1.0000   1.0000
     1.0000   1.0000   1.0000   1.0000   1.0000   1.0000   1.0000   1.0000
     1.0000   1.0000   1.0000   1.0000   1.0000   1.0000   1.0000   1.0000
     1.0000   1.0000   1.0000   1.0000   1.0000   1.0000   1.0000   1.0000
     1.0000   1.0000   1.0000   1.0000   1.0000   1.0000   1.0000   1.0000
     1.0000   1.0000   1.0000   1.0000   1.0000   1.0000   1.0000   1.0000
     1.0000   1.0000   1.0000   1.0000   1.0000   1.0000   1.0000   1.0000
     1.0000   1.0000   1.0000   1.0000   1.0000   1.0000   1.0000   1.0000
     1.0000   1.0000   1.0000   1.0000   1.0000   1.0000   1.0000   1.0000
     1.0000   1.0000   1.0000   1.0000   1.0000   1.0000   1.0000   1.0000
     1.0000   1.0000   1.0000   1.0000   1.0000   1.0000   1.0000   1.0000
     1.0000   1.0000   1.0000   1.0000   1.0000   1.0000   1.0000   1.0000
     1.0000   1.0000   1.0000   1.0000   1.0000   1.0000   1.0000   1.0000
     1.0000   1.0000   1.0000   1.0000   1.0000   1.0000   1.0000   1.0000
     1.0000   1.0000   1.0000   1.0000   1.0000   1.0000   1.0000   1.0000
     1.0000   1.0000   1.0000   1.0000   1.0000   1.0000   1.0000   1.0000
     1.0000   1.0000   1.0000   1.0000   1.0000   1.0000   1.0000   1.0000
     1.0000   1.0000   1.0000   1.0000   1.0000   1.0000   0.9999   0.9999
     0.9999   0.9998   0.9993   0.9990   0.9986   0.9984   0.9980   0.9977
     0.9973   0.9968   0.9966   0.9961   0.9953   0.9951   0.9948   0.9938
     0.9926   0.9913   0.9892   0.9872   0.9870   0.9851   0.9830   0.9793
     0.9773   0.9654   0.9569   0.9518   0.9476   0.9369   0.9230   0.9169
     0.9084   0.9023   0.8986   0.8678   0.8549   0.8227   0.7763   0.7455
     0.7401   0.7367   0.7293   0.7213   0.7153   0.7092   0.7056   0.6992
     0.6934   0.6863   0.6766   0.6736   0.6671   0.6557   0.6487   0.6438
     0.6258   0.4500   0.3947   0.3734   0.3351   0.3070   0.2168   0.1758
     0.0741   0.0379   0.0197   0.0072   0.0030   0.0003   0.0002   0.0002
     0.0001   0.0001   0.0000   0.0000   0.0000   0.0000   0.0000   0.0000
     0.0000   0.0000   0.0000   0.0000   0.0000   0.0000   0.0000   0.0000
     0.0000   0.0000   0.0000   0.0000   0.0000   0.0000   0.0000   0.0000

          k = 0.2500-0.5000 0.0000 ( 65138 PWs)   bands (ev):

   -92.7144 -92.6594 -92.5678 -92.5185 -92.4613 -92.4204 -92.4032 -92.2808
   -56.0678 -56.0458 -55.9253 -55.9150 -55.9061 -55.9019 -55.8642 -55.8371
   -55.8218 -55.8199 -55.8103 -55.7692 -55.7503 -55.7125 -55.6941 -55.6614
   -55.6527 -55.6089 -55.6061 -55.6058 -55.5973 -55.5556 -55.5336 -55.4482
   -31.2882 -31.2728 -31.1291 -31.0436 -31.0149 -30.9641 -30.9294 -30.8513
   -29.8600 -29.8200 -29.7939 -29.6866 -14.9954 -14.9496 -14.8815 -14.7665
   -14.7334 -14.6139 -14.5242 -14.3960 -14.0860 -14.0342 -14.0082 -13.9871
   -13.9700 -13.9570 -13.9218 -13.9069 -13.8724 -13.8329 -13.8113 -13.7728
   -13.6795 -13.6305 -13.5875 -13.5515 -13.4850 -13.4717 -13.3661 -13.3343
   -13.2198 -13.1548 -13.1326 -13.0468 -13.0036 -12.9893 -12.9842 -12.9570
   -12.9262 -12.9231 -12.8959 -12.8227 -12.8068 -12.7942 -12.7579 -12.7391
   -12.6684 -12.6367 -12.5343 -12.4621 -12.3336 -12.2976 -12.2241 -12.1879
   -11.7894 -11.7774 -11.7664 -11.7390 -11.7077 -11.6791 -11.6380 -11.6109
   -11.5885 -11.5438 -11.5178 -11.5068  -2.4653  -2.3984  -2.2701  -2.1924
    -2.0640  -1.9786  -1.8564  -1.7054  -1.6529  -1.6301  -1.5667  -1.5535
    -1.4564  -1.3893  -1.3044  -1.2557  -1.2461  -1.1823  -1.1412  -1.1051
    -1.0580  -1.0211  -0.9862  -0.9459  -0.9344  -0.8893  -0.8606  -0.8192
    -0.7882  -0.7209  -0.6210  -0.5785  -0.5023  -0.4376  -0.3906  -0.3456
    -0.3237  -0.2745  -0.1103  -0.0990  -0.0005   0.0412   0.0515   0.0934
     0.1230   0.1654   0.1901   0.2609   0.5288   0.6202   0.7011   0.7547
     1.0142   1.0421   1.1288   1.1552   1.3217   1.3537   1.3979   1.4208
     1.4365   1.4567   1.5172   1.5628   1.5997   1.6814   1.7675   1.8104
     1.8302   1.8386   1.8783   1.8921   1.8940   1.9393   1.9542   1.9734
     2.0036   2.0221   2.0453   2.0781   2.1365   2.1733   2.2518   2.3926
     2.5413   2.5553   2.5762   2.6029   2.6287   2.6526   2.6780   2.6863
     2.7091   2.8072   2.8196   2.8684   2.8813   2.8924   2.8991   2.9204
     2.9338   2.9555   2.9622   2.9911   3.0042   3.0180   3.0272   3.0357
     3.0489   3.5753   3.5881   3.7295   3.7792   4.1270   4.1673   4.1933
     4.2994   4.7468   4.9072   5.0540   5.1116   5.2928   5.4217   5.5920
     5.6114   5.7552   5.7782   6.1169   6.3924   6.4834   6.6437   6.9666
     7.4534   7.5248   7.6945   7.8020   7.8241   7.8688   8.0303   8.1600
     8.3142   8.4035   8.4442   8.5251   8.5396   8.6553   8.7136   8.7541

     occupation numbers 
     1.0000   1.0000   1.0000   1.0000   1.0000   1.0000   1.0000   1.0000
     1.0000   1.0000   1.0000   1.0000   1.0000   1.0000   1.0000   1.0000
     1.0000   1.0000   1.0000   1.0000   1.0000   1.0000   1.0000   1.0000
     1.0000   1.0000   1.0000   1.0000   1.0000   1.0000   1.0000   1.0000
     1.0000   1.0000   1.0000   1.0000   1.0000   1.0000   1.0000   1.0000
     1.0000   1.0000   1.0000   1.0000   1.0000   1.0000   1.0000   1.0000
     1.0000   1.0000   1.0000   1.0000   1.0000   1.0000   1.0000   1.0000
     1.0000   1.0000   1.0000   1.0000   1.0000   1.0000   1.0000   1.0000
     1.0000   1.0000   1.0000   1.0000   1.0000   1.0000   1.0000   1.0000
     1.0000   1.0000   1.0000   1.0000   1.0000   1.0000   1.0000   1.0000
     1.0000   1.0000   1.0000   1.0000   1.0000   1.0000   1.0000   1.0000
     1.0000   1.0000   1.0000   1.0000   1.0000   1.0000   1.0000   1.0000
     1.0000   1.0000   1.0000   1.0000   1.0000   1.0000   1.0000   1.0000
     1.0000   1.0000   1.0000   1.0000   1.0000   1.0000   1.0000   1.0000
     1.0000   1.0000   1.0000   1.0000   1.0000   1.0000   1.0000   1.0000
     1.0000   1.0000   1.0000   1.0000   1.0000   1.0000   1.0000   1.0000
     1.0000   1.0000   1.0000   1.0000   1.0000   1.0000   1.0000   1.0000
     1.0000   1.0000   1.0000   1.0000   1.0000   1.0000   1.0000   1.0000
     1.0000   1.0000   1.0000   1.0000   1.0000   1.0000   1.0000   1.0000
     1.0000   1.0000   1.0000   1.0000   1.0000   1.0000   0.9999   0.9999
     0.9997   0.9996   0.9994   0.9993   0.9985   0.9982   0.9978   0.9975
     0.9973   0.9971   0.9962   0.9953   0.9945   0.9923   0.9892   0.9872
     0.9862   0.9857   0.9835   0.9826   0.9825   0.9794   0.9782   0.9767
     0.9741   0.9724   0.9702   0.9667   0.9597   0.9548   0.9426   0.9143
     0.8743   0.8699   0.8632   0.8543   0.8454   0.8368   0.8273   0.8242
     0.8153   0.7739   0.7683   0.7457   0.7395   0.7341   0.7308   0.7203
     0.7136   0.7025   0.6991   0.6839   0.6770   0.6696   0.6647   0.6600
     0.6528   0.3487   0.3417   0.2684   0.2446   0.1135   0.1025   0.0957
     0.0716   0.0167   0.0090   0.0049   0.0038   0.0016   0.0009   0.0004
     0.0003   0.0001   0.0001   0.0000   0.0000   0.0000   0.0000   0.0000
     0.0000   0.0000   0.0000   0.0000   0.0000   0.0000   0.0000   0.0000
     0.0000   0.0000   0.0000   0.0000   0.0000   0.0000   0.0000   0.0000

          k =-0.5000-0.5000 0.0000 ( 65132 PWs)   bands (ev):

   -92.7144 -92.6594 -92.5678 -92.5185 -92.4613 -92.4204 -92.4032 -92.2808
   -56.0678 -56.0458 -55.9253 -55.9150 -55.9061 -55.9019 -55.8642 -55.8371
   -55.8218 -55.8199 -55.8102 -55.7692 -55.7503 -55.7125 -55.6941 -55.6614
   -55.6527 -55.6089 -55.6061 -55.6058 -55.5973 -55.5556 -55.5336 -55.4482
   -31.2859 -31.2751 -31.1287 -31.0440 -31.0143 -30.9648 -30.9290 -30.8517
   -29.8590 -29.8210 -29.7935 -29.6870 -14.9505 -14.9221 -14.8053 -14.7935
   -14.6968 -14.6622 -14.6260 -14.4951 -13.9990 -13.9869 -13.9527 -13.9322
   -13.9161 -13.9054 -13.8747 -13.8653 -13.8466 -13.8409 -13.8226 -13.7463
   -13.7400 -13.7079 -13.6841 -13.6756 -13.5729 -13.5413 -13.4076 -13.3775
   -13.1716 -13.1288 -13.0621 -13.0382 -13.0032 -12.9976 -12.9881 -12.9687
   -12.9378 -12.9070 -12.8819 -12.8285 -12.8186 -12.8068 -12.7821 -12.7527
   -12.6178 -12.6102 -12.5507 -12.4385 -12.3301 -12.2633 -12.2231 -12.1896
   -11.7861 -11.7734 -11.7555 -11.7389 -11.7039 -11.6868 -11.6509 -11.5914
   -11.5706 -11.5661 -11.5156 -11.5127  -2.2420  -2.1655  -2.1536  -2.0824
    -2.0442  -1.9657  -1.8980  -1.7723  -1.6556  -1.6255  -1.5876  -1.5293
    -1.4570  -1.4426  -1.3720  -1.3288  -1.2120  -1.1847  -1.1356  -1.1056
    -1.0417  -0.9970  -0.9773  -0.9657  -0.9132  -0.8664  -0.8523  -0.7389
    -0.6827  -0.6361  -0.5851  -0.5594  -0.5492  -0.5117  -0.4686  -0.4363
    -0.4219  -0.3377  -0.2713  -0.2239  -0.2005  -0.1252  -0.0729  -0.0512
     0.0011   0.0194   0.0390   0.0499   0.4989   0.5379   0.6511   0.6657
     1.0489   1.0603   1.0931   1.1312   1.4056   1.4258   1.4326   1.4687
     1.6019   1.6969   1.7243   1.7599   1.7769   1.8060   1.8123   1.8438
     1.8534   1.8702   1.8778   1.9328   1.9351   1.9645   1.9884   1.9958
     2.0141   2.0505   2.0766   2.0884   2.1208   2.1472   2.2175   2.2837
     2.5468   2.5852   2.6038   2.6242   2.6303   2.6641   2.6677   2.6849
     2.6970   2.7145   2.7339   2.7455   2.8049   2.8132   2.8177   2.8414
     2.8522   2.8683   2.8868   2.8933   2.9145   3.0032   3.0037   3.0343
     3.0415   3.9933   4.0148   4.0533   4.0904   4.3068   4.3793   4.4052
     4.6464   4.7676   4.8506   4.9805   5.0653   5.0780   5.1915   5.2962
     5.3653   5.8497   5.8815   5.9597   6.0225   6.4055   6.4915   6.5883
     7.7570   7.8317   7.8802   7.9018   7.9303   7.9669   8.0084   8.0779
     8.2576   8.3336   8.5438   8.5799   8.6041   8.6070   8.6492   8.7301

     occupation numbers 
     1.0000   1.0000   1.0000   1.0000   1.0000   1.0000   1.0000   1.0000
     1.0000   1.0000   1.0000   1.0000   1.0000   1.0000   1.0000   1.0000
     1.0000   1.0000   1.0000   1.0000   1.0000   1.0000   1.0000   1.0000
     1.0000   1.0000   1.0000   1.0000   1.0000   1.0000   1.0000   1.0000
     1.0000   1.0000   1.0000   1.0000   1.0000   1.0000   1.0000   1.0000
     1.0000   1.0000   1.0000   1.0000   1.0000   1.0000   1.0000   1.0000
     1.0000   1.0000   1.0000   1.0000   1.0000   1.0000   1.0000   1.0000
     1.0000   1.0000   1.0000   1.0000   1.0000   1.0000   1.0000   1.0000
     1.0000   1.0000   1.0000   1.0000   1.0000   1.0000   1.0000   1.0000
     1.0000   1.0000   1.0000   1.0000   1.0000   1.0000   1.0000   1.0000
     1.0000   1.0000   1.0000   1.0000   1.0000   1.0000   1.0000   1.0000
     1.0000   1.0000   1.0000   1.0000   1.0000   1.0000   1.0000   1.0000
     1.0000   1.0000   1.0000   1.0000   1.0000   1.0000   1.0000   1.0000
     1.0000   1.0000   1.0000   1.0000   1.0000   1.0000   1.0000   1.0000
     1.0000   1.0000   1.0000   1.0000   1.0000   1.0000   1.0000   1.0000
     1.0000   1.0000   1.0000   1.0000   1.0000   1.0000   1.0000   1.0000
     1.0000   1.0000   1.0000   1.0000   1.0000   1.0000   1.0000   1.0000
     1.0000   1.0000   1.0000   1.0000   1.0000   1.0000   1.0000   1.0000
     1.0000   1.0000   1.0000   1.0000   1.0000   1.0000   1.0000   1.0000
     1.0000   1.0000   1.0000   1.0000   1.0000   1.0000   1.0000   1.0000
     0.9996   0.9996   0.9995   0.9994   0.9977   0.9975   0.9974   0.9969
     0.9945   0.9918   0.9909   0.9895   0.9887   0.9874   0.9871   0.9855
     0.9849   0.9840   0.9835   0.9798   0.9797   0.9774   0.9754   0.9748
     0.9732   0.9696   0.9669   0.9656   0.9617   0.9584   0.9482   0.9369
     0.8725   0.8602   0.8540   0.8470   0.8448   0.8326   0.8312   0.8247
     0.8200   0.8131   0.8053   0.8005   0.7750   0.7712   0.7692   0.7584
     0.7533   0.7457   0.7368   0.7337   0.7233   0.6775   0.6773   0.6608
     0.6569   0.1564   0.1489   0.1360   0.1243   0.0701   0.0568   0.0525
     0.0239   0.0154   0.0112   0.0067   0.0046   0.0044   0.0026   0.0016
     0.0012   0.0001   0.0001   0.0000   0.0000   0.0000   0.0000   0.0000
     0.0000   0.0000   0.0000   0.0000   0.0000   0.0000   0.0000   0.0000
     0.0000   0.0000   0.0000   0.0000   0.0000   0.0000   0.0000   0.0000

          k = 0.2500 0.0000 0.0000 ( 65257 PWs)   bands (ev):

   -92.7144 -92.6594 -92.5678 -92.5185 -92.4613 -92.4204 -92.4032 -92.2808
   -56.0678 -56.0458 -55.9253 -55.9150 -55.9061 -55.9019 -55.8642 -55.8371
[...]
     0.7439   0.7287   0.7184   0.7150   0.7044   0.6990   0.6917   0.6802
     0.6775   0.6633   0.6575   0.6539   0.6469   0.6354   0.6219   0.6194
     0.6147   0.6107   0.6054   0.5996   0.5243   0.3507   0.3209   0.2051
     0.0798   0.0448   0.0219   0.0057   0.0049   0.0003   0.0001   0.0001
     0.0000   0.0000   0.0000   0.0000   0.0000   0.0000   0.0000   0.0000
     0.0000   0.0000   0.0000   0.0000   0.0000   0.0000   0.0000   0.0000
     0.0000   0.0000   0.0000   0.0000   0.0000   0.0000   0.0000   0.0000

          k =-0.5000 0.0000 0.0000 ( 65180 PWs)   bands (ev):

   -92.7144 -92.6594 -92.5678 -92.5185 -92.4613 -92.4204 -92.4032 -92.2808
   -56.0678 -56.0458 -55.9253 -55.9150 -55.9061 -55.9019 -55.8642 -55.8371
   -55.8218 -55.8199 -55.8102 -55.7692 -55.7503 -55.7125 -55.6941 -55.6614
   -55.6527 -55.6089 -55.6061 -55.6058 -55.5973 -55.5556 -55.5336 -55.4482
   -31.2863 -31.2753 -31.1283 -31.0437 -31.0150 -30.9653 -30.9283 -30.8511
   -29.8602 -29.8217 -29.7922 -29.6864 -15.0294 -14.9812 -14.9180 -14.8064
   -14.7041 -14.5591 -14.4205 -14.2675 -14.1461 -14.1367 -14.1214 -14.0662
   -14.0063 -13.9755 -13.9291 -13.9176 -13.9013 -13.8515 -13.8289 -13.7313
   -13.5681 -13.5518 -13.5087 -13.5003 -13.4419 -13.3779 -13.3351 -13.2805
   -13.2572 -13.2412 -13.0669 -13.0551 -13.0292 -13.0230 -13.0149 -13.0011
   -12.9574 -12.9362 -12.8410 -12.8171 -12.8105 -12.7811 -12.7643 -12.7326
   -12.6529 -12.6437 -12.5539 -12.4783 -12.3401 -12.3183 -12.2311 -12.1958
   -11.7925 -11.7715 -11.7643 -11.7505 -11.7324 -11.6909 -11.6275 -11.6094
   -11.5762 -11.5335 -11.5242 -11.5081  -2.5965  -2.5574  -2.3936  -2.3541
    -2.0420  -1.9672  -1.8183  -1.6999  -1.6613  -1.6160  -1.5679  -1.5420
    -1.4193  -1.3745  -1.3604  -1.2776  -1.2410  -1.2286  -1.1946  -1.1374
    -1.0694  -1.0393  -1.0114  -0.9149  -0.8686  -0.8207  -0.7873  -0.7657
    -0.7365  -0.6874  -0.6625  -0.6249  -0.5311  -0.4534  -0.3931  -0.3285
    -0.1640  -0.1261  -0.0696  -0.0437   0.0234   0.0386   0.1774   0.2080
     0.2507   0.4266   0.5254   0.5731   0.6515   0.7230   0.8451   0.8557
     0.9910   1.0159   1.0689   1.0940   1.1354   1.1472   1.1923   1.2161
     1.2817   1.3318   1.3786   1.3863   1.6827   1.6901   1.7105   1.7275
     1.8401   1.8520   1.8661   1.8796   1.9065   1.9169   1.9562   1.9833
     2.0071   2.0639   2.0764   2.1282   2.1503   2.2054   2.3143   2.4173
     2.4874   2.5023   2.5737   2.6131   2.6410   2.7078   2.7148   2.7245
     2.7525   2.7909   2.8232   2.8808   2.9191   2.9489   2.9870   2.9907
     2.9921   3.0097   3.0178   3.0295   3.0444   3.0470   3.0729   3.0786
     3.0973   3.1157   3.1207   3.2531   3.2583   4.0572   4.1048   4.1702
     4.3389   4.7776   4.8478   5.0213   5.0467   5.4788   5.5084   5.5765
     5.6422   5.9892   6.0208   6.0859   6.6708   6.7945   6.9990   7.2773
     7.3110   7.3167   7.4213   7.4998   7.5763   7.7658   7.8762   7.9015
     8.0757   8.2510   8.4923   8.5829   8.6103   8.7509   8.7963   8.8752

     occupation numbers 
     1.0000   1.0000   1.0000   1.0000   1.0000   1.0000   1.0000   1.0000
     1.0000   1.0000   1.0000   1.0000   1.0000   1.0000   1.0000   1.0000
     1.0000   1.0000   1.0000   1.0000   1.0000   1.0000   1.0000   1.0000
     1.0000   1.0000   1.0000   1.0000   1.0000   1.0000   1.0000   1.0000
     1.0000   1.0000   1.0000   1.0000   1.0000   1.0000   1.0000   1.0000
     1.0000   1.0000   1.0000   1.0000   1.0000   1.0000   1.0000   1.0000
     1.0000   1.0000   1.0000   1.0000   1.0000   1.0000   1.0000   1.0000
     1.0000   1.0000   1.0000   1.0000   1.0000   1.0000   1.0000   1.0000
     1.0000   1.0000   1.0000   1.0000   1.0000   1.0000   1.0000   1.0000
     1.0000   1.0000   1.0000   1.0000   1.0000   1.0000   1.0000   1.0000
     1.0000   1.0000   1.0000   1.0000   1.0000   1.0000   1.0000   1.0000
     1.0000   1.0000   1.0000   1.0000   1.0000   1.0000   1.0000   1.0000
     1.0000   1.0000   1.0000   1.0000   1.0000   1.0000   1.0000   1.0000
     1.0000   1.0000   1.0000   1.0000   1.0000   1.0000   1.0000   1.0000
     1.0000   1.0000   1.0000   1.0000   1.0000   1.0000   1.0000   1.0000
     1.0000   1.0000   1.0000   1.0000   1.0000   1.0000   1.0000   1.0000
     1.0000   1.0000   1.0000   1.0000   1.0000   1.0000   1.0000   1.0000
     1.0000   1.0000   1.0000   1.0000   1.0000   1.0000   1.0000   1.0000
     1.0000   1.0000   1.0000   1.0000   1.0000   1.0000   1.0000   1.0000
     1.0000   1.0000   1.0000   1.0000   1.0000   0.9999   0.9999   0.9999
     0.9997   0.9997   0.9996   0.9995   0.9994   0.9994   0.9992   0.9991
     0.9987   0.9984   0.9980   0.9979   0.9923   0.9920   0.9914   0.9907
     0.9857   0.9850   0.9842   0.9834   0.9817   0.9810   0.9781   0.9759
     0.9738   0.9682   0.9669   0.9608   0.9579   0.9501   0.9311   0.9084
     0.8900   0.8858   0.8640   0.8508   0.8410   0.8158   0.8130   0.8091
     0.7976   0.7811   0.7667   0.7397   0.7209   0.7059   0.6861   0.6842
     0.6834   0.6741   0.6697   0.6634   0.6553   0.6538   0.6396   0.6364
     0.6259   0.6155   0.6127   0.5358   0.5327   0.1347   0.1200   0.1017
     0.0639   0.0149   0.0114   0.0056   0.0050   0.0007   0.0006   0.0004
     0.0003   0.0000   0.0000   0.0000   0.0000   0.0000   0.0000   0.0000
     0.0000   0.0000   0.0000   0.0000   0.0000   0.0000   0.0000   0.0000
     0.0000   0.0000   0.0000   0.0000   0.0000   0.0000   0.0000   0.0000

          k =-0.2500 0.2500 0.0000 ( 65198 PWs)   bands (ev):

   -92.7144 -92.6594 -92.5678 -92.5185 -92.4613 -92.4204 -92.4032 -92.2808
   -56.0678 -56.0458 -55.9253 -55.9150 -55.9061 -55.9019 -55.8642 -55.8371
   -55.8218 -55.8199 -55.8103 -55.7692 -55.7503 -55.7125 -55.6941 -55.6614
   -55.6527 -55.6089 -55.6061 -55.6058 -55.5973 -55.5556 -55.5336 -55.4482
   -31.2884 -31.2729 -31.1289 -31.0434 -31.0152 -30.9644 -30.9290 -30.8510
   -29.8606 -29.8203 -29.7933 -29.6863 -15.0314 -14.9948 -14.9172 -14.8000
   -14.6910 -14.5653 -14.4761 -14.2707 -14.1292 -14.1000 -14.0859 -14.0415
   -14.0153 -13.9979 -13.9855 -13.9319 -13.8502 -13.8389 -13.6857 -13.6594
   -13.6337 -13.6104 -13.5745 -13.5108 -13.4561 -13.4474 -13.3167 -13.2817
   -13.2358 -13.1592 -13.1154 -13.0534 -13.0222 -12.9983 -12.9938 -12.9601
   -12.9401 -12.9155 -12.8926 -12.8351 -12.8063 -12.7879 -12.7817 -12.7616
   -12.7303 -12.7043 -12.5443 -12.4549 -12.4487 -12.2958 -12.1532 -12.1121
   -11.8130 -11.7914 -11.7645 -11.7519 -11.7115 -11.6763 -11.6537 -11.6315
   -11.6092 -11.5254 -11.4797 -11.4702  -2.6813  -2.4723  -2.3515  -2.2638
    -2.1447  -2.0779  -1.8763  -1.7299  -1.7109  -1.6834  -1.5908  -1.5545
    -1.4618  -1.4283  -1.4023  -1.2588  -1.2031  -1.1362  -1.1077  -1.0477
    -1.0244  -0.9845  -0.9556  -0.9159  -0.8529  -0.8053  -0.7448  -0.6746
    -0.6486  -0.5972  -0.5680  -0.5230  -0.4674  -0.4258  -0.3802  -0.2835
    -0.2483  -0.2381  -0.1928  -0.1263  -0.0546  -0.0102   0.0180   0.0893
     0.1218   0.3745   0.5411   0.5854   0.6226   0.6804   0.7338   0.7906
     0.8538   0.8817   1.1635   1.2755   1.3146   1.3470   1.3537   1.3962
     1.4142   1.4578   1.4891   1.5043   1.5302   1.5724   1.5867   1.6331
     1.6474   1.6943   1.7788   1.7996   1.8144   1.8551   1.8809   1.9215
     1.9741   2.0797   2.1866   2.2182   2.2643   2.2843   2.3527   2.3940
     2.4189   2.4413   2.4656   2.5646   2.5995   2.6892   2.8025   2.8697
     2.8810   2.8924   2.9042   2.9121   2.9264   2.9332   2.9513   2.9630
     2.9742   2.9842   2.9960   3.0060   3.0120   3.0450   3.0570   3.0647
     3.0985   3.3912   3.4741   3.5361   3.6209   3.6421   3.8276   3.9494
     4.2862   4.5086   4.7018   4.9720   5.1643   5.6336   5.6735   5.7354
     5.8196   5.8832   6.0220   6.1647   6.2087   6.7525   6.8920   7.0592
     7.1498   7.5587   7.6015   7.6607   7.7637   7.8739   7.9217   8.1113
     8.1565   8.2347   8.2916   8.3187   8.4378   8.4709   8.7302   8.8707

     occupation numbers 
     1.0000   1.0000   1.0000   1.0000   1.0000   1.0000   1.0000   1.0000
     1.0000   1.0000   1.0000   1.0000   1.0000   1.0000   1.0000   1.0000
     1.0000   1.0000   1.0000   1.0000   1.0000   1.0000   1.0000   1.0000
     1.0000   1.0000   1.0000   1.0000   1.0000   1.0000   1.0000   1.0000
     1.0000   1.0000   1.0000   1.0000   1.0000   1.0000   1.0000   1.0000
     1.0000   1.0000   1.0000   1.0000   1.0000   1.0000   1.0000   1.0000
     1.0000   1.0000   1.0000   1.0000   1.0000   1.0000   1.0000   1.0000
     1.0000   1.0000   1.0000   1.0000   1.0000   1.0000   1.0000   1.0000
     1.0000   1.0000   1.0000   1.0000   1.0000   1.0000   1.0000   1.0000
     1.0000   1.0000   1.0000   1.0000   1.0000   1.0000   1.0000   1.0000
     1.0000   1.0000   1.0000   1.0000   1.0000   1.0000   1.0000   1.0000
     1.0000   1.0000   1.0000   1.0000   1.0000   1.0000   1.0000   1.0000
     1.0000   1.0000   1.0000   1.0000   1.0000   1.0000   1.0000   1.0000
     1.0000   1.0000   1.0000   1.0000   1.0000   1.0000   1.0000   1.0000
     1.0000   1.0000   1.0000   1.0000   1.0000   1.0000   1.0000   1.0000
     1.0000   1.0000   1.0000   1.0000   1.0000   1.0000   1.0000   1.0000
     1.0000   1.0000   1.0000   1.0000   1.0000   1.0000   1.0000   1.0000
     1.0000   1.0000   1.0000   1.0000   1.0000   1.0000   1.0000   1.0000
     1.0000   1.0000   1.0000   1.0000   1.0000   1.0000   1.0000   1.0000
     1.0000   1.0000   1.0000   1.0000   1.0000   1.0000   0.9999   0.9999
     0.9999   0.9998   0.9993   0.9988   0.9985   0.9983   0.9982   0.9978
     0.9976   0.9971   0.9966   0.9964   0.9960   0.9951   0.9948   0.9937
     0.9933   0.9919   0.9887   0.9877   0.9870   0.9848   0.9833   0.9806
     0.9766   0.9665   0.9529   0.9481   0.9404   0.9368   0.9232   0.9139
     0.9080   0.9024   0.8960   0.8669   0.8555   0.8231   0.7760   0.7451
     0.7396   0.7341   0.7283   0.7244   0.7173   0.7139   0.7046   0.6986
     0.6928   0.6876   0.6814   0.6760   0.6728   0.6549   0.6484   0.6441
     0.6252   0.4541   0.4058   0.3705   0.3241   0.3128   0.2226   0.1725
     0.0743   0.0380   0.0196   0.0069   0.0030   0.0003   0.0002   0.0002
     0.0001   0.0001   0.0000   0.0000   0.0000   0.0000   0.0000   0.0000
     0.0000   0.0000   0.0000   0.0000   0.0000   0.0000   0.0000   0.0000
     0.0000   0.0000   0.0000   0.0000   0.0000   0.0000   0.0000   0.0000

          k =-0.5000 0.2500 0.0000 ( 65138 PWs)   bands (ev):

   -92.7144 -92.6594 -92.5678 -92.5185 -92.4613 -92.4204 -92.4032 -92.2808
   -56.0678 -56.0458 -55.9253 -55.9150 -55.9061 -55.9019 -55.8642 -55.8371
   -55.8218 -55.8199 -55.8102 -55.7692 -55.7503 -55.7125 -55.6941 -55.6614
   -55.6527 -55.6089 -55.6061 -55.6058 -55.5973 -55.5556 -55.5336 -55.4482
   -31.2861 -31.2752 -31.1285 -31.0438 -31.0146 -30.9650 -30.9286 -30.8514
   -29.8596 -29.8213 -29.7929 -29.6867 -14.9972 -14.9543 -14.8753 -14.7733
   -14.7316 -14.6062 -14.5224 -14.3871 -14.0800 -14.0497 -14.0383 -13.9955
   -13.9729 -13.9471 -13.9140 -13.9026 -13.8810 -13.8383 -13.8266 -13.7221
   -13.6507 -13.6097 -13.6007 -13.5890 -13.4932 -13.4818 -13.3722 -13.3097
   -13.2135 -13.1764 -13.0793 -13.0407 -13.0287 -12.9999 -12.9713 -12.9610
   -12.9553 -12.9512 -12.8737 -12.8345 -12.8024 -12.7791 -12.7709 -12.7470
   -12.6349 -12.6274 -12.5521 -12.4575 -12.3354 -12.2925 -12.2245 -12.1937
   -11.7855 -11.7730 -11.7589 -11.7466 -11.7259 -11.6956 -11.6141 -11.6062
   -11.5821 -11.5478 -11.5197 -11.5105  -2.4543  -2.4119  -2.2634  -2.2209
    -2.0610  -1.9859  -1.8425  -1.7059  -1.6505  -1.6227  -1.5840  -1.5445
    -1.4643  -1.3489  -1.2920  -1.2684  -1.2436  -1.1689  -1.1375  -1.1008
    -1.0819  -1.0218  -0.9933  -0.9536  -0.9182  -0.8895  -0.8320  -0.8047
    -0.7624  -0.7288  -0.6252  -0.5981  -0.5137  -0.4463  -0.4184  -0.3626
    -0.2743  -0.2410  -0.1422  -0.1033  -0.0457   0.0062   0.0231   0.1046
     0.1328   0.1643   0.2176   0.2563   0.5632   0.6207   0.6979   0.7113
     0.9999   1.0541   1.1311   1.1535   1.3344   1.3712   1.4082   1.4209
     1.4393   1.4571   1.5255   1.5696   1.6095   1.6354   1.7603   1.7927
     1.8273   1.8388   1.8801   1.9003   1.9154   1.9309   1.9513   1.9745
     2.0224   2.0376   2.0717   2.0945   2.1246   2.1844   2.3043   2.4076
     2.4320   2.5027   2.5398   2.5910   2.6385   2.6441   2.6808   2.7136
     2.7365   2.7973   2.8232   2.8737   2.8814   2.8943   2.9050   2.9296
     2.9414   2.9547   2.9703   2.9894   3.0032   3.0118   3.0197   3.0303
     3.0418   3.5703   3.6244   3.7601   3.7851   4.0625   4.1325   4.1795
     4.4106   4.7721   4.8658   5.0197   5.0735   5.3879   5.4193   5.5777
     5.6205   5.7381   5.7636   6.1728   6.3857   6.4816   6.5550   7.0594
     7.4448   7.5373   7.6830   7.7103   7.7877   7.8797   8.0149   8.1683
     8.3222   8.3856   8.4495   8.5310   8.5529   8.6477   8.7088   8.7515

     occupation numbers 
     1.0000   1.0000   1.0000   1.0000   1.0000   1.0000   1.0000   1.0000
     1.0000   1.0000   1.0000   1.0000   1.0000   1.0000   1.0000   1.0000
     1.0000   1.0000   1.0000   1.0000   1.0000   1.0000   1.0000   1.0000
     1.0000   1.0000   1.0000   1.0000   1.0000   1.0000   1.0000   1.0000
     1.0000   1.0000   1.0000   1.0000   1.0000   1.0000   1.0000   1.0000
     1.0000   1.0000   1.0000   1.0000   1.0000   1.0000   1.0000   1.0000
     1.0000   1.0000   1.0000   1.0000   1.0000   1.0000   1.0000   1.0000
     1.0000   1.0000   1.0000   1.0000   1.0000   1.0000   1.0000   1.0000
     1.0000   1.0000   1.0000   1.0000   1.0000   1.0000   1.0000   1.0000
     1.0000   1.0000   1.0000   1.0000   1.0000   1.0000   1.0000   1.0000
     1.0000   1.0000   1.0000   1.0000   1.0000   1.0000   1.0000   1.0000
     1.0000   1.0000   1.0000   1.0000   1.0000   1.0000   1.0000   1.0000
     1.0000   1.0000   1.0000   1.0000   1.0000   1.0000   1.0000   1.0000
     1.0000   1.0000   1.0000   1.0000   1.0000   1.0000   1.0000   1.0000
     1.0000   1.0000   1.0000   1.0000   1.0000   1.0000   1.0000   1.0000
     1.0000   1.0000   1.0000   1.0000   1.0000   1.0000   1.0000   1.0000
     1.0000   1.0000   1.0000   1.0000   1.0000   1.0000   1.0000   1.0000
     1.0000   1.0000   1.0000   1.0000   1.0000   1.0000   1.0000   1.0000
     1.0000   1.0000   1.0000   1.0000   1.0000   1.0000   1.0000   1.0000
     1.0000   1.0000   1.0000   1.0000   1.0000   1.0000   0.9999   0.9999
     0.9997   0.9996   0.9994   0.9993   0.9984   0.9980   0.9977   0.9975
     0.9973   0.9971   0.9960   0.9952   0.9943   0.9936   0.9895   0.9880
     0.9863   0.9857   0.9834   0.9821   0.9811   0.9800   0.9784   0.9766
     0.9724   0.9709   0.9674   0.9649   0.9613   0.9532   0.9330   0.9107
     0.9047   0.8857   0.8747   0.8583   0.8419   0.8399   0.8263   0.8135
     0.8042   0.7783   0.7667   0.7432   0.7395   0.7332   0.7279   0.7157
     0.7097   0.7029   0.6948   0.6848   0.6775   0.6729   0.6687   0.6630
     0.6567   0.3515   0.3222   0.2536   0.2419   0.1330   0.1120   0.0992
     0.0517   0.0152   0.0106   0.0056   0.0045   0.0010   0.0009   0.0004
     0.0003   0.0002   0.0001   0.0000   0.0000   0.0000   0.0000   0.0000
     0.0000   0.0000   0.0000   0.0000   0.0000   0.0000   0.0000   0.0000
     0.0000   0.0000   0.0000   0.0000   0.0000   0.0000   0.0000   0.0000

     the Fermi energy is     3.3135 ev

!    total energy              =   -4399.91534993 Ry
     estimated scf accuracy    <          5.2E-09 Ry
     smearing contrib. (-TS)   =      -1.14598560 Ry
     internal energy E=F+TS    =   -4398.76936433 Ry

     The total energy is F=E-TS. E is the sum of the following terms:
     one-electron contribution =  -21252.94658003 Ry
     hartree contribution      =   10754.38644523 Ry
     xc contribution           =    -686.72876175 Ry
     ewald contribution        =    7053.16472463 Ry
     one-center paw contrib.   =    -266.64519241 Ry
      -> PAW hartree energy AE =      25.17597192 Ry
      -> PAW hartree energy PS =     -25.05974077 Ry
      -> PAW xc energy AE      =     -16.51933282 Ry
      -> PAW xc energy PS      =       6.87889131 Ry
      -> total E_H with PAW    =   10754.50267638 Ry
      -> total E_XC with PAW   =    -696.36920326 Ry

     convergence has been achieved in  49 iterations

     Writing all to output data dir /bsuhome/zayahcortright/scratch/pwscf.save/
 
     init_run     :      7.69s CPU      8.13s WALL (       1 calls)
     electrons    :    708.62s CPU    721.44s WALL (       1 calls)

     Called by init_run:
     wfcinit      :      6.01s CPU      6.14s WALL (       1 calls)
     wfcinit:atom :      0.05s CPU      0.07s WALL (       5 calls)
     wfcinit:wfcr :      5.69s CPU      5.77s WALL (       5 calls)
     potinit      :      0.17s CPU      0.19s WALL (       1 calls)
     hinit0       :      0.56s CPU      0.78s WALL (       1 calls)

     Called by electrons:
     c_bands      :    560.15s CPU    565.24s WALL (      49 calls)
     sum_band     :    111.31s CPU    115.71s WALL (      49 calls)
     v_of_rho     :      5.41s CPU      5.67s WALL (      50 calls)
     v_h          :      0.47s CPU      0.47s WALL (      50 calls)
     v_xc         :      4.94s CPU      5.20s WALL (      50 calls)
     newd         :     16.75s CPU     19.35s WALL (      50 calls)
     PAW_pot      :      1.64s CPU      1.66s WALL (      50 calls)
     mix_rho      :     13.06s CPU     13.40s WALL (      49 calls)

     Called by c_bands:
     init_us_2    :      7.07s CPU      7.14s WALL (     495 calls)
     init_us_2:cp :      7.07s CPU      7.14s WALL (     495 calls)
     cegterg      :    525.99s CPU    530.85s WALL (     245 calls)

     Called by sum_band:
     sum_band:wei :      0.34s CPU      0.34s WALL (      49 calls)
     sum_band:loo :     91.05s CPU     91.71s WALL (      49 calls)
     sum_band:buf :      1.56s CPU      1.58s WALL (     245 calls)
     sum_band:ini :      3.37s CPU      3.38s WALL (     245 calls)
     sum_band:cal :     18.36s CPU     18.40s WALL (     245 calls)
     sum_band:bec :      0.54s CPU      0.54s WALL (     245 calls)
     addusdens    :     18.35s CPU     22.06s WALL (      49 calls)
                                        0.00s GPU  (      49 calls)
     addusd:skk   :      0.33s CPU      0.66s WALL (     196 calls)
                                        0.00s GPU  (     196 calls)

     Called by *egterg:
     cdiaghg      :     55.48s CPU     55.74s WALL (    1369 calls)
     cegterg:over :     37.78s CPU     37.91s WALL (    1124 calls)
     cegterg:upda :     28.28s CPU     28.62s WALL (    1124 calls)
     cegterg:last :     57.04s CPU     57.21s WALL (     446 calls)
     cdiaghg:chol :      3.14s CPU      3.15s WALL (    1369 calls)
     cdiaghg:inve :      3.26s CPU      3.27s WALL (    1369 calls)
     cdiaghg:para :      7.09s CPU      7.14s WALL (    2738 calls)
     h_psi        :    292.55s CPU    295.38s WALL (    1374 calls)
     s_psi        :     39.30s CPU     39.44s WALL (    1374 calls)
     g_psi        :      1.15s CPU      1.16s WALL (    1124 calls)

     Called by h_psi:
     h_psi:calbec :     42.75s CPU     42.89s WALL (    1374 calls)
     vloc_psi     :    207.34s CPU    209.46s WALL (    1374 calls)
     add_vuspsi   :     39.15s CPU     39.35s WALL (    1374 calls)

     General routines
     calbec       :     61.10s CPU     61.29s WALL (    1619 calls)
     fft          :      3.62s CPU      3.66s WALL (     648 calls)
     ffts         :      4.65s CPU      4.70s WALL (    5241 calls)
     fftw         :    173.40s CPU    174.86s WALL (  328262 calls)
     interpolate  :      0.40s CPU      0.41s WALL (      50 calls)
 
     Parallel routines

     PAW routines
     PAW_pot      :      1.64s CPU      1.66s WALL (      50 calls)
 
     PWSCF        :  11m58.73s CPU  12m15.54s WALL

 
   This run was terminated on:  20:15: 2  21Jun2024            

=------------------------------------------------------------------------------=
   JOB DONE.
=------------------------------------------------------------------------------=
