
     Program PWSCF v.7.2 starts on 21Jun2024 at 23:29:11 

     This program is part of the open-source Quantum ESPRESSO suite
     for quantum simulation of materials; please cite
         "P. Giannozzi et al., J. Phys.:Condens. Matter 21 395502 (2009);
         "P. Giannozzi et al., J. Phys.:Condens. Matter 29 465901 (2017);
         "P. Giannozzi et al., J. Chem. Phys. 152 154105 (2020);
          URL http://www.quantum-espresso.org", 
     in publications or presentations arising from this work. More details at
     http://www.quantum-espresso.org/quote

     Parallel version (MPI & OpenMP), running on      48 processor cores
     Number of MPI processes:                48
     Threads/MPI process:                     1

     MPI processes distributed on     1 nodes
     180140 MiB available memory on the printing compute node when the environment starts
 
     Reading input from espresso.pwi
Warning: card &CELL ignored
Warning: card / ignored
Warning: card &FCP ignored
Warning: card / ignored
Warning: card &RISM ignored
Warning: card / ignored

     Current dimensions of program PWSCF are:
     Max number of different atomic species (ntypx) = 10
     Max number of k-points (npk) =  40000
     Max angular momentum in pseudopotentials (lmaxx) =  4
     file O.pbe-n-kjpaw_psl.0.1.UPF: wavefunction(s)  2P renormalized
     signal trapping enabled: kill the code with -SIGUSR1 to stop cleanly the simulation 
 
     K-points division:     npool     =       2
     R & G space division:  proc/nbgrp/npool/nimage =      24
     Subspace diagonalization in iterative solution of the eigenvalue problem:
     one sub-group per band group will be used
     scalapack distributed-memory algorithm (size of sub-group:  3*  3 procs)

 
     Parallelization info
     --------------------
     sticks:   dense  smooth     PW     G-vecs:    dense   smooth      PW
     Min         350     175     47                61430    21716    3036
     Max         351     177     48                61449    21727    3041
     Sum        8421    4205   1137              1474595   521381   72913
 
     Using Slab Decomposition
 


     bravais-lattice index     =            0
     lattice parameter (alat)  =      14.8599  a.u.
     unit-cell volume          =    8305.1283 (a.u.)^3
     number of atoms/cell      =           49
     number of atomic types    =            4
     number of electrons       =       425.00
     number of Kohn-Sham states=          256
     kinetic-energy cutoff     =      60.0000  Ry
     charge density cutoff     =     480.0000  Ry
     scf convergence threshold =      1.0E-08
     mixing beta               =       0.1500
     number of iterations used =            8  local-TF  mixing
     Exchange-correlation= PBE
                           (   1   4   3   4   0   0   0)

     celldm(1)=  14.859904  celldm(2)=   0.000000  celldm(3)=   0.000000
     celldm(4)=   0.000000  celldm(5)=   0.000000  celldm(6)=   0.000000

     crystal axes: (cart. coord. in units of alat)
               a(1) = (   1.000000   0.000000   0.000000 )  
               a(2) = (   0.000000   1.000000   0.000000 )  
               a(3) = (   0.000000   0.000000   2.531036 )  

     reciprocal axes: (cart. coord. in units 2 pi/alat)
               b(1) = (  1.000000  0.000000  0.000000 )  
               b(2) = (  0.000000  1.000000  0.000000 )  
               b(3) = (  0.000000  0.000000  0.395095 )  


     PseudoPot. # 1 for Sr read from file:
     /bsuhome/zayahcortright/q-e/pseudo/Sr_pbe_v1.uspp.F.UPF
     MD5 check sum: 6b418c05fbe9db5448babca5e47b7a5b
     Pseudo is Ultrasoft + core correction, Zval = 10.0
     Generated by new atomic code, or converted to UPF format
     Using radial grid of  883 points,  6 beta functions with: 
                l(1) =   0
                l(2) =   0
                l(3) =   1
                l(4) =   1
                l(5) =   2
                l(6) =   2
     Q(r) pseudized with  6 coefficients,  rinner =    1.400   1.400   1.400
                                                       1.400   1.400

     PseudoPot. # 2 for O  read from file:
     /bsuhome/zayahcortright/q-e/pseudo/O.pbe-n-kjpaw_psl.0.1.UPF
     MD5 check sum: 0234752ac141de4415c5fc33072bef88
     Pseudo is Projector augmented-wave + core cor, Zval =  6.0
     Generated using "atomic" code by A. Dal Corso  v.5.0.99 svn rev. 10869
     Shape of augmentation charge: BESSEL
     Using radial grid of 1095 points,  4 beta functions with: 
                l(1) =   0
                l(2) =   0
                l(3) =   1
                l(4) =   1
     Q(r) pseudized with 0 coefficients 


     PseudoPot. # 3 for Co read from file:
     /bsuhome/zayahcortright/q-e/pseudo/Co_pbe_v1.2.uspp.F.UPF
     MD5 check sum: 5f91765df6ddd3222702df6e7b74a16d
     Pseudo is Ultrasoft + core correction, Zval = 17.0
     Generated by new atomic code, or converted to UPF format
     Using radial grid of  863 points,  6 beta functions with: 
                l(1) =   0
                l(2) =   0
                l(3) =   1
                l(4) =   1
                l(5) =   2
                l(6) =   2
     Q(r) pseudized with  8 coefficients,  rinner =    1.200   1.200   1.200
                                                       1.200   1.200

     PseudoPot. # 4 for H  read from file:
     /bsuhome/zayahcortright/q-e/pseudo/H.pbe-rrkjus_psl.1.0.0.UPF
     MD5 check sum: f52b6d4d1c606e5624b1dc7b2218f220
     Pseudo is Ultrasoft, Zval =  1.0
     Generated using "atomic" code by A. Dal Corso  v.5.1
     Using radial grid of  929 points,  2 beta functions with: 
                l(1) =   0
                l(2) =   0
     Q(r) pseudized with 0 coefficients 


     atomic species   valence    mass     pseudopotential
        Sr            10.00    87.62000     Sr( 1.00)
        O              6.00    15.99900     O ( 1.00)
        Co            17.00    58.93319     Co( 1.00)
        H              1.00     1.00800     H ( 1.00)

     No symmetry found


                                    s                        frac. trans.

      isym =  1     identity                                     

 cryst.   s( 1) = (     1          0          0      )
                  (     0          1          0      )
                  (     0          0          1      )

 cart.    s( 1) = (  1.0000000  0.0000000  0.0000000 )
                  (  0.0000000  1.0000000  0.0000000 )
                  (  0.0000000  0.0000000  1.0000000 )


   Cartesian axes

     site n.     atom                  positions (alat units)
         1           Sr  tau(   1) = (   0.2508693   0.7491307   1.7574407  )
         2           O   tau(   2) = (   0.4985141   0.5014859   1.7715967  )
         3           Sr  tau(   3) = (   0.7482398   0.7454518   1.7648669  )
         4           Sr  tau(   4) = (   0.7441748   0.2558252   1.7667843  )
         5           Sr  tau(   5) = (   0.2508693   0.7491307   1.2696799  )
         6           Sr  tau(   6) = (   0.2508693   0.7491307   0.7632319  )
         7           Co  tau(   7) = (   0.4998914   0.5001086   1.0164559  )
         8           Co  tau(   8) = (   0.4936915   0.5063085   1.5135603  )
         9           O   tau(   9) = (   0.4988895   0.7610401   1.0164559  )
        10           O   tau(  10) = (   0.2389599   0.5011105   1.0164559  )
        11           O   tau(  11) = (   0.0070918   0.7374880   1.0164559  )
        12           O   tau(  12) = (   0.0088340   0.7405089   1.5135603  )
        13           O   tau(  13) = (   0.5066944   0.7415376   1.5135603  )
        14           O   tau(  14) = (   0.2584624   0.4933056   1.5135603  )
        15           O   tau(  15) = (   0.4985141   0.5014859   0.7773880  )
        16           O   tau(  16) = (   0.4985141   0.5014859   1.2555238  )
        17           Sr  tau(  17) = (   0.7482398   0.7454518   0.7706582  )
        18           Sr  tau(  18) = (   0.7482398   0.7454518   1.2622536  )
        19           Sr  tau(  19) = (   0.7441748   0.2558252   0.7725755  )
        20           Sr  tau(  20) = (   0.7441748   0.2558252   1.2603363  )
        21           O   tau(  21) = (   0.7322655   0.0078049   1.5135603  )
        22           O   tau(  22) = (   0.7558175   0.4996027   1.5135603  )
        23           O   tau(  23) = (   0.5003973   0.2441825   1.5135603  )
        24           O   tau(  24) = (   0.7527966   0.4978604   1.0164559  )
        25           O   tau(  25) = (   0.5021396   0.2472034   1.0164559  )
        26           O   tau(  26) = (   0.7517679   0.0000000   1.0164559  )
        27           O   tau(  27) = (   0.0114961   0.4948124   1.7455321  )
        28           O   tau(  28) = (   0.0048226   0.0077944   1.7715967  )
        29           Sr  tau(  29) = (   0.2545482   0.2517602   1.7648669  )
        30           O   tau(  30) = (   0.5048017   0.0015068   1.7786929  )
        31           Co  tau(  31) = (   0.0056869   0.5006215   1.0164559  )
        32           Co  tau(  32) = (   0.0065315   0.4997770   1.5135603  )
        33           Co  tau(  33) = (   0.0061999   0.0064171   1.0164559  )
        34           Co  tau(  34) = (   0.0000000   0.0126169   1.5135603  )
        35           O   tau(  35) = (   0.0114961   0.4948124   1.2815885  )
        36           O   tau(  36) = (   0.0114961   0.4948124   0.7513233  )
        37           O   tau(  37) = (   0.0051979   0.2673486   1.0164559  )
        38           O   tau(  38) = (   0.0130029   0.2478461   1.5135603  )
        39           O   tau(  39) = (   0.0048226   0.0077944   0.7773880  )
        40           O   tau(  40) = (   0.0048226   0.0077944   1.2555238  )
        41           Sr  tau(  41) = (   0.2545482   0.2517602   0.7706582  )
        42           Sr  tau(  42) = (   0.2545482   0.2517602   1.2622536  )
        43           Co  tau(  43) = (   0.4989925   0.0073160   1.5135603  )
        44           Co  tau(  44) = (   0.4998370   0.0064714   1.0164559  )
        45           O   tau(  45) = (   0.5048017   0.0015068   0.7844841  )
        46           O   tau(  46) = (   0.5048017   0.0015068   1.2484277  )
        47           O   tau(  47) = (   0.2621260   0.0059111   1.5135603  )
        48           O   tau(  48) = (   0.2591051   0.0041689   1.0164559  )
        49           H   tau(  49) = (   0.9951520   0.1421646   2.1602013  )

   Crystallographic axes

     site n.     atom                  positions (cryst. coord.)
         1           Sr  tau(   1) = (  0.2508693  0.7491307  0.6943562  )
         2           O   tau(   2) = (  0.4985141  0.5014859  0.6999492  )
         3           Sr  tau(   3) = (  0.7482398  0.7454518  0.6972903  )
         4           Sr  tau(   4) = (  0.7441748  0.2558252  0.6980478  )
         5           Sr  tau(   5) = (  0.2508693  0.7491307  0.5016443  )
         6           Sr  tau(   6) = (  0.2508693  0.7491307  0.3015492  )
         7           Co  tau(   7) = (  0.4998914  0.5001086  0.4015968  )
         8           Co  tau(   8) = (  0.4936915  0.5063085  0.5980003  )
         9           O   tau(   9) = (  0.4988895  0.7610401  0.4015968  )
        10           O   tau(  10) = (  0.2389599  0.5011105  0.4015968  )
        11           O   tau(  11) = (  0.0070918  0.7374880  0.4015968  )
        12           O   tau(  12) = (  0.0088340  0.7405089  0.5980003  )
        13           O   tau(  13) = (  0.5066944  0.7415376  0.5980003  )
        14           O   tau(  14) = (  0.2584624  0.4933056  0.5980003  )
        15           O   tau(  15) = (  0.4985141  0.5014859  0.3071422  )
        16           O   tau(  16) = (  0.4985141  0.5014859  0.4960513  )
        17           Sr  tau(  17) = (  0.7482398  0.7454518  0.3044833  )
        18           Sr  tau(  18) = (  0.7482398  0.7454518  0.4987103  )
        19           Sr  tau(  19) = (  0.7441748  0.2558252  0.3052408  )
        20           Sr  tau(  20) = (  0.7441748  0.2558252  0.4979527  )
        21           O   tau(  21) = (  0.7322655  0.0078049  0.5980003  )
        22           O   tau(  22) = (  0.7558175  0.4996027  0.5980003  )
        23           O   tau(  23) = (  0.5003973  0.2441825  0.5980003  )
        24           O   tau(  24) = (  0.7527966  0.4978604  0.4015968  )
        25           O   tau(  25) = (  0.5021396  0.2472034  0.4015968  )
        26           O   tau(  26) = (  0.7517679  0.0000000  0.4015968  )
        27           O   tau(  27) = (  0.0114961  0.4948124  0.6896512  )
        28           O   tau(  28) = (  0.0048226  0.0077944  0.6999492  )
        29           Sr  tau(  29) = (  0.2545482  0.2517602  0.6972903  )
        30           O   tau(  30) = (  0.5048017  0.0015068  0.7027529  )
        31           Co  tau(  31) = (  0.0056869  0.5006215  0.4015968  )
        32           Co  tau(  32) = (  0.0065315  0.4997770  0.5980003  )
        33           Co  tau(  33) = (  0.0061999  0.0064171  0.4015968  )
        34           Co  tau(  34) = (  0.0000000  0.0126169  0.5980003  )
        35           O   tau(  35) = (  0.0114961  0.4948124  0.5063494  )
        36           O   tau(  36) = (  0.0114961  0.4948124  0.2968442  )
        37           O   tau(  37) = (  0.0051979  0.2673486  0.4015968  )
        38           O   tau(  38) = (  0.0130029  0.2478461  0.5980003  )
        39           O   tau(  39) = (  0.0048226  0.0077944  0.3071422  )
        40           O   tau(  40) = (  0.0048226  0.0077944  0.4960513  )
        41           Sr  tau(  41) = (  0.2545482  0.2517602  0.3044833  )
        42           Sr  tau(  42) = (  0.2545482  0.2517602  0.4987103  )
        43           Co  tau(  43) = (  0.4989925  0.0073160  0.5980003  )
        44           Co  tau(  44) = (  0.4998370  0.0064714  0.4015968  )
        45           O   tau(  45) = (  0.5048017  0.0015068  0.3099459  )
        46           O   tau(  46) = (  0.5048017  0.0015068  0.4932477  )
        47           O   tau(  47) = (  0.2621260  0.0059111  0.5980003  )
        48           O   tau(  48) = (  0.2591051  0.0041689  0.4015968  )
        49           H   tau(  49) = (  0.9951520  0.1421646  0.8534850  )

     number of k points=    10  Gaussian smearing, width (Ry)=  0.0700
                       cart. coord. in units 2pi/alat
        k(    1) = (   0.0000000   0.0000000   0.0000000), wk =   0.1250000
        k(    2) = (   0.0000000   0.2500000   0.0000000), wk =   0.2500000
        k(    3) = (   0.0000000  -0.5000000   0.0000000), wk =   0.1250000
        k(    4) = (   0.2500000   0.2500000   0.0000000), wk =   0.2500000
        k(    5) = (   0.2500000  -0.5000000   0.0000000), wk =   0.2500000
        k(    6) = (  -0.5000000  -0.5000000   0.0000000), wk =   0.1250000
        k(    7) = (   0.2500000   0.0000000   0.0000000), wk =   0.2500000
        k(    8) = (  -0.5000000   0.0000000   0.0000000), wk =   0.1250000
        k(    9) = (  -0.2500000   0.2500000   0.0000000), wk =   0.2500000
        k(   10) = (  -0.5000000   0.2500000   0.0000000), wk =   0.2500000

                       cryst. coord.
        k(    1) = (   0.0000000   0.0000000   0.0000000), wk =   0.1250000
        k(    2) = (   0.0000000   0.2500000   0.0000000), wk =   0.2500000
        k(    3) = (   0.0000000  -0.5000000   0.0000000), wk =   0.1250000
        k(    4) = (   0.2500000   0.2500000   0.0000000), wk =   0.2500000
        k(    5) = (   0.2500000  -0.5000000   0.0000000), wk =   0.2500000
        k(    6) = (  -0.5000000  -0.5000000   0.0000000), wk =   0.1250000
        k(    7) = (   0.2500000   0.0000000   0.0000000), wk =   0.2500000
        k(    8) = (  -0.5000000   0.0000000   0.0000000), wk =   0.1250000
        k(    9) = (  -0.2500000   0.2500000   0.0000000), wk =   0.2500000
        k(   10) = (  -0.5000000   0.2500000   0.0000000), wk =   0.2500000

     Dense  grid:  1474595 G-vectors     FFT dimensions: ( 108, 108, 270)

     Smooth grid:   521381 G-vectors     FFT dimensions: (  75,  75, 192)

     Dynamical RAM for                 wfc:      10.61 MB

     Dynamical RAM for     wfc (w. buffer):      63.63 MB

     Dynamical RAM for           str. fact:       3.75 MB

     Dynamical RAM for           local pot:       0.00 MB

     Dynamical RAM for          nlocal pot:      24.28 MB

     Dynamical RAM for                qrad:       7.03 MB

     Dynamical RAM for          rho,v,vnew:       6.02 MB

     Dynamical RAM for               rhoin:       2.01 MB

     Dynamical RAM for            rho*nmix:      15.00 MB

     Dynamical RAM for           G-vectors:       3.68 MB

     Dynamical RAM for          h,s,v(r/c):       1.32 MB

     Dynamical RAM for          <psi|beta>:       2.29 MB

     Dynamical RAM for                 psi:      21.21 MB

     Dynamical RAM for                hpsi:      21.21 MB

     Dynamical RAM for                spsi:      21.21 MB

     Dynamical RAM for      wfcinit/wfcrot:      34.09 MB

     Dynamical RAM for           addusdens:     100.79 MB

     Estimated static dynamical RAM per process >     120.42 MB

     Estimated max dynamical RAM per process >     236.21 MB

     Estimated total dynamical RAM >      10.72 GB

     Check: negative core charge=   -0.000004

     Initial potential from superposition of free atoms

     starting charge     416.5961, renormalised to     425.0000

     negative rho (up, down):  7.827E-01 0.000E+00
     Starting wfcs are  373 randomized atomic wfcs
     Checking if some PAW data can be deallocated... 
       PAW data deallocated on   20 nodes for type:  2

     total cpu time spent up to now is        8.2 secs

     Self-consistent Calculation

     iteration #  1     ecut=    60.00 Ry     beta= 0.15
     Davidson diagonalization with overlap

---- Real-time Memory Report at c_bands before calling an iterative solver
             0 MiB given to the printing process from OS
             0 MiB allocation reported by mallinfo(arena+hblkhd)
        170471 MiB available memory on the node where the printing process lives
------------------
     ethr =  1.00E-02,  avg # of iterations =  2.0

     negative rho (up, down):  7.718E-01 0.000E+00

     total cpu time spent up to now is       22.7 secs

     total energy              =   -4404.77976222 Ry
     estimated scf accuracy    <      42.17753798 Ry

     iteration #  2     ecut=    60.00 Ry     beta= 0.15
     Davidson diagonalization with overlap

---- Real-time Memory Report at c_bands before calling an iterative solver
             0 MiB given to the printing process from OS
             0 MiB allocation reported by mallinfo(arena+hblkhd)
        170700 MiB available memory on the node where the printing process lives
------------------
     ethr =  9.92E-03,  avg # of iterations =  1.0

     negative rho (up, down):  7.532E-01 0.000E+00

     total cpu time spent up to now is       34.7 secs

     total energy              =   -4400.01312615 Ry
     estimated scf accuracy    <      26.70431575 Ry

     iteration #  3     ecut=    60.00 Ry     beta= 0.15
     Davidson diagonalization with overlap

---- Real-time Memory Report at c_bands before calling an iterative solver
             0 MiB given to the printing process from OS
             0 MiB allocation reported by mallinfo(arena+hblkhd)
        169959 MiB available memory on the node where the printing process lives
------------------
     ethr =  6.28E-03,  avg # of iterations =  2.0

     negative rho (up, down):  7.544E-01 0.000E+00

     total cpu time spent up to now is       48.2 secs

     total energy              =   -4402.39585047 Ry
     estimated scf accuracy    <      49.57729158 Ry

     iteration #  4     ecut=    60.00 Ry     beta= 0.15
     Davidson diagonalization with overlap

---- Real-time Memory Report at c_bands before calling an iterative solver
             0 MiB given to the printing process from OS
             0 MiB allocation reported by mallinfo(arena+hblkhd)
        169822 MiB available memory on the node where the printing process lives
------------------
     ethr =  6.28E-03,  avg # of iterations =  1.0

     negative rho (up, down):  7.410E-01 0.000E+00

     total cpu time spent up to now is       60.6 secs

     total energy              =   -4401.66853028 Ry
     estimated scf accuracy    <      29.62495679 Ry

     iteration #  5     ecut=    60.00 Ry     beta= 0.15
     Davidson diagonalization with overlap

---- Real-time Memory Report at c_bands before calling an iterative solver
             0 MiB given to the printing process from OS
             0 MiB allocation reported by mallinfo(arena+hblkhd)
        169796 MiB available memory on the node where the printing process lives
------------------
     ethr =  6.28E-03,  avg # of iterations =  1.0

     negative rho (up, down):  7.469E-01 0.000E+00

     total cpu time spent up to now is       72.5 secs

     total energy              =   -4399.90293409 Ry
     estimated scf accuracy    <      44.33222453 Ry

     iteration #  6     ecut=    60.00 Ry     beta= 0.15
     Davidson diagonalization with overlap

---- Real-time Memory Report at c_bands before calling an iterative solver
             0 MiB given to the printing process from OS
             0 MiB allocation reported by mallinfo(arena+hblkhd)
        169785 MiB available memory on the node where the printing process lives
------------------
     ethr =  6.28E-03,  avg # of iterations =  1.0

     negative rho (up, down):  7.422E-01 0.000E+00

     total cpu time spent up to now is       84.5 secs

     total energy              =   -4400.67689389 Ry
     estimated scf accuracy    <      11.72884728 Ry

     iteration #  7     ecut=    60.00 Ry     beta= 0.15
     Davidson diagonalization with overlap

---- Real-time Memory Report at c_bands before calling an iterative solver
             0 MiB given to the printing process from OS
             0 MiB allocation reported by mallinfo(arena+hblkhd)
        169765 MiB available memory on the node where the printing process lives
------------------
     ethr =  2.76E-03,  avg # of iterations =  1.1

     negative rho (up, down):  7.442E-01 0.000E+00

     total cpu time spent up to now is       96.8 secs

     total energy              =   -4400.80116959 Ry
     estimated scf accuracy    <       4.09813154 Ry

     iteration #  8     ecut=    60.00 Ry     beta= 0.15
     Davidson diagonalization with overlap

---- Real-time Memory Report at c_bands before calling an iterative solver
             0 MiB given to the printing process from OS
             0 MiB allocation reported by mallinfo(arena+hblkhd)
        169750 MiB available memory on the node where the printing process lives
------------------
     ethr =  9.64E-04,  avg # of iterations =  1.5

     negative rho (up, down):  7.532E-01 0.000E+00

     total cpu time spent up to now is      109.5 secs

     total energy              =   -4400.33457580 Ry
     estimated scf accuracy    <       3.62413239 Ry

     iteration #  9     ecut=    60.00 Ry     beta= 0.15
     Davidson diagonalization with overlap

---- Real-time Memory Report at c_bands before calling an iterative solver
             0 MiB given to the printing process from OS
             0 MiB allocation reported by mallinfo(arena+hblkhd)
        169716 MiB available memory on the node where the printing process lives
------------------
     ethr =  8.53E-04,  avg # of iterations =  3.4

     negative rho (up, down):  7.766E-01 0.000E+00

     total cpu time spent up to now is      124.0 secs

     total energy              =   -4399.81079214 Ry
     estimated scf accuracy    <      42.36061534 Ry

     iteration # 10     ecut=    60.00 Ry     beta= 0.15
     Davidson diagonalization with overlap

---- Real-time Memory Report at c_bands before calling an iterative solver
             0 MiB given to the printing process from OS
             0 MiB allocation reported by mallinfo(arena+hblkhd)
        169640 MiB available memory on the node where the printing process lives
------------------
     ethr =  8.53E-04,  avg # of iterations =  9.6

     negative rho (up, down):  7.785E-01 0.000E+00

     total cpu time spent up to now is      142.0 secs

     total energy              =   -4399.79526473 Ry
     estimated scf accuracy    <      11.55251451 Ry

     iteration # 11     ecut=    60.00 Ry     beta= 0.15
     Davidson diagonalization with overlap

---- Real-time Memory Report at c_bands before calling an iterative solver
             0 MiB given to the printing process from OS
             0 MiB allocation reported by mallinfo(arena+hblkhd)
        169198 MiB available memory on the node where the printing process lives
------------------
     ethr =  8.53E-04,  avg # of iterations =  1.0

     negative rho (up, down):  7.814E-01 0.000E+00

     total cpu time spent up to now is      153.9 secs

     total energy              =   -4400.12412276 Ry
     estimated scf accuracy    <       1.10209409 Ry

     iteration # 12     ecut=    60.00 Ry     beta= 0.15
     Davidson diagonalization with overlap

---- Real-time Memory Report at c_bands before calling an iterative solver
             0 MiB given to the printing process from OS
             0 MiB allocation reported by mallinfo(arena+hblkhd)
        169219 MiB available memory on the node where the printing process lives
------------------
     ethr =  2.59E-04,  avg # of iterations =  2.0

     negative rho (up, down):  7.889E-01 0.000E+00

     total cpu time spent up to now is      166.6 secs

     total energy              =   -4400.09971321 Ry
     estimated scf accuracy    <       0.91173786 Ry

     iteration # 13     ecut=    60.00 Ry     beta= 0.15
     Davidson diagonalization with overlap

---- Real-time Memory Report at c_bands before calling an iterative solver
             0 MiB given to the printing process from OS
             0 MiB allocation reported by mallinfo(arena+hblkhd)
        169237 MiB available memory on the node where the printing process lives
------------------
     ethr =  2.15E-04,  avg # of iterations =  1.9

     negative rho (up, down):  8.020E-01 0.000E+00

     total cpu time spent up to now is      179.5 secs

     total energy              =   -4400.09317992 Ry
     estimated scf accuracy    <       1.46673061 Ry

     iteration # 14     ecut=    60.00 Ry     beta= 0.15
     Davidson diagonalization with overlap

---- Real-time Memory Report at c_bands before calling an iterative solver
             0 MiB given to the printing process from OS
             0 MiB allocation reported by mallinfo(arena+hblkhd)
        169240 MiB available memory on the node where the printing process lives
------------------
     ethr =  2.15E-04,  avg # of iterations =  5.4

     negative rho (up, down):  8.023E-01 0.000E+00

     total cpu time spent up to now is      194.8 secs

     total energy              =   -4400.00628243 Ry
     estimated scf accuracy    <       2.20093029 Ry

     iteration # 15     ecut=    60.00 Ry     beta= 0.15
     Davidson diagonalization with overlap

---- Real-time Memory Report at c_bands before calling an iterative solver
             0 MiB given to the printing process from OS
             0 MiB allocation reported by mallinfo(arena+hblkhd)
        169234 MiB available memory on the node where the printing process lives
------------------
     ethr =  2.15E-04,  avg # of iterations =  2.1

     negative rho (up, down):  8.070E-01 0.000E+00

     total cpu time spent up to now is      207.8 secs

     total energy              =   -4400.04356805 Ry
     estimated scf accuracy    <       0.38849243 Ry

     iteration # 16     ecut=    60.00 Ry     beta= 0.15
     Davidson diagonalization with overlap

---- Real-time Memory Report at c_bands before calling an iterative solver
             0 MiB given to the printing process from OS
             0 MiB allocation reported by mallinfo(arena+hblkhd)
        169231 MiB available memory on the node where the printing process lives
------------------
     c_bands:  1 eigenvalues not converged
     ethr =  9.14E-05,  avg # of iterations = 11.5

     negative rho (up, down):  8.115E-01 0.000E+00

     total cpu time spent up to now is      224.9 secs

     total energy              =   -4400.01705108 Ry
     estimated scf accuracy    <       0.31125696 Ry

     iteration # 17     ecut=    60.00 Ry     beta= 0.15
     Davidson diagonalization with overlap

---- Real-time Memory Report at c_bands before calling an iterative solver
             0 MiB given to the printing process from OS
             0 MiB allocation reported by mallinfo(arena+hblkhd)
        169190 MiB available memory on the node where the printing process lives
------------------
     ethr =  7.32E-05,  avg # of iterations =  5.0

     negative rho (up, down):  8.166E-01 0.000E+00

     total cpu time spent up to now is      239.4 secs

     total energy              =   -4399.94823681 Ry
     estimated scf accuracy    <       0.29563342 Ry

     iteration # 18     ecut=    60.00 Ry     beta= 0.15
     Davidson diagonalization with overlap

---- Real-time Memory Report at c_bands before calling an iterative solver
             0 MiB given to the printing process from OS
             0 MiB allocation reported by mallinfo(arena+hblkhd)
        169238 MiB available memory on the node where the printing process lives
------------------
     c_bands:  2 eigenvalues not converged
     ethr =  6.96E-05,  avg # of iterations = 13.5

     negative rho (up, down):  8.257E-01 0.000E+00

     total cpu time spent up to now is      258.6 secs

     total energy              =   -4399.93956869 Ry
     estimated scf accuracy    <       0.15785994 Ry

     iteration # 19     ecut=    60.00 Ry     beta= 0.15
     Davidson diagonalization with overlap

---- Real-time Memory Report at c_bands before calling an iterative solver
             0 MiB given to the printing process from OS
             0 MiB allocation reported by mallinfo(arena+hblkhd)
        169159 MiB available memory on the node where the printing process lives
------------------
     c_bands:  1 eigenvalues not converged
     ethr =  3.71E-05,  avg # of iterations =  9.0

     negative rho (up, down):  8.235E-01 0.000E+00

     total cpu time spent up to now is      275.0 secs

     total energy              =   -4399.93951554 Ry
     estimated scf accuracy    <       0.10334298 Ry

     iteration # 20     ecut=    60.00 Ry     beta= 0.15
     Davidson diagonalization with overlap

---- Real-time Memory Report at c_bands before calling an iterative solver
             0 MiB given to the printing process from OS
             0 MiB allocation reported by mallinfo(arena+hblkhd)
        169162 MiB available memory on the node where the printing process lives
------------------
     ethr =  2.43E-05,  avg # of iterations =  4.2

     negative rho (up, down):  8.142E-01 0.000E+00

     total cpu time spent up to now is      289.7 secs

     total energy              =   -4399.92447054 Ry
     estimated scf accuracy    <       0.11443208 Ry

     iteration # 21     ecut=    60.00 Ry     beta= 0.15
     Davidson diagonalization with overlap

---- Real-time Memory Report at c_bands before calling an iterative solver
             0 MiB given to the printing process from OS
             0 MiB allocation reported by mallinfo(arena+hblkhd)
        169164 MiB available memory on the node where the printing process lives
------------------
     ethr =  2.43E-05,  avg # of iterations =  6.7

     negative rho (up, down):  8.143E-01 0.000E+00

     total cpu time spent up to now is      305.4 secs

     total energy              =   -4399.92071929 Ry
     estimated scf accuracy    <       0.05467071 Ry

     iteration # 22     ecut=    60.00 Ry     beta= 0.15
     Davidson diagonalization with overlap

---- Real-time Memory Report at c_bands before calling an iterative solver
             0 MiB given to the printing process from OS
             0 MiB allocation reported by mallinfo(arena+hblkhd)
        169148 MiB available memory on the node where the printing process lives
------------------
     ethr =  1.29E-05,  avg # of iterations = 10.9

     negative rho (up, down):  8.081E-01 0.000E+00

     total cpu time spent up to now is      323.2 secs

     total energy              =   -4399.92051516 Ry
     estimated scf accuracy    <       0.03585127 Ry

     iteration # 23     ecut=    60.00 Ry     beta= 0.15
     Davidson diagonalization with overlap

---- Real-time Memory Report at c_bands before calling an iterative solver
             0 MiB given to the printing process from OS
             0 MiB allocation reported by mallinfo(arena+hblkhd)
        169031 MiB available memory on the node where the printing process lives
------------------
     ethr =  8.44E-06,  avg # of iterations =  1.1

     negative rho (up, down):  7.937E-01 0.000E+00

     total cpu time spent up to now is      335.3 secs

     total energy              =   -4399.91423974 Ry
     estimated scf accuracy    <       0.02913263 Ry

     iteration # 24     ecut=    60.00 Ry     beta= 0.15
     Davidson diagonalization with overlap

---- Real-time Memory Report at c_bands before calling an iterative solver
             0 MiB given to the printing process from OS
             0 MiB allocation reported by mallinfo(arena+hblkhd)
        169066 MiB available memory on the node where the printing process lives
------------------
     ethr =  6.85E-06,  avg # of iterations = 13.1

     negative rho (up, down):  7.946E-01 0.000E+00

     total cpu time spent up to now is      353.9 secs

     total energy              =   -4399.91557687 Ry
     estimated scf accuracy    <       0.01159755 Ry

     iteration # 25     ecut=    60.00 Ry     beta= 0.15
     Davidson diagonalization with overlap

---- Real-time Memory Report at c_bands before calling an iterative solver
             0 MiB given to the printing process from OS
             0 MiB allocation reported by mallinfo(arena+hblkhd)
        169111 MiB available memory on the node where the printing process lives
------------------
     ethr =  2.73E-06,  avg # of iterations =  2.4

     negative rho (up, down):  7.922E-01 0.000E+00

     total cpu time spent up to now is      367.5 secs

     total energy              =   -4399.91546931 Ry
     estimated scf accuracy    <       0.00871033 Ry

     iteration # 26     ecut=    60.00 Ry     beta= 0.15
     Davidson diagonalization with overlap

---- Real-time Memory Report at c_bands before calling an iterative solver
             0 MiB given to the printing process from OS
             0 MiB allocation reported by mallinfo(arena+hblkhd)
        169058 MiB available memory on the node where the printing process lives
------------------
     ethr =  2.05E-06,  avg # of iterations =  2.6

     negative rho (up, down):  7.880E-01 0.000E+00

     total cpu time spent up to now is      381.1 secs

     total energy              =   -4399.91446845 Ry
     estimated scf accuracy    <       0.00709403 Ry

     iteration # 27     ecut=    60.00 Ry     beta= 0.15
     Davidson diagonalization with overlap

---- Real-time Memory Report at c_bands before calling an iterative solver
             0 MiB given to the printing process from OS
             0 MiB allocation reported by mallinfo(arena+hblkhd)
        169083 MiB available memory on the node where the printing process lives
------------------
     c_bands:  1 eigenvalues not converged
     ethr =  1.67E-06,  avg # of iterations =  9.7

     negative rho (up, down):  7.922E-01 0.000E+00

     total cpu time spent up to now is      398.2 secs

     total energy              =   -4399.91410576 Ry
     estimated scf accuracy    <       0.00390282 Ry

     iteration # 28     ecut=    60.00 Ry     beta= 0.15
     Davidson diagonalization with overlap

---- Real-time Memory Report at c_bands before calling an iterative solver
             0 MiB given to the printing process from OS
             0 MiB allocation reported by mallinfo(arena+hblkhd)
        169012 MiB available memory on the node where the printing process lives
------------------
     c_bands:  1 eigenvalues not converged
     c_bands:  1 eigenvalues not converged
     ethr =  9.18E-07,  avg # of iterations = 13.6

     negative rho (up, down):  7.935E-01 0.000E+00

     total cpu time spent up to now is      417.2 secs

     total energy              =   -4399.91421601 Ry
     estimated scf accuracy    <       0.00149004 Ry

     iteration # 29     ecut=    60.00 Ry     beta= 0.15
     Davidson diagonalization with overlap

---- Real-time Memory Report at c_bands before calling an iterative solver
             0 MiB given to the printing process from OS
             0 MiB allocation reported by mallinfo(arena+hblkhd)
        169022 MiB available memory on the node where the printing process lives
------------------
     ethr =  3.51E-07,  avg # of iterations =  6.9

     negative rho (up, down):  7.949E-01 0.000E+00

     total cpu time spent up to now is      432.9 secs

     total energy              =   -4399.91420886 Ry
     estimated scf accuracy    <       0.00071583 Ry

     iteration # 30     ecut=    60.00 Ry     beta= 0.15
     Davidson diagonalization with overlap

---- Real-time Memory Report at c_bands before calling an iterative solver
             0 MiB given to the printing process from OS
             0 MiB allocation reported by mallinfo(arena+hblkhd)
        169007 MiB available memory on the node where the printing process lives
------------------
     ethr =  1.68E-07,  avg # of iterations =  8.4

     negative rho (up, down):  7.953E-01 0.000E+00

     total cpu time spent up to now is      449.6 secs

     total energy              =   -4399.91428352 Ry
     estimated scf accuracy    <       0.00017305 Ry

     iteration # 31     ecut=    60.00 Ry     beta= 0.15
     Davidson diagonalization with overlap

---- Real-time Memory Report at c_bands before calling an iterative solver
             0 MiB given to the printing process from OS
             0 MiB allocation reported by mallinfo(arena+hblkhd)
        169044 MiB available memory on the node where the printing process lives
------------------
     ethr =  4.07E-08,  avg # of iterations =  2.2

     negative rho (up, down):  7.937E-01 0.000E+00

     total cpu time spent up to now is      463.3 secs

     total energy              =   -4399.91429252 Ry
     estimated scf accuracy    <       0.00012034 Ry

     iteration # 32     ecut=    60.00 Ry     beta= 0.15
     Davidson diagonalization with overlap

---- Real-time Memory Report at c_bands before calling an iterative solver
             0 MiB given to the printing process from OS
             0 MiB allocation reported by mallinfo(arena+hblkhd)
        169017 MiB available memory on the node where the printing process lives
------------------
     ethr =  2.83E-08,  avg # of iterations =  2.2

     negative rho (up, down):  7.931E-01 0.000E+00

     total cpu time spent up to now is      476.8 secs

     total energy              =   -4399.91430711 Ry
     estimated scf accuracy    <       0.00006180 Ry

     iteration # 33     ecut=    60.00 Ry     beta= 0.15
     Davidson diagonalization with overlap

---- Real-time Memory Report at c_bands before calling an iterative solver
             0 MiB given to the printing process from OS
             0 MiB allocation reported by mallinfo(arena+hblkhd)
        169015 MiB available memory on the node where the printing process lives
------------------
     ethr =  1.45E-08,  avg # of iterations =  2.2

     negative rho (up, down):  7.927E-01 0.000E+00

     total cpu time spent up to now is      490.4 secs

     total energy              =   -4399.91431163 Ry
     estimated scf accuracy    <       0.00003133 Ry

     iteration # 34     ecut=    60.00 Ry     beta= 0.15
     Davidson diagonalization with overlap

---- Real-time Memory Report at c_bands before calling an iterative solver
             0 MiB given to the printing process from OS
             0 MiB allocation reported by mallinfo(arena+hblkhd)
        169016 MiB available memory on the node where the printing process lives
------------------
     ethr =  7.37E-09,  avg # of iterations =  3.9

     negative rho (up, down):  7.924E-01 0.000E+00

     total cpu time spent up to now is      504.6 secs

     total energy              =   -4399.91431637 Ry
     estimated scf accuracy    <       0.00002067 Ry

     iteration # 35     ecut=    60.00 Ry     beta= 0.15
     Davidson diagonalization with overlap

---- Real-time Memory Report at c_bands before calling an iterative solver
             0 MiB given to the printing process from OS
             0 MiB allocation reported by mallinfo(arena+hblkhd)
        169025 MiB available memory on the node where the printing process lives
------------------
     ethr =  4.86E-09,  avg # of iterations =  2.1

     negative rho (up, down):  7.922E-01 0.000E+00

     total cpu time spent up to now is      518.3 secs

     total energy              =   -4399.91431742 Ry
     estimated scf accuracy    <       0.00001155 Ry

     iteration # 36     ecut=    60.00 Ry     beta= 0.15
     Davidson diagonalization with overlap

---- Real-time Memory Report at c_bands before calling an iterative solver
             0 MiB given to the printing process from OS
             0 MiB allocation reported by mallinfo(arena+hblkhd)
        169022 MiB available memory on the node where the printing process lives
------------------
     ethr =  2.72E-09,  avg # of iterations =  2.8

     negative rho (up, down):  7.922E-01 0.000E+00

     total cpu time spent up to now is      532.2 secs

     total energy              =   -4399.91431878 Ry
     estimated scf accuracy    <       0.00000631 Ry

     iteration # 37     ecut=    60.00 Ry     beta= 0.15
     Davidson diagonalization with overlap

---- Real-time Memory Report at c_bands before calling an iterative solver
             0 MiB given to the printing process from OS
             0 MiB allocation reported by mallinfo(arena+hblkhd)
        169026 MiB available memory on the node where the printing process lives
------------------
     ethr =  1.48E-09,  avg # of iterations =  2.9

     negative rho (up, down):  7.922E-01 0.000E+00

     total cpu time spent up to now is      546.0 secs

     total energy              =   -4399.91431897 Ry
     estimated scf accuracy    <       0.00000319 Ry

     iteration # 38     ecut=    60.00 Ry     beta= 0.15
     Davidson diagonalization with overlap

---- Real-time Memory Report at c_bands before calling an iterative solver
             0 MiB given to the printing process from OS
             0 MiB allocation reported by mallinfo(arena+hblkhd)
        169029 MiB available memory on the node where the printing process lives
------------------
     ethr =  7.50E-10,  avg # of iterations =  2.1

     negative rho (up, down):  7.923E-01 0.000E+00

     total cpu time spent up to now is      559.5 secs

     total energy              =   -4399.91431866 Ry
     estimated scf accuracy    <       0.00000247 Ry

     iteration # 39     ecut=    60.00 Ry     beta= 0.15
     Davidson diagonalization with overlap

---- Real-time Memory Report at c_bands before calling an iterative solver
             0 MiB given to the printing process from OS
             0 MiB allocation reported by mallinfo(arena+hblkhd)
        169036 MiB available memory on the node where the printing process lives
------------------
     ethr =  5.82E-10,  avg # of iterations =  2.9

     negative rho (up, down):  7.923E-01 0.000E+00

     total cpu time spent up to now is      573.2 secs

     total energy              =   -4399.91431835 Ry
     estimated scf accuracy    <       0.00000210 Ry

     iteration # 40     ecut=    60.00 Ry     beta= 0.15
     Davidson diagonalization with overlap

---- Real-time Memory Report at c_bands before calling an iterative solver
             0 MiB given to the printing process from OS
             0 MiB allocation reported by mallinfo(arena+hblkhd)
        169062 MiB available memory on the node where the printing process lives
------------------
     ethr =  4.95E-10,  avg # of iterations =  2.0

     negative rho (up, down):  7.924E-01 0.000E+00

     total cpu time spent up to now is      586.8 secs

     total energy              =   -4399.91431784 Ry
     estimated scf accuracy    <       0.00000167 Ry

     iteration # 41     ecut=    60.00 Ry     beta= 0.15
     Davidson diagonalization with overlap

---- Real-time Memory Report at c_bands before calling an iterative solver
             0 MiB given to the printing process from OS
             0 MiB allocation reported by mallinfo(arena+hblkhd)
        169070 MiB available memory on the node where the printing process lives
------------------
     ethr =  3.94E-10,  avg # of iterations =  2.2

     negative rho (up, down):  7.925E-01 0.000E+00

     total cpu time spent up to now is      600.3 secs

     total energy              =   -4399.91431809 Ry
     estimated scf accuracy    <       0.00000140 Ry

     iteration # 42     ecut=    60.00 Ry     beta= 0.15
     Davidson diagonalization with overlap

---- Real-time Memory Report at c_bands before calling an iterative solver
             0 MiB given to the printing process from OS
             0 MiB allocation reported by mallinfo(arena+hblkhd)
        169070 MiB available memory on the node where the printing process lives
------------------
     ethr =  3.30E-10,  avg # of iterations =  1.9

     negative rho (up, down):  7.925E-01 0.000E+00

     total cpu time spent up to now is      613.6 secs

     total energy              =   -4399.91431855 Ry
     estimated scf accuracy    <       0.00000102 Ry

     iteration # 43     ecut=    60.00 Ry     beta= 0.15
     Davidson diagonalization with overlap

---- Real-time Memory Report at c_bands before calling an iterative solver
             0 MiB given to the printing process from OS
             0 MiB allocation reported by mallinfo(arena+hblkhd)
        169071 MiB available memory on the node where the printing process lives
------------------
     ethr =  2.39E-10,  avg # of iterations =  2.7

     negative rho (up, down):  7.924E-01 0.000E+00

     total cpu time spent up to now is      627.2 secs

     total energy              =   -4399.91431888 Ry
     estimated scf accuracy    <       0.00000055 Ry

     iteration # 44     ecut=    60.00 Ry     beta= 0.15
     Davidson diagonalization with overlap

---- Real-time Memory Report at c_bands before calling an iterative solver
             0 MiB given to the printing process from OS
             0 MiB allocation reported by mallinfo(arena+hblkhd)
        169083 MiB available memory on the node where the printing process lives
------------------
     ethr =  1.28E-10,  avg # of iterations =  3.8

     negative rho (up, down):  7.924E-01 0.000E+00

     total cpu time spent up to now is      641.4 secs

     total energy              =   -4399.91431884 Ry
     estimated scf accuracy    <       0.00000035 Ry

     iteration # 45     ecut=    60.00 Ry     beta= 0.15
     Davidson diagonalization with overlap

---- Real-time Memory Report at c_bands before calling an iterative solver
             0 MiB given to the printing process from OS
             0 MiB allocation reported by mallinfo(arena+hblkhd)
        169077 MiB available memory on the node where the printing process lives
------------------
     ethr =  8.27E-11,  avg # of iterations =  4.0

     negative rho (up, down):  7.924E-01 0.000E+00

     total cpu time spent up to now is      655.9 secs

     total energy              =   -4399.91431885 Ry
     estimated scf accuracy    <       0.00000015 Ry

     iteration # 46     ecut=    60.00 Ry     beta= 0.15
     Davidson diagonalization with overlap

---- Real-time Memory Report at c_bands before calling an iterative solver
             0 MiB given to the printing process from OS
             0 MiB allocation reported by mallinfo(arena+hblkhd)
        169068 MiB available memory on the node where the printing process lives
------------------
     ethr =  3.57E-11,  avg # of iterations =  1.5

     negative rho (up, down):  7.924E-01 0.000E+00

     total cpu time spent up to now is      668.7 secs

     total energy              =   -4399.91431889 Ry
     estimated scf accuracy    <       0.00000009 Ry

     iteration # 47     ecut=    60.00 Ry     beta= 0.15
     Davidson diagonalization with overlap

---- Real-time Memory Report at c_bands before calling an iterative solver
             0 MiB given to the printing process from OS
             0 MiB allocation reported by mallinfo(arena+hblkhd)
        169073 MiB available memory on the node where the printing process lives
------------------
     ethr =  2.22E-11,  avg # of iterations =  2.1

     negative rho (up, down):  7.924E-01 0.000E+00

     total cpu time spent up to now is      682.1 secs

     total energy              =   -4399.91431893 Ry
     estimated scf accuracy    <       0.00000007 Ry

     iteration # 48     ecut=    60.00 Ry     beta= 0.15
     Davidson diagonalization with overlap

---- Real-time Memory Report at c_bands before calling an iterative solver
             0 MiB given to the printing process from OS
             0 MiB allocation reported by mallinfo(arena+hblkhd)
        169080 MiB available memory on the node where the printing process lives
------------------
     ethr =  1.73E-11,  avg # of iterations =  3.7

     negative rho (up, down):  7.924E-01 0.000E+00

     total cpu time spent up to now is      696.2 secs

     total energy              =   -4399.91431893 Ry
     estimated scf accuracy    <       0.00000003 Ry

     iteration # 49     ecut=    60.00 Ry     beta= 0.15
     Davidson diagonalization with overlap

---- Real-time Memory Report at c_bands before calling an iterative solver
             0 MiB given to the printing process from OS
             0 MiB allocation reported by mallinfo(arena+hblkhd)
        169071 MiB available memory on the node where the printing process lives
------------------
     ethr =  6.11E-12,  avg # of iterations =  3.8

     negative rho (up, down):  7.924E-01 0.000E+00

     total cpu time spent up to now is      710.1 secs

     total energy              =   -4399.91431893 Ry
     estimated scf accuracy    <       0.00000002 Ry

     iteration # 50     ecut=    60.00 Ry     beta= 0.15
     Davidson diagonalization with overlap

---- Real-time Memory Report at c_bands before calling an iterative solver
             0 MiB given to the printing process from OS
             0 MiB allocation reported by mallinfo(arena+hblkhd)
        169071 MiB available memory on the node where the printing process lives
------------------
     ethr =  4.07E-12,  avg # of iterations =  2.2

     negative rho (up, down):  7.924E-01 0.000E+00

     total cpu time spent up to now is      723.6 secs

     total energy              =   -4399.91431892 Ry
     estimated scf accuracy    <       0.00000001 Ry

     iteration # 51     ecut=    60.00 Ry     beta= 0.15
     Davidson diagonalization with overlap

---- Real-time Memory Report at c_bands before calling an iterative solver
             0 MiB given to the printing process from OS
             0 MiB allocation reported by mallinfo(arena+hblkhd)
        169071 MiB available memory on the node where the printing process lives
------------------
     ethr =  2.51E-12,  avg # of iterations =  2.2

     negative rho (up, down):  7.924E-01 0.000E+00

     total cpu time spent up to now is      736.8 secs

     End of self-consistent calculation

          k = 0.0000 0.0000 0.0000 ( 65197 PWs)   bands (ev):

   -92.7157 -92.6624 -92.5699 -92.5218 -92.4623 -92.4221 -92.4052 -92.2805
   -56.0691 -56.0490 -55.9272 -55.9164 -55.9099 -55.9033 -55.8672 -55.8390
   -55.8238 -55.8215 -55.8125 -55.7704 -55.7521 -55.7139 -55.6964 -55.6622
   -55.6574 -55.6107 -55.6080 -55.6074 -55.5990 -55.5531 -55.5354 -55.4479
   -31.2924 -31.2729 -31.1559 -31.1306 -31.0438 -30.9593 -30.9413 -30.7304
   -29.8643 -29.8212 -29.7946 -29.6862 -15.0965 -15.0563 -14.9732 -14.8428
   -14.6532 -14.5310 -14.2354 -14.2176 -14.1874 -14.1417 -14.0977 -14.0850
   -14.0756 -14.0593 -14.0438 -14.0009 -13.9468 -13.7962 -13.6189 -13.5849
   -13.5531 -13.5228 -13.5060 -13.4543 -13.4194 -13.3367 -13.2653 -13.1667
   -13.1451 -13.1252 -13.1103 -13.0900 -13.0713 -13.0294 -13.0176 -13.0053
   -12.9714 -12.9463 -12.9422 -12.9291 -12.9065 -12.8675 -12.8558 -12.8124
   -12.7964 -12.6806 -12.6675 -12.6477 -12.3567 -12.2110 -12.0599 -11.9863
   -11.8778 -11.8037 -11.7922 -11.7699 -11.7520 -11.6883 -11.6708 -11.6367
   -11.6074 -11.4954 -11.4156 -11.4120  -2.9577  -2.7250  -2.4953  -2.3490
    -2.2855  -2.1430  -1.8361  -1.8219  -1.8017  -1.7178  -1.6992  -1.6306
    -1.6148  -1.5736  -1.5272  -1.3480  -1.1235  -1.0944  -0.9461  -0.9320
    -0.8878  -0.8682  -0.8235  -0.8078  -0.7498  -0.7230  -0.6529  -0.6402
    -0.5626  -0.4318  -0.4184  -0.3902  -0.3090  -0.2921  -0.2817  -0.2155
    -0.1451  -0.1119  -0.0493  -0.0263   0.0325   0.1170   0.1638   0.1876
     0.1962   0.4521   0.4677   0.6389   0.7060   0.7688   0.8165   0.9060
     0.9194   0.9380   1.0044   1.0320   1.0664   1.1244   1.2577   1.3124
     1.3352   1.3573   1.3663   1.4313   1.5061   1.6069   1.6218   1.6786
     1.6960   1.7380   1.7596   1.7653   1.8199   1.8739   1.8835   1.9186
     1.9529   2.0078   2.1391   2.2202   2.2668   2.2831   2.4307   2.4473
     2.4911   2.4977   2.6082   2.6402   2.6659   2.6862   2.7005   2.7644
     2.8155   2.8906   2.9241   2.9358   2.9429   3.0097   3.0133   3.0382
     3.0464   3.0547   3.0695   3.0737   3.0871   3.0926   3.1096   3.1164
     3.1229   3.1414   3.1624   3.1687   3.1795   3.2044   3.3203   3.4332
     4.0980   4.4074   4.7518   4.8639   5.0217   5.8482   5.9168   5.9676
     6.0129   6.2997   6.3464   6.4769   6.4865   6.7344   7.0007   7.0893
     7.1210   7.2842   7.3060   7.5642   7.6348   7.6531   7.6822   7.9201
     7.9744   8.1051   8.1165   8.1795   8.5375   8.6652   8.6927   8.8518

     occupation numbers 
     1.0000   1.0000   1.0000   1.0000   1.0000   1.0000   1.0000   1.0000
     1.0000   1.0000   1.0000   1.0000   1.0000   1.0000   1.0000   1.0000
     1.0000   1.0000   1.0000   1.0000   1.0000   1.0000   1.0000   1.0000
     1.0000   1.0000   1.0000   1.0000   1.0000   1.0000   1.0000   1.0000
     1.0000   1.0000   1.0000   1.0000   1.0000   1.0000   1.0000   1.0000
     1.0000   1.0000   1.0000   1.0000   1.0000   1.0000   1.0000   1.0000
     1.0000   1.0000   1.0000   1.0000   1.0000   1.0000   1.0000   1.0000
     1.0000   1.0000   1.0000   1.0000   1.0000   1.0000   1.0000   1.0000
     1.0000   1.0000   1.0000   1.0000   1.0000   1.0000   1.0000   1.0000
     1.0000   1.0000   1.0000   1.0000   1.0000   1.0000   1.0000   1.0000
     1.0000   1.0000   1.0000   1.0000   1.0000   1.0000   1.0000   1.0000
     1.0000   1.0000   1.0000   1.0000   1.0000   1.0000   1.0000   1.0000
     1.0000   1.0000   1.0000   1.0000   1.0000   1.0000   1.0000   1.0000
     1.0000   1.0000   1.0000   1.0000   1.0000   1.0000   1.0000   1.0000
     1.0000   1.0000   1.0000   1.0000   1.0000   1.0000   1.0000   1.0000
     1.0000   1.0000   1.0000   1.0000   1.0000   1.0000   1.0000   1.0000
     1.0000   1.0000   1.0000   1.0000   1.0000   1.0000   1.0000   1.0000
     1.0000   1.0000   1.0000   1.0000   1.0000   1.0000   1.0000   1.0000
     1.0000   1.0000   1.0000   1.0000   1.0000   1.0000   1.0000   1.0000
     1.0000   1.0000   1.0000   1.0000   0.9999   0.9999   0.9999   0.9998
     0.9998   0.9998   0.9997   0.9996   0.9996   0.9994   0.9989   0.9985
     0.9983   0.9981   0.9981   0.9974   0.9963   0.9943   0.9940   0.9923
     0.9918   0.9903   0.9894   0.9892   0.9866   0.9836   0.9830   0.9807
     0.9782   0.9736   0.9592   0.9475   0.9396   0.9367   0.9046   0.9004
     0.8885   0.8866   0.8519   0.8407   0.8313   0.8236   0.8180   0.7918
     0.7695   0.7342   0.7176   0.7117   0.7081   0.6732   0.6712   0.6578
     0.6532   0.6487   0.6405   0.6382   0.6307   0.6276   0.6180   0.6142
     0.6105   0.5999   0.5878   0.5842   0.5779   0.5634   0.4950   0.4285
     0.1215   0.0519   0.0163   0.0106   0.0056   0.0001   0.0001   0.0000
     0.0000   0.0000   0.0000   0.0000   0.0000   0.0000   0.0000   0.0000
     0.0000   0.0000   0.0000   0.0000   0.0000   0.0000   0.0000   0.0000
     0.0000   0.0000   0.0000   0.0000   0.0000   0.0000   0.0000   0.0000

          k = 0.0000 0.2500 0.0000 ( 65257 PWs)   bands (ev):

   -92.7157 -92.6624 -92.5699 -92.5218 -92.4623 -92.4221 -92.4052 -92.2805
   -56.0691 -56.0490 -55.9272 -55.9164 -55.9099 -55.9033 -55.8672 -55.8390
   -55.8238 -55.8215 -55.8125 -55.7703 -55.7521 -55.7139 -55.6964 -55.6622
   -55.6574 -55.6107 -55.6080 -55.6074 -55.5990 -55.5531 -55.5354 -55.4479
   -31.2922 -31.2728 -31.1558 -31.1308 -31.0439 -30.9591 -30.9415 -30.7305
   -29.8637 -29.8208 -29.7952 -29.6865 -15.0598 -15.0299 -14.9482 -14.8135
   -14.6942 -14.5209 -14.3807 -14.2011 -14.1694 -14.1474 -14.1174 -14.0619
   -14.0537 -14.0389 -14.0242 -13.9783 -13.8658 -13.8276 -13.6627 -13.6456
   -13.5948 -13.5580 -13.5139 -13.4717 -13.4326 -13.3584 -13.3228 -13.2746
   -13.2092 -13.1624 -13.1340 -13.1216 -13.0983 -13.0036 -12.9780 -12.9530
   -12.9464 -12.9183 -12.9143 -12.8865 -12.8755 -12.8324 -12.8115 -12.7466
   -12.7091 -12.6764 -12.6009 -12.5370 -12.4180 -12.2622 -12.1148 -12.0508
   -11.8433 -11.8005 -11.7725 -11.7439 -11.7274 -11.6803 -11.6688 -11.6462
   -11.6128 -11.5095 -11.4571 -11.4466  -2.8224  -2.6007  -2.4631  -2.2811
    -2.2376  -2.0736  -1.8545  -1.7695  -1.7565  -1.6986  -1.5966  -1.5813
    -1.5457  -1.5204  -1.4766  -1.2791  -1.1506  -1.1390  -1.0617  -1.0523
    -0.9480  -0.9171  -0.8602  -0.8353  -0.7936  -0.7302  -0.7046  -0.6717
    -0.6419  -0.6242  -0.5916  -0.5171  -0.4657  -0.3982  -0.2894  -0.2673
    -0.2272  -0.1122  -0.0784  -0.0123   0.0354   0.1005   0.1160   0.1427
     0.1988   0.4987   0.5872   0.6175   0.7067   0.7523   0.7716   0.8938
     0.9120   1.0052   1.0314   1.0593   1.1749   1.2657   1.2886   1.3127
     1.3326   1.3582   1.4178   1.4449   1.4720   1.5205   1.5538   1.5834
     1.6636   1.6983   1.7324   1.7895   1.8394   1.8760   1.9059   1.9382
     1.9552   2.0454   2.1739   2.2451   2.2658   2.3431   2.3880   2.4261
     2.4345   2.4994   2.5391   2.6250   2.6587   2.6778   2.7834   2.8496
     2.8801   2.9047   2.9275   2.9456   2.9521   2.9587   2.9718   2.9974
     3.0016   3.0199   3.0277   3.0374   3.0530   3.0657   3.0712   3.0931
     3.1029   3.1092   3.1432   3.1598   3.2230   3.5805   3.6417   3.8708
     4.2881   4.4035   4.6906   5.0114   5.0552   5.6246   5.7730   5.9213
     5.9673   6.0757   6.1080   6.1720   6.5936   6.8977   6.9951   7.1106
     7.2269   7.3232   7.4726   7.4884   7.6362   7.7512   7.8003   7.9378
     8.0092   8.1008   8.1801   8.3065   8.3994   8.6124   8.7664   8.8545

     occupation numbers 
     1.0000   1.0000   1.0000   1.0000   1.0000   1.0000   1.0000   1.0000
     1.0000   1.0000   1.0000   1.0000   1.0000   1.0000   1.0000   1.0000
     1.0000   1.0000   1.0000   1.0000   1.0000   1.0000   1.0000   1.0000
     1.0000   1.0000   1.0000   1.0000   1.0000   1.0000   1.0000   1.0000
     1.0000   1.0000   1.0000   1.0000   1.0000   1.0000   1.0000   1.0000
     1.0000   1.0000   1.0000   1.0000   1.0000   1.0000   1.0000   1.0000
     1.0000   1.0000   1.0000   1.0000   1.0000   1.0000   1.0000   1.0000
     1.0000   1.0000   1.0000   1.0000   1.0000   1.0000   1.0000   1.0000
     1.0000   1.0000   1.0000   1.0000   1.0000   1.0000   1.0000   1.0000
     1.0000   1.0000   1.0000   1.0000   1.0000   1.0000   1.0000   1.0000
     1.0000   1.0000   1.0000   1.0000   1.0000   1.0000   1.0000   1.0000
     1.0000   1.0000   1.0000   1.0000   1.0000   1.0000   1.0000   1.0000
     1.0000   1.0000   1.0000   1.0000   1.0000   1.0000   1.0000   1.0000
     1.0000   1.0000   1.0000   1.0000   1.0000   1.0000   1.0000   1.0000
     1.0000   1.0000   1.0000   1.0000   1.0000   1.0000   1.0000   1.0000
     1.0000   1.0000   1.0000   1.0000   1.0000   1.0000   1.0000   1.0000
     1.0000   1.0000   1.0000   1.0000   1.0000   1.0000   1.0000   1.0000
     1.0000   1.0000   1.0000   1.0000   1.0000   1.0000   1.0000   1.0000
     1.0000   1.0000   1.0000   1.0000   1.0000   1.0000   1.0000   1.0000
     1.0000   1.0000   1.0000   1.0000   0.9999   0.9999   0.9999   0.9998
     0.9998   0.9997   0.9996   0.9996   0.9992   0.9988   0.9987   0.9985
     0.9984   0.9981   0.9975   0.9972   0.9969   0.9961   0.9955   0.9949
     0.9928   0.9917   0.9905   0.9881   0.9856   0.9835   0.9816   0.9793
     0.9780   0.9700   0.9545   0.9434   0.9398   0.9249   0.9149   0.9058
     0.9037   0.8862   0.8744   0.8461   0.8339   0.8268   0.7837   0.7538
     0.7393   0.7273   0.7159   0.7067   0.7034   0.7000   0.6932   0.6797
     0.6775   0.6677   0.6635   0.6582   0.6496   0.6426   0.6396   0.6273
     0.6218   0.6182   0.5989   0.5893   0.5525   0.3449   0.3122   0.2033
     0.0736   0.0525   0.0203   0.0058   0.0048   0.0003   0.0001   0.0001
     0.0000   0.0000   0.0000   0.0000   0.0000   0.0000   0.0000   0.0000
     0.0000   0.0000   0.0000   0.0000   0.0000   0.0000   0.0000   0.0000
     0.0000   0.0000   0.0000   0.0000   0.0000   0.0000   0.0000   0.0000

          k = 0.0000-0.5000 0.0000 ( 65180 PWs)   bands (ev):

   -92.7157 -92.6624 -92.5699 -92.5218 -92.4623 -92.4221 -92.4052 -92.2805
   -56.0691 -56.0490 -55.9272 -55.9164 -55.9099 -55.9033 -55.8672 -55.8390
   -55.8238 -55.8215 -55.8125 -55.7703 -55.7521 -55.7139 -55.6964 -55.6622
   -55.6574 -55.6107 -55.6080 -55.6074 -55.5990 -55.5531 -55.5354 -55.4479
   -31.2920 -31.2727 -31.1556 -31.1311 -31.0441 -30.9590 -30.9416 -30.7307
   -29.8631 -29.8205 -29.7959 -29.6868 -15.0258 -14.9777 -14.9234 -14.8003
   -14.7106 -14.5769 -14.4195 -14.3053 -14.1723 -14.1048 -14.0622 -14.0533
   -14.0047 -13.9871 -13.9367 -13.9188 -13.8932 -13.8601 -13.8355 -13.7827
   -13.5984 -13.5402 -13.5206 -13.4711 -13.4357 -13.3734 -13.3409 -13.2977
   -13.2953 -13.2320 -13.1363 -13.1219 -13.0946 -12.9943 -12.9814 -12.9690
   -12.9429 -12.9161 -12.8969 -12.8790 -12.8261 -12.7223 -12.7201 -12.6961
   -12.6776 -12.6658 -12.5289 -12.4758 -12.3442 -12.3371 -12.2107 -12.1643
   -11.7975 -11.7950 -11.7674 -11.7295 -11.6953 -11.6843 -11.6426 -11.6385
   -11.5946 -11.5309 -11.5176 -11.5035  -2.6077  -2.5484  -2.3974  -2.3254
    -2.0439  -1.9604  -1.8327  -1.6957  -1.6572  -1.6390  -1.5591  -1.5300
    -1.4465  -1.4121  -1.3348  -1.2945  -1.2562  -1.2291  -1.1704  -1.1339
    -1.0888  -1.0522  -1.0177  -0.9855  -0.8738  -0.8294  -0.7947  -0.7929
    -0.7077  -0.6746  -0.6541  -0.6046  -0.5177  -0.4491  -0.3635  -0.3348
    -0.2330  -0.1901  -0.0447  -0.0067   0.0167   0.0755   0.1887   0.2406
     0.3766   0.4437   0.4507   0.5789   0.6240   0.7294   0.8570   0.9653
     0.9959   1.0351   1.0398   1.0813   1.0958   1.1312   1.1465   1.1592
     1.2680   1.3295   1.3617   1.3843   1.6468   1.6748   1.6921   1.7922
     1.8178   1.8468   1.8608   1.8929   1.9028   1.9145   1.9455   1.9851
     2.0146   2.0442   2.0526   2.0812   2.1348   2.2169   2.2454   2.4271
     2.5867   2.5956   2.6177   2.6438   2.6548   2.6638   2.7168   2.7298
     2.7630   2.7859   2.8222   2.8826   2.9063   2.9635   2.9826   2.9948
     2.9970   3.0157   3.0214   3.0275   3.0309   3.0374   3.0557   3.0632
     3.0711   3.1285   3.1355   3.1494   3.2033   4.1122   4.1485   4.1566
     4.2385   4.7365   4.8836   5.0152   5.1429   5.4033   5.4561   5.5764
     5.7014   5.9880   6.0279   6.0318   6.8334   6.8475   6.9485   7.2135
     7.3058   7.3567   7.4245   7.4695   7.6262   7.7416   7.7836   7.8976
     8.0654   8.2536   8.4173   8.4911   8.6524   8.7248   8.8049   8.8280

     occupation numbers 
     1.0000   1.0000   1.0000   1.0000   1.0000   1.0000   1.0000   1.0000
     1.0000   1.0000   1.0000   1.0000   1.0000   1.0000   1.0000   1.0000
     1.0000   1.0000   1.0000   1.0000   1.0000   1.0000   1.0000   1.0000
     1.0000   1.0000   1.0000   1.0000   1.0000   1.0000   1.0000   1.0000
     1.0000   1.0000   1.0000   1.0000   1.0000   1.0000   1.0000   1.0000
     1.0000   1.0000   1.0000   1.0000   1.0000   1.0000   1.0000   1.0000
     1.0000   1.0000   1.0000   1.0000   1.0000   1.0000   1.0000   1.0000
     1.0000   1.0000   1.0000   1.0000   1.0000   1.0000   1.0000   1.0000
     1.0000   1.0000   1.0000   1.0000   1.0000   1.0000   1.0000   1.0000
     1.0000   1.0000   1.0000   1.0000   1.0000   1.0000   1.0000   1.0000
     1.0000   1.0000   1.0000   1.0000   1.0000   1.0000   1.0000   1.0000
     1.0000   1.0000   1.0000   1.0000   1.0000   1.0000   1.0000   1.0000
     1.0000   1.0000   1.0000   1.0000   1.0000   1.0000   1.0000   1.0000
     1.0000   1.0000   1.0000   1.0000   1.0000   1.0000   1.0000   1.0000
     1.0000   1.0000   1.0000   1.0000   1.0000   1.0000   1.0000   1.0000
     1.0000   1.0000   1.0000   1.0000   1.0000   1.0000   1.0000   1.0000
     1.0000   1.0000   1.0000   1.0000   1.0000   1.0000   1.0000   1.0000
     1.0000   1.0000   1.0000   1.0000   1.0000   1.0000   1.0000   1.0000
     1.0000   1.0000   1.0000   1.0000   1.0000   1.0000   1.0000   1.0000
     1.0000   1.0000   1.0000   1.0000   1.0000   0.9999   0.9999   0.9998
     0.9997   0.9996   0.9996   0.9995   0.9995   0.9994   0.9993   0.9993
     0.9988   0.9984   0.9981   0.9979   0.9933   0.9925   0.9919   0.9880
     0.9867   0.9852   0.9844   0.9824   0.9818   0.9810   0.9788   0.9756
     0.9730   0.9701   0.9692   0.9662   0.9597   0.9480   0.9434   0.9055
     0.8592   0.8562   0.8487   0.8394   0.8354   0.8321   0.8115   0.8063
     0.7924   0.7826   0.7664   0.7381   0.7265   0.6975   0.6876   0.6811
     0.6799   0.6700   0.6669   0.6636   0.6617   0.6582   0.6482   0.6440
     0.6396   0.6073   0.6033   0.5953   0.5640   0.1173   0.1070   0.1049
     0.0844   0.0172   0.0098   0.0057   0.0033   0.0009   0.0007   0.0004
     0.0002   0.0000   0.0000   0.0000   0.0000   0.0000   0.0000   0.0000
     0.0000   0.0000   0.0000   0.0000   0.0000   0.0000   0.0000   0.0000
     0.0000   0.0000   0.0000   0.0000   0.0000   0.0000   0.0000   0.0000

          k = 0.2500 0.2500 0.0000 ( 65198 PWs)   bands (ev):

   -92.7157 -92.6624 -92.5699 -92.5218 -92.4623 -92.4221 -92.4052 -92.2805
   -56.0691 -56.0490 -55.9272 -55.9164 -55.9099 -55.9033 -55.8672 -55.8390
   -55.8238 -55.8215 -55.8125 -55.7703 -55.7521 -55.7139 -55.6964 -55.6622
   -55.6574 -55.6107 -55.6080 -55.6074 -55.5990 -55.5531 -55.5354 -55.4479
   -31.2905 -31.2745 -31.1556 -31.1305 -31.0443 -30.9593 -30.9413 -30.7307
   -29.8627 -29.8218 -29.7948 -29.6869 -15.0314 -14.9947 -14.9202 -14.8034
   -14.6858 -14.5613 -14.4864 -14.2832 -14.1244 -14.1125 -14.0767 -14.0484
   -14.0250 -13.9974 -13.9706 -13.9395 -13.8571 -13.8412 -13.6787 -13.6660
   -13.6357 -13.6161 -13.5685 -13.5262 -13.4744 -13.4411 -13.3336 -13.2942
   -13.2440 -13.1585 -13.1193 -13.0952 -13.0590 -13.0339 -12.9910 -12.9617
   -12.9542 -12.9299 -12.8955 -12.8537 -12.8322 -12.7880 -12.7581 -12.7283
   -12.7164 -12.6757 -12.5438 -12.4665 -12.4175 -12.2913 -12.1450 -12.1000
   -11.8155 -11.7839 -11.7729 -11.7657 -11.7036 -11.6681 -11.6618 -11.6266
   -11.6185 -11.5262 -11.4854 -11.4680  -2.6842  -2.4749  -2.3571  -2.2632
    -2.1419  -2.0768  -1.8793  -1.7346  -1.7148  -1.6855  -1.5915  -1.5559
    -1.4637  -1.4361  -1.3860  -1.2548  -1.2067  -1.1336  -1.0894  -1.0446
    -1.0210  -0.9963  -0.9539  -0.9388  -0.8484  -0.7987  -0.7332  -0.6847
    -0.6555  -0.6036  -0.5918  -0.5282  -0.4780  -0.4201  -0.3860  -0.3006
    -0.2501  -0.2202  -0.1809  -0.1256  -0.0595  -0.0162   0.0109   0.0811
     0.1253   0.3912   0.5384   0.5748   0.6287   0.6715   0.7329   0.7830
     0.8451   0.8822   1.1557   1.2231   1.2968   1.3222   1.3705   1.4019
     1.4372   1.4740   1.4919   1.5196   1.5614   1.5721   1.5872   1.6323
     1.6724   1.7107   1.7591   1.8002   1.8111   1.8434   1.8794   1.9337
     1.9621   2.0864   2.1548   2.1920   2.2197   2.2793   2.3496   2.3784
     2.4157   2.4381   2.4514   2.5664   2.6020   2.6891   2.8050   2.8628
     2.8784   2.8842   2.9015   2.9161   2.9290   2.9401   2.9475   2.9584
     2.9728   2.9836   3.0049   3.0146   3.0206   3.0419   3.0557   3.0637
     3.0963   3.3965   3.4902   3.5330   3.5965   3.6364   3.8536   3.9397
     4.2885   4.4952   4.7021   4.9619   5.1662   5.6301   5.6855   5.7394
     5.8208   5.8804   6.0287   6.1533   6.2145   6.7140   6.8939   7.0660
     7.2108   7.5434   7.5929   7.6975   7.7034   7.8605   7.9292   8.1008
     8.1420   8.1574   8.3139   8.3421   8.4324   8.4680   8.6474   8.8449

     occupation numbers 
     1.0000   1.0000   1.0000   1.0000   1.0000   1.0000   1.0000   1.0000
     1.0000   1.0000   1.0000   1.0000   1.0000   1.0000   1.0000   1.0000
     1.0000   1.0000   1.0000   1.0000   1.0000   1.0000   1.0000   1.0000
     1.0000   1.0000   1.0000   1.0000   1.0000   1.0000   1.0000   1.0000
     1.0000   1.0000   1.0000   1.0000   1.0000   1.0000   1.0000   1.0000
     1.0000   1.0000   1.0000   1.0000   1.0000   1.0000   1.0000   1.0000
     1.0000   1.0000   1.0000   1.0000   1.0000   1.0000   1.0000   1.0000
     1.0000   1.0000   1.0000   1.0000   1.0000   1.0000   1.0000   1.0000
     1.0000   1.0000   1.0000   1.0000   1.0000   1.0000   1.0000   1.0000
     1.0000   1.0000   1.0000   1.0000   1.0000   1.0000   1.0000   1.0000
     1.0000   1.0000   1.0000   1.0000   1.0000   1.0000   1.0000   1.0000
     1.0000   1.0000   1.0000   1.0000   1.0000   1.0000   1.0000   1.0000
     1.0000   1.0000   1.0000   1.0000   1.0000   1.0000   1.0000   1.0000
     1.0000   1.0000   1.0000   1.0000   1.0000   1.0000   1.0000   1.0000
     1.0000   1.0000   1.0000   1.0000   1.0000   1.0000   1.0000   1.0000
     1.0000   1.0000   1.0000   1.0000   1.0000   1.0000   1.0000   1.0000
     1.0000   1.0000   1.0000   1.0000   1.0000   1.0000   1.0000   1.0000
     1.0000   1.0000   1.0000   1.0000   1.0000   1.0000   1.0000   1.0000
     1.0000   1.0000   1.0000   1.0000   1.0000   1.0000   1.0000   1.0000
     1.0000   1.0000   1.0000   1.0000   1.0000   1.0000   0.9999   0.9999
     0.9999   0.9998   0.9993   0.9990   0.9986   0.9984   0.9980   0.9977
     0.9973   0.9968   0.9966   0.9961   0.9953   0.9951   0.9948   0.9937
     0.9925   0.9913   0.9894   0.9876   0.9871   0.9854   0.9833   0.9796
     0.9775   0.9656   0.9571   0.9518   0.9476   0.9374   0.9235   0.9171
     0.9084   0.9028   0.8993   0.8658   0.8541   0.8224   0.7741   0.7475
     0.7401   0.7373   0.7288   0.7216   0.7152   0.7095   0.7058   0.7002
     0.6927   0.6870   0.6757   0.6705   0.6673   0.6557   0.6482   0.6437
     0.6255   0.4500   0.3955   0.3713   0.3363   0.3149   0.2106   0.1756
     0.0735   0.0394   0.0195   0.0071   0.0029   0.0003   0.0002   0.0002
     0.0001   0.0001   0.0000   0.0000   0.0000   0.0000   0.0000   0.0000
     0.0000   0.0000   0.0000   0.0000   0.0000   0.0000   0.0000   0.0000
     0.0000   0.0000   0.0000   0.0000   0.0000   0.0000   0.0000   0.0000

          k = 0.2500-0.5000 0.0000 ( 65138 PWs)   bands (ev):

   -92.7157 -92.6624 -92.5699 -92.5218 -92.4623 -92.4221 -92.4052 -92.2805
   -56.0691 -56.0490 -55.9272 -55.9164 -55.9099 -55.9033 -55.8672 -55.8390
   -55.8238 -55.8215 -55.8125 -55.7703 -55.7521 -55.7139 -55.6964 -55.6622
   -55.6574 -55.6107 -55.6080 -55.6074 -55.5990 -55.5531 -55.5354 -55.4479
   -31.2903 -31.2744 -31.1555 -31.1307 -31.0445 -30.9592 -30.9415 -30.7309
   -29.8621 -29.8215 -29.7955 -29.6872 -14.9952 -14.9509 -14.8804 -14.7703
   -14.7338 -14.6165 -14.5239 -14.4008 -14.0886 -14.0382 -14.0116 -13.9885
   -13.9741 -13.9584 -13.9213 -13.9067 -13.8759 -13.8352 -13.8194 -13.7755
   -13.6810 -13.6328 -13.5847 -13.5527 -13.4941 -13.4798 -13.3873 -13.3477
   -13.2215 -13.1566 -13.1407 -13.0802 -13.0452 -13.0045 -12.9898 -12.9585
   -12.9427 -12.9265 -12.9134 -12.8621 -12.8353 -12.7586 -12.7360 -12.6831
   -12.6683 -12.6377 -12.5356 -12.4397 -12.3348 -12.3029 -12.2039 -12.1739
   -11.7912 -11.7792 -11.7681 -11.7407 -11.7097 -11.6806 -11.6403 -11.6121
   -11.5905 -11.5441 -11.5186 -11.5077  -2.4660  -2.4003  -2.2713  -2.1942
    -2.0645  -1.9803  -1.8572  -1.7069  -1.6524  -1.6312  -1.5684  -1.5548
    -1.4572  -1.3917  -1.3062  -1.2566  -1.2477  -1.1836  -1.1410  -1.1070
    -1.0596  -1.0229  -0.9880  -0.9478  -0.9355  -0.8914  -0.8626  -0.8206
    -0.7900  -0.7222  -0.6201  -0.5814  -0.5031  -0.4388  -0.3891  -0.3463
    -0.3264  -0.2748  -0.1132  -0.1049   0.0053   0.0386   0.0478   0.0938
     0.1208   0.1593   0.1871   0.2592   0.5277   0.6190   0.6951   0.7509
     1.0147   1.0388   1.1270   1.1543   1.3207   1.3546   1.3961   1.4183
     1.4346   1.4551   1.5174   1.5646   1.5988   1.6797   1.7628   1.8033
     1.8266   1.8358   1.8704   1.8865   1.8903   1.9347   1.9482   1.9647
     2.0058   2.0174   2.0439   2.0760   2.1337   2.1721   2.2507   2.3907
     2.5397   2.5571   2.5750   2.6019   2.6248   2.6500   2.6765   2.6848
     2.7128   2.7763   2.8321   2.8594   2.8800   2.8949   2.9093   2.9183
     2.9342   2.9520   2.9578   2.9906   3.0041   3.0167   3.0255   3.0406
     3.0457   3.5720   3.5876   3.7277   3.7768   4.1173   4.1639   4.1867
     4.2979   4.7545   4.9062   5.0503   5.1158   5.2903   5.4218   5.5902
     5.6287   5.7522   5.7747   6.1083   6.3888   6.4867   6.7030   6.9766
     7.4681   7.5065   7.6901   7.6971   7.8037   7.8680   8.0307   8.1489
     8.2612   8.3808   8.4285   8.5167   8.5355   8.6348   8.7062   8.7635

     occupation numbers 
     1.0000   1.0000   1.0000   1.0000   1.0000   1.0000   1.0000   1.0000
     1.0000   1.0000   1.0000   1.0000   1.0000   1.0000   1.0000   1.0000
     1.0000   1.0000   1.0000   1.0000   1.0000   1.0000   1.0000   1.0000
     1.0000   1.0000   1.0000   1.0000   1.0000   1.0000   1.0000   1.0000
     1.0000   1.0000   1.0000   1.0000   1.0000   1.0000   1.0000   1.0000
     1.0000   1.0000   1.0000   1.0000   1.0000   1.0000   1.0000   1.0000
     1.0000   1.0000   1.0000   1.0000   1.0000   1.0000   1.0000   1.0000
     1.0000   1.0000   1.0000   1.0000   1.0000   1.0000   1.0000   1.0000
     1.0000   1.0000   1.0000   1.0000   1.0000   1.0000   1.0000   1.0000
     1.0000   1.0000   1.0000   1.0000   1.0000   1.0000   1.0000   1.0000
     1.0000   1.0000   1.0000   1.0000   1.0000   1.0000   1.0000   1.0000
     1.0000   1.0000   1.0000   1.0000   1.0000   1.0000   1.0000   1.0000
     1.0000   1.0000   1.0000   1.0000   1.0000   1.0000   1.0000   1.0000
     1.0000   1.0000   1.0000   1.0000   1.0000   1.0000   1.0000   1.0000
     1.0000   1.0000   1.0000   1.0000   1.0000   1.0000   1.0000   1.0000
     1.0000   1.0000   1.0000   1.0000   1.0000   1.0000   1.0000   1.0000
     1.0000   1.0000   1.0000   1.0000   1.0000   1.0000   1.0000   1.0000
     1.0000   1.0000   1.0000   1.0000   1.0000   1.0000   1.0000   1.0000
     1.0000   1.0000   1.0000   1.0000   1.0000   1.0000   1.0000   1.0000
     1.0000   1.0000   1.0000   1.0000   1.0000   1.0000   0.9999   0.9999
     0.9997   0.9996   0.9994   0.9993   0.9984   0.9982   0.9978   0.9975
     0.9973   0.9971   0.9961   0.9953   0.9945   0.9923   0.9893   0.9875
     0.9863   0.9858   0.9838   0.9828   0.9826   0.9796   0.9786   0.9773
     0.9738   0.9727   0.9701   0.9668   0.9599   0.9547   0.9424   0.9143
     0.8742   0.8688   0.8631   0.8541   0.8462   0.8372   0.8273   0.8241
     0.8132   0.7868   0.7619   0.7491   0.7393   0.7321   0.7250   0.7205
     0.7125   0.7034   0.7005   0.6833   0.6761   0.6694   0.6647   0.6565
     0.6536   0.3496   0.3411   0.2684   0.2450   0.1158   0.1029   0.0970
     0.0716   0.0161   0.0090   0.0049   0.0037   0.0017   0.0009   0.0004
     0.0003   0.0001   0.0001   0.0000   0.0000   0.0000   0.0000   0.0000
     0.0000   0.0000   0.0000   0.0000   0.0000   0.0000   0.0000   0.0000
     0.0000   0.0000   0.0000   0.0000   0.0000   0.0000   0.0000   0.0000

          k =-0.5000-0.5000 0.0000 ( 65132 PWs)   bands (ev):

   -92.7157 -92.6624 -92.5699 -92.5218 -92.4623 -92.4221 -92.4052 -92.2805
   -56.0691 -56.0490 -55.9272 -55.9164 -55.9099 -55.9033 -55.8672 -55.8390
   -55.8238 -55.8215 -55.8125 -55.7703 -55.7521 -55.7139 -55.6964 -55.6622
   -55.6574 -55.6107 -55.6080 -55.6074 -55.5990 -55.5531 -55.5354 -55.4479
   -31.2881 -31.2766 -31.1553 -31.1303 -31.0448 -30.9593 -30.9413 -30.7310
   -29.8611 -29.8226 -29.7951 -29.6877 -14.9488 -14.9234 -14.8068 -14.7931
   -14.6981 -14.6629 -14.6309 -14.4993 -14.0007 -13.9904 -13.9550 -13.9366
   -13.9176 -13.9020 -13.8765 -13.8652 -13.8474 -13.8456 -13.8295 -13.7492
   -13.7422 -13.7135 -13.6783 -13.6771 -13.5746 -13.5633 -13.4302 -13.3912
   -13.1730 -13.1378 -13.0638 -13.0487 -13.0393 -13.0042 -12.9987 -12.9893
   -12.9706 -12.9038 -12.8880 -12.8556 -12.8394 -12.8054 -12.7672 -12.6918
   -12.6191 -12.6112 -12.5521 -12.4088 -12.3312 -12.2585 -12.1979 -12.1898
   -11.7874 -11.7753 -11.7575 -11.7406 -11.7060 -11.6887 -11.6528 -11.5922
   -11.5725 -11.5667 -11.5165 -11.5136  -2.2418  -2.1665  -2.1572  -2.0824
    -2.0451  -1.9670  -1.8991  -1.7731  -1.6571  -1.6277  -1.5873  -1.5305
    -1.4590  -1.4439  -1.3738  -1.3304  -1.2141  -1.1854  -1.1372  -1.1074
    -1.0433  -0.9977  -0.9796  -0.9675  -0.9133  -0.8680  -0.8538  -0.7409
    -0.6838  -0.6363  -0.5873  -0.5599  -0.5472  -0.5128  -0.4719  -0.4360
    -0.4256  -0.3391  -0.2748  -0.2256  -0.2031  -0.1275  -0.0739  -0.0610
    -0.0031   0.0275   0.0346   0.0533   0.4986   0.5354   0.6415   0.6631
     1.0459   1.0593   1.0927   1.1314   1.4059   1.4251   1.4317   1.4708
     1.6008   1.6951   1.7222   1.7576   1.7745   1.8004   1.8097   1.8412
     1.8495   1.8614   1.8748   1.9316   1.9330   1.9620   1.9713   1.9956
     2.0073   2.0451   2.0750   2.0875   2.1188   2.1473   2.2154   2.2821
     2.5521   2.5839   2.6005   2.6222   2.6335   2.6553   2.6664   2.6853
     2.6949   2.7105   2.7279   2.7445   2.7825   2.8144   2.8204   2.8423
     2.8549   2.8654   2.8842   2.8902   2.9271   3.0000   3.0039   3.0320
     3.0453   4.0144   4.0319   4.0329   4.0493   4.3068   4.3822   4.4036
     4.6439   4.7660   4.8492   4.9780   5.0628   5.0849   5.1914   5.2858
     5.3871   5.8443   5.8826   5.9489   6.0353   6.3825   6.5070   6.6061
     7.7136   7.8503   7.8835   7.8961   7.9205   7.9661   8.0028   8.0763
     8.2559   8.3338   8.4967   8.5699   8.5886   8.6020   8.6506   8.7191

     occupation numbers 
     1.0000   1.0000   1.0000   1.0000   1.0000   1.0000   1.0000   1.0000
     1.0000   1.0000   1.0000   1.0000   1.0000   1.0000   1.0000   1.0000
     1.0000   1.0000   1.0000   1.0000   1.0000   1.0000   1.0000   1.0000
     1.0000   1.0000   1.0000   1.0000   1.0000   1.0000   1.0000   1.0000
     1.0000   1.0000   1.0000   1.0000   1.0000   1.0000   1.0000   1.0000
     1.0000   1.0000   1.0000   1.0000   1.0000   1.0000   1.0000   1.0000
     1.0000   1.0000   1.0000   1.0000   1.0000   1.0000   1.0000   1.0000
     1.0000   1.0000   1.0000   1.0000   1.0000   1.0000   1.0000   1.0000
     1.0000   1.0000   1.0000   1.0000   1.0000   1.0000   1.0000   1.0000
     1.0000   1.0000   1.0000   1.0000   1.0000   1.0000   1.0000   1.0000
     1.0000   1.0000   1.0000   1.0000   1.0000   1.0000   1.0000   1.0000
     1.0000   1.0000   1.0000   1.0000   1.0000   1.0000   1.0000   1.0000
     1.0000   1.0000   1.0000   1.0000   1.0000   1.0000   1.0000   1.0000
     1.0000   1.0000   1.0000   1.0000   1.0000   1.0000   1.0000   1.0000
     1.0000   1.0000   1.0000   1.0000   1.0000   1.0000   1.0000   1.0000
     1.0000   1.0000   1.0000   1.0000   1.0000   1.0000   1.0000   1.0000
     1.0000   1.0000   1.0000   1.0000   1.0000   1.0000   1.0000   1.0000
[...]
     0.7439   0.7314   0.7175   0.7153   0.7041   0.6986   0.6914   0.6808
     0.6775   0.6624   0.6582   0.6540   0.6469   0.6353   0.6207   0.6197
     0.6153   0.6104   0.6055   0.5988   0.5283   0.3509   0.3154   0.2050
     0.0786   0.0470   0.0220   0.0056   0.0050   0.0003   0.0001   0.0000
     0.0000   0.0000   0.0000   0.0000   0.0000   0.0000   0.0000   0.0000
     0.0000   0.0000   0.0000   0.0000   0.0000   0.0000   0.0000   0.0000
     0.0000   0.0000   0.0000   0.0000   0.0000   0.0000   0.0000   0.0000

          k =-0.5000 0.0000 0.0000 ( 65180 PWs)   bands (ev):

   -92.7157 -92.6624 -92.5699 -92.5218 -92.4623 -92.4221 -92.4052 -92.2805
   -56.0691 -56.0490 -55.9272 -55.9164 -55.9099 -55.9033 -55.8672 -55.8390
   -55.8238 -55.8215 -55.8125 -55.7704 -55.7521 -55.7139 -55.6964 -55.6622
   -55.6574 -55.6107 -55.6080 -55.6074 -55.5990 -55.5531 -55.5354 -55.4479
   -31.2885 -31.2768 -31.1556 -31.1299 -31.0446 -30.9596 -30.9411 -30.7307
   -29.8623 -29.8232 -29.7938 -29.6870 -15.0306 -14.9800 -14.9182 -14.8100
   -14.7051 -14.5604 -14.4188 -14.2747 -14.1482 -14.1400 -14.1231 -14.0714
   -14.0081 -13.9760 -13.9277 -13.9223 -13.9035 -13.8533 -13.8388 -13.7398
   -13.5699 -13.5458 -13.5100 -13.5024 -13.4569 -13.3793 -13.3415 -13.2823
   -13.2587 -13.2546 -13.1176 -13.0687 -13.0554 -13.0305 -13.0204 -13.0123
   -12.9587 -12.9389 -12.8972 -12.8766 -12.8316 -12.7241 -12.7071 -12.6780
   -12.6546 -12.6450 -12.5552 -12.4741 -12.3421 -12.3393 -12.2082 -12.1691
   -11.7945 -11.7731 -11.7663 -11.7517 -11.7338 -11.6928 -11.6290 -11.6114
   -11.5788 -11.5339 -11.5247 -11.5090  -2.5977  -2.5590  -2.3950  -2.3560
    -2.0430  -1.9673  -1.8194  -1.7018  -1.6626  -1.6156  -1.5687  -1.5436
    -1.4209  -1.3764  -1.3612  -1.2784  -1.2433  -1.2286  -1.1962  -1.1393
    -1.0706  -1.0409  -1.0123  -0.9191  -0.8703  -0.8219  -0.7889  -0.7676
    -0.7372  -0.6892  -0.6649  -0.6275  -0.5278  -0.4570  -0.3898  -0.3283
    -0.1739  -0.1252  -0.0723  -0.0391   0.0138   0.0391   0.1727   0.2073
     0.2545   0.4244   0.5233   0.5695   0.6560   0.7130   0.8424   0.8543
     0.9854   1.0139   1.0684   1.0980   1.1337   1.1447   1.1903   1.2151
     1.2798   1.3302   1.3779   1.3852   1.6803   1.6869   1.7023   1.7250
     1.8363   1.8509   1.8597   1.8714   1.9043   1.9166   1.9526   1.9807
     1.9986   2.0621   2.0721   2.1269   2.1455   2.2042   2.3091   2.4073
     2.4851   2.4996   2.5845   2.6115   2.6370   2.7040   2.7153   2.7235
     2.7522   2.7834   2.8436   2.8796   2.9128   2.9383   2.9866   2.9888
     2.9932   3.0029   3.0172   3.0281   3.0421   3.0510   3.0680   3.0813
     3.0937   3.1141   3.1187   3.2461   3.2591   4.0839   4.1117   4.1687
     4.2958   4.7761   4.8454   5.0322   5.0433   5.4841   5.4980   5.5887
     5.6316   6.0154   6.0179   6.0848   6.5484   6.7904   7.0017   7.2711
     7.3041   7.3468   7.4028   7.5693   7.6705   7.7642   7.8757   7.9231
     8.1273   8.2319   8.4165   8.5026   8.6180   8.7177   8.7512   8.8281

     occupation numbers 
     1.0000   1.0000   1.0000   1.0000   1.0000   1.0000   1.0000   1.0000
     1.0000   1.0000   1.0000   1.0000   1.0000   1.0000   1.0000   1.0000
     1.0000   1.0000   1.0000   1.0000   1.0000   1.0000   1.0000   1.0000
     1.0000   1.0000   1.0000   1.0000   1.0000   1.0000   1.0000   1.0000
     1.0000   1.0000   1.0000   1.0000   1.0000   1.0000   1.0000   1.0000
     1.0000   1.0000   1.0000   1.0000   1.0000   1.0000   1.0000   1.0000
     1.0000   1.0000   1.0000   1.0000   1.0000   1.0000   1.0000   1.0000
     1.0000   1.0000   1.0000   1.0000   1.0000   1.0000   1.0000   1.0000
     1.0000   1.0000   1.0000   1.0000   1.0000   1.0000   1.0000   1.0000
     1.0000   1.0000   1.0000   1.0000   1.0000   1.0000   1.0000   1.0000
     1.0000   1.0000   1.0000   1.0000   1.0000   1.0000   1.0000   1.0000
     1.0000   1.0000   1.0000   1.0000   1.0000   1.0000   1.0000   1.0000
     1.0000   1.0000   1.0000   1.0000   1.0000   1.0000   1.0000   1.0000
     1.0000   1.0000   1.0000   1.0000   1.0000   1.0000   1.0000   1.0000
     1.0000   1.0000   1.0000   1.0000   1.0000   1.0000   1.0000   1.0000
     1.0000   1.0000   1.0000   1.0000   1.0000   1.0000   1.0000   1.0000
     1.0000   1.0000   1.0000   1.0000   1.0000   1.0000   1.0000   1.0000
     1.0000   1.0000   1.0000   1.0000   1.0000   1.0000   1.0000   1.0000
     1.0000   1.0000   1.0000   1.0000   1.0000   1.0000   1.0000   1.0000
     1.0000   1.0000   1.0000   1.0000   1.0000   0.9999   0.9999   0.9999
     0.9997   0.9997   0.9996   0.9995   0.9994   0.9994   0.9992   0.9991
     0.9987   0.9984   0.9980   0.9979   0.9923   0.9921   0.9916   0.9908
     0.9858   0.9850   0.9845   0.9838   0.9817   0.9809   0.9782   0.9760
     0.9744   0.9683   0.9672   0.9608   0.9584   0.9500   0.9318   0.9104
     0.8902   0.8861   0.8599   0.8508   0.8418   0.8166   0.8121   0.8088
     0.7970   0.7837   0.7565   0.7395   0.7232   0.7105   0.6854   0.6843
     0.6819   0.6768   0.6691   0.6632   0.6556   0.6508   0.6413   0.6340
     0.6270   0.6155   0.6128   0.5389   0.5312   0.1258   0.1175   0.1016
     0.0720   0.0148   0.0114   0.0053   0.0051   0.0006   0.0006   0.0004
     0.0003   0.0000   0.0000   0.0000   0.0000   0.0000   0.0000   0.0000
     0.0000   0.0000   0.0000   0.0000   0.0000   0.0000   0.0000   0.0000
     0.0000   0.0000   0.0000   0.0000   0.0000   0.0000   0.0000   0.0000

          k =-0.2500 0.2500 0.0000 ( 65198 PWs)   bands (ev):

   -92.7157 -92.6624 -92.5699 -92.5218 -92.4623 -92.4221 -92.4052 -92.2805
   -56.0691 -56.0490 -55.9272 -55.9164 -55.9099 -55.9033 -55.8672 -55.8390
   -55.8238 -55.8215 -55.8125 -55.7703 -55.7521 -55.7139 -55.6964 -55.6622
   -55.6574 -55.6107 -55.6080 -55.6074 -55.5990 -55.5531 -55.5354 -55.4479
   -31.2905 -31.2745 -31.1556 -31.1305 -31.0443 -30.9593 -30.9413 -30.7307
   -29.8627 -29.8218 -29.7948 -29.6869 -15.0328 -14.9934 -14.9190 -14.8013
   -14.6920 -14.5665 -14.4780 -14.2743 -14.1317 -14.1024 -14.0898 -14.0430
   -14.0189 -13.9978 -13.9857 -13.9438 -13.8526 -13.8420 -13.6877 -13.6622
   -13.6341 -13.6119 -13.5698 -13.5130 -13.4678 -13.4500 -13.3426 -13.2916
   -13.2379 -13.1620 -13.1215 -13.0832 -13.0543 -13.0209 -12.9999 -12.9633
   -12.9450 -12.9380 -12.9121 -12.8716 -12.8320 -12.7978 -12.7842 -12.7075
   -12.6936 -12.6749 -12.5136 -12.4563 -12.4468 -12.2970 -12.1494 -12.0942
   -11.8148 -11.7932 -11.7660 -11.7537 -11.7131 -11.6779 -11.6554 -11.6333
   -11.6110 -11.5260 -11.4808 -11.4712  -2.6825  -2.4739  -2.3528  -2.2650
    -2.1462  -2.0795  -1.8769  -1.7315  -1.7125  -1.6835  -1.5921  -1.5547
    -1.4635  -1.4295  -1.4034  -1.2603  -1.2051  -1.1366  -1.1084  -1.0481
    -1.0267  -0.9862  -0.9575  -0.9175  -0.8549  -0.8074  -0.7448  -0.6759
    -0.6517  -0.5992  -0.5710  -0.5253  -0.4677  -0.4231  -0.3810  -0.2818
    -0.2493  -0.2397  -0.1931  -0.1282  -0.0616  -0.0145   0.0177   0.0843
     0.1235   0.3727   0.5407   0.5826   0.6196   0.6773   0.7320   0.7865
     0.8510   0.8807   1.1632   1.2735   1.3131   1.3470   1.3530   1.3951
     1.4119   1.4561   1.4872   1.5025   1.5281   1.5708   1.5852   1.6308
     1.6487   1.6937   1.7707   1.7914   1.8111   1.8476   1.8768   1.9163
     1.9687   2.0766   2.1825   2.2165   2.2621   2.2813   2.3469   2.3907
     2.4170   2.4384   2.4627   2.5683   2.6002   2.6895   2.8050   2.8683
     2.8761   2.8925   2.8996   2.9106   2.9258   2.9304   2.9486   2.9576
     2.9720   2.9826   2.9944   3.0042   3.0192   3.0438   3.0547   3.0639
     3.0976   3.3899   3.4726   3.5336   3.6106   3.6357   3.8394   3.9484
     4.2876   4.4923   4.7030   4.9729   5.1662   5.6317   5.6813   5.7413
     5.8167   5.8812   6.0270   6.1751   6.1919   6.7436   6.8928   7.0672
     7.1633   7.5572   7.6010   7.6611   7.7303   7.8746   7.9293   8.1122
     8.1443   8.1901   8.2721   8.3192   8.4325   8.4649   8.6684   8.8413

     occupation numbers 
     1.0000   1.0000   1.0000   1.0000   1.0000   1.0000   1.0000   1.0000
     1.0000   1.0000   1.0000   1.0000   1.0000   1.0000   1.0000   1.0000
     1.0000   1.0000   1.0000   1.0000   1.0000   1.0000   1.0000   1.0000
     1.0000   1.0000   1.0000   1.0000   1.0000   1.0000   1.0000   1.0000
     1.0000   1.0000   1.0000   1.0000   1.0000   1.0000   1.0000   1.0000
     1.0000   1.0000   1.0000   1.0000   1.0000   1.0000   1.0000   1.0000
     1.0000   1.0000   1.0000   1.0000   1.0000   1.0000   1.0000   1.0000
     1.0000   1.0000   1.0000   1.0000   1.0000   1.0000   1.0000   1.0000
     1.0000   1.0000   1.0000   1.0000   1.0000   1.0000   1.0000   1.0000
     1.0000   1.0000   1.0000   1.0000   1.0000   1.0000   1.0000   1.0000
     1.0000   1.0000   1.0000   1.0000   1.0000   1.0000   1.0000   1.0000
     1.0000   1.0000   1.0000   1.0000   1.0000   1.0000   1.0000   1.0000
     1.0000   1.0000   1.0000   1.0000   1.0000   1.0000   1.0000   1.0000
     1.0000   1.0000   1.0000   1.0000   1.0000   1.0000   1.0000   1.0000
     1.0000   1.0000   1.0000   1.0000   1.0000   1.0000   1.0000   1.0000
     1.0000   1.0000   1.0000   1.0000   1.0000   1.0000   1.0000   1.0000
     1.0000   1.0000   1.0000   1.0000   1.0000   1.0000   1.0000   1.0000
     1.0000   1.0000   1.0000   1.0000   1.0000   1.0000   1.0000   1.0000
     1.0000   1.0000   1.0000   1.0000   1.0000   1.0000   1.0000   1.0000
     1.0000   1.0000   1.0000   1.0000   1.0000   1.0000   0.9999   0.9999
     0.9999   0.9998   0.9993   0.9988   0.9985   0.9982   0.9982   0.9978
     0.9976   0.9971   0.9966   0.9964   0.9960   0.9951   0.9948   0.9937
     0.9932   0.9919   0.9889   0.9880   0.9871   0.9852   0.9835   0.9809
     0.9770   0.9667   0.9532   0.9481   0.9405   0.9370   0.9240   0.9143
     0.9080   0.9027   0.8963   0.8652   0.8547   0.8223   0.7742   0.7449
     0.7412   0.7333   0.7298   0.7243   0.7168   0.7145   0.7052   0.7005
     0.6931   0.6875   0.6813   0.6761   0.6681   0.6547   0.6487   0.6436
     0.6248   0.4539   0.4057   0.3710   0.3287   0.3153   0.2167   0.1723
     0.0737   0.0398   0.0194   0.0068   0.0029   0.0003   0.0002   0.0002
     0.0001   0.0001   0.0000   0.0000   0.0000   0.0000   0.0000   0.0000
     0.0000   0.0000   0.0000   0.0000   0.0000   0.0000   0.0000   0.0000
     0.0000   0.0000   0.0000   0.0000   0.0000   0.0000   0.0000   0.0000

          k =-0.5000 0.2500 0.0000 ( 65138 PWs)   bands (ev):

   -92.7157 -92.6624 -92.5699 -92.5218 -92.4623 -92.4221 -92.4052 -92.2805
   -56.0691 -56.0490 -55.9272 -55.9164 -55.9099 -55.9033 -55.8672 -55.8390
   -55.8238 -55.8215 -55.8125 -55.7703 -55.7521 -55.7139 -55.6964 -55.6622
   -55.6574 -55.6107 -55.6080 -55.6074 -55.5990 -55.5531 -55.5354 -55.4479
   -31.2883 -31.2767 -31.1555 -31.1301 -31.0447 -30.9595 -30.9412 -30.7309
   -29.8617 -29.8229 -29.7944 -29.6873 -14.9979 -14.9534 -14.8752 -14.7765
   -14.7334 -14.6075 -14.5226 -14.3926 -14.0821 -14.0526 -14.0408 -13.9959
   -13.9763 -13.9481 -13.9134 -13.9083 -13.8818 -13.8428 -13.8331 -13.7299
   -13.6526 -13.6044 -13.6024 -13.5896 -13.5118 -13.4834 -13.3831 -13.3284
   -13.2150 -13.1797 -13.0923 -13.0694 -13.0401 -13.0300 -12.9979 -12.9658
   -12.9577 -12.9535 -12.9022 -12.8591 -12.8354 -12.7637 -12.7382 -12.6817
   -12.6363 -12.6284 -12.5534 -12.4391 -12.3365 -12.3012 -12.2020 -12.1773
   -11.7873 -11.7746 -11.7606 -11.7486 -11.7275 -11.6975 -11.6161 -11.6075
   -11.5845 -11.5482 -11.5205 -11.5114  -2.4555  -2.4133  -2.2647  -2.2227
    -2.0623  -1.9858  -1.8436  -1.7078  -1.6509  -1.6233  -1.5850  -1.5460
    -1.4657  -1.3506  -1.2934  -1.2702  -1.2448  -1.1685  -1.1395  -1.1022
    -1.0837  -1.0233  -0.9943  -0.9555  -0.9201  -0.8915  -0.8334  -0.8068
    -0.7653  -0.7302  -0.6260  -0.6006  -0.5104  -0.4499  -0.4178  -0.3607
    -0.2763  -0.2451  -0.1428  -0.1103  -0.0456  -0.0023   0.0272   0.1015
     0.1326   0.1655   0.2163   0.2533   0.5657   0.6149   0.6898   0.7094
     0.9948   1.0566   1.1290   1.1555   1.3340   1.3695   1.4069   1.4196
     1.4373   1.4553   1.5242   1.5683   1.6070   1.6374   1.7480   1.7888
     1.8263   1.8372   1.8696   1.8978   1.9132   1.9281   1.9470   1.9705
     2.0138   2.0355   2.0690   2.0930   2.1207   2.1827   2.2998   2.4019
     2.4304   2.4982   2.5380   2.6016   2.6341   2.6433   2.6806   2.7135
     2.7349   2.7773   2.8409   2.8756   2.8782   2.8865   2.9040   2.9292
     2.9390   2.9548   2.9665   2.9868   3.0008   3.0103   3.0182   3.0291
     3.0468   3.5794   3.6021   3.7625   3.7796   4.0829   4.1284   4.1835
     4.3839   4.7707   4.8633   5.0327   5.0655   5.3902   5.4175   5.5738
     5.6278   5.7314   5.7694   6.1891   6.3851   6.4499   6.5284   7.0766
     7.4579   7.5292   7.7063   7.7265   7.7877   7.8787   8.0144   8.1611
     8.3362   8.3796   8.4368   8.5007   8.5567   8.6112   8.6683   8.7381

     occupation numbers 
     1.0000   1.0000   1.0000   1.0000   1.0000   1.0000   1.0000   1.0000
     1.0000   1.0000   1.0000   1.0000   1.0000   1.0000   1.0000   1.0000
     1.0000   1.0000   1.0000   1.0000   1.0000   1.0000   1.0000   1.0000
     1.0000   1.0000   1.0000   1.0000   1.0000   1.0000   1.0000   1.0000
     1.0000   1.0000   1.0000   1.0000   1.0000   1.0000   1.0000   1.0000
     1.0000   1.0000   1.0000   1.0000   1.0000   1.0000   1.0000   1.0000
     1.0000   1.0000   1.0000   1.0000   1.0000   1.0000   1.0000   1.0000
     1.0000   1.0000   1.0000   1.0000   1.0000   1.0000   1.0000   1.0000
     1.0000   1.0000   1.0000   1.0000   1.0000   1.0000   1.0000   1.0000
     1.0000   1.0000   1.0000   1.0000   1.0000   1.0000   1.0000   1.0000
     1.0000   1.0000   1.0000   1.0000   1.0000   1.0000   1.0000   1.0000
     1.0000   1.0000   1.0000   1.0000   1.0000   1.0000   1.0000   1.0000
     1.0000   1.0000   1.0000   1.0000   1.0000   1.0000   1.0000   1.0000
     1.0000   1.0000   1.0000   1.0000   1.0000   1.0000   1.0000   1.0000
     1.0000   1.0000   1.0000   1.0000   1.0000   1.0000   1.0000   1.0000
     1.0000   1.0000   1.0000   1.0000   1.0000   1.0000   1.0000   1.0000
     1.0000   1.0000   1.0000   1.0000   1.0000   1.0000   1.0000   1.0000
     1.0000   1.0000   1.0000   1.0000   1.0000   1.0000   1.0000   1.0000
     1.0000   1.0000   1.0000   1.0000   1.0000   1.0000   1.0000   1.0000
     1.0000   1.0000   1.0000   1.0000   1.0000   1.0000   1.0000   0.9999
     0.9997   0.9996   0.9994   0.9993   0.9983   0.9980   0.9977   0.9975
     0.9973   0.9971   0.9960   0.9952   0.9943   0.9935   0.9899   0.9881
     0.9863   0.9857   0.9839   0.9821   0.9811   0.9800   0.9787   0.9768
     0.9730   0.9710   0.9675   0.9648   0.9615   0.9532   0.9335   0.9117
     0.9047   0.8865   0.8747   0.8542   0.8429   0.8396   0.8257   0.8129
     0.8042   0.7863   0.7578   0.7415   0.7402   0.7362   0.7276   0.7150
     0.7101   0.7020   0.6960   0.6853   0.6779   0.6729   0.6686   0.6627
     0.6531   0.3456   0.3332   0.2517   0.2437   0.1261   0.1127   0.0978
     0.0557   0.0151   0.0106   0.0053   0.0046   0.0010   0.0009   0.0004
     0.0003   0.0002   0.0001   0.0000   0.0000   0.0000   0.0000   0.0000
     0.0000   0.0000   0.0000   0.0000   0.0000   0.0000   0.0000   0.0000
     0.0000   0.0000   0.0000   0.0000   0.0000   0.0000   0.0000   0.0000

     the Fermi energy is     3.3118 ev

!    total energy              =   -4399.91431892 Ry
     estimated scf accuracy    <          6.2E-09 Ry
     smearing contrib. (-TS)   =      -1.14574760 Ry
     internal energy E=F+TS    =   -4398.76857132 Ry

     The total energy is F=E-TS. E is the sum of the following terms:
     one-electron contribution =  -21252.83838191 Ry
     hartree contribution      =   10754.29635061 Ry
     xc contribution           =    -686.72714731 Ry
     ewald contribution        =    7053.14588039 Ry
     one-center paw contrib.   =    -266.64527309 Ry
      -> PAW hartree energy AE =      25.18018270 Ry
      -> PAW hartree energy PS =     -25.06391325 Ry
      -> PAW xc energy AE      =     -16.51991585 Ry
      -> PAW xc energy PS      =       6.87950803 Ry
      -> total E_H with PAW    =   10754.41262006 Ry
      -> total E_XC with PAW   =    -696.36755513 Ry

     convergence has been achieved in  51 iterations

     Writing all to output data dir /bsuhome/zayahcortright/scratch/pwscf.save/
 
     init_run     :      7.36s CPU      7.90s WALL (       1 calls)
     electrons    :    716.17s CPU    728.74s WALL (       1 calls)

     Called by init_run:
     wfcinit      :      5.86s CPU      5.99s WALL (       1 calls)
     wfcinit:atom :      0.04s CPU      0.05s WALL (       5 calls)
     wfcinit:wfcr :      5.55s CPU      5.64s WALL (       5 calls)
     potinit      :      0.17s CPU      0.19s WALL (       1 calls)
     hinit0       :      0.46s CPU      0.77s WALL (       1 calls)

     Called by electrons:
     c_bands      :    564.56s CPU    569.35s WALL (      51 calls)
     sum_band     :    113.18s CPU    117.68s WALL (      51 calls)
     v_of_rho     :      5.60s CPU      5.90s WALL (      52 calls)
     v_h          :      0.50s CPU      0.51s WALL (      52 calls)
     v_xc         :      5.10s CPU      5.40s WALL (      52 calls)
     newd         :     17.44s CPU     20.04s WALL (      52 calls)
     PAW_pot      :      1.84s CPU      1.86s WALL (      52 calls)
     mix_rho      :     13.13s CPU     13.39s WALL (      51 calls)

     Called by c_bands:
     init_us_2    :      7.31s CPU      7.37s WALL (     515 calls)
     init_us_2:cp :      7.30s CPU      7.37s WALL (     515 calls)
     cegterg      :    530.27s CPU    534.85s WALL (     255 calls)

     Called by sum_band:
     sum_band:wei :      0.35s CPU      0.36s WALL (      51 calls)
     sum_band:loo :     90.99s CPU     91.65s WALL (      51 calls)
     sum_band:buf :      1.44s CPU      1.46s WALL (     255 calls)
     sum_band:ini :      3.43s CPU      3.45s WALL (     255 calls)
     sum_band:cal :     18.69s CPU     18.74s WALL (     255 calls)
     sum_band:bec :      0.56s CPU      0.57s WALL (     255 calls)
     addusdens    :     19.11s CPU     22.90s WALL (      51 calls)
                                        0.00s GPU  (      51 calls)
     addusd:skk   :      0.37s CPU      0.70s WALL (     204 calls)
                                        0.00s GPU  (     204 calls)

     Called by *egterg:
     cdiaghg      :     54.69s CPU     54.92s WALL (    1326 calls)
     cegterg:over :     37.67s CPU     37.79s WALL (    1071 calls)
     cegterg:upda :     28.09s CPU     28.45s WALL (    1071 calls)
     cegterg:last :     58.25s CPU     58.42s WALL (     461 calls)
     cdiaghg:chol :      3.20s CPU      3.22s WALL (    1326 calls)
     cdiaghg:inve :      3.42s CPU      3.43s WALL (    1326 calls)
     cdiaghg:para :      6.58s CPU      6.61s WALL (    2652 calls)
     h_psi        :    296.10s CPU    298.70s WALL (    1331 calls)
     s_psi        :     40.23s CPU     40.35s WALL (    1331 calls)
     g_psi        :      1.11s CPU      1.12s WALL (    1071 calls)

     Called by h_psi:
     h_psi:calbec :     42.86s CPU     43.00s WALL (    1331 calls)
     vloc_psi     :    210.02s CPU    211.94s WALL (    1331 calls)
     add_vuspsi   :     39.90s CPU     40.04s WALL (    1331 calls)

     General routines
     calbec       :     61.54s CPU     61.72s WALL (    1586 calls)
     fft          :      3.63s CPU      3.67s WALL (     674 calls)
     ffts         :      4.92s CPU      4.97s WALL (    5499 calls)
     fftw         :    179.33s CPU    180.74s WALL (  339940 calls)
     interpolate  :      0.42s CPU      0.42s WALL (      52 calls)
 
     Parallel routines

     PAW routines
     PAW_pot      :      1.84s CPU      1.86s WALL (      52 calls)
 
     PWSCF        :  12m 5.02s CPU  12m21.18s WALL

 
   This run was terminated on:  23:41:32  21Jun2024            

=------------------------------------------------------------------------------=
   JOB DONE.
=------------------------------------------------------------------------------=
