
     Program PWSCF v.7.2 starts on 20Jun2024 at 19:38:16 

     This program is part of the open-source Quantum ESPRESSO suite
     for quantum simulation of materials; please cite
         "P. Giannozzi et al., J. Phys.:Condens. Matter 21 395502 (2009);
         "P. Giannozzi et al., J. Phys.:Condens. Matter 29 465901 (2017);
         "P. Giannozzi et al., J. Chem. Phys. 152 154105 (2020);
          URL http://www.quantum-espresso.org", 
     in publications or presentations arising from this work. More details at
     http://www.quantum-espresso.org/quote

     Parallel version (MPI & OpenMP), running on      48 processor cores
     Number of MPI processes:                48
     Threads/MPI process:                     1

     MPI processes distributed on     1 nodes
     41857 MiB available memory on the printing compute node when the environment starts
 
     Reading input from espresso.pwi
Warning: card &CELL ignored
Warning: card / ignored
Warning: card &FCP ignored
Warning: card / ignored
Warning: card &RISM ignored
Warning: card / ignored

     Current dimensions of program PWSCF are:
     Max number of different atomic species (ntypx) = 10
     Max number of k-points (npk) =  40000
     Max angular momentum in pseudopotentials (lmaxx) =  4
     file O.pbe-n-kjpaw_psl.0.1.UPF: wavefunction(s)  2P renormalized
     signal trapping enabled: kill the code with -SIGUSR1 to stop cleanly the simulation 
 
     K-points division:     npool     =       2
     R & G space division:  proc/nbgrp/npool/nimage =      24
     Subspace diagonalization in iterative solution of the eigenvalue problem:
     one sub-group per band group will be used
     scalapack distributed-memory algorithm (size of sub-group:  3*  3 procs)

 
     Parallelization info
     --------------------
     sticks:   dense  smooth     PW     G-vecs:    dense   smooth      PW
     Min         350     175     47                61430    21716    3036
     Max         351     177     48                61449    21727    3041
     Sum        8421    4205   1137              1474595   521381   72913
 
     Using Slab Decomposition
 


     bravais-lattice index     =            0
     lattice parameter (alat)  =      14.8599  a.u.
     unit-cell volume          =    8305.1283 (a.u.)^3
     number of atoms/cell      =           51
     number of atomic types    =            4
     number of electrons       =       437.00
     number of Kohn-Sham states=          263
     kinetic-energy cutoff     =      60.0000  Ry
     charge density cutoff     =     480.0000  Ry
     scf convergence threshold =      1.0E-08
     mixing beta               =       0.1500
     number of iterations used =            8  local-TF  mixing
     Exchange-correlation= PBE
                           (   1   4   3   4   0   0   0)

     celldm(1)=  14.859904  celldm(2)=   0.000000  celldm(3)=   0.000000
     celldm(4)=   0.000000  celldm(5)=   0.000000  celldm(6)=   0.000000

     crystal axes: (cart. coord. in units of alat)
               a(1) = (   1.000000   0.000000   0.000000 )  
               a(2) = (   0.000000   1.000000   0.000000 )  
               a(3) = (   0.000000   0.000000   2.531036 )  

     reciprocal axes: (cart. coord. in units 2 pi/alat)
               b(1) = (  1.000000  0.000000  0.000000 )  
               b(2) = (  0.000000  1.000000  0.000000 )  
               b(3) = (  0.000000  0.000000  0.395095 )  


     PseudoPot. # 1 for Sr read from file:
     /bsuhome/zayahcortright/q-e/pseudo/Sr_pbe_v1.uspp.F.UPF
     MD5 check sum: 6b418c05fbe9db5448babca5e47b7a5b
     Pseudo is Ultrasoft + core correction, Zval = 10.0
     Generated by new atomic code, or converted to UPF format
     Using radial grid of  883 points,  6 beta functions with: 
                l(1) =   0
                l(2) =   0
                l(3) =   1
                l(4) =   1
                l(5) =   2
                l(6) =   2
     Q(r) pseudized with  6 coefficients,  rinner =    1.400   1.400   1.400
                                                       1.400   1.400

     PseudoPot. # 2 for O  read from file:
     /bsuhome/zayahcortright/q-e/pseudo/O.pbe-n-kjpaw_psl.0.1.UPF
     MD5 check sum: 0234752ac141de4415c5fc33072bef88
     Pseudo is Projector augmented-wave + core cor, Zval =  6.0
     Generated using "atomic" code by A. Dal Corso  v.5.0.99 svn rev. 10869
     Shape of augmentation charge: BESSEL
     Using radial grid of 1095 points,  4 beta functions with: 
                l(1) =   0
                l(2) =   0
                l(3) =   1
                l(4) =   1
     Q(r) pseudized with 0 coefficients 


     PseudoPot. # 3 for Co read from file:
     /bsuhome/zayahcortright/q-e/pseudo/Co_pbe_v1.2.uspp.F.UPF
     MD5 check sum: 5f91765df6ddd3222702df6e7b74a16d
     Pseudo is Ultrasoft + core correction, Zval = 17.0
     Generated by new atomic code, or converted to UPF format
     Using radial grid of  863 points,  6 beta functions with: 
                l(1) =   0
                l(2) =   0
                l(3) =   1
                l(4) =   1
                l(5) =   2
                l(6) =   2
     Q(r) pseudized with  8 coefficients,  rinner =    1.200   1.200   1.200
                                                       1.200   1.200

     PseudoPot. # 4 for H  read from file:
     /bsuhome/zayahcortright/q-e/pseudo/H.pbe-rrkjus_psl.1.0.0.UPF
     MD5 check sum: f52b6d4d1c606e5624b1dc7b2218f220
     Pseudo is Ultrasoft, Zval =  1.0
     Generated using "atomic" code by A. Dal Corso  v.5.1
     Using radial grid of  929 points,  2 beta functions with: 
                l(1) =   0
                l(2) =   0
     Q(r) pseudized with 0 coefficients 


     atomic species   valence    mass     pseudopotential
        Sr            10.00    87.62000     Sr( 1.00)
        O              6.00    15.99900     O ( 1.00)
        Co            17.00    58.93319     Co( 1.00)
        H              1.00     1.00800     H ( 1.00)

     No symmetry found


                                    s                        frac. trans.

      isym =  1     identity                                     

 cryst.   s( 1) = (     1          0          0      )
                  (     0          1          0      )
                  (     0          0          1      )

 cart.    s( 1) = (  1.0000000  0.0000000  0.0000000 )
                  (  0.0000000  1.0000000  0.0000000 )
                  (  0.0000000  0.0000000  1.0000000 )


   Cartesian axes

     site n.     atom                  positions (alat units)
         1           Sr  tau(   1) = (   0.2508693   0.7491307   1.7574407  )
         2           O   tau(   2) = (   0.4985141   0.5014859   1.7715967  )
         3           Sr  tau(   3) = (   0.7482398   0.7454518   1.7648669  )
         4           Sr  tau(   4) = (   0.7441748   0.2558252   1.7667843  )
         5           Sr  tau(   5) = (   0.2508693   0.7491307   1.2696799  )
         6           Sr  tau(   6) = (   0.2508693   0.7491307   0.7632319  )
         7           Co  tau(   7) = (   0.4998914   0.5001086   1.0164559  )
         8           Co  tau(   8) = (   0.4936915   0.5063085   1.5135603  )
         9           O   tau(   9) = (   0.4988895   0.7610401   1.0164559  )
        10           O   tau(  10) = (   0.2389599   0.5011105   1.0164559  )
        11           O   tau(  11) = (   0.0070918   0.7374880   1.0164559  )
        12           O   tau(  12) = (   0.0088340   0.7405089   1.5135603  )
        13           O   tau(  13) = (   0.5066944   0.7415376   1.5135603  )
        14           O   tau(  14) = (   0.2584624   0.4933056   1.5135603  )
        15           O   tau(  15) = (   0.4985141   0.5014859   0.7773880  )
        16           O   tau(  16) = (   0.4985141   0.5014859   1.2555238  )
        17           Sr  tau(  17) = (   0.7482398   0.7454518   0.7706582  )
        18           Sr  tau(  18) = (   0.7482398   0.7454518   1.2622536  )
        19           Sr  tau(  19) = (   0.7441748   0.2558252   0.7725755  )
        20           Sr  tau(  20) = (   0.7441748   0.2558252   1.2603363  )
        21           O   tau(  21) = (   0.7322655   0.0078049   1.5135603  )
        22           O   tau(  22) = (   0.7558175   0.4996027   1.5135603  )
        23           O   tau(  23) = (   0.5003973   0.2441825   1.5135603  )
        24           O   tau(  24) = (   0.7527966   0.4978604   1.0164559  )
        25           O   tau(  25) = (   0.5021396   0.2472034   1.0164559  )
        26           O   tau(  26) = (   0.7517679   0.0000000   1.0164559  )
        27           O   tau(  27) = (   0.0114961   0.4948124   1.7455321  )
        28           O   tau(  28) = (   0.0048226   0.0077944   1.7715967  )
        29           Sr  tau(  29) = (   0.2545482   0.2517602   1.7648669  )
        30           O   tau(  30) = (   0.5048017   0.0015068   1.7786929  )
        31           Co  tau(  31) = (   0.0056869   0.5006215   1.0164559  )
        32           Co  tau(  32) = (   0.0065315   0.4997770   1.5135603  )
        33           Co  tau(  33) = (   0.0061999   0.0064171   1.0164559  )
        34           Co  tau(  34) = (   0.0000000   0.0126169   1.5135603  )
        35           O   tau(  35) = (   0.0114961   0.4948124   1.2815885  )
        36           O   tau(  36) = (   0.0114961   0.4948124   0.7513233  )
        37           O   tau(  37) = (   0.0051979   0.2673486   1.0164559  )
        38           O   tau(  38) = (   0.0130029   0.2478461   1.5135603  )
        39           O   tau(  39) = (   0.0048226   0.0077944   0.7773880  )
        40           O   tau(  40) = (   0.0048226   0.0077944   1.2555238  )
        41           Sr  tau(  41) = (   0.2545482   0.2517602   0.7706582  )
        42           Sr  tau(  42) = (   0.2545482   0.2517602   1.2622536  )
        43           Co  tau(  43) = (   0.4989925   0.0073160   1.5135603  )
        44           Co  tau(  44) = (   0.4998370   0.0064714   1.0164559  )
        45           O   tau(  45) = (   0.5048017   0.0015068   0.7844841  )
        46           O   tau(  46) = (   0.5048017   0.0015068   1.2484277  )
        47           O   tau(  47) = (   0.2621260   0.0059111   1.5135603  )
        48           O   tau(  48) = (   0.2591051   0.0041689   1.0164559  )
        49           O   tau(  49) = (   0.9951520   0.2843291   2.1602013  )
        50           O   tau(  50) = (   0.9951520   0.2843291   2.3186489  )
        51           H   tau(  51) = (   0.9951520   0.2843291   2.4431567  )

   Crystallographic axes

     site n.     atom                  positions (cryst. coord.)
         1           Sr  tau(   1) = (  0.2508693  0.7491307  0.6943562  )
         2           O   tau(   2) = (  0.4985141  0.5014859  0.6999492  )
         3           Sr  tau(   3) = (  0.7482398  0.7454518  0.6972903  )
         4           Sr  tau(   4) = (  0.7441748  0.2558252  0.6980478  )
         5           Sr  tau(   5) = (  0.2508693  0.7491307  0.5016443  )
         6           Sr  tau(   6) = (  0.2508693  0.7491307  0.3015492  )
         7           Co  tau(   7) = (  0.4998914  0.5001086  0.4015968  )
         8           Co  tau(   8) = (  0.4936915  0.5063085  0.5980003  )
         9           O   tau(   9) = (  0.4988895  0.7610401  0.4015968  )
        10           O   tau(  10) = (  0.2389599  0.5011105  0.4015968  )
        11           O   tau(  11) = (  0.0070918  0.7374880  0.4015968  )
        12           O   tau(  12) = (  0.0088340  0.7405089  0.5980003  )
        13           O   tau(  13) = (  0.5066944  0.7415376  0.5980003  )
        14           O   tau(  14) = (  0.2584624  0.4933056  0.5980003  )
        15           O   tau(  15) = (  0.4985141  0.5014859  0.3071422  )
        16           O   tau(  16) = (  0.4985141  0.5014859  0.4960513  )
        17           Sr  tau(  17) = (  0.7482398  0.7454518  0.3044833  )
        18           Sr  tau(  18) = (  0.7482398  0.7454518  0.4987103  )
        19           Sr  tau(  19) = (  0.7441748  0.2558252  0.3052408  )
        20           Sr  tau(  20) = (  0.7441748  0.2558252  0.4979527  )
        21           O   tau(  21) = (  0.7322655  0.0078049  0.5980003  )
        22           O   tau(  22) = (  0.7558175  0.4996027  0.5980003  )
        23           O   tau(  23) = (  0.5003973  0.2441825  0.5980003  )
        24           O   tau(  24) = (  0.7527966  0.4978604  0.4015968  )
        25           O   tau(  25) = (  0.5021396  0.2472034  0.4015968  )
        26           O   tau(  26) = (  0.7517679  0.0000000  0.4015968  )
        27           O   tau(  27) = (  0.0114961  0.4948124  0.6896512  )
        28           O   tau(  28) = (  0.0048226  0.0077944  0.6999492  )
        29           Sr  tau(  29) = (  0.2545482  0.2517602  0.6972903  )
        30           O   tau(  30) = (  0.5048017  0.0015068  0.7027529  )
        31           Co  tau(  31) = (  0.0056869  0.5006215  0.4015968  )
        32           Co  tau(  32) = (  0.0065315  0.4997770  0.5980003  )
        33           Co  tau(  33) = (  0.0061999  0.0064171  0.4015968  )
        34           Co  tau(  34) = (  0.0000000  0.0126169  0.5980003  )
        35           O   tau(  35) = (  0.0114961  0.4948124  0.5063494  )
        36           O   tau(  36) = (  0.0114961  0.4948124  0.2968442  )
        37           O   tau(  37) = (  0.0051979  0.2673486  0.4015968  )
        38           O   tau(  38) = (  0.0130029  0.2478461  0.5980003  )
        39           O   tau(  39) = (  0.0048226  0.0077944  0.3071422  )
        40           O   tau(  40) = (  0.0048226  0.0077944  0.4960513  )
        41           Sr  tau(  41) = (  0.2545482  0.2517602  0.3044833  )
        42           Sr  tau(  42) = (  0.2545482  0.2517602  0.4987103  )
        43           Co  tau(  43) = (  0.4989925  0.0073160  0.5980003  )
        44           Co  tau(  44) = (  0.4998370  0.0064714  0.4015968  )
        45           O   tau(  45) = (  0.5048017  0.0015068  0.3099459  )
        46           O   tau(  46) = (  0.5048017  0.0015068  0.4932477  )
        47           O   tau(  47) = (  0.2621260  0.0059111  0.5980003  )
        48           O   tau(  48) = (  0.2591051  0.0041689  0.4015968  )
        49           O   tau(  49) = (  0.9951520  0.2843291  0.8534850  )
        50           O   tau(  50) = (  0.9951520  0.2843291  0.9160869  )
        51           H   tau(  51) = (  0.9951520  0.2843291  0.9652793  )

     number of k points=    10  Gaussian smearing, width (Ry)=  0.0700
                       cart. coord. in units 2pi/alat
        k(    1) = (   0.0000000   0.0000000   0.0000000), wk =   0.1250000
        k(    2) = (   0.0000000   0.2500000   0.0000000), wk =   0.2500000
        k(    3) = (   0.0000000  -0.5000000   0.0000000), wk =   0.1250000
        k(    4) = (   0.2500000   0.2500000   0.0000000), wk =   0.2500000
        k(    5) = (   0.2500000  -0.5000000   0.0000000), wk =   0.2500000
        k(    6) = (  -0.5000000  -0.5000000   0.0000000), wk =   0.1250000
        k(    7) = (   0.2500000   0.0000000   0.0000000), wk =   0.2500000
        k(    8) = (  -0.5000000   0.0000000   0.0000000), wk =   0.1250000
        k(    9) = (  -0.2500000   0.2500000   0.0000000), wk =   0.2500000
        k(   10) = (  -0.5000000   0.2500000   0.0000000), wk =   0.2500000

                       cryst. coord.
        k(    1) = (   0.0000000   0.0000000   0.0000000), wk =   0.1250000
        k(    2) = (   0.0000000   0.2500000   0.0000000), wk =   0.2500000
        k(    3) = (   0.0000000  -0.5000000   0.0000000), wk =   0.1250000
        k(    4) = (   0.2500000   0.2500000   0.0000000), wk =   0.2500000
        k(    5) = (   0.2500000  -0.5000000   0.0000000), wk =   0.2500000
        k(    6) = (  -0.5000000  -0.5000000   0.0000000), wk =   0.1250000
        k(    7) = (   0.2500000   0.0000000   0.0000000), wk =   0.2500000
        k(    8) = (  -0.5000000   0.0000000   0.0000000), wk =   0.1250000
        k(    9) = (  -0.2500000   0.2500000   0.0000000), wk =   0.2500000
        k(   10) = (  -0.5000000   0.2500000   0.0000000), wk =   0.2500000

     Dense  grid:  1474595 G-vectors     FFT dimensions: ( 108, 108, 270)

     Smooth grid:   521381 G-vectors     FFT dimensions: (  75,  75, 192)

     Dynamical RAM for                 wfc:      10.90 MB

     Dynamical RAM for     wfc (w. buffer):      65.37 MB

     Dynamical RAM for           str. fact:       3.75 MB

     Dynamical RAM for           local pot:       0.00 MB

     Dynamical RAM for          nlocal pot:      24.94 MB

     Dynamical RAM for                qrad:       7.03 MB

     Dynamical RAM for          rho,v,vnew:       6.02 MB

     Dynamical RAM for               rhoin:       2.01 MB

     Dynamical RAM for            rho*nmix:      15.00 MB

     Dynamical RAM for           G-vectors:       3.68 MB

     Dynamical RAM for          h,s,v(r/c):       1.40 MB

     Dynamical RAM for          <psi|beta>:       2.42 MB

     Dynamical RAM for                 psi:      21.79 MB

     Dynamical RAM for                hpsi:      21.79 MB

     Dynamical RAM for                spsi:      21.79 MB

     Dynamical RAM for      wfcinit/wfcrot:      34.89 MB

     Dynamical RAM for           addusdens:     101.73 MB

     Estimated static dynamical RAM per process >     122.82 MB

     Estimated max dynamical RAM per process >     239.55 MB

     Estimated total dynamical RAM >      10.88 GB

     Check: negative core charge=   -0.000004

     Initial potential from superposition of free atoms

     starting charge     428.5961, renormalised to     437.0000

     negative rho (up, down):  7.813E-01 0.000E+00
     Starting wfcs are  381 randomized atomic wfcs
     Checking if some PAW data can be deallocated... 
       PAW data deallocated on   18 nodes for type:  2

     total cpu time spent up to now is        9.9 secs

     Self-consistent Calculation

     iteration #  1     ecut=    60.00 Ry     beta= 0.15
     Davidson diagonalization with overlap

---- Real-time Memory Report at c_bands before calling an iterative solver
             0 MiB given to the printing process from OS
             0 MiB allocation reported by mallinfo(arena+hblkhd)
         32092 MiB available memory on the node where the printing process lives
------------------
     ethr =  1.00E-02,  avg # of iterations =  2.0

     negative rho (up, down):  7.716E-01 0.000E+00

     total cpu time spent up to now is       25.6 secs

     total energy              =   -4489.30189989 Ry
     estimated scf accuracy    <      49.76407981 Ry

     iteration #  2     ecut=    60.00 Ry     beta= 0.15
     Davidson diagonalization with overlap

---- Real-time Memory Report at c_bands before calling an iterative solver
             0 MiB given to the printing process from OS
             0 MiB allocation reported by mallinfo(arena+hblkhd)
         32457 MiB available memory on the node where the printing process lives
------------------
     ethr =  1.00E-02,  avg # of iterations =  1.0

     negative rho (up, down):  7.613E-01 0.000E+00

     total cpu time spent up to now is       38.3 secs

     total energy              =   -4486.81510865 Ry
     estimated scf accuracy    <      35.33927905 Ry

     iteration #  3     ecut=    60.00 Ry     beta= 0.15
     Davidson diagonalization with overlap

---- Real-time Memory Report at c_bands before calling an iterative solver
             0 MiB given to the printing process from OS
             0 MiB allocation reported by mallinfo(arena+hblkhd)
         31706 MiB available memory on the node where the printing process lives
------------------
     ethr =  8.09E-03,  avg # of iterations =  1.0

     negative rho (up, down):  7.562E-01 0.000E+00

     total cpu time spent up to now is       51.3 secs

     total energy              =   -4486.75678244 Ry
     estimated scf accuracy    <      35.12815322 Ry

     iteration #  4     ecut=    60.00 Ry     beta= 0.15
     Davidson diagonalization with overlap

---- Real-time Memory Report at c_bands before calling an iterative solver
             0 MiB given to the printing process from OS
             0 MiB allocation reported by mallinfo(arena+hblkhd)
         31666 MiB available memory on the node where the printing process lives
------------------
     ethr =  8.04E-03,  avg # of iterations =  1.0

     negative rho (up, down):  7.573E-01 0.000E+00

     total cpu time spent up to now is       64.4 secs

     total energy              =   -4486.66372046 Ry
     estimated scf accuracy    <      34.29956194 Ry

     iteration #  5     ecut=    60.00 Ry     beta= 0.15
     Davidson diagonalization with overlap

---- Real-time Memory Report at c_bands before calling an iterative solver
             0 MiB given to the printing process from OS
             0 MiB allocation reported by mallinfo(arena+hblkhd)
         31649 MiB available memory on the node where the printing process lives
------------------
     ethr =  7.85E-03,  avg # of iterations =  1.0

     negative rho (up, down):  7.342E-01 0.000E+00

     total cpu time spent up to now is       77.4 secs

     total energy              =   -4482.90327092 Ry
     estimated scf accuracy    <      23.67118788 Ry

     iteration #  6     ecut=    60.00 Ry     beta= 0.15
     Davidson diagonalization with overlap

---- Real-time Memory Report at c_bands before calling an iterative solver
             0 MiB given to the printing process from OS
             0 MiB allocation reported by mallinfo(arena+hblkhd)
         31637 MiB available memory on the node where the printing process lives
------------------
     ethr =  5.42E-03,  avg # of iterations =  2.0

     negative rho (up, down):  7.476E-01 0.000E+00

     total cpu time spent up to now is       91.9 secs

     total energy              =   -4484.09143306 Ry
     estimated scf accuracy    <      41.69079353 Ry

     iteration #  7     ecut=    60.00 Ry     beta= 0.15
     Davidson diagonalization with overlap

---- Real-time Memory Report at c_bands before calling an iterative solver
             0 MiB given to the printing process from OS
             0 MiB allocation reported by mallinfo(arena+hblkhd)
         31611 MiB available memory on the node where the printing process lives
------------------
     ethr =  5.42E-03,  avg # of iterations =  1.0

     negative rho (up, down):  7.529E-01 0.000E+00

     total cpu time spent up to now is      104.9 secs

     total energy              =   -4483.49824886 Ry
     estimated scf accuracy    <      42.40434638 Ry

     iteration #  8     ecut=    60.00 Ry     beta= 0.15
     Davidson diagonalization with overlap

---- Real-time Memory Report at c_bands before calling an iterative solver
             0 MiB given to the printing process from OS
             0 MiB allocation reported by mallinfo(arena+hblkhd)
         31573 MiB available memory on the node where the printing process lives
------------------
     ethr =  5.42E-03,  avg # of iterations =  1.0

     negative rho (up, down):  7.505E-01 0.000E+00

     total cpu time spent up to now is      117.8 secs

     total energy              =   -4483.82045694 Ry
     estimated scf accuracy    <       5.91756538 Ry

     iteration #  9     ecut=    60.00 Ry     beta= 0.15
     Davidson diagonalization with overlap

---- Real-time Memory Report at c_bands before calling an iterative solver
             0 MiB given to the printing process from OS
             0 MiB allocation reported by mallinfo(arena+hblkhd)
         31559 MiB available memory on the node where the printing process lives
------------------
     ethr =  1.35E-03,  avg # of iterations =  4.5

     negative rho (up, down):  7.641E-01 0.000E+00

     total cpu time spent up to now is      133.2 secs

     total energy              =   -4483.68642488 Ry
     estimated scf accuracy    <       3.54222957 Ry

     iteration # 10     ecut=    60.00 Ry     beta= 0.15
     Davidson diagonalization with overlap

---- Real-time Memory Report at c_bands before calling an iterative solver
             0 MiB given to the printing process from OS
             0 MiB allocation reported by mallinfo(arena+hblkhd)
         31520 MiB available memory on the node where the printing process lives
------------------
     ethr =  8.11E-04,  avg # of iterations =  9.9

     negative rho (up, down):  7.803E-01 0.000E+00

     total cpu time spent up to now is      151.7 secs

     total energy              =   -4483.52793800 Ry
     estimated scf accuracy    <       4.28765860 Ry

     iteration # 11     ecut=    60.00 Ry     beta= 0.15
     Davidson diagonalization with overlap

---- Real-time Memory Report at c_bands before calling an iterative solver
             0 MiB given to the printing process from OS
             0 MiB allocation reported by mallinfo(arena+hblkhd)
         31209 MiB available memory on the node where the printing process lives
------------------
     ethr =  8.11E-04,  avg # of iterations =  6.7

     negative rho (up, down):  7.879E-01 0.000E+00

     total cpu time spent up to now is      168.2 secs

     total energy              =   -4483.31456874 Ry
     estimated scf accuracy    <       4.07930532 Ry

     iteration # 12     ecut=    60.00 Ry     beta= 0.15
     Davidson diagonalization with overlap

---- Real-time Memory Report at c_bands before calling an iterative solver
             0 MiB given to the printing process from OS
             0 MiB allocation reported by mallinfo(arena+hblkhd)
         31160 MiB available memory on the node where the printing process lives
------------------
     ethr =  8.11E-04,  avg # of iterations =  8.6

     negative rho (up, down):  8.000E-01 0.000E+00

     total cpu time spent up to now is      185.8 secs

     total energy              =   -4483.19322845 Ry
     estimated scf accuracy    <       2.12267116 Ry

     iteration # 13     ecut=    60.00 Ry     beta= 0.15
     Davidson diagonalization with overlap

---- Real-time Memory Report at c_bands before calling an iterative solver
             0 MiB given to the printing process from OS
             0 MiB allocation reported by mallinfo(arena+hblkhd)
         31059 MiB available memory on the node where the printing process lives
------------------
     ethr =  4.86E-04,  avg # of iterations =  2.1

     negative rho (up, down):  7.981E-01 0.000E+00

     total cpu time spent up to now is      200.3 secs

     total energy              =   -4483.29116397 Ry
     estimated scf accuracy    <       1.69992146 Ry

     iteration # 14     ecut=    60.00 Ry     beta= 0.15
     Davidson diagonalization with overlap

---- Real-time Memory Report at c_bands before calling an iterative solver
             0 MiB given to the printing process from OS
             0 MiB allocation reported by mallinfo(arena+hblkhd)
         31069 MiB available memory on the node where the printing process lives
------------------
     ethr =  3.89E-04,  avg # of iterations =  1.1

     negative rho (up, down):  8.076E-01 0.000E+00

     total cpu time spent up to now is      213.3 secs

     total energy              =   -4483.20603086 Ry
     estimated scf accuracy    <       0.90771967 Ry

     iteration # 15     ecut=    60.00 Ry     beta= 0.15
     Davidson diagonalization with overlap

---- Real-time Memory Report at c_bands before calling an iterative solver
             0 MiB given to the printing process from OS
             0 MiB allocation reported by mallinfo(arena+hblkhd)
         31128 MiB available memory on the node where the printing process lives
------------------
     ethr =  2.08E-04,  avg # of iterations =  5.1

     negative rho (up, down):  8.158E-01 0.000E+00

     total cpu time spent up to now is      229.7 secs

     total energy              =   -4483.14820839 Ry
     estimated scf accuracy    <       1.35834907 Ry

     iteration # 16     ecut=    60.00 Ry     beta= 0.15
     Davidson diagonalization with overlap

---- Real-time Memory Report at c_bands before calling an iterative solver
             0 MiB given to the printing process from OS
             0 MiB allocation reported by mallinfo(arena+hblkhd)
         31047 MiB available memory on the node where the printing process lives
------------------
     ethr =  2.08E-04,  avg # of iterations =  3.7

     negative rho (up, down):  8.170E-01 0.000E+00

     total cpu time spent up to now is      245.1 secs

     total energy              =   -4483.10030202 Ry
     estimated scf accuracy    <       1.80280593 Ry

     iteration # 17     ecut=    60.00 Ry     beta= 0.15
     Davidson diagonalization with overlap

---- Real-time Memory Report at c_bands before calling an iterative solver
             0 MiB given to the printing process from OS
             0 MiB allocation reported by mallinfo(arena+hblkhd)
         31048 MiB available memory on the node where the printing process lives
------------------
     ethr =  2.08E-04,  avg # of iterations =  4.8

     negative rho (up, down):  8.196E-01 0.000E+00

     total cpu time spent up to now is      260.6 secs

     total energy              =   -4483.08882855 Ry
     estimated scf accuracy    <       0.35772678 Ry

     iteration # 18     ecut=    60.00 Ry     beta= 0.15
     Davidson diagonalization with overlap

---- Real-time Memory Report at c_bands before calling an iterative solver
             0 MiB given to the printing process from OS
             0 MiB allocation reported by mallinfo(arena+hblkhd)
         31073 MiB available memory on the node where the printing process lives
------------------
     c_bands:  2 eigenvalues not converged
     ethr =  8.19E-05,  avg # of iterations = 14.2

     negative rho (up, down):  8.195E-01 0.000E+00

     total cpu time spent up to now is      280.1 secs

     total energy              =   -4483.05929028 Ry
     estimated scf accuracy    <       0.62647671 Ry

     iteration # 19     ecut=    60.00 Ry     beta= 0.15
     Davidson diagonalization with overlap

---- Real-time Memory Report at c_bands before calling an iterative solver
             0 MiB given to the printing process from OS
             0 MiB allocation reported by mallinfo(arena+hblkhd)
         31096 MiB available memory on the node where the printing process lives
------------------
     ethr =  8.19E-05,  avg # of iterations =  5.7

     negative rho (up, down):  8.236E-01 0.000E+00

     total cpu time spent up to now is      296.5 secs

     total energy              =   -4483.03135448 Ry
     estimated scf accuracy    <       0.48473409 Ry

     iteration # 20     ecut=    60.00 Ry     beta= 0.15
     Davidson diagonalization with overlap

---- Real-time Memory Report at c_bands before calling an iterative solver
             0 MiB given to the printing process from OS
             0 MiB allocation reported by mallinfo(arena+hblkhd)
         31084 MiB available memory on the node where the printing process lives
------------------
     ethr =  8.19E-05,  avg # of iterations =  5.8

     negative rho (up, down):  8.252E-01 0.000E+00

     total cpu time spent up to now is      312.7 secs

     total energy              =   -4483.00760074 Ry
     estimated scf accuracy    <       0.25068663 Ry

     iteration # 21     ecut=    60.00 Ry     beta= 0.15
     Davidson diagonalization with overlap

---- Real-time Memory Report at c_bands before calling an iterative solver
             0 MiB given to the printing process from OS
             0 MiB allocation reported by mallinfo(arena+hblkhd)
         31093 MiB available memory on the node where the printing process lives
------------------
     ethr =  5.74E-05,  avg # of iterations =  9.1

     negative rho (up, down):  8.332E-01 0.000E+00

     total cpu time spent up to now is      330.5 secs

     total energy              =   -4482.97723553 Ry
     estimated scf accuracy    <       0.35381865 Ry

     iteration # 22     ecut=    60.00 Ry     beta= 0.15
     Davidson diagonalization with overlap

---- Real-time Memory Report at c_bands before calling an iterative solver
             0 MiB given to the printing process from OS
             0 MiB allocation reported by mallinfo(arena+hblkhd)
         31062 MiB available memory on the node where the printing process lives
------------------
     ethr =  5.74E-05,  avg # of iterations =  9.5

     negative rho (up, down):  8.377E-01 0.000E+00

     total cpu time spent up to now is      349.3 secs

     total energy              =   -4482.98097752 Ry
     estimated scf accuracy    <       0.05864773 Ry

     iteration # 23     ecut=    60.00 Ry     beta= 0.15
     Davidson diagonalization with overlap

---- Real-time Memory Report at c_bands before calling an iterative solver
             0 MiB given to the printing process from OS
             0 MiB allocation reported by mallinfo(arena+hblkhd)
         31048 MiB available memory on the node where the printing process lives
------------------
     ethr =  1.34E-05,  avg # of iterations =  9.6

     negative rho (up, down):  8.398E-01 0.000E+00

     total cpu time spent up to now is      368.1 secs

     total energy              =   -4482.98060443 Ry
     estimated scf accuracy    <       0.02825978 Ry

     iteration # 24     ecut=    60.00 Ry     beta= 0.15
     Davidson diagonalization with overlap

---- Real-time Memory Report at c_bands before calling an iterative solver
             0 MiB given to the printing process from OS
             0 MiB allocation reported by mallinfo(arena+hblkhd)
         30898 MiB available memory on the node where the printing process lives
------------------
     ethr =  6.47E-06,  avg # of iterations =  3.3

     negative rho (up, down):  8.262E-01 0.000E+00

     total cpu time spent up to now is      383.2 secs

     total energy              =   -4482.97852407 Ry
     estimated scf accuracy    <       0.01807898 Ry

     iteration # 25     ecut=    60.00 Ry     beta= 0.15
     Davidson diagonalization with overlap

---- Real-time Memory Report at c_bands before calling an iterative solver
             0 MiB given to the printing process from OS
             0 MiB allocation reported by mallinfo(arena+hblkhd)
         30916 MiB available memory on the node where the printing process lives
------------------
     ethr =  4.14E-06,  avg # of iterations = 12.2

     negative rho (up, down):  8.193E-01 0.000E+00

     total cpu time spent up to now is      403.4 secs

     total energy              =   -4482.97780104 Ry
     estimated scf accuracy    <       0.01302045 Ry

     iteration # 26     ecut=    60.00 Ry     beta= 0.15
     Davidson diagonalization with overlap

---- Real-time Memory Report at c_bands before calling an iterative solver
             0 MiB given to the printing process from OS
             0 MiB allocation reported by mallinfo(arena+hblkhd)
         30904 MiB available memory on the node where the printing process lives
------------------
     ethr =  2.98E-06,  avg # of iterations =  8.5

     negative rho (up, down):  7.971E-01 0.000E+00

     total cpu time spent up to now is      421.6 secs

     total energy              =   -4482.97626150 Ry
     estimated scf accuracy    <       0.00869653 Ry

     iteration # 27     ecut=    60.00 Ry     beta= 0.15
     Davidson diagonalization with overlap

---- Real-time Memory Report at c_bands before calling an iterative solver
             0 MiB given to the printing process from OS
             0 MiB allocation reported by mallinfo(arena+hblkhd)
         30900 MiB available memory on the node where the printing process lives
------------------
     ethr =  1.99E-06,  avg # of iterations =  9.6

     negative rho (up, down):  7.941E-01 0.000E+00

     total cpu time spent up to now is      440.8 secs

     total energy              =   -4482.97583897 Ry
     estimated scf accuracy    <       0.00470423 Ry

     iteration # 28     ecut=    60.00 Ry     beta= 0.15
     Davidson diagonalization with overlap

---- Real-time Memory Report at c_bands before calling an iterative solver
             0 MiB given to the printing process from OS
             0 MiB allocation reported by mallinfo(arena+hblkhd)
         30846 MiB available memory on the node where the printing process lives
------------------
     ethr =  1.08E-06,  avg # of iterations =  5.2

     negative rho (up, down):  7.931E-01 0.000E+00

     total cpu time spent up to now is      456.9 secs

     total energy              =   -4482.97577607 Ry
     estimated scf accuracy    <       0.00239661 Ry

     iteration # 29     ecut=    60.00 Ry     beta= 0.15
     Davidson diagonalization with overlap

---- Real-time Memory Report at c_bands before calling an iterative solver
             0 MiB given to the printing process from OS
             0 MiB allocation reported by mallinfo(arena+hblkhd)
         30835 MiB available memory on the node where the printing process lives
------------------
     ethr =  5.48E-07,  avg # of iterations =  5.5

     negative rho (up, down):  7.940E-01 0.000E+00

     total cpu time spent up to now is      473.4 secs

     total energy              =   -4482.97565477 Ry
     estimated scf accuracy    <       0.00125986 Ry

     iteration # 30     ecut=    60.00 Ry     beta= 0.15
     Davidson diagonalization with overlap

---- Real-time Memory Report at c_bands before calling an iterative solver
             0 MiB given to the printing process from OS
             0 MiB allocation reported by mallinfo(arena+hblkhd)
         30845 MiB available memory on the node where the printing process lives
------------------
     ethr =  2.88E-07,  avg # of iterations =  5.5

     negative rho (up, down):  7.932E-01 0.000E+00

     total cpu time spent up to now is      489.7 secs

     total energy              =   -4482.97567387 Ry
     estimated scf accuracy    <       0.00042032 Ry

     iteration # 31     ecut=    60.00 Ry     beta= 0.15
     Davidson diagonalization with overlap

---- Real-time Memory Report at c_bands before calling an iterative solver
             0 MiB given to the printing process from OS
             0 MiB allocation reported by mallinfo(arena+hblkhd)
         30763 MiB available memory on the node where the printing process lives
------------------
     ethr =  9.62E-08,  avg # of iterations =  3.6

     negative rho (up, down):  7.927E-01 0.000E+00

     total cpu time spent up to now is      504.8 secs

     total energy              =   -4482.97568582 Ry
     estimated scf accuracy    <       0.00022672 Ry

     iteration # 32     ecut=    60.00 Ry     beta= 0.15
     Davidson diagonalization with overlap

---- Real-time Memory Report at c_bands before calling an iterative solver
             0 MiB given to the printing process from OS
             0 MiB allocation reported by mallinfo(arena+hblkhd)
         30791 MiB available memory on the node where the printing process lives
------------------
     ethr =  5.19E-08,  avg # of iterations =  3.5

     negative rho (up, down):  7.922E-01 0.000E+00

     total cpu time spent up to now is      519.8 secs

     total energy              =   -4482.97569628 Ry
     estimated scf accuracy    <       0.00012358 Ry

     iteration # 33     ecut=    60.00 Ry     beta= 0.15
     Davidson diagonalization with overlap

---- Real-time Memory Report at c_bands before calling an iterative solver
             0 MiB given to the printing process from OS
             0 MiB allocation reported by mallinfo(arena+hblkhd)
         30799 MiB available memory on the node where the printing process lives
------------------
     ethr =  2.83E-08,  avg # of iterations =  4.1

     negative rho (up, down):  7.921E-01 0.000E+00

     total cpu time spent up to now is      535.5 secs

     total energy              =   -4482.97570399 Ry
     estimated scf accuracy    <       0.00003999 Ry

     iteration # 34     ecut=    60.00 Ry     beta= 0.15
     Davidson diagonalization with overlap

---- Real-time Memory Report at c_bands before calling an iterative solver
             0 MiB given to the printing process from OS
             0 MiB allocation reported by mallinfo(arena+hblkhd)
         30819 MiB available memory on the node where the printing process lives
------------------
     ethr =  9.15E-09,  avg # of iterations =  2.5

     negative rho (up, down):  7.921E-01 0.000E+00

     total cpu time spent up to now is      550.2 secs

     total energy              =   -4482.97570393 Ry
     estimated scf accuracy    <       0.00002154 Ry

     iteration # 35     ecut=    60.00 Ry     beta= 0.15
     Davidson diagonalization with overlap

---- Real-time Memory Report at c_bands before calling an iterative solver
             0 MiB given to the printing process from OS
             0 MiB allocation reported by mallinfo(arena+hblkhd)
         30844 MiB available memory on the node where the printing process lives
------------------
     ethr =  4.93E-09,  avg # of iterations =  2.9

     negative rho (up, down):  7.921E-01 0.000E+00

     total cpu time spent up to now is      565.2 secs

     total energy              =   -4482.97570736 Ry
     estimated scf accuracy    <       0.00001448 Ry

     iteration # 36     ecut=    60.00 Ry     beta= 0.15
     Davidson diagonalization with overlap

---- Real-time Memory Report at c_bands before calling an iterative solver
             0 MiB given to the printing process from OS
             0 MiB allocation reported by mallinfo(arena+hblkhd)
         30836 MiB available memory on the node where the printing process lives
------------------
     ethr =  3.31E-09,  avg # of iterations =  4.6

     negative rho (up, down):  7.921E-01 0.000E+00

     total cpu time spent up to now is      581.0 secs

     total energy              =   -4482.97570785 Ry
     estimated scf accuracy    <       0.00001094 Ry

     iteration # 37     ecut=    60.00 Ry     beta= 0.15
     Davidson diagonalization with overlap

---- Real-time Memory Report at c_bands before calling an iterative solver
             0 MiB given to the printing process from OS
             0 MiB allocation reported by mallinfo(arena+hblkhd)
         30837 MiB available memory on the node where the printing process lives
------------------
     ethr =  2.50E-09,  avg # of iterations =  2.9

     negative rho (up, down):  7.922E-01 0.000E+00

     total cpu time spent up to now is      596.1 secs

     total energy              =   -4482.97570842 Ry
     estimated scf accuracy    <       0.00000951 Ry

     iteration # 38     ecut=    60.00 Ry     beta= 0.15
     Davidson diagonalization with overlap

---- Real-time Memory Report at c_bands before calling an iterative solver
             0 MiB given to the printing process from OS
             0 MiB allocation reported by mallinfo(arena+hblkhd)
         30832 MiB available memory on the node where the printing process lives
------------------
     ethr =  2.18E-09,  avg # of iterations =  3.4

     negative rho (up, down):  7.923E-01 0.000E+00

     total cpu time spent up to now is      610.8 secs

     total energy              =   -4482.97570878 Ry
     estimated scf accuracy    <       0.00000830 Ry

     iteration # 39     ecut=    60.00 Ry     beta= 0.15
     Davidson diagonalization with overlap

---- Real-time Memory Report at c_bands before calling an iterative solver
             0 MiB given to the printing process from OS
             0 MiB allocation reported by mallinfo(arena+hblkhd)
         30841 MiB available memory on the node where the printing process lives
------------------
     ethr =  1.90E-09,  avg # of iterations =  3.1

     negative rho (up, down):  7.923E-01 0.000E+00

     total cpu time spent up to now is      625.4 secs

     total energy              =   -4482.97571020 Ry
     estimated scf accuracy    <       0.00000684 Ry

     iteration # 40     ecut=    60.00 Ry     beta= 0.15
     Davidson diagonalization with overlap

---- Real-time Memory Report at c_bands before calling an iterative solver
             0 MiB given to the printing process from OS
             0 MiB allocation reported by mallinfo(arena+hblkhd)
         30846 MiB available memory on the node where the printing process lives
------------------
     ethr =  1.57E-09,  avg # of iterations =  3.0

     negative rho (up, down):  7.923E-01 0.000E+00

     total cpu time spent up to now is      640.0 secs

     total energy              =   -4482.97570958 Ry
     estimated scf accuracy    <       0.00000539 Ry

     iteration # 41     ecut=    60.00 Ry     beta= 0.15
     Davidson diagonalization with overlap

---- Real-time Memory Report at c_bands before calling an iterative solver
             0 MiB given to the printing process from OS
             0 MiB allocation reported by mallinfo(arena+hblkhd)
         30847 MiB available memory on the node where the printing process lives
------------------
     ethr =  1.23E-09,  avg # of iterations =  5.7

     negative rho (up, down):  7.924E-01 0.000E+00

     total cpu time spent up to now is      656.0 secs

     total energy              =   -4482.97570828 Ry
     estimated scf accuracy    <       0.00000243 Ry

     iteration # 42     ecut=    60.00 Ry     beta= 0.15
     Davidson diagonalization with overlap

---- Real-time Memory Report at c_bands before calling an iterative solver
             0 MiB given to the printing process from OS
             0 MiB allocation reported by mallinfo(arena+hblkhd)
         30799 MiB available memory on the node where the printing process lives
------------------
     ethr =  5.56E-10,  avg # of iterations =  4.9

     negative rho (up, down):  7.924E-01 0.000E+00

     total cpu time spent up to now is      671.6 secs

     total energy              =   -4482.97570922 Ry
     estimated scf accuracy    <       0.00000116 Ry

     iteration # 43     ecut=    60.00 Ry     beta= 0.15
     Davidson diagonalization with overlap

---- Real-time Memory Report at c_bands before calling an iterative solver
             0 MiB given to the printing process from OS
             0 MiB allocation reported by mallinfo(arena+hblkhd)
         30936 MiB available memory on the node where the printing process lives
------------------
     ethr =  2.66E-10,  avg # of iterations =  3.7

     negative rho (up, down):  7.923E-01 0.000E+00

     total cpu time spent up to now is      686.9 secs

     total energy              =   -4482.97570996 Ry
     estimated scf accuracy    <       0.00000071 Ry

     iteration # 44     ecut=    60.00 Ry     beta= 0.15
     Davidson diagonalization with overlap

---- Real-time Memory Report at c_bands before calling an iterative solver
             0 MiB given to the printing process from OS
             0 MiB allocation reported by mallinfo(arena+hblkhd)
         30915 MiB available memory on the node where the printing process lives
------------------
     ethr =  1.62E-10,  avg # of iterations =  4.4

     negative rho (up, down):  7.923E-01 0.000E+00

     total cpu time spent up to now is      702.8 secs

     total energy              =   -4482.97571033 Ry
     estimated scf accuracy    <       0.00000054 Ry

     iteration # 45     ecut=    60.00 Ry     beta= 0.15
     Davidson diagonalization with overlap

---- Real-time Memory Report at c_bands before calling an iterative solver
             0 MiB given to the printing process from OS
             0 MiB allocation reported by mallinfo(arena+hblkhd)
         30909 MiB available memory on the node where the printing process lives
------------------
     ethr =  1.23E-10,  avg # of iterations =  4.3

     negative rho (up, down):  7.923E-01 0.000E+00

     total cpu time spent up to now is      718.4 secs

     total energy              =   -4482.97571071 Ry
     estimated scf accuracy    <       0.00000040 Ry

     iteration # 46     ecut=    60.00 Ry     beta= 0.15
     Davidson diagonalization with overlap

---- Real-time Memory Report at c_bands before calling an iterative solver
             0 MiB given to the printing process from OS
             0 MiB allocation reported by mallinfo(arena+hblkhd)
         30888 MiB available memory on the node where the printing process lives
------------------
     ethr =  9.21E-11,  avg # of iterations =  5.5

     negative rho (up, down):  7.923E-01 0.000E+00

     total cpu time spent up to now is      734.7 secs

     total energy              =   -4482.97571077 Ry
     estimated scf accuracy    <       0.00000026 Ry

     iteration # 47     ecut=    60.00 Ry     beta= 0.15
     Davidson diagonalization with overlap

---- Real-time Memory Report at c_bands before calling an iterative solver
             0 MiB given to the printing process from OS
             0 MiB allocation reported by mallinfo(arena+hblkhd)
         30880 MiB available memory on the node where the printing process lives
------------------
     ethr =  5.87E-11,  avg # of iterations =  5.3

     negative rho (up, down):  7.923E-01 0.000E+00

     total cpu time spent up to now is      750.8 secs

     total energy              =   -4482.97571074 Ry
     estimated scf accuracy    <       0.00000013 Ry

     iteration # 48     ecut=    60.00 Ry     beta= 0.15
     Davidson diagonalization with overlap

---- Real-time Memory Report at c_bands before calling an iterative solver
             0 MiB given to the printing process from OS
             0 MiB allocation reported by mallinfo(arena+hblkhd)
         30886 MiB available memory on the node where the printing process lives
------------------
     ethr =  2.97E-11,  avg # of iterations =  5.0

     negative rho (up, down):  7.923E-01 0.000E+00

     total cpu time spent up to now is      766.8 secs

     total energy              =   -4482.97571076 Ry
     estimated scf accuracy    <       0.00000005 Ry

     iteration # 49     ecut=    60.00 Ry     beta= 0.15
     Davidson diagonalization with overlap

---- Real-time Memory Report at c_bands before calling an iterative solver
             0 MiB given to the printing process from OS
             0 MiB allocation reported by mallinfo(arena+hblkhd)
         30892 MiB available memory on the node where the printing process lives
------------------
     ethr =  1.19E-11,  avg # of iterations =  4.4

     negative rho (up, down):  7.923E-01 0.000E+00

     total cpu time spent up to now is      782.5 secs

     total energy              =   -4482.97571079 Ry
     estimated scf accuracy    <       0.00000003 Ry

     iteration # 50     ecut=    60.00 Ry     beta= 0.15
     Davidson diagonalization with overlap

---- Real-time Memory Report at c_bands before calling an iterative solver
             0 MiB given to the printing process from OS
             0 MiB allocation reported by mallinfo(arena+hblkhd)
         30884 MiB available memory on the node where the printing process lives
------------------
     ethr =  7.15E-12,  avg # of iterations =  3.9

     negative rho (up, down):  7.923E-01 0.000E+00

     total cpu time spent up to now is      797.8 secs

     total energy              =   -4482.97571081 Ry
     estimated scf accuracy    <       0.00000002 Ry

     iteration # 51     ecut=    60.00 Ry     beta= 0.15
     Davidson diagonalization with overlap

---- Real-time Memory Report at c_bands before calling an iterative solver
             0 MiB given to the printing process from OS
             0 MiB allocation reported by mallinfo(arena+hblkhd)
         30881 MiB available memory on the node where the printing process lives
------------------
     ethr =  5.10E-12,  avg # of iterations =  4.2

     negative rho (up, down):  7.923E-01 0.000E+00

     total cpu time spent up to now is      813.3 secs

     total energy              =   -4482.97571083 Ry
     estimated scf accuracy    <       0.00000001 Ry

     iteration # 52     ecut=    60.00 Ry     beta= 0.15
     Davidson diagonalization with overlap

---- Real-time Memory Report at c_bands before calling an iterative solver
             0 MiB given to the printing process from OS
             0 MiB allocation reported by mallinfo(arena+hblkhd)
         30884 MiB available memory on the node where the printing process lives
------------------
     ethr =  3.23E-12,  avg # of iterations =  5.0

     negative rho (up, down):  7.923E-01 0.000E+00

     total cpu time spent up to now is      829.9 secs

     End of self-consistent calculation

          k = 0.0000 0.0000 0.0000 ( 65197 PWs)   bands (ev):

   -92.3427 -92.2893 -92.1969 -92.1474 -92.0889 -92.0490 -92.0317 -91.9095
   -55.6958 -55.6756 -55.5547 -55.5438 -55.5363 -55.5306 -55.4937 -55.4664
   -55.4498 -55.4480 -55.4404 -55.3974 -55.3784 -55.3408 -55.3230 -55.2887
   -55.2825 -55.2380 -55.2368 -55.2348 -55.2263 -55.1839 -55.1625 -55.0757
   -30.9302 -30.9112 -30.8253 -30.7701 -30.6835 -30.6258 -30.6226 -30.4090
   -29.4943 -29.4511 -29.4247 -29.3161 -22.2558 -14.7278 -14.6898 -14.6053
   -14.4752 -14.2894 -14.1687 -13.8683 -13.8524 -13.8200 -13.7776 -13.7762
   -13.7351 -13.7215 -13.7105 -13.6946 -13.6795 -13.6389 -13.5780 -13.4290
   -13.2533 -13.2188 -13.1854 -13.1555 -13.1393 -13.0946 -13.0557 -12.9771
   -12.9043 -12.8220 -12.8102 -12.7631 -12.7515 -12.7279 -12.7096 -12.6859
   -12.6598 -12.6457 -12.6208 -12.6024 -12.5981 -12.5742 -12.5510 -12.5286
   -12.5201 -12.4793 -12.4660 -12.3543 -12.3399 -12.3236 -11.9952 -11.8505
   -11.7208 -11.6469 -11.5081 -11.4336 -11.4222 -11.4002 -11.3824 -11.3184
   -11.3010 -11.2668 -11.2376 -11.1258 -11.0455 -11.0420  -5.8920  -3.1651
    -3.1528  -2.5879  -2.3547  -2.1253  -1.9785  -1.9150  -1.7721  -1.4654
    -1.4509  -1.4304  -1.3466  -1.3296  -1.2612  -1.2459  -1.2040  -1.1586
    -0.9786  -0.7546  -0.7252  -0.5760  -0.5622  -0.5186  -0.4991  -0.4558
    -0.4410  -0.3797  -0.3530  -0.2852  -0.2732  -0.1923  -0.0667  -0.0518
    -0.0220   0.0601   0.0713   0.0912   0.1457   0.2239   0.2469   0.3168
     0.3376   0.3913   0.4763   0.5328   0.5550   0.5612   0.8167   0.8325
     1.0020   1.0725   1.1330   1.1771   1.2714   1.2840   1.3011   1.3710
     1.3996   1.4340   1.4925   1.6280   1.6785   1.7016   1.7221   1.7305
     1.7982   1.8775   1.9704   1.9879   2.0378   2.0621   2.0998   2.1241
     2.1305   2.1841   2.2435   2.2439   2.2726   2.3038   2.3761   2.5051
     2.5833   2.6341   2.6508   2.7951   2.8090   2.8586   2.8695   2.9724
     3.0088   3.0168   3.0404   3.0568   3.0706   3.0734   3.1512   3.2596
     3.2945   3.3067   3.3135   3.3805   3.3843   3.4087   3.4173   3.4247
     3.4337   3.4441   3.4560   3.4626   3.4759   3.4843   3.4913   3.5123
     3.5336   3.5389   3.5503   3.5666   3.6910   3.7436   4.4183   4.7542
     4.7921   5.1389   5.3827   5.4644   5.7301   6.2828   6.3215   6.3500
     6.6173   6.6353   6.6699   6.7190   6.9822   7.1456   7.2448   7.4275
     7.4805   7.6473   7.8589   7.9036   7.9198   7.9434   8.0107   8.0675
     8.2856   8.3690   8.3849   8.4488   8.5046   8.5274   8.6707

     occupation numbers 
     1.0000   1.0000   1.0000   1.0000   1.0000   1.0000   1.0000   1.0000
     1.0000   1.0000   1.0000   1.0000   1.0000   1.0000   1.0000   1.0000
     1.0000   1.0000   1.0000   1.0000   1.0000   1.0000   1.0000   1.0000
     1.0000   1.0000   1.0000   1.0000   1.0000   1.0000   1.0000   1.0000
     1.0000   1.0000   1.0000   1.0000   1.0000   1.0000   1.0000   1.0000
     1.0000   1.0000   1.0000   1.0000   1.0000   1.0000   1.0000   1.0000
     1.0000   1.0000   1.0000   1.0000   1.0000   1.0000   1.0000   1.0000
     1.0000   1.0000   1.0000   1.0000   1.0000   1.0000   1.0000   1.0000
     1.0000   1.0000   1.0000   1.0000   1.0000   1.0000   1.0000   1.0000
     1.0000   1.0000   1.0000   1.0000   1.0000   1.0000   1.0000   1.0000
     1.0000   1.0000   1.0000   1.0000   1.0000   1.0000   1.0000   1.0000
     1.0000   1.0000   1.0000   1.0000   1.0000   1.0000   1.0000   1.0000
     1.0000   1.0000   1.0000   1.0000   1.0000   1.0000   1.0000   1.0000
     1.0000   1.0000   1.0000   1.0000   1.0000   1.0000   1.0000   1.0000
     1.0000   1.0000   1.0000   1.0000   1.0000   1.0000   1.0000   1.0000
     1.0000   1.0000   1.0000   1.0000   1.0000   1.0000   1.0000   1.0000
     1.0000   1.0000   1.0000   1.0000   1.0000   1.0000   1.0000   1.0000
     1.0000   1.0000   1.0000   1.0000   1.0000   1.0000   1.0000   1.0000
     1.0000   1.0000   1.0000   1.0000   1.0000   1.0000   1.0000   1.0000
     1.0000   1.0000   1.0000   1.0000   1.0000   1.0000   1.0000   1.0000
     1.0000   0.9999   0.9999   0.9999   0.9998   0.9998   0.9998   0.9997
     0.9997   0.9996   0.9994   0.9989   0.9985   0.9984   0.9982   0.9981
     0.9974   0.9963   0.9945   0.9941   0.9927   0.9920   0.9907   0.9897
     0.9894   0.9870   0.9838   0.9837   0.9819   0.9798   0.9739   0.9599
     0.9489   0.9404   0.9374   0.9065   0.9030   0.8897   0.8866   0.8545
     0.8418   0.8389   0.8302   0.8240   0.8187   0.8176   0.7854   0.7355
     0.7183   0.7121   0.7087   0.6737   0.6716   0.6584   0.6537   0.6497
     0.6447   0.6389   0.6323   0.6286   0.6211   0.6164   0.6124   0.6004
     0.5881   0.5851   0.5784   0.5690   0.4956   0.4645   0.1376   0.0559
     0.0499   0.0153   0.0058   0.0041   0.0012   0.0001   0.0000   0.0000
     0.0000   0.0000   0.0000   0.0000   0.0000   0.0000   0.0000   0.0000
     0.0000   0.0000   0.0000   0.0000   0.0000   0.0000   0.0000   0.0000
     0.0000   0.0000   0.0000   0.0000   0.0000   0.0000   0.0000

          k = 0.0000 0.2500 0.0000 ( 65257 PWs)   bands (ev):

   -92.3427 -92.2893 -92.1969 -92.1474 -92.0889 -92.0490 -92.0317 -91.9095
   -55.6958 -55.6756 -55.5547 -55.5438 -55.5363 -55.5306 -55.4937 -55.4664
   -55.4498 -55.4480 -55.4404 -55.3974 -55.3785 -55.3408 -55.3230 -55.2887
   -55.2825 -55.2380 -55.2368 -55.2348 -55.2263 -55.1839 -55.1625 -55.0757
   -30.9300 -30.9110 -30.8252 -30.7703 -30.6837 -30.6257 -30.6227 -30.4092
   -29.4937 -29.4508 -29.4253 -29.3164 -22.2558 -14.6909 -14.6634 -14.5804
   -14.4459 -14.3292 -14.1578 -14.0134 -13.8340 -13.8050 -13.7833 -13.7767
   -13.7522 -13.6968 -13.6888 -13.6736 -13.6603 -13.6208 -13.4977 -13.4603
   -13.2978 -13.2800 -13.2284 -13.1916 -13.1463 -13.1098 -13.0720 -12.9964
   -12.9636 -12.9296 -12.8670 -12.8029 -12.7953 -12.7606 -12.7419 -12.6484
   -12.6236 -12.6100 -12.5876 -12.5831 -12.5561 -12.5448 -12.5181 -12.4981
   -12.4503 -12.4159 -12.3867 -12.3508 -12.2655 -12.1994 -12.0565 -11.9018
   -11.7764 -11.7121 -11.4736 -11.4305 -11.4028 -11.3741 -11.3575 -11.3105
   -11.2989 -11.2765 -11.2429 -11.1400 -11.0872 -11.0766  -5.8920  -3.1651
    -3.1530  -2.4526  -2.2303  -2.0932  -1.9107  -1.8672  -1.7030  -1.4843
    -1.3984  -1.3853  -1.3269  -1.2264  -1.2118  -1.1769  -1.1515  -1.1078
    -0.9097  -0.7811  -0.7694  -0.6926  -0.6825  -0.5780  -0.5471  -0.4916
    -0.4666  -0.4235  -0.3613  -0.3368  -0.3021  -0.2748  -0.2568  -0.2231
    -0.1509  -0.0971  -0.0300   0.0738   0.1005   0.1379   0.2519   0.2872
     0.3473   0.4013   0.4592   0.4778   0.5096   0.5646   0.8637   0.9524
     0.9836   1.0689   1.1130   1.1315   1.2596   1.2785   1.3713   1.3965
     1.4284   1.5436   1.6301   1.6554   1.6801   1.6979   1.7259   1.7872
     1.8127   1.8399   1.8885   1.9186   1.9489   2.0273   2.0610   2.0913
     2.1520   2.1995   2.2287   2.2599   2.2963   2.3178   2.4087   2.5412
     2.6129   2.6341   2.7122   2.7538   2.7916   2.7965   2.8668   2.9092
     2.9887   3.0138   3.0360   3.0485   3.0740   3.2203   3.2416   3.2739
     3.2964   3.3132   3.3224   3.3294   3.3377   3.3681   3.3701   3.3880
     3.3912   3.4035   3.4206   3.4304   3.4411   3.4634   3.4737   3.4787
     3.5145   3.5308   3.5910   3.9383   3.9741   4.2324   4.6038   4.7440
     4.9117   5.0867   5.4066   5.4944   5.8603   5.9244   6.1664   6.3038
     6.3421   6.4529   6.5227   6.7351   6.9157   7.0716   7.2780   7.5097
     7.5413   7.6971   7.7907   7.8841   7.9324   7.9852   8.0748   8.2109
     8.2762   8.4051   8.5294   8.5718   8.6537   8.6816   8.9473

     occupation numbers 
     1.0000   1.0000   1.0000   1.0000   1.0000   1.0000   1.0000   1.0000
     1.0000   1.0000   1.0000   1.0000   1.0000   1.0000   1.0000   1.0000
     1.0000   1.0000   1.0000   1.0000   1.0000   1.0000   1.0000   1.0000
     1.0000   1.0000   1.0000   1.0000   1.0000   1.0000   1.0000   1.0000
     1.0000   1.0000   1.0000   1.0000   1.0000   1.0000   1.0000   1.0000
     1.0000   1.0000   1.0000   1.0000   1.0000   1.0000   1.0000   1.0000
     1.0000   1.0000   1.0000   1.0000   1.0000   1.0000   1.0000   1.0000
     1.0000   1.0000   1.0000   1.0000   1.0000   1.0000   1.0000   1.0000
     1.0000   1.0000   1.0000   1.0000   1.0000   1.0000   1.0000   1.0000
     1.0000   1.0000   1.0000   1.0000   1.0000   1.0000   1.0000   1.0000
     1.0000   1.0000   1.0000   1.0000   1.0000   1.0000   1.0000   1.0000
     1.0000   1.0000   1.0000   1.0000   1.0000   1.0000   1.0000   1.0000
     1.0000   1.0000   1.0000   1.0000   1.0000   1.0000   1.0000   1.0000
     1.0000   1.0000   1.0000   1.0000   1.0000   1.0000   1.0000   1.0000
     1.0000   1.0000   1.0000   1.0000   1.0000   1.0000   1.0000   1.0000
     1.0000   1.0000   1.0000   1.0000   1.0000   1.0000   1.0000   1.0000
     1.0000   1.0000   1.0000   1.0000   1.0000   1.0000   1.0000   1.0000
     1.0000   1.0000   1.0000   1.0000   1.0000   1.0000   1.0000   1.0000
     1.0000   1.0000   1.0000   1.0000   1.0000   1.0000   1.0000   1.0000
     1.0000   1.0000   1.0000   1.0000   1.0000   1.0000   1.0000   1.0000
     1.0000   0.9999   0.9999   0.9999   0.9998   0.9998   0.9997   0.9997
     0.9996   0.9993   0.9989   0.9987   0.9985   0.9984   0.9982   0.9976
     0.9973   0.9969   0.9962   0.9956   0.9950   0.9930   0.9920   0.9910
     0.9885   0.9862   0.9846   0.9827   0.9803   0.9787   0.9708   0.9551
     0.9441   0.9404   0.9254   0.9163   0.9073   0.9061   0.8874   0.8749
     0.8489   0.8400   0.8319   0.8272   0.8173   0.7542   0.7442   0.7285
     0.7174   0.7089   0.7041   0.7005   0.6962   0.6803   0.6792   0.6696
     0.6679   0.6612   0.6519   0.6465   0.6406   0.6281   0.6224   0.6195
     0.5991   0.5898   0.5547   0.3526   0.3331   0.2075   0.0859   0.0577
     0.0341   0.0186   0.0053   0.0036   0.0006   0.0004   0.0001   0.0000
     0.0000   0.0000   0.0000   0.0000   0.0000   0.0000   0.0000   0.0000
     0.0000   0.0000   0.0000   0.0000   0.0000   0.0000   0.0000   0.0000
     0.0000   0.0000   0.0000   0.0000   0.0000   0.0000   0.0000

          k = 0.0000-0.5000 0.0000 ( 65180 PWs)   bands (ev):

   -92.3427 -92.2893 -92.1969 -92.1474 -92.0889 -92.0490 -92.0317 -91.9095
   -55.6958 -55.6756 -55.5547 -55.5438 -55.5363 -55.5306 -55.4937 -55.4664
   -55.4498 -55.4480 -55.4404 -55.3974 -55.3785 -55.3408 -55.3230 -55.2887
   -55.2825 -55.2380 -55.2368 -55.2348 -55.2263 -55.1839 -55.1625 -55.0757
   -30.9298 -30.9109 -30.8250 -30.7705 -30.6838 -30.6255 -30.6229 -30.4093
   -29.4931 -29.4505 -29.4259 -29.3168 -22.2558 -14.6577 -14.6098 -14.5562
   -14.4346 -14.3427 -14.2094 -14.0557 -13.9422 -13.8042 -13.7772 -13.7423
   -13.6974 -13.6852 -13.6400 -13.6210 -13.5709 -13.5529 -13.5286 -13.4960
   -13.4764 -13.4244 -13.2309 -13.1727 -13.1534 -13.1048 -13.0820 -13.0090
   -12.9941 -12.9488 -12.9370 -12.8719 -12.7978 -12.7610 -12.7398 -12.6654
   -12.6220 -12.6108 -12.5831 -12.5808 -12.5456 -12.5322 -12.4941 -12.3939
   -12.3746 -12.3586 -12.3516 -12.3041 -12.1677 -12.1342 -12.0005 -11.9771
   -11.8747 -11.8289 -11.4274 -11.4252 -11.3979 -11.3595 -11.3255 -11.3146
   -11.2727 -11.2686 -11.2248 -11.1612 -11.1477 -11.1335  -5.8920  -3.1651
    -3.1532  -2.2376  -2.1789  -2.0271  -1.9547  -1.6735  -1.5914  -1.4621
    -1.3251  -1.2851  -1.2687  -1.1897  -1.1602  -1.0765  -1.0423  -0.9652
    -0.9247  -0.8856  -0.8589  -0.8015  -0.7646  -0.7196  -0.6829  -0.6481
    -0.6162  -0.5039  -0.4594  -0.4266  -0.4235  -0.3389  -0.3064  -0.2852
    -0.2382  -0.1499  -0.0846   0.0023   0.0364   0.1285   0.1689   0.3238
     0.3583   0.3846   0.4317   0.5430   0.6025   0.7461   0.8120   0.8193
     0.9476   0.9881   1.0831   1.2251   1.3303   1.3625   1.4003   1.4064
     1.4416   1.4628   1.4985   1.5122   1.5276   1.6340   1.6936   1.7272
     1.7496   2.0128   2.0396   2.0560   2.1428   2.1737   2.2082   2.2210
     2.2590   2.2669   2.2747   2.3059   2.3536   2.3785   2.4031   2.4206
     2.4475   2.5014   2.5833   2.6092   2.7854   2.9564   2.9658   2.9809
     3.0113   3.0244   3.0349   3.0361   3.0731   3.0863   3.1007   3.1550
     3.1748   3.2493   3.2661   3.3343   3.3390   3.3663   3.3668   3.3859
     3.3880   3.3931   3.3980   3.4009   3.4134   3.4337   3.4344   3.5001
     3.5044   3.5202   3.5751   4.4675   4.4751   4.5178   4.5891   5.0001
     5.1104   5.2320   5.3170   5.5424   5.6573   5.8249   5.9064   6.0404
     6.2090   6.3787   6.3928   6.4815   7.0264   7.0633   7.1031   7.4417
     7.5763   7.6557   7.7374   8.0016   8.0122   8.0653   8.2051   8.3637
     8.4853   8.6977   8.7034   8.7294   8.7653   8.8555   8.9437

     occupation numbers 
     1.0000   1.0000   1.0000   1.0000   1.0000   1.0000   1.0000   1.0000
     1.0000   1.0000   1.0000   1.0000   1.0000   1.0000   1.0000   1.0000
     1.0000   1.0000   1.0000   1.0000   1.0000   1.0000   1.0000   1.0000
     1.0000   1.0000   1.0000   1.0000   1.0000   1.0000   1.0000   1.0000
     1.0000   1.0000   1.0000   1.0000   1.0000   1.0000   1.0000   1.0000
     1.0000   1.0000   1.0000   1.0000   1.0000   1.0000   1.0000   1.0000
     1.0000   1.0000   1.0000   1.0000   1.0000   1.0000   1.0000   1.0000
     1.0000   1.0000   1.0000   1.0000   1.0000   1.0000   1.0000   1.0000
     1.0000   1.0000   1.0000   1.0000   1.0000   1.0000   1.0000   1.0000
     1.0000   1.0000   1.0000   1.0000   1.0000   1.0000   1.0000   1.0000
     1.0000   1.0000   1.0000   1.0000   1.0000   1.0000   1.0000   1.0000
     1.0000   1.0000   1.0000   1.0000   1.0000   1.0000   1.0000   1.0000
     1.0000   1.0000   1.0000   1.0000   1.0000   1.0000   1.0000   1.0000
     1.0000   1.0000   1.0000   1.0000   1.0000   1.0000   1.0000   1.0000
     1.0000   1.0000   1.0000   1.0000   1.0000   1.0000   1.0000   1.0000
     1.0000   1.0000   1.0000   1.0000   1.0000   1.0000   1.0000   1.0000
     1.0000   1.0000   1.0000   1.0000   1.0000   1.0000   1.0000   1.0000
     1.0000   1.0000   1.0000   1.0000   1.0000   1.0000   1.0000   1.0000
     1.0000   1.0000   1.0000   1.0000   1.0000   1.0000   1.0000   1.0000
     1.0000   1.0000   1.0000   1.0000   1.0000   1.0000   1.0000   1.0000
     1.0000   1.0000   0.9999   0.9999   0.9998   0.9997   0.9997   0.9996
     0.9996   0.9995   0.9994   0.9994   0.9993   0.9988   0.9984   0.9982
     0.9980   0.9934   0.9927   0.9922   0.9889   0.9875   0.9858   0.9851
     0.9828   0.9823   0.9818   0.9796   0.9759   0.9737   0.9714   0.9696
     0.9668   0.9604   0.9489   0.9447   0.9088   0.8599   0.8568   0.8516
     0.8409   0.8362   0.8323   0.8318   0.8177   0.8124   0.8066   0.7838
     0.7750   0.7405   0.7323   0.6980   0.6956   0.6812   0.6810   0.6708
     0.6696   0.6669   0.6642   0.6627   0.6559   0.6447   0.6443   0.6074
     0.6049   0.5958   0.5640   0.1222   0.1199   0.1077   0.0894   0.0253
     0.0171   0.0107   0.0076   0.0029   0.0017   0.0007   0.0005   0.0002
     0.0001   0.0000   0.0000   0.0000   0.0000   0.0000   0.0000   0.0000
     0.0000   0.0000   0.0000   0.0000   0.0000   0.0000   0.0000   0.0000
     0.0000   0.0000   0.0000   0.0000   0.0000   0.0000   0.0000

          k = 0.2500 0.2500 0.0000 ( 65198 PWs)   bands (ev):

   -92.3427 -92.2893 -92.1969 -92.1474 -92.0889 -92.0490 -92.0317 -91.9095
   -55.6958 -55.6756 -55.5547 -55.5438 -55.5363 -55.5306 -55.4937 -55.4664
   -55.4498 -55.4480 -55.4404 -55.3974 -55.3785 -55.3408 -55.3230 -55.2887
   -55.2825 -55.2380 -55.2368 -55.2348 -55.2263 -55.1839 -55.1625 -55.0757
   -30.9282 -30.9128 -30.8250 -30.7700 -30.6840 -30.6258 -30.6226 -30.4093
   -29.4927 -29.4518 -29.4249 -29.3169 -22.2558 -14.6627 -14.6279 -14.5525
   -14.4358 -14.3204 -14.1973 -14.1187 -13.9188 -13.7775 -13.7574 -13.7474
   -13.7117 -13.6826 -13.6591 -13.6328 -13.6072 -13.5809 -13.4899 -13.4743
   -13.3140 -13.3006 -13.2683 -13.2508 -13.2038 -13.1616 -13.1196 -13.0782
   -12.9920 -12.9536 -12.8832 -12.7986 -12.7676 -12.7477 -12.6990 -12.6739
   -12.6357 -12.6166 -12.6004 -12.5750 -12.5570 -12.5213 -12.4985 -12.4599
   -12.3972 -12.3845 -12.3671 -12.3487 -12.2066 -12.1051 -12.0821 -11.9310
   -11.8071 -11.7615 -11.4458 -11.4139 -11.4032 -11.3958 -11.3337 -11.2983
   -11.2919 -11.2567 -11.2488 -11.1566 -11.1155 -11.0979  -5.8920  -3.1653
    -3.1530  -2.3145  -2.1046  -1.9875  -1.8929  -1.7715  -1.7063  -1.5093
    -1.3636  -1.3436  -1.3140  -1.2210  -1.1868  -1.0943  -1.0670  -1.0170
    -0.8851  -0.8374  -0.7644  -0.7199  -0.6751  -0.6511  -0.6261  -0.5844
    -0.5686  -0.4788  -0.4294  -0.3645  -0.3171  -0.2884  -0.2346  -0.2251
    -0.1611  -0.1093  -0.0511  -0.0193   0.0669   0.1163   0.1465   0.1868
     0.2408   0.3013   0.3492   0.3742   0.4402   0.4828   0.7582   0.9055
     0.9426   0.9918   1.0362   1.0887   1.1422   1.2076   1.2450   1.5200
     1.5905   1.6651   1.6904   1.7358   1.7694   1.8055   1.8419   1.8598
     1.8883   1.9258   1.9384   1.9555   1.9976   2.0355   2.0769   2.1185
     2.1560   2.1737   2.1979   2.2393   2.2890   2.3186   2.4498   2.5202
     2.5604   2.5897   2.6503   2.7131   2.7459   2.7843   2.8046   2.8180
     2.9318   2.9693   3.0209   3.0594   3.0767   3.2314   3.2491   3.2551
     3.2707   3.2847   3.2983   3.3102   3.3181   3.3283   3.3420   3.3539
     3.3732   3.3798   3.3903   3.4112   3.4248   3.4348   3.4652   3.7672
     3.8574   3.8971   3.9577   3.9723   4.2051   4.3087   4.6373   4.7989
     4.9837   5.1396   5.3223   5.5365   5.9152   5.9911   6.0206   6.1282
     6.1954   6.2413   6.3388   6.4295   6.9173   7.0172   7.1179   7.2126
     7.7154   7.7866   7.8436   7.9056   8.0201   8.1267   8.2317   8.3090
     8.3588   8.4522   8.5291   8.6828   8.7168   8.7853   8.9831

     occupation numbers 
     1.0000   1.0000   1.0000   1.0000   1.0000   1.0000   1.0000   1.0000
     1.0000   1.0000   1.0000   1.0000   1.0000   1.0000   1.0000   1.0000
     1.0000   1.0000   1.0000   1.0000   1.0000   1.0000   1.0000   1.0000
     1.0000   1.0000   1.0000   1.0000   1.0000   1.0000   1.0000   1.0000
     1.0000   1.0000   1.0000   1.0000   1.0000   1.0000   1.0000   1.0000
     1.0000   1.0000   1.0000   1.0000   1.0000   1.0000   1.0000   1.0000
     1.0000   1.0000   1.0000   1.0000   1.0000   1.0000   1.0000   1.0000
     1.0000   1.0000   1.0000   1.0000   1.0000   1.0000   1.0000   1.0000
     1.0000   1.0000   1.0000   1.0000   1.0000   1.0000   1.0000   1.0000
     1.0000   1.0000   1.0000   1.0000   1.0000   1.0000   1.0000   1.0000
     1.0000   1.0000   1.0000   1.0000   1.0000   1.0000   1.0000   1.0000
     1.0000   1.0000   1.0000   1.0000   1.0000   1.0000   1.0000   1.0000
     1.0000   1.0000   1.0000   1.0000   1.0000   1.0000   1.0000   1.0000
     1.0000   1.0000   1.0000   1.0000   1.0000   1.0000   1.0000   1.0000
     1.0000   1.0000   1.0000   1.0000   1.0000   1.0000   1.0000   1.0000
     1.0000   1.0000   1.0000   1.0000   1.0000   1.0000   1.0000   1.0000
     1.0000   1.0000   1.0000   1.0000   1.0000   1.0000   1.0000   1.0000
     1.0000   1.0000   1.0000   1.0000   1.0000   1.0000   1.0000   1.0000
     1.0000   1.0000   1.0000   1.0000   1.0000   1.0000   1.0000   1.0000
     1.0000   1.0000   1.0000   1.0000   1.0000   1.0000   1.0000   1.0000
     1.0000   1.0000   1.0000   0.9999   0.9999   0.9999   0.9999   0.9993
     0.9991   0.9986   0.9985   0.9981   0.9978   0.9974   0.9969   0.9966
     0.9962   0.9955   0.9952   0.9949   0.9939   0.9928   0.9915   0.9899
     0.9883   0.9875   0.9863   0.9840   0.9808   0.9787   0.9665   0.9580
     0.9523   0.9478   0.9375   0.9252   0.9181   0.9091   0.9041   0.9007
     0.8679   0.8556   0.8374   0.8230   0.8163   0.7491   0.7406   0.7377
     0.7301   0.7232   0.7164   0.7104   0.7064   0.7011   0.6940   0.6878
     0.6776   0.6740   0.6684   0.6571   0.6496   0.6441   0.6271   0.4506
     0.3982   0.3756   0.3420   0.3341   0.2193   0.1767   0.0784   0.0488
     0.0268   0.0153   0.0075   0.0030   0.0005   0.0003   0.0003   0.0001
     0.0001   0.0001   0.0000   0.0000   0.0000   0.0000   0.0000   0.0000
     0.0000   0.0000   0.0000   0.0000   0.0000   0.0000   0.0000   0.0000
     0.0000   0.0000   0.0000   0.0000   0.0000   0.0000   0.0000

          k = 0.2500-0.5000 0.0000 ( 65138 PWs)   bands (ev):

   -92.3427 -92.2893 -92.1969 -92.1474 -92.0889 -92.0490 -92.0317 -91.9095
   -55.6958 -55.6756 -55.5547 -55.5438 -55.5363 -55.5306 -55.4937 -55.4664
   -55.4498 -55.4480 -55.4404 -55.3974 -55.3785 -55.3408 -55.3230 -55.2887
   -55.2825 -55.2380 -55.2368 -55.2348 -55.2263 -55.1839 -55.1625 -55.0757
   -30.9280 -30.9126 -30.8249 -30.7702 -30.6842 -30.6256 -30.6228 -30.4095
   -29.4921 -29.4514 -29.4255 -29.3172 -22.2558 -14.6271 -14.5828 -14.5132
   -14.4041 -14.3666 -14.2489 -14.1593 -14.0364 -13.7774 -13.7212 -13.6738
   -13.6450 -13.6232 -13.6083 -13.5918 -13.5555 -13.5405 -13.5110 -13.4707
   -13.4574 -13.4165 -13.3145 -13.2671 -13.2205 -13.1873 -13.1405 -13.1183
   -13.0465 -13.0080 -12.8595 -12.7957 -12.7839 -12.7385 -12.6841 -12.6453
   -12.6329 -12.6084 -12.5963 -12.5796 -12.5645 -12.5257 -12.5029 -12.4284
   -12.4090 -12.3565 -12.3078 -12.2764 -12.1743 -12.1005 -11.9749 -11.9620
   -11.8678 -11.8380 -11.4213 -11.4094 -11.3983 -11.3709 -11.3399 -11.3109
   -11.2706 -11.2423 -11.2206 -11.1744 -11.1487 -11.1377  -5.8920  -3.1653
    -3.1531  -2.0960  -2.0311  -1.9011  -1.8238  -1.6943  -1.6113  -1.4867
    -1.3362  -1.2809  -1.2605  -1.1985  -1.1849  -1.0871  -1.0216  -0.9358
    -0.8872  -0.8783  -0.8134  -0.7720  -0.7374  -0.6898  -0.6534  -0.6184
    -0.5778  -0.5659  -0.5218  -0.4938  -0.4513  -0.4215  -0.3533  -0.2509
    -0.2157  -0.1363  -0.0718  -0.0217   0.0206   0.0400   0.0925   0.2513
     0.2573   0.3703   0.4014   0.4120   0.4588   0.4854   0.5218   0.5540
     0.6285   0.8917   0.9804   1.0477   1.1077   1.3794   1.3989   1.4908
     1.5190   1.6881   1.7209   1.7623   1.7867   1.8032   1.8237   1.8849
     1.9322   1.9667   2.0404   2.1233   2.1612   2.1839   2.2004   2.2300
     2.2479   2.2555   2.2951   2.3112   2.3298   2.3627   2.3810   2.4117
     2.4401   2.4996   2.5392   2.6146   2.7546   2.9100   2.9253   2.9430
     2.9703   2.9944   3.0194   3.0244   3.0480   3.0602   3.0746   3.0844
     3.1809   3.2289   3.2504   3.2541   3.2676   3.2885   3.3026   3.3212
     3.3283   3.3616   3.3722   3.3873   3.3950   3.4042   3.4148   3.9253
     3.9414   4.0982   4.1474   4.4714   4.5267   4.5292   4.6549   5.0562
     5.1471   5.2707   5.3546   5.5074   5.6276   5.7241   5.8708   5.9288
     6.0693   6.1481   6.2990   6.5493   6.5617   6.6629   7.1571   7.2124
     7.5752   7.6578   7.9633   8.0662   8.1674   8.1958   8.3268   8.4188
     8.5203   8.5779   8.6630   8.8024   8.8692   8.9345   9.0201

     occupation numbers 
     1.0000   1.0000   1.0000   1.0000   1.0000   1.0000   1.0000   1.0000
     1.0000   1.0000   1.0000   1.0000   1.0000   1.0000   1.0000   1.0000
     1.0000   1.0000   1.0000   1.0000   1.0000   1.0000   1.0000   1.0000
     1.0000   1.0000   1.0000   1.0000   1.0000   1.0000   1.0000   1.0000
     1.0000   1.0000   1.0000   1.0000   1.0000   1.0000   1.0000   1.0000
     1.0000   1.0000   1.0000   1.0000   1.0000   1.0000   1.0000   1.0000
     1.0000   1.0000   1.0000   1.0000   1.0000   1.0000   1.0000   1.0000
     1.0000   1.0000   1.0000   1.0000   1.0000   1.0000   1.0000   1.0000
     1.0000   1.0000   1.0000   1.0000   1.0000   1.0000   1.0000   1.0000
     1.0000   1.0000   1.0000   1.0000   1.0000   1.0000   1.0000   1.0000
     1.0000   1.0000   1.0000   1.0000   1.0000   1.0000   1.0000   1.0000
     1.0000   1.0000   1.0000   1.0000   1.0000   1.0000   1.0000   1.0000
     1.0000   1.0000   1.0000   1.0000   1.0000   1.0000   1.0000   1.0000
     1.0000   1.0000   1.0000   1.0000   1.0000   1.0000   1.0000   1.0000
     1.0000   1.0000   1.0000   1.0000   1.0000   1.0000   1.0000   1.0000
     1.0000   1.0000   1.0000   1.0000   1.0000   1.0000   1.0000   1.0000
     1.0000   1.0000   1.0000   1.0000   1.0000   1.0000   1.0000   1.0000
     1.0000   1.0000   1.0000   1.0000   1.0000   1.0000   1.0000   1.0000
     1.0000   1.0000   1.0000   1.0000   1.0000   1.0000   1.0000   1.0000
     1.0000   1.0000   1.0000   1.0000   1.0000   1.0000   1.0000   1.0000
     1.0000   1.0000   1.0000   1.0000   0.9999   0.9997   0.9997   0.9994
     0.9993   0.9985   0.9982   0.9978   0.9976   0.9974   0.9971   0.9962
     0.9953   0.9946   0.9927   0.9897   0.9881   0.9870   0.9862   0.9846
     0.9835   0.9830   0.9804   0.9792   0.9778   0.9751   0.9735   0.9705
     0.9676   0.9606   0.9554   0.9438   0.9161   0.8747   0.8699   0.8643
     0.8552   0.8469   0.8380   0.8362   0.8274   0.8227   0.8171   0.8132
     0.7723   0.7502   0.7400   0.7382   0.7316   0.7213   0.7142   0.7047
     0.7011   0.6837   0.6781   0.6700   0.6659   0.6609   0.6551   0.3598
     0.3509   0.2691   0.2455   0.1211   0.1053   0.1046   0.0746   0.0208
     0.0149   0.0092   0.0065   0.0034   0.0019   0.0012   0.0006   0.0004
     0.0002   0.0001   0.0001   0.0000   0.0000   0.0000   0.0000   0.0000
     0.0000   0.0000   0.0000   0.0000   0.0000   0.0000   0.0000   0.0000
     0.0000   0.0000   0.0000   0.0000   0.0000   0.0000   0.0000

          k =-0.5000-0.5000 0.0000 ( 65132 PWs)   bands (ev):

   -92.3427 -92.2893 -92.1969 -92.1474 -92.0889 -92.0490 -92.0317 -91.9095
   -55.6958 -55.6756 -55.5547 -55.5438 -55.5363 -55.5306 -55.4937 -55.4664
   -55.4498 -55.4480 -55.4404 -55.3974 -55.3785 -55.3408 -55.3230 -55.2887
   -55.2825 -55.2380 -55.2368 -55.2348 -55.2263 -55.1839 -55.1625 -55.0757
   -30.9258 -30.9149 -30.8247 -30.7698 -30.6846 -30.6258 -30.6226 -30.4096
   -29.4911 -29.4525 -29.4251 -29.3176 -22.2558 -14.5808 -14.5551 -14.4392
   -14.4258 -14.3325 -14.2951 -14.2664 -14.1340 -13.7773 -13.6333 -13.6251
   -13.5873 -13.5701 -13.5508 -13.5351 -13.5082 -13.4993 -13.4818 -13.4802
   -13.4643 -13.3836 -13.3780 -13.3507 -13.3167 -13.3147 -13.2192 -13.2107
   -13.0943 -13.0569 -12.8116 -12.7794 -12.7070 -12.7024 -12.6777 -12.6437
   -12.6374 -12.6280 -12.6085 -12.5690 -12.5556 -12.5211 -12.5052 -12.4737
   -12.4348 -12.3673 -12.2577 -12.2501 -12.1907 -12.0711 -11.9713 -11.9196
   -11.8622 -11.8531 -11.4175 -11.4054 -11.3877 -11.3708 -11.3364 -11.3188
   -11.2832 -11.2224 -11.2026 -11.1969 -11.1466 -11.1436  -5.8920  -3.1655
    -3.1531  -1.8717  -1.7968  -1.7885  -1.7139  -1.6751  -1.5969  -1.5292
    -1.4029  -1.2861  -1.2571  -1.2156  -1.1600  -1.0885  -1.0738  -1.0033
    -0.9605  -0.8446  -0.8165  -0.7679  -0.7365  -0.6725  -0.6286  -0.6099
    -0.5988  -0.5443  -0.4976  -0.4846  -0.3711  -0.3143  -0.2666  -0.2188
    -0.1929  -0.1779  -0.1447  -0.1067  -0.0688  -0.0575   0.0290   0.0931
     0.1441   0.1643   0.2407   0.2920   0.2988   0.3608   0.3909   0.3988
     0.4124   0.8599   0.8960   0.9901   1.0161   1.4079   1.4226   1.4568
     1.4953   1.7716   1.7897   1.7966   1.8370   1.9696   2.0641   2.0905
     2.1256   2.1384   2.1618   2.1748   2.2061   2.2118   2.2206   2.2335
     2.2967   2.3009   2.3253   2.3281   2.3554   2.3674   2.4090   2.4371
     2.4495   2.4844   2.5099   2.5837   2.6504   2.9207   2.9545   2.9726
     2.9882   2.9948   3.0199   3.0324   3.0435   3.0543   3.0672   3.0733
     3.0867   3.1053   3.1176   3.1822   3.1855   3.2076   3.2198   3.2328
     3.2524   3.2568   3.2653   3.3684   3.3732   3.3988   3.4100   4.3536
     4.3758   4.3850   4.4097   4.6754   4.7455   4.7751   5.0147   5.1365
     5.1979   5.2215   5.3378   5.3927   5.4442   5.5587   5.5630   5.7759
[...]
     0.0000   0.0000   0.0000   0.0000   0.0000   0.0000   0.0000   0.0000
     0.0000   0.0000   0.0000   0.0000   0.0000   0.0000   0.0000

          k =-0.5000 0.0000 0.0000 ( 65180 PWs)   bands (ev):

   -92.3427 -92.2893 -92.1969 -92.1474 -92.0889 -92.0490 -92.0317 -91.9095
   -55.6958 -55.6756 -55.5547 -55.5438 -55.5363 -55.5306 -55.4937 -55.4664
   -55.4498 -55.4480 -55.4404 -55.3974 -55.3784 -55.3408 -55.3230 -55.2887
   -55.2825 -55.2380 -55.2368 -55.2348 -55.2263 -55.1839 -55.1625 -55.0757
   -30.9262 -30.9152 -30.8250 -30.7694 -30.6843 -30.6261 -30.6223 -30.4093
   -29.4923 -29.4531 -29.4239 -29.3169 -22.2558 -14.6623 -14.6122 -14.5511
   -14.4441 -14.3374 -14.1929 -14.0548 -13.9119 -13.7823 -13.7774 -13.7749
   -13.7546 -13.7070 -13.6437 -13.6101 -13.5620 -13.5572 -13.5399 -13.4882
   -13.4780 -13.3849 -13.2028 -13.1771 -13.1433 -13.1347 -13.1007 -13.0141
   -12.9970 -12.9218 -12.9038 -12.8986 -12.7871 -12.7068 -12.6973 -12.6823
   -12.6705 -12.6609 -12.5984 -12.5800 -12.5708 -12.5415 -12.4988 -12.3909
   -12.3732 -12.3542 -12.2926 -12.2835 -12.1937 -12.1369 -12.0025 -11.9811
   -11.8705 -11.8318 -11.4245 -11.4034 -11.3965 -11.3818 -11.3640 -11.3229
   -11.2590 -11.2416 -11.2093 -11.1641 -11.1549 -11.1389  -5.8920  -3.1655
    -3.1528  -2.2279  -2.1891  -2.0245  -1.9856  -1.6732  -1.5969  -1.4493
    -1.3312  -1.2919  -1.2455  -1.1983  -1.1727  -1.0512  -1.0059  -0.9917
    -0.9085  -0.8735  -0.8594  -0.8260  -0.7704  -0.7009  -0.6710  -0.6431
    -0.5508  -0.5008  -0.4521  -0.4203  -0.3987  -0.3683  -0.3206  -0.2963
    -0.2597  -0.1590  -0.0925  -0.0231   0.0380   0.1849   0.2348   0.2959
     0.3278   0.3742   0.4064   0.5334   0.5721   0.6160   0.7937   0.8919
     0.9381   1.0144   1.0675   1.2072   1.2209   1.3480   1.3809   1.4356
     1.4634   1.4980   1.5114   1.5579   1.5833   1.6459   1.6944   1.7421
     1.7511   2.0403   2.0500   2.0584   2.0897   2.2022   2.2111   2.2178
     2.2338   2.2689   2.2796   2.3131   2.3439   2.3628   2.4316   2.4350
     2.4951   2.5066   2.5726   2.6795   2.7690   2.8531   2.8686   2.9477
     2.9827   3.0079   3.0218   3.0722   3.0772   3.0867   3.0952   3.1245
     3.1906   3.2345   3.2836   3.3074   3.3552   3.3592   3.3605   3.3722
     3.3865   3.3987   3.4129   3.4170   3.4371   3.4432   3.4646   3.4853
     3.4897   3.6154   3.6227   4.4157   4.4633   4.5255   4.6394   5.0169
     5.1406   5.1947   5.3117   5.4464   5.7198   5.8650   5.9427   5.9846
     6.2599   6.3523   6.3773   6.4169   6.9698   7.1129   7.1684   7.4725
     7.5001   7.6198   7.8085   8.0439   8.0865   8.1772   8.2184   8.2245
     8.4399   8.6062   8.6824   8.7232   8.7659   8.8597   8.9168

     occupation numbers 
     1.0000   1.0000   1.0000   1.0000   1.0000   1.0000   1.0000   1.0000
     1.0000   1.0000   1.0000   1.0000   1.0000   1.0000   1.0000   1.0000
     1.0000   1.0000   1.0000   1.0000   1.0000   1.0000   1.0000   1.0000
     1.0000   1.0000   1.0000   1.0000   1.0000   1.0000   1.0000   1.0000
     1.0000   1.0000   1.0000   1.0000   1.0000   1.0000   1.0000   1.0000
     1.0000   1.0000   1.0000   1.0000   1.0000   1.0000   1.0000   1.0000
     1.0000   1.0000   1.0000   1.0000   1.0000   1.0000   1.0000   1.0000
     1.0000   1.0000   1.0000   1.0000   1.0000   1.0000   1.0000   1.0000
     1.0000   1.0000   1.0000   1.0000   1.0000   1.0000   1.0000   1.0000
     1.0000   1.0000   1.0000   1.0000   1.0000   1.0000   1.0000   1.0000
     1.0000   1.0000   1.0000   1.0000   1.0000   1.0000   1.0000   1.0000
     1.0000   1.0000   1.0000   1.0000   1.0000   1.0000   1.0000   1.0000
     1.0000   1.0000   1.0000   1.0000   1.0000   1.0000   1.0000   1.0000
     1.0000   1.0000   1.0000   1.0000   1.0000   1.0000   1.0000   1.0000
     1.0000   1.0000   1.0000   1.0000   1.0000   1.0000   1.0000   1.0000
     1.0000   1.0000   1.0000   1.0000   1.0000   1.0000   1.0000   1.0000
     1.0000   1.0000   1.0000   1.0000   1.0000   1.0000   1.0000   1.0000
     1.0000   1.0000   1.0000   1.0000   1.0000   1.0000   1.0000   1.0000
     1.0000   1.0000   1.0000   1.0000   1.0000   1.0000   1.0000   1.0000
     1.0000   1.0000   1.0000   1.0000   1.0000   1.0000   1.0000   1.0000
     1.0000   1.0000   0.9999   0.9999   0.9999   0.9997   0.9997   0.9996
     0.9995   0.9994   0.9994   0.9992   0.9991   0.9988   0.9984   0.9980
     0.9979   0.9927   0.9924   0.9921   0.9910   0.9861   0.9856   0.9852
     0.9843   0.9822   0.9815   0.9791   0.9767   0.9751   0.9685   0.9681
     0.9612   0.9597   0.9505   0.9320   0.9128   0.8912   0.8869   0.8627
     0.8510   0.8421   0.8371   0.8180   0.8161   0.8123   0.8089   0.7968
     0.7679   0.7476   0.7237   0.7118   0.6871   0.6850   0.6843   0.6781
     0.6704   0.6639   0.6561   0.6539   0.6428   0.6394   0.6275   0.6158
     0.6133   0.5403   0.5360   0.1385   0.1235   0.1056   0.0779   0.0239
     0.0152   0.0124   0.0078   0.0044   0.0012   0.0006   0.0004   0.0003
     0.0001   0.0000   0.0000   0.0000   0.0000   0.0000   0.0000   0.0000
     0.0000   0.0000   0.0000   0.0000   0.0000   0.0000   0.0000   0.0000
     0.0000   0.0000   0.0000   0.0000   0.0000   0.0000   0.0000

          k =-0.2500 0.2500 0.0000 ( 65198 PWs)   bands (ev):

   -92.3427 -92.2893 -92.1969 -92.1474 -92.0889 -92.0490 -92.0317 -91.9095
   -55.6958 -55.6756 -55.5547 -55.5438 -55.5363 -55.5306 -55.4937 -55.4664
   -55.4498 -55.4480 -55.4404 -55.3974 -55.3785 -55.3408 -55.3230 -55.2887
   -55.2825 -55.2380 -55.2368 -55.2348 -55.2263 -55.1839 -55.1625 -55.0757
   -30.9282 -30.9128 -30.8250 -30.7700 -30.6840 -30.6258 -30.6226 -30.4093
   -29.4927 -29.4518 -29.4249 -29.3169 -22.2558 -14.6641 -14.6266 -14.5513
   -14.4336 -14.3268 -14.2023 -14.1104 -13.9098 -13.7779 -13.7650 -13.7361
   -13.7251 -13.6771 -13.6528 -13.6333 -13.6229 -13.5846 -13.4860 -13.4750
   -13.3236 -13.2958 -13.2672 -13.2464 -13.2047 -13.1478 -13.1115 -13.0881
   -13.0013 -12.9529 -12.8767 -12.8012 -12.7665 -12.7402 -12.6935 -12.6614
   -12.6406 -12.6141 -12.6011 -12.5804 -12.5766 -12.5355 -12.5005 -12.4630
   -12.4231 -12.3654 -12.3546 -12.3427 -12.1776 -12.1091 -12.0948 -11.9368
   -11.8113 -11.7561 -11.4450 -11.4233 -11.3961 -11.3838 -11.3433 -11.3080
   -11.2855 -11.2635 -11.2412 -11.1563 -11.1108 -11.1013  -5.8920  -3.1653
    -3.1530  -2.3129  -2.1036  -1.9832  -1.8948  -1.7758  -1.7089  -1.5068
    -1.3604  -1.3412  -1.3120  -1.2216  -1.1857  -1.0940  -1.0604  -1.0345
    -0.8906  -0.8358  -0.7674  -0.7389  -0.6788  -0.6570  -0.6162  -0.5874
    -0.5474  -0.4855  -0.4383  -0.3761  -0.3083  -0.2849  -0.2312  -0.2033
    -0.1579  -0.0993  -0.0539  -0.0141   0.0850   0.1182   0.1262   0.1755
     0.2376   0.3008   0.3497   0.3801   0.4434   0.4812   0.7397   0.9069
     0.9504   0.9852   1.0412   1.0859   1.1477   1.2123   1.2434   1.5274
     1.6415   1.6804   1.7143   1.7203   1.7627   1.7799   1.8240   1.8550
     1.8710   1.8971   1.9366   1.9502   1.9964   2.0143   2.0582   2.1285
     2.1484   2.1732   2.2023   2.2370   2.2738   2.3207   2.4381   2.5513
     2.5862   2.6304   2.6503   2.7120   2.7577   2.7854   2.8061   2.8295
     2.9326   2.9678   3.0209   3.0587   3.0770   3.2386   3.2462   3.2603
     3.2702   3.2810   3.2941   3.3009   3.3188   3.3271   3.3426   3.3522
     3.3647   3.3742   3.3815   3.4132   3.4243   3.4339   3.4671   3.7603
     3.8407   3.8997   3.9575   3.9849   4.1894   4.3171   4.6362   4.7989
     4.9805   5.1418   5.3324   5.5344   5.9223   5.9886   6.0178   6.1333
     6.1925   6.2414   6.3536   6.4084   6.9468   7.0233   7.0842   7.1971
     7.7237   7.8138   7.8484   7.9135   7.9774   8.1594   8.2159   8.2822
     8.3969   8.4511   8.5189   8.6785   8.7173   8.7901   8.9685

     occupation numbers 
     1.0000   1.0000   1.0000   1.0000   1.0000   1.0000   1.0000   1.0000
     1.0000   1.0000   1.0000   1.0000   1.0000   1.0000   1.0000   1.0000
     1.0000   1.0000   1.0000   1.0000   1.0000   1.0000   1.0000   1.0000
     1.0000   1.0000   1.0000   1.0000   1.0000   1.0000   1.0000   1.0000
     1.0000   1.0000   1.0000   1.0000   1.0000   1.0000   1.0000   1.0000
     1.0000   1.0000   1.0000   1.0000   1.0000   1.0000   1.0000   1.0000
     1.0000   1.0000   1.0000   1.0000   1.0000   1.0000   1.0000   1.0000
     1.0000   1.0000   1.0000   1.0000   1.0000   1.0000   1.0000   1.0000
     1.0000   1.0000   1.0000   1.0000   1.0000   1.0000   1.0000   1.0000
     1.0000   1.0000   1.0000   1.0000   1.0000   1.0000   1.0000   1.0000
     1.0000   1.0000   1.0000   1.0000   1.0000   1.0000   1.0000   1.0000
     1.0000   1.0000   1.0000   1.0000   1.0000   1.0000   1.0000   1.0000
     1.0000   1.0000   1.0000   1.0000   1.0000   1.0000   1.0000   1.0000
     1.0000   1.0000   1.0000   1.0000   1.0000   1.0000   1.0000   1.0000
     1.0000   1.0000   1.0000   1.0000   1.0000   1.0000   1.0000   1.0000
     1.0000   1.0000   1.0000   1.0000   1.0000   1.0000   1.0000   1.0000
     1.0000   1.0000   1.0000   1.0000   1.0000   1.0000   1.0000   1.0000
     1.0000   1.0000   1.0000   1.0000   1.0000   1.0000   1.0000   1.0000
     1.0000   1.0000   1.0000   1.0000   1.0000   1.0000   1.0000   1.0000
     1.0000   1.0000   1.0000   1.0000   1.0000   1.0000   1.0000   1.0000
     1.0000   1.0000   1.0000   0.9999   0.9999   0.9999   0.9999   0.9993
     0.9988   0.9985   0.9983   0.9982   0.9978   0.9976   0.9971   0.9967
     0.9964   0.9960   0.9953   0.9950   0.9939   0.9934   0.9921   0.9895
     0.9887   0.9875   0.9861   0.9841   0.9818   0.9785   0.9678   0.9537
     0.9484   0.9411   0.9375   0.9254   0.9154   0.9089   0.9037   0.8976
     0.8676   0.8561   0.8374   0.8233   0.8161   0.7456   0.7420   0.7352
     0.7303   0.7250   0.7185   0.7151   0.7060   0.7017   0.6937   0.6887
     0.6821   0.6770   0.6732   0.6560   0.6499   0.6446   0.6261   0.4546
     0.4078   0.3742   0.3421   0.3273   0.2263   0.1734   0.0786   0.0488
     0.0271   0.0152   0.0072   0.0030   0.0004   0.0003   0.0003   0.0001
     0.0001   0.0001   0.0000   0.0000   0.0000   0.0000   0.0000   0.0000
     0.0000   0.0000   0.0000   0.0000   0.0000   0.0000   0.0000   0.0000
     0.0000   0.0000   0.0000   0.0000   0.0000   0.0000   0.0000

          k =-0.5000 0.2500 0.0000 ( 65138 PWs)   bands (ev):

   -92.3427 -92.2893 -92.1969 -92.1474 -92.0889 -92.0490 -92.0317 -91.9095
   -55.6958 -55.6756 -55.5547 -55.5438 -55.5363 -55.5306 -55.4937 -55.4664
   -55.4498 -55.4480 -55.4404 -55.3974 -55.3784 -55.3408 -55.3230 -55.2887
   -55.2825 -55.2380 -55.2368 -55.2348 -55.2263 -55.1839 -55.1625 -55.0757
   -30.9260 -30.9151 -30.8249 -30.7696 -30.6844 -30.6260 -30.6225 -30.4095
   -29.4917 -29.4528 -29.4245 -29.3173 -22.2558 -14.6297 -14.5855 -14.5081
   -14.4103 -14.3661 -14.2397 -14.1580 -14.0282 -13.7774 -13.7153 -13.6865
   -13.6741 -13.6305 -13.6118 -13.5822 -13.5470 -13.5432 -13.5176 -13.4800
   -13.4681 -13.3718 -13.2869 -13.2385 -13.2359 -13.2247 -13.1598 -13.1207
   -13.0428 -12.9868 -12.8537 -12.8182 -12.7493 -12.7148 -12.6801 -12.6683
   -12.6383 -12.6261 -12.6047 -12.5941 -12.5689 -12.5248 -12.5043 -12.4314
   -12.4045 -12.3564 -12.2747 -12.2672 -12.1920 -12.1017 -11.9766 -11.9632
   -11.8648 -11.8403 -11.4174 -11.4047 -11.3907 -11.3788 -11.3577 -11.3276
   -11.2464 -11.2376 -11.2147 -11.1785 -11.1505 -11.1413  -5.8920  -3.1655
    -3.1529  -2.0859  -2.0436  -1.8943  -1.8526  -1.6928  -1.6157  -1.4735
    -1.3373  -1.2800  -1.2530  -1.2144  -1.1754  -1.0953  -0.9806  -0.9238
    -0.9005  -0.8750  -0.7997  -0.7696  -0.7334  -0.7138  -0.6534  -0.6249
    -0.5854  -0.5504  -0.5217  -0.4643  -0.4381  -0.3965  -0.3618  -0.2576
    -0.2332  -0.1417  -0.0847  -0.0504   0.0080   0.0894   0.1194   0.2256
     0.2513   0.3176   0.3572   0.3946   0.4674   0.4971   0.5282   0.5850
     0.6220   0.9283   0.9767   1.0410   1.0652   1.3569   1.4203   1.4935
     1.5204   1.7004   1.7356   1.7733   1.7876   1.8054   1.8232   1.8918
     1.9358   1.9712   2.0035   2.1050   2.1502   2.1891   2.1979   2.2273
     2.2604   2.2757   2.2871   2.3089   2.3340   2.3756   2.4028   2.4332
     2.4587   2.4831   2.5506   2.6706   2.7676   2.7974   2.8669   2.9095
     2.9642   3.0065   3.0124   3.0217   3.0497   3.0716   3.0882   3.1078
     3.1904   3.2320   3.2472   3.2530   3.2739   3.2961   3.3088   3.3233
     3.3367   3.3566   3.3707   3.3804   3.3881   3.3976   3.4106   3.9339
     3.9648   4.1295   4.1494   4.4240   4.4841   4.5387   4.7366   5.0767
     5.1556   5.2186   5.3368   5.4464   5.7241   5.7711   5.8348   5.9093
     6.0396   6.1486   6.3590   6.4647   6.5590   6.6555   7.1647   7.3481
     7.4874   7.6474   7.9631   8.0561   8.1838   8.2157   8.3112   8.4188
     8.5321   8.6108   8.6600   8.8180   8.8615   8.9189   8.9791

     occupation numbers 
     1.0000   1.0000   1.0000   1.0000   1.0000   1.0000   1.0000   1.0000
     1.0000   1.0000   1.0000   1.0000   1.0000   1.0000   1.0000   1.0000
     1.0000   1.0000   1.0000   1.0000   1.0000   1.0000   1.0000   1.0000
     1.0000   1.0000   1.0000   1.0000   1.0000   1.0000   1.0000   1.0000
     1.0000   1.0000   1.0000   1.0000   1.0000   1.0000   1.0000   1.0000
     1.0000   1.0000   1.0000   1.0000   1.0000   1.0000   1.0000   1.0000
     1.0000   1.0000   1.0000   1.0000   1.0000   1.0000   1.0000   1.0000
     1.0000   1.0000   1.0000   1.0000   1.0000   1.0000   1.0000   1.0000
     1.0000   1.0000   1.0000   1.0000   1.0000   1.0000   1.0000   1.0000
     1.0000   1.0000   1.0000   1.0000   1.0000   1.0000   1.0000   1.0000
     1.0000   1.0000   1.0000   1.0000   1.0000   1.0000   1.0000   1.0000
     1.0000   1.0000   1.0000   1.0000   1.0000   1.0000   1.0000   1.0000
     1.0000   1.0000   1.0000   1.0000   1.0000   1.0000   1.0000   1.0000
     1.0000   1.0000   1.0000   1.0000   1.0000   1.0000   1.0000   1.0000
     1.0000   1.0000   1.0000   1.0000   1.0000   1.0000   1.0000   1.0000
     1.0000   1.0000   1.0000   1.0000   1.0000   1.0000   1.0000   1.0000
     1.0000   1.0000   1.0000   1.0000   1.0000   1.0000   1.0000   1.0000
     1.0000   1.0000   1.0000   1.0000   1.0000   1.0000   1.0000   1.0000
     1.0000   1.0000   1.0000   1.0000   1.0000   1.0000   1.0000   1.0000
     1.0000   1.0000   1.0000   1.0000   1.0000   1.0000   1.0000   1.0000
     1.0000   1.0000   1.0000   1.0000   0.9999   0.9997   0.9996   0.9994
     0.9993   0.9984   0.9981   0.9977   0.9976   0.9974   0.9971   0.9961
     0.9953   0.9945   0.9937   0.9905   0.9886   0.9868   0.9863   0.9847
     0.9827   0.9817   0.9809   0.9794   0.9775   0.9739   0.9714   0.9683
     0.9655   0.9627   0.9537   0.9337   0.9131   0.9059   0.8874   0.8748
     0.8573   0.8427   0.8405   0.8372   0.8267   0.8183   0.8117   0.8037
     0.7680   0.7487   0.7415   0.7387   0.7285   0.7175   0.7111   0.7037
     0.6968   0.6863   0.6789   0.6737   0.6696   0.6645   0.6574   0.3550
     0.3381   0.2540   0.2446   0.1358   0.1173   0.1021   0.0590   0.0193
     0.0144   0.0113   0.0070   0.0044   0.0012   0.0010   0.0007   0.0005
     0.0002   0.0001   0.0000   0.0000   0.0000   0.0000   0.0000   0.0000
     0.0000   0.0000   0.0000   0.0000   0.0000   0.0000   0.0000   0.0000
     0.0000   0.0000   0.0000   0.0000   0.0000   0.0000   0.0000

     the Fermi energy is     3.6836 ev

!    total energy              =   -4482.97571083 Ry
     estimated scf accuracy    <          7.4E-09 Ry
     smearing contrib. (-TS)   =      -1.17199004 Ry
     internal energy E=F+TS    =   -4481.80372079 Ry

     The total energy is F=E-TS. E is the sum of the following terms:
     one-electron contribution =  -20252.12839157 Ry
     hartree contribution      =   10265.66233627 Ry
     xc contribution           =    -701.58410581 Ry
     ewald contribution        =    6491.90179358 Ry
     one-center paw contrib.   =    -285.65535326 Ry
      -> PAW hartree energy AE =      25.18377424 Ry
      -> PAW hartree energy PS =     -25.06748092 Ry
      -> PAW xc energy AE      =     -16.52039655 Ry
      -> PAW xc energy PS      =       6.88002245 Ry
      -> total E_H with PAW    =   10265.77862959 Ry
      -> total E_XC with PAW   =    -711.22447991 Ry

     convergence has been achieved in  52 iterations

     Writing all to output data dir /bsuhome/zayahcortright/scratch/pwscf.save/
 
     init_run     :      8.42s CPU      9.13s WALL (       1 calls)
     electrons    :    794.90s CPU    820.25s WALL (       1 calls)

     Called by init_run:
     wfcinit      :      6.88s CPU      7.08s WALL (       1 calls)
     wfcinit:atom :      0.05s CPU      0.07s WALL (       5 calls)
     wfcinit:wfcr :      6.55s CPU      6.69s WALL (       5 calls)
     potinit      :      0.16s CPU      0.18s WALL (       1 calls)
     hinit0       :      0.41s CPU      0.84s WALL (       1 calls)

     Called by electrons:
     c_bands      :    638.59s CPU    645.29s WALL (      52 calls)
     sum_band     :    118.16s CPU    128.43s WALL (      52 calls)
     v_of_rho     :      5.62s CPU      5.97s WALL (      53 calls)
     v_h          :      0.48s CPU      0.49s WALL (      53 calls)
     v_xc         :      5.14s CPU      5.49s WALL (      53 calls)
     newd         :     17.28s CPU     24.78s WALL (      53 calls)
     PAW_pot      :      1.72s CPU      1.75s WALL (      53 calls)
     mix_rho      :     13.19s CPU     13.50s WALL (      52 calls)

     Called by c_bands:
     init_us_2    :      6.74s CPU      6.81s WALL (     525 calls)
     init_us_2:cp :      6.73s CPU      6.80s WALL (     525 calls)
     cegterg      :    601.48s CPU    607.89s WALL (     260 calls)

     Called by sum_band:
     sum_band:wei :      0.36s CPU      0.37s WALL (      52 calls)
     sum_band:loo :    100.24s CPU    101.03s WALL (      52 calls)
     sum_band:buf :      1.59s CPU      1.65s WALL (     260 calls)
     sum_band:ini :      3.09s CPU      3.09s WALL (     260 calls)
     sum_band:cal :     21.56s CPU     21.63s WALL (     260 calls)
     sum_band:bec :      0.64s CPU      0.66s WALL (     260 calls)
     addusdens    :     16.30s CPU     25.72s WALL (      52 calls)
                                        0.00s GPU  (      52 calls)
     addusd:skk   :      0.36s CPU      0.90s WALL (     208 calls)
                                        0.00s GPU  (     208 calls)

     Called by *egterg:
     cdiaghg      :     64.60s CPU     64.86s WALL (    1487 calls)
     cegterg:over :     44.64s CPU     44.80s WALL (    1227 calls)
     cegterg:upda :     33.31s CPU     33.88s WALL (    1227 calls)
     cegterg:last :     68.65s CPU     68.87s WALL (     483 calls)
     cdiaghg:chol :      3.66s CPU      3.68s WALL (    1487 calls)
     cdiaghg:inve :      4.02s CPU      4.04s WALL (    1487 calls)
     cdiaghg:para :      8.24s CPU      8.28s WALL (    2974 calls)
     h_psi        :    327.47s CPU    330.81s WALL (    1492 calls)
     s_psi        :     45.24s CPU     45.36s WALL (    1492 calls)
     g_psi        :      1.20s CPU      1.20s WALL (    1227 calls)

     Called by h_psi:
     h_psi:calbec :     49.99s CPU     50.20s WALL (    1492 calls)
     vloc_psi     :    229.25s CPU    231.51s WALL (    1492 calls)
     add_vuspsi   :     45.15s CPU     45.38s WALL (    1492 calls)

     General routines
     calbec       :     71.54s CPU     71.83s WALL (    1752 calls)
     fft          :      3.66s CPU      3.71s WALL (     687 calls)
     ffts         :      4.83s CPU      4.88s WALL (    5506 calls)
     fftw         :    194.55s CPU    196.19s WALL (  357460 calls)
     interpolate  :      0.42s CPU      0.43s WALL (      53 calls)
 
     Parallel routines

     PAW routines
     PAW_pot      :      1.72s CPU      1.75s WALL (      53 calls)
 
     PWSCF        :  13m25.27s CPU  13m54.57s WALL

 
   This run was terminated on:  19:52:10  20Jun2024            

=------------------------------------------------------------------------------=
   JOB DONE.
=------------------------------------------------------------------------------=
