
     Program PWSCF v.7.2 starts on 20Jun2024 at 15:58:11 

     This program is part of the open-source Quantum ESPRESSO suite
     for quantum simulation of materials; please cite
         "P. Giannozzi et al., J. Phys.:Condens. Matter 21 395502 (2009);
         "P. Giannozzi et al., J. Phys.:Condens. Matter 29 465901 (2017);
         "P. Giannozzi et al., J. Chem. Phys. 152 154105 (2020);
          URL http://www.quantum-espresso.org", 
     in publications or presentations arising from this work. More details at
     http://www.quantum-espresso.org/quote

     Parallel version (MPI & OpenMP), running on      48 processor cores
     Number of MPI processes:                48
     Threads/MPI process:                     1

     MPI processes distributed on     1 nodes
     41852 MiB available memory on the printing compute node when the environment starts
 
     Reading input from espresso.pwi
Warning: card &CELL ignored
Warning: card / ignored
Warning: card &FCP ignored
Warning: card / ignored
Warning: card &RISM ignored
Warning: card / ignored

     Current dimensions of program PWSCF are:
     Max number of different atomic species (ntypx) = 10
     Max number of k-points (npk) =  40000
     Max angular momentum in pseudopotentials (lmaxx) =  4
     file O.pbe-n-kjpaw_psl.0.1.UPF: wavefunction(s)  2P renormalized
     signal trapping enabled: kill the code with -SIGUSR1 to stop cleanly the simulation 
 
     K-points division:     npool     =       2
     R & G space division:  proc/nbgrp/npool/nimage =      24
     Subspace diagonalization in iterative solution of the eigenvalue problem:
     one sub-group per band group will be used
     scalapack distributed-memory algorithm (size of sub-group:  3*  3 procs)

 
     Parallelization info
     --------------------
     sticks:   dense  smooth     PW     G-vecs:    dense   smooth      PW
     Min         350     175     47                61430    21716    3036
     Max         351     177     48                61449    21727    3041
     Sum        8421    4205   1137              1474595   521381   72913
 
     Using Slab Decomposition
 


     bravais-lattice index     =            0
     lattice parameter (alat)  =      14.8599  a.u.
     unit-cell volume          =    8305.1283 (a.u.)^3
     number of atoms/cell      =           51
     number of atomic types    =            4
     number of electrons       =       437.00
     number of Kohn-Sham states=          263
     kinetic-energy cutoff     =      60.0000  Ry
     charge density cutoff     =     480.0000  Ry
     scf convergence threshold =      1.0E-08
     mixing beta               =       0.1500
     number of iterations used =            8  local-TF  mixing
     Exchange-correlation= PBE
                           (   1   4   3   4   0   0   0)

     celldm(1)=  14.859904  celldm(2)=   0.000000  celldm(3)=   0.000000
     celldm(4)=   0.000000  celldm(5)=   0.000000  celldm(6)=   0.000000

     crystal axes: (cart. coord. in units of alat)
               a(1) = (   1.000000   0.000000   0.000000 )  
               a(2) = (   0.000000   1.000000   0.000000 )  
               a(3) = (   0.000000   0.000000   2.531036 )  

     reciprocal axes: (cart. coord. in units 2 pi/alat)
               b(1) = (  1.000000  0.000000  0.000000 )  
               b(2) = (  0.000000  1.000000  0.000000 )  
               b(3) = (  0.000000  0.000000  0.395095 )  


     PseudoPot. # 1 for Sr read from file:
     /bsuhome/zayahcortright/q-e/pseudo/Sr_pbe_v1.uspp.F.UPF
     MD5 check sum: 6b418c05fbe9db5448babca5e47b7a5b
     Pseudo is Ultrasoft + core correction, Zval = 10.0
     Generated by new atomic code, or converted to UPF format
     Using radial grid of  883 points,  6 beta functions with: 
                l(1) =   0
                l(2) =   0
                l(3) =   1
                l(4) =   1
                l(5) =   2
                l(6) =   2
     Q(r) pseudized with  6 coefficients,  rinner =    1.400   1.400   1.400
                                                       1.400   1.400

     PseudoPot. # 2 for O  read from file:
     /bsuhome/zayahcortright/q-e/pseudo/O.pbe-n-kjpaw_psl.0.1.UPF
     MD5 check sum: 0234752ac141de4415c5fc33072bef88
     Pseudo is Projector augmented-wave + core cor, Zval =  6.0
     Generated using "atomic" code by A. Dal Corso  v.5.0.99 svn rev. 10869
     Shape of augmentation charge: BESSEL
     Using radial grid of 1095 points,  4 beta functions with: 
                l(1) =   0
                l(2) =   0
                l(3) =   1
                l(4) =   1
     Q(r) pseudized with 0 coefficients 


     PseudoPot. # 3 for Co read from file:
     /bsuhome/zayahcortright/q-e/pseudo/Co_pbe_v1.2.uspp.F.UPF
     MD5 check sum: 5f91765df6ddd3222702df6e7b74a16d
     Pseudo is Ultrasoft + core correction, Zval = 17.0
     Generated by new atomic code, or converted to UPF format
     Using radial grid of  863 points,  6 beta functions with: 
                l(1) =   0
                l(2) =   0
                l(3) =   1
                l(4) =   1
                l(5) =   2
                l(6) =   2
     Q(r) pseudized with  8 coefficients,  rinner =    1.200   1.200   1.200
                                                       1.200   1.200

     PseudoPot. # 4 for H  read from file:
     /bsuhome/zayahcortright/q-e/pseudo/H.pbe-rrkjus_psl.1.0.0.UPF
     MD5 check sum: f52b6d4d1c606e5624b1dc7b2218f220
     Pseudo is Ultrasoft, Zval =  1.0
     Generated using "atomic" code by A. Dal Corso  v.5.1
     Using radial grid of  929 points,  2 beta functions with: 
                l(1) =   0
                l(2) =   0
     Q(r) pseudized with 0 coefficients 


     atomic species   valence    mass     pseudopotential
        Sr            10.00    87.62000     Sr( 1.00)
        O              6.00    15.99900     O ( 1.00)
        Co            17.00    58.93319     Co( 1.00)
        H              1.00     1.00800     H ( 1.00)

     No symmetry found


                                    s                        frac. trans.

      isym =  1     identity                                     

 cryst.   s( 1) = (     1          0          0      )
                  (     0          1          0      )
                  (     0          0          1      )

 cart.    s( 1) = (  1.0000000  0.0000000  0.0000000 )
                  (  0.0000000  1.0000000  0.0000000 )
                  (  0.0000000  0.0000000  1.0000000 )


   Cartesian axes

     site n.     atom                  positions (alat units)
         1           Sr  tau(   1) = (   0.2508693   0.7491307   1.7574407  )
         2           O   tau(   2) = (   0.4985141   0.5014859   1.7715967  )
         3           Sr  tau(   3) = (   0.7482398   0.7454518   1.7648669  )
         4           Sr  tau(   4) = (   0.7441748   0.2558252   1.7667843  )
         5           Sr  tau(   5) = (   0.2508693   0.7491307   1.2696799  )
         6           Sr  tau(   6) = (   0.2508693   0.7491307   0.7632319  )
         7           Co  tau(   7) = (   0.4998914   0.5001086   1.0164559  )
         8           Co  tau(   8) = (   0.4936915   0.5063085   1.5135603  )
         9           O   tau(   9) = (   0.4988895   0.7610401   1.0164559  )
        10           O   tau(  10) = (   0.2389599   0.5011105   1.0164559  )
        11           O   tau(  11) = (   0.0070918   0.7374880   1.0164559  )
        12           O   tau(  12) = (   0.0088340   0.7405089   1.5135603  )
        13           O   tau(  13) = (   0.5066944   0.7415376   1.5135603  )
        14           O   tau(  14) = (   0.2584624   0.4933056   1.5135603  )
        15           O   tau(  15) = (   0.4985141   0.5014859   0.7773880  )
        16           O   tau(  16) = (   0.4985141   0.5014859   1.2555238  )
        17           Sr  tau(  17) = (   0.7482398   0.7454518   0.7706582  )
        18           Sr  tau(  18) = (   0.7482398   0.7454518   1.2622536  )
        19           Sr  tau(  19) = (   0.7441748   0.2558252   0.7725755  )
        20           Sr  tau(  20) = (   0.7441748   0.2558252   1.2603363  )
        21           O   tau(  21) = (   0.7322655   0.0078049   1.5135603  )
        22           O   tau(  22) = (   0.7558175   0.4996027   1.5135603  )
        23           O   tau(  23) = (   0.5003973   0.2441825   1.5135603  )
        24           O   tau(  24) = (   0.7527966   0.4978604   1.0164559  )
        25           O   tau(  25) = (   0.5021396   0.2472034   1.0164559  )
        26           O   tau(  26) = (   0.7517679   0.0000000   1.0164559  )
        27           O   tau(  27) = (   0.0114961   0.4948124   1.7455321  )
        28           O   tau(  28) = (   0.0048226   0.0077944   1.7715967  )
        29           Sr  tau(  29) = (   0.2545482   0.2517602   1.7648669  )
        30           O   tau(  30) = (   0.5048017   0.0015068   1.7786929  )
        31           Co  tau(  31) = (   0.0056869   0.5006215   1.0164559  )
        32           Co  tau(  32) = (   0.0065315   0.4997770   1.5135603  )
        33           Co  tau(  33) = (   0.0061999   0.0064171   1.0164559  )
        34           Co  tau(  34) = (   0.0000000   0.0126169   1.5135603  )
        35           O   tau(  35) = (   0.0114961   0.4948124   1.2815885  )
        36           O   tau(  36) = (   0.0114961   0.4948124   0.7513233  )
        37           O   tau(  37) = (   0.0051979   0.2673486   1.0164559  )
        38           O   tau(  38) = (   0.0130029   0.2478461   1.5135603  )
        39           O   tau(  39) = (   0.0048226   0.0077944   0.7773880  )
        40           O   tau(  40) = (   0.0048226   0.0077944   1.2555238  )
        41           Sr  tau(  41) = (   0.2545482   0.2517602   0.7706582  )
        42           Sr  tau(  42) = (   0.2545482   0.2517602   1.2622536  )
        43           Co  tau(  43) = (   0.4989925   0.0073160   1.5135603  )
        44           Co  tau(  44) = (   0.4998370   0.0064714   1.0164559  )
        45           O   tau(  45) = (   0.5048017   0.0015068   0.7844841  )
        46           O   tau(  46) = (   0.5048017   0.0015068   1.2484277  )
        47           O   tau(  47) = (   0.2621260   0.0059111   1.5135603  )
        48           O   tau(  48) = (   0.2591051   0.0041689   1.0164559  )
        49           O   tau(  49) = (   0.7108228   0.2843291   2.1602013  )
        50           O   tau(  50) = (   0.7108228   0.2843291   2.3186489  )
        51           H   tau(  51) = (   0.7108228   0.2843291   2.4431567  )

   Crystallographic axes

     site n.     atom                  positions (cryst. coord.)
         1           Sr  tau(   1) = (  0.2508693  0.7491307  0.6943562  )
         2           O   tau(   2) = (  0.4985141  0.5014859  0.6999492  )
         3           Sr  tau(   3) = (  0.7482398  0.7454518  0.6972903  )
         4           Sr  tau(   4) = (  0.7441748  0.2558252  0.6980478  )
         5           Sr  tau(   5) = (  0.2508693  0.7491307  0.5016443  )
         6           Sr  tau(   6) = (  0.2508693  0.7491307  0.3015492  )
         7           Co  tau(   7) = (  0.4998914  0.5001086  0.4015968  )
         8           Co  tau(   8) = (  0.4936915  0.5063085  0.5980003  )
         9           O   tau(   9) = (  0.4988895  0.7610401  0.4015968  )
        10           O   tau(  10) = (  0.2389599  0.5011105  0.4015968  )
        11           O   tau(  11) = (  0.0070918  0.7374880  0.4015968  )
        12           O   tau(  12) = (  0.0088340  0.7405089  0.5980003  )
        13           O   tau(  13) = (  0.5066944  0.7415376  0.5980003  )
        14           O   tau(  14) = (  0.2584624  0.4933056  0.5980003  )
        15           O   tau(  15) = (  0.4985141  0.5014859  0.3071422  )
        16           O   tau(  16) = (  0.4985141  0.5014859  0.4960513  )
        17           Sr  tau(  17) = (  0.7482398  0.7454518  0.3044833  )
        18           Sr  tau(  18) = (  0.7482398  0.7454518  0.4987103  )
        19           Sr  tau(  19) = (  0.7441748  0.2558252  0.3052408  )
        20           Sr  tau(  20) = (  0.7441748  0.2558252  0.4979527  )
        21           O   tau(  21) = (  0.7322655  0.0078049  0.5980003  )
        22           O   tau(  22) = (  0.7558175  0.4996027  0.5980003  )
        23           O   tau(  23) = (  0.5003973  0.2441825  0.5980003  )
        24           O   tau(  24) = (  0.7527966  0.4978604  0.4015968  )
        25           O   tau(  25) = (  0.5021396  0.2472034  0.4015968  )
        26           O   tau(  26) = (  0.7517679  0.0000000  0.4015968  )
        27           O   tau(  27) = (  0.0114961  0.4948124  0.6896512  )
        28           O   tau(  28) = (  0.0048226  0.0077944  0.6999492  )
        29           Sr  tau(  29) = (  0.2545482  0.2517602  0.6972903  )
        30           O   tau(  30) = (  0.5048017  0.0015068  0.7027529  )
        31           Co  tau(  31) = (  0.0056869  0.5006215  0.4015968  )
        32           Co  tau(  32) = (  0.0065315  0.4997770  0.5980003  )
        33           Co  tau(  33) = (  0.0061999  0.0064171  0.4015968  )
        34           Co  tau(  34) = (  0.0000000  0.0126169  0.5980003  )
        35           O   tau(  35) = (  0.0114961  0.4948124  0.5063494  )
        36           O   tau(  36) = (  0.0114961  0.4948124  0.2968442  )
        37           O   tau(  37) = (  0.0051979  0.2673486  0.4015968  )
        38           O   tau(  38) = (  0.0130029  0.2478461  0.5980003  )
        39           O   tau(  39) = (  0.0048226  0.0077944  0.3071422  )
        40           O   tau(  40) = (  0.0048226  0.0077944  0.4960513  )
        41           Sr  tau(  41) = (  0.2545482  0.2517602  0.3044833  )
        42           Sr  tau(  42) = (  0.2545482  0.2517602  0.4987103  )
        43           Co  tau(  43) = (  0.4989925  0.0073160  0.5980003  )
        44           Co  tau(  44) = (  0.4998370  0.0064714  0.4015968  )
        45           O   tau(  45) = (  0.5048017  0.0015068  0.3099459  )
        46           O   tau(  46) = (  0.5048017  0.0015068  0.4932477  )
        47           O   tau(  47) = (  0.2621260  0.0059111  0.5980003  )
        48           O   tau(  48) = (  0.2591051  0.0041689  0.4015968  )
        49           O   tau(  49) = (  0.7108228  0.2843291  0.8534850  )
        50           O   tau(  50) = (  0.7108228  0.2843291  0.9160869  )
        51           H   tau(  51) = (  0.7108228  0.2843291  0.9652793  )

     number of k points=    10  Gaussian smearing, width (Ry)=  0.0700
                       cart. coord. in units 2pi/alat
        k(    1) = (   0.0000000   0.0000000   0.0000000), wk =   0.1250000
        k(    2) = (   0.0000000   0.2500000   0.0000000), wk =   0.2500000
        k(    3) = (   0.0000000  -0.5000000   0.0000000), wk =   0.1250000
        k(    4) = (   0.2500000   0.2500000   0.0000000), wk =   0.2500000
        k(    5) = (   0.2500000  -0.5000000   0.0000000), wk =   0.2500000
        k(    6) = (  -0.5000000  -0.5000000   0.0000000), wk =   0.1250000
        k(    7) = (   0.2500000   0.0000000   0.0000000), wk =   0.2500000
        k(    8) = (  -0.5000000   0.0000000   0.0000000), wk =   0.1250000
        k(    9) = (  -0.2500000   0.2500000   0.0000000), wk =   0.2500000
        k(   10) = (  -0.5000000   0.2500000   0.0000000), wk =   0.2500000

                       cryst. coord.
        k(    1) = (   0.0000000   0.0000000   0.0000000), wk =   0.1250000
        k(    2) = (   0.0000000   0.2500000   0.0000000), wk =   0.2500000
        k(    3) = (   0.0000000  -0.5000000   0.0000000), wk =   0.1250000
        k(    4) = (   0.2500000   0.2500000   0.0000000), wk =   0.2500000
        k(    5) = (   0.2500000  -0.5000000   0.0000000), wk =   0.2500000
        k(    6) = (  -0.5000000  -0.5000000   0.0000000), wk =   0.1250000
        k(    7) = (   0.2500000   0.0000000   0.0000000), wk =   0.2500000
        k(    8) = (  -0.5000000   0.0000000   0.0000000), wk =   0.1250000
        k(    9) = (  -0.2500000   0.2500000   0.0000000), wk =   0.2500000
        k(   10) = (  -0.5000000   0.2500000   0.0000000), wk =   0.2500000

     Dense  grid:  1474595 G-vectors     FFT dimensions: ( 108, 108, 270)

     Smooth grid:   521381 G-vectors     FFT dimensions: (  75,  75, 192)

     Dynamical RAM for                 wfc:      10.90 MB

     Dynamical RAM for     wfc (w. buffer):      65.37 MB

     Dynamical RAM for           str. fact:       3.75 MB

     Dynamical RAM for           local pot:       0.00 MB

     Dynamical RAM for          nlocal pot:      24.94 MB

     Dynamical RAM for                qrad:       7.03 MB

     Dynamical RAM for          rho,v,vnew:       6.02 MB

     Dynamical RAM for               rhoin:       2.01 MB

     Dynamical RAM for            rho*nmix:      15.00 MB

     Dynamical RAM for           G-vectors:       3.68 MB

     Dynamical RAM for          h,s,v(r/c):       1.40 MB

     Dynamical RAM for          <psi|beta>:       2.42 MB

     Dynamical RAM for                 psi:      21.79 MB

     Dynamical RAM for                hpsi:      21.79 MB

     Dynamical RAM for                spsi:      21.79 MB

     Dynamical RAM for      wfcinit/wfcrot:      34.89 MB

     Dynamical RAM for           addusdens:     101.73 MB

     Estimated static dynamical RAM per process >     122.82 MB

     Estimated max dynamical RAM per process >     239.55 MB

     Estimated total dynamical RAM >      10.88 GB

     Check: negative core charge=   -0.000004

     Initial potential from superposition of free atoms

     starting charge     428.5961, renormalised to     437.0000

     negative rho (up, down):  7.813E-01 0.000E+00
     Starting wfcs are  381 randomized atomic wfcs
     Checking if some PAW data can be deallocated... 
       PAW data deallocated on   18 nodes for type:  2

     total cpu time spent up to now is       10.2 secs

     Self-consistent Calculation

     iteration #  1     ecut=    60.00 Ry     beta= 0.15
     Davidson diagonalization with overlap

---- Real-time Memory Report at c_bands before calling an iterative solver
             0 MiB given to the printing process from OS
             0 MiB allocation reported by mallinfo(arena+hblkhd)
         32069 MiB available memory on the node where the printing process lives
------------------
     ethr =  1.00E-02,  avg # of iterations =  2.0

     negative rho (up, down):  7.713E-01 0.000E+00

     total cpu time spent up to now is       25.8 secs

     total energy              =   -4489.22118298 Ry
     estimated scf accuracy    <      49.70094210 Ry

     iteration #  2     ecut=    60.00 Ry     beta= 0.15
     Davidson diagonalization with overlap

---- Real-time Memory Report at c_bands before calling an iterative solver
             0 MiB given to the printing process from OS
             0 MiB allocation reported by mallinfo(arena+hblkhd)
         32421 MiB available memory on the node where the printing process lives
------------------
     ethr =  1.00E-02,  avg # of iterations =  1.0

     negative rho (up, down):  7.612E-01 0.000E+00

     total cpu time spent up to now is       38.7 secs

     total energy              =   -4486.80099122 Ry
     estimated scf accuracy    <      35.07611983 Ry

     iteration #  3     ecut=    60.00 Ry     beta= 0.15
     Davidson diagonalization with overlap

---- Real-time Memory Report at c_bands before calling an iterative solver
             0 MiB given to the printing process from OS
             0 MiB allocation reported by mallinfo(arena+hblkhd)
         31644 MiB available memory on the node where the printing process lives
------------------
     ethr =  8.03E-03,  avg # of iterations =  1.0

     negative rho (up, down):  7.563E-01 0.000E+00

     total cpu time spent up to now is       51.7 secs

     total energy              =   -4486.75838018 Ry
     estimated scf accuracy    <      35.22304400 Ry

     iteration #  4     ecut=    60.00 Ry     beta= 0.15
     Davidson diagonalization with overlap

---- Real-time Memory Report at c_bands before calling an iterative solver
             0 MiB given to the printing process from OS
             0 MiB allocation reported by mallinfo(arena+hblkhd)
         31633 MiB available memory on the node where the printing process lives
------------------
     ethr =  8.03E-03,  avg # of iterations =  1.0

     negative rho (up, down):  7.574E-01 0.000E+00

     total cpu time spent up to now is       64.7 secs

     total energy              =   -4486.58623089 Ry
     estimated scf accuracy    <      34.20895174 Ry

     iteration #  5     ecut=    60.00 Ry     beta= 0.15
     Davidson diagonalization with overlap

---- Real-time Memory Report at c_bands before calling an iterative solver
             0 MiB given to the printing process from OS
             0 MiB allocation reported by mallinfo(arena+hblkhd)
         31619 MiB available memory on the node where the printing process lives
------------------
     ethr =  7.83E-03,  avg # of iterations =  1.0

     negative rho (up, down):  7.336E-01 0.000E+00

     total cpu time spent up to now is       77.8 secs

     total energy              =   -4482.54821503 Ry
     estimated scf accuracy    <      22.79461476 Ry

     iteration #  6     ecut=    60.00 Ry     beta= 0.15
     Davidson diagonalization with overlap

---- Real-time Memory Report at c_bands before calling an iterative solver
             0 MiB given to the printing process from OS
             0 MiB allocation reported by mallinfo(arena+hblkhd)
         31599 MiB available memory on the node where the printing process lives
------------------
     ethr =  5.22E-03,  avg # of iterations =  2.0

     negative rho (up, down):  7.485E-01 0.000E+00

     total cpu time spent up to now is       92.8 secs

     total energy              =   -4483.71938760 Ry
     estimated scf accuracy    <      38.30038517 Ry

     iteration #  7     ecut=    60.00 Ry     beta= 0.15
     Davidson diagonalization with overlap

---- Real-time Memory Report at c_bands before calling an iterative solver
             0 MiB given to the printing process from OS
             0 MiB allocation reported by mallinfo(arena+hblkhd)
         31583 MiB available memory on the node where the printing process lives
------------------
     ethr =  5.22E-03,  avg # of iterations =  1.0

     negative rho (up, down):  7.538E-01 0.000E+00

     total cpu time spent up to now is      106.1 secs

     total energy              =   -4483.49733274 Ry
     estimated scf accuracy    <      37.60042061 Ry

     iteration #  8     ecut=    60.00 Ry     beta= 0.15
     Davidson diagonalization with overlap

---- Real-time Memory Report at c_bands before calling an iterative solver
             0 MiB given to the printing process from OS
             0 MiB allocation reported by mallinfo(arena+hblkhd)
         31557 MiB available memory on the node where the printing process lives
------------------
     ethr =  5.22E-03,  avg # of iterations =  1.0

     negative rho (up, down):  7.511E-01 0.000E+00

     total cpu time spent up to now is      120.0 secs

     total energy              =   -4483.86776677 Ry
     estimated scf accuracy    <       6.17819987 Ry

     iteration #  9     ecut=    60.00 Ry     beta= 0.15
     Davidson diagonalization with overlap

---- Real-time Memory Report at c_bands before calling an iterative solver
             0 MiB given to the printing process from OS
             0 MiB allocation reported by mallinfo(arena+hblkhd)
         31529 MiB available memory on the node where the printing process lives
------------------
     ethr =  1.41E-03,  avg # of iterations =  5.0

     negative rho (up, down):  7.655E-01 0.000E+00

     total cpu time spent up to now is      135.4 secs

     total energy              =   -4483.74859037 Ry
     estimated scf accuracy    <       3.60468334 Ry

     iteration # 10     ecut=    60.00 Ry     beta= 0.15
     Davidson diagonalization with overlap

---- Real-time Memory Report at c_bands before calling an iterative solver
             0 MiB given to the printing process from OS
             0 MiB allocation reported by mallinfo(arena+hblkhd)
         31501 MiB available memory on the node where the printing process lives
------------------
     ethr =  8.25E-04,  avg # of iterations =  9.0

     negative rho (up, down):  7.865E-01 0.000E+00

     total cpu time spent up to now is      154.0 secs

     total energy              =   -4483.51760486 Ry
     estimated scf accuracy    <       4.53538716 Ry

     iteration # 11     ecut=    60.00 Ry     beta= 0.15
     Davidson diagonalization with overlap

---- Real-time Memory Report at c_bands before calling an iterative solver
             0 MiB given to the printing process from OS
             0 MiB allocation reported by mallinfo(arena+hblkhd)
         31122 MiB available memory on the node where the printing process lives
------------------
     ethr =  8.25E-04,  avg # of iterations =  6.6

     negative rho (up, down):  7.903E-01 0.000E+00

     total cpu time spent up to now is      171.3 secs

     total energy              =   -4483.22700757 Ry
     estimated scf accuracy    <       4.16552712 Ry

     iteration # 12     ecut=    60.00 Ry     beta= 0.15
     Davidson diagonalization with overlap

---- Real-time Memory Report at c_bands before calling an iterative solver
             0 MiB given to the printing process from OS
             0 MiB allocation reported by mallinfo(arena+hblkhd)
         31072 MiB available memory on the node where the printing process lives
------------------
     ethr =  8.25E-04,  avg # of iterations =  7.4

     negative rho (up, down):  8.007E-01 0.000E+00

     total cpu time spent up to now is      188.0 secs

     total energy              =   -4483.21562746 Ry
     estimated scf accuracy    <       2.13014371 Ry

     iteration # 13     ecut=    60.00 Ry     beta= 0.15
     Davidson diagonalization with overlap

---- Real-time Memory Report at c_bands before calling an iterative solver
             0 MiB given to the printing process from OS
             0 MiB allocation reported by mallinfo(arena+hblkhd)
         31046 MiB available memory on the node where the printing process lives
------------------
     ethr =  4.87E-04,  avg # of iterations =  4.4

     negative rho (up, down):  8.025E-01 0.000E+00

     total cpu time spent up to now is      203.7 secs

     total energy              =   -4483.26414885 Ry
     estimated scf accuracy    <       1.07819757 Ry

     iteration # 14     ecut=    60.00 Ry     beta= 0.15
     Davidson diagonalization with overlap

---- Real-time Memory Report at c_bands before calling an iterative solver
             0 MiB given to the printing process from OS
             0 MiB allocation reported by mallinfo(arena+hblkhd)
         31065 MiB available memory on the node where the printing process lives
------------------
     ethr =  2.47E-04,  avg # of iterations =  7.3

     negative rho (up, down):  8.136E-01 0.000E+00

     total cpu time spent up to now is      221.1 secs

     total energy              =   -4483.12775564 Ry
     estimated scf accuracy    <       0.73794159 Ry

     iteration # 15     ecut=    60.00 Ry     beta= 0.15
     Davidson diagonalization with overlap

---- Real-time Memory Report at c_bands before calling an iterative solver
             0 MiB given to the printing process from OS
             0 MiB allocation reported by mallinfo(arena+hblkhd)
         31022 MiB available memory on the node where the printing process lives
------------------
     ethr =  1.69E-04,  avg # of iterations =  6.1

     negative rho (up, down):  8.171E-01 0.000E+00

     total cpu time spent up to now is      237.9 secs

     total energy              =   -4483.14241954 Ry
     estimated scf accuracy    <       2.28181567 Ry

     iteration # 16     ecut=    60.00 Ry     beta= 0.15
     Davidson diagonalization with overlap

---- Real-time Memory Report at c_bands before calling an iterative solver
             0 MiB given to the printing process from OS
             0 MiB allocation reported by mallinfo(arena+hblkhd)
         31028 MiB available memory on the node where the printing process lives
------------------
     ethr =  1.69E-04,  avg # of iterations =  6.4

     negative rho (up, down):  8.144E-01 0.000E+00

     total cpu time spent up to now is      254.6 secs

     total energy              =   -4483.12515867 Ry
     estimated scf accuracy    <       0.94093008 Ry

     iteration # 17     ecut=    60.00 Ry     beta= 0.15
     Davidson diagonalization with overlap

---- Real-time Memory Report at c_bands before calling an iterative solver
             0 MiB given to the printing process from OS
             0 MiB allocation reported by mallinfo(arena+hblkhd)
         31031 MiB available memory on the node where the printing process lives
------------------
     ethr =  1.69E-04,  avg # of iterations =  1.3

     negative rho (up, down):  8.186E-01 0.000E+00

     total cpu time spent up to now is      268.2 secs

     total energy              =   -4483.06514817 Ry
     estimated scf accuracy    <       0.38266408 Ry

     iteration # 18     ecut=    60.00 Ry     beta= 0.15
     Davidson diagonalization with overlap

---- Real-time Memory Report at c_bands before calling an iterative solver
             0 MiB given to the printing process from OS
             0 MiB allocation reported by mallinfo(arena+hblkhd)
         31040 MiB available memory on the node where the printing process lives
------------------
     c_bands:  1 eigenvalues not converged
     c_bands:  1 eigenvalues not converged
     ethr =  8.76E-05,  avg # of iterations = 11.5

     negative rho (up, down):  8.191E-01 0.000E+00

     total cpu time spent up to now is      288.0 secs

     total energy              =   -4483.04547796 Ry
     estimated scf accuracy    <       1.12023468 Ry

     iteration # 19     ecut=    60.00 Ry     beta= 0.15
     Davidson diagonalization with overlap

---- Real-time Memory Report at c_bands before calling an iterative solver
             0 MiB given to the printing process from OS
             0 MiB allocation reported by mallinfo(arena+hblkhd)
         31016 MiB available memory on the node where the printing process lives
------------------
     ethr =  8.76E-05,  avg # of iterations =  4.4

     negative rho (up, down):  8.264E-01 0.000E+00

     total cpu time spent up to now is      304.0 secs

     total energy              =   -4483.03801025 Ry
     estimated scf accuracy    <       0.40844747 Ry

     iteration # 20     ecut=    60.00 Ry     beta= 0.15
     Davidson diagonalization with overlap

---- Real-time Memory Report at c_bands before calling an iterative solver
             0 MiB given to the printing process from OS
             0 MiB allocation reported by mallinfo(arena+hblkhd)
         31019 MiB available memory on the node where the printing process lives
------------------
     ethr =  8.76E-05,  avg # of iterations =  4.7

     negative rho (up, down):  8.262E-01 0.000E+00

     total cpu time spent up to now is      319.8 secs

     total energy              =   -4483.00684608 Ry
     estimated scf accuracy    <       0.71513925 Ry

     iteration # 21     ecut=    60.00 Ry     beta= 0.15
     Davidson diagonalization with overlap

---- Real-time Memory Report at c_bands before calling an iterative solver
             0 MiB given to the printing process from OS
             0 MiB allocation reported by mallinfo(arena+hblkhd)
         31004 MiB available memory on the node where the printing process lives
------------------
     ethr =  8.76E-05,  avg # of iterations =  5.9

     negative rho (up, down):  8.427E-01 0.000E+00

     total cpu time spent up to now is      336.3 secs

     total energy              =   -4482.98519778 Ry
     estimated scf accuracy    <       0.29341842 Ry

     iteration # 22     ecut=    60.00 Ry     beta= 0.15
     Davidson diagonalization with overlap

---- Real-time Memory Report at c_bands before calling an iterative solver
             0 MiB given to the printing process from OS
             0 MiB allocation reported by mallinfo(arena+hblkhd)
         30999 MiB available memory on the node where the printing process lives
------------------
     ethr =  6.71E-05,  avg # of iterations =  9.8

     negative rho (up, down):  8.507E-01 0.000E+00

     total cpu time spent up to now is      355.3 secs

     total energy              =   -4482.98679994 Ry
     estimated scf accuracy    <       0.05159776 Ry

     iteration # 23     ecut=    60.00 Ry     beta= 0.15
     Davidson diagonalization with overlap

---- Real-time Memory Report at c_bands before calling an iterative solver
             0 MiB given to the printing process from OS
             0 MiB allocation reported by mallinfo(arena+hblkhd)
         30959 MiB available memory on the node where the printing process lives
------------------
     ethr =  1.18E-05,  avg # of iterations = 11.7

     negative rho (up, down):  8.336E-01 0.000E+00

     total cpu time spent up to now is      375.4 secs

     total energy              =   -4482.98367095 Ry
     estimated scf accuracy    <       0.02888772 Ry

     iteration # 24     ecut=    60.00 Ry     beta= 0.15
     Davidson diagonalization with overlap

---- Real-time Memory Report at c_bands before calling an iterative solver
             0 MiB given to the printing process from OS
             0 MiB allocation reported by mallinfo(arena+hblkhd)
         30634 MiB available memory on the node where the printing process lives
------------------
     ethr =  6.61E-06,  avg # of iterations =  9.2

     negative rho (up, down):  8.230E-01 0.000E+00

     total cpu time spent up to now is      393.6 secs

     total energy              =   -4482.98275806 Ry
     estimated scf accuracy    <       0.01788241 Ry

     iteration # 25     ecut=    60.00 Ry     beta= 0.15
     Davidson diagonalization with overlap

---- Real-time Memory Report at c_bands before calling an iterative solver
             0 MiB given to the printing process from OS
             0 MiB allocation reported by mallinfo(arena+hblkhd)
         30654 MiB available memory on the node where the printing process lives
------------------
     ethr =  4.09E-06,  avg # of iterations =  4.8

     negative rho (up, down):  8.122E-01 0.000E+00

     total cpu time spent up to now is      410.1 secs

     total energy              =   -4482.98030478 Ry
     estimated scf accuracy    <       0.01143765 Ry

     iteration # 26     ecut=    60.00 Ry     beta= 0.15
     Davidson diagonalization with overlap

---- Real-time Memory Report at c_bands before calling an iterative solver
             0 MiB given to the printing process from OS
             0 MiB allocation reported by mallinfo(arena+hblkhd)
         30652 MiB available memory on the node where the printing process lives
------------------
     ethr =  2.62E-06,  avg # of iterations =  9.4

     negative rho (up, down):  8.003E-01 0.000E+00

     total cpu time spent up to now is      429.3 secs

     total energy              =   -4482.98023199 Ry
     estimated scf accuracy    <       0.00469353 Ry

     iteration # 27     ecut=    60.00 Ry     beta= 0.15
     Davidson diagonalization with overlap

---- Real-time Memory Report at c_bands before calling an iterative solver
             0 MiB given to the printing process from OS
             0 MiB allocation reported by mallinfo(arena+hblkhd)
         30665 MiB available memory on the node where the printing process lives
------------------
     ethr =  1.07E-06,  avg # of iterations =  6.9

     negative rho (up, down):  7.985E-01 0.000E+00

     total cpu time spent up to now is      447.1 secs

     total energy              =   -4482.98019269 Ry
     estimated scf accuracy    <       0.00240223 Ry

     iteration # 28     ecut=    60.00 Ry     beta= 0.15
     Davidson diagonalization with overlap

---- Real-time Memory Report at c_bands before calling an iterative solver
             0 MiB given to the printing process from OS
             0 MiB allocation reported by mallinfo(arena+hblkhd)
         30670 MiB available memory on the node where the printing process lives
------------------
     ethr =  5.50E-07,  avg # of iterations =  4.6

     negative rho (up, down):  7.944E-01 0.000E+00

     total cpu time spent up to now is      462.8 secs

     total energy              =   -4482.98003581 Ry
     estimated scf accuracy    <       0.00140760 Ry

     iteration # 29     ecut=    60.00 Ry     beta= 0.15
     Davidson diagonalization with overlap

---- Real-time Memory Report at c_bands before calling an iterative solver
             0 MiB given to the printing process from OS
             0 MiB allocation reported by mallinfo(arena+hblkhd)
         30671 MiB available memory on the node where the printing process lives
------------------
     ethr =  3.22E-07,  avg # of iterations =  8.2

     negative rho (up, down):  7.931E-01 0.000E+00

     total cpu time spent up to now is      481.3 secs

     total energy              =   -4482.97996092 Ry
     estimated scf accuracy    <       0.00058363 Ry

     iteration # 30     ecut=    60.00 Ry     beta= 0.15
     Davidson diagonalization with overlap

---- Real-time Memory Report at c_bands before calling an iterative solver
             0 MiB given to the printing process from OS
             0 MiB allocation reported by mallinfo(arena+hblkhd)
         30655 MiB available memory on the node where the printing process lives
------------------
     ethr =  1.34E-07,  avg # of iterations =  5.1

     negative rho (up, down):  7.928E-01 0.000E+00

     total cpu time spent up to now is      497.9 secs

     total energy              =   -4482.97998989 Ry
     estimated scf accuracy    <       0.00024044 Ry

     iteration # 31     ecut=    60.00 Ry     beta= 0.15
     Davidson diagonalization with overlap

---- Real-time Memory Report at c_bands before calling an iterative solver
             0 MiB given to the printing process from OS
             0 MiB allocation reported by mallinfo(arena+hblkhd)
         30672 MiB available memory on the node where the printing process lives
------------------
     ethr =  5.50E-08,  avg # of iterations =  3.1

     negative rho (up, down):  7.926E-01 0.000E+00

     total cpu time spent up to now is      513.0 secs

     total energy              =   -4482.97998747 Ry
     estimated scf accuracy    <       0.00016383 Ry

     iteration # 32     ecut=    60.00 Ry     beta= 0.15
     Davidson diagonalization with overlap

---- Real-time Memory Report at c_bands before calling an iterative solver
             0 MiB given to the printing process from OS
             0 MiB allocation reported by mallinfo(arena+hblkhd)
         30588 MiB available memory on the node where the printing process lives
------------------
     ethr =  3.75E-08,  avg # of iterations =  3.1

     negative rho (up, down):  7.925E-01 0.000E+00

     total cpu time spent up to now is      528.0 secs

     total energy              =   -4482.97997932 Ry
     estimated scf accuracy    <       0.00010413 Ry

     iteration # 33     ecut=    60.00 Ry     beta= 0.15
     Davidson diagonalization with overlap

---- Real-time Memory Report at c_bands before calling an iterative solver
             0 MiB given to the printing process from OS
             0 MiB allocation reported by mallinfo(arena+hblkhd)
         30625 MiB available memory on the node where the printing process lives
------------------
     ethr =  2.38E-08,  avg # of iterations =  4.6

     negative rho (up, down):  7.925E-01 0.000E+00

     total cpu time spent up to now is      543.8 secs

     total energy              =   -4482.97997531 Ry
     estimated scf accuracy    <       0.00006758 Ry

     iteration # 34     ecut=    60.00 Ry     beta= 0.15
     Davidson diagonalization with overlap

---- Real-time Memory Report at c_bands before calling an iterative solver
             0 MiB given to the printing process from OS
             0 MiB allocation reported by mallinfo(arena+hblkhd)
         30627 MiB available memory on the node where the printing process lives
------------------
     ethr =  1.55E-08,  avg # of iterations =  2.9

     negative rho (up, down):  7.924E-01 0.000E+00

     total cpu time spent up to now is      558.6 secs

     total energy              =   -4482.97999016 Ry
     estimated scf accuracy    <       0.00004796 Ry

     iteration # 35     ecut=    60.00 Ry     beta= 0.15
     Davidson diagonalization with overlap

---- Real-time Memory Report at c_bands before calling an iterative solver
             0 MiB given to the printing process from OS
             0 MiB allocation reported by mallinfo(arena+hblkhd)
         30635 MiB available memory on the node where the printing process lives
------------------
     ethr =  1.10E-08,  avg # of iterations =  2.5

     negative rho (up, down):  7.922E-01 0.000E+00

     total cpu time spent up to now is      573.3 secs

     total energy              =   -4482.98000827 Ry
     estimated scf accuracy    <       0.00002744 Ry

     iteration # 36     ecut=    60.00 Ry     beta= 0.15
     Davidson diagonalization with overlap

---- Real-time Memory Report at c_bands before calling an iterative solver
             0 MiB given to the printing process from OS
             0 MiB allocation reported by mallinfo(arena+hblkhd)
         30660 MiB available memory on the node where the printing process lives
------------------
     ethr =  6.28E-09,  avg # of iterations =  4.0

     negative rho (up, down):  7.921E-01 0.000E+00

     total cpu time spent up to now is      588.9 secs

     total energy              =   -4482.98001540 Ry
     estimated scf accuracy    <       0.00001486 Ry

     iteration # 37     ecut=    60.00 Ry     beta= 0.15
     Davidson diagonalization with overlap

---- Real-time Memory Report at c_bands before calling an iterative solver
             0 MiB given to the printing process from OS
             0 MiB allocation reported by mallinfo(arena+hblkhd)
         30653 MiB available memory on the node where the printing process lives
------------------
     ethr =  3.40E-09,  avg # of iterations =  4.7

     negative rho (up, down):  7.922E-01 0.000E+00

     total cpu time spent up to now is      604.3 secs

     total energy              =   -4482.98001549 Ry
     estimated scf accuracy    <       0.00001100 Ry

     iteration # 38     ecut=    60.00 Ry     beta= 0.15
     Davidson diagonalization with overlap

---- Real-time Memory Report at c_bands before calling an iterative solver
             0 MiB given to the printing process from OS
             0 MiB allocation reported by mallinfo(arena+hblkhd)
         30654 MiB available memory on the node where the printing process lives
------------------
     ethr =  2.52E-09,  avg # of iterations =  3.7

     negative rho (up, down):  7.923E-01 0.000E+00

     total cpu time spent up to now is      619.3 secs

     total energy              =   -4482.98001491 Ry
     estimated scf accuracy    <       0.00000538 Ry

     iteration # 39     ecut=    60.00 Ry     beta= 0.15
     Davidson diagonalization with overlap

---- Real-time Memory Report at c_bands before calling an iterative solver
             0 MiB given to the printing process from OS
             0 MiB allocation reported by mallinfo(arena+hblkhd)
         30662 MiB available memory on the node where the printing process lives
------------------
     ethr =  1.23E-09,  avg # of iterations =  4.0

     negative rho (up, down):  7.924E-01 0.000E+00

     total cpu time spent up to now is      634.5 secs

     total energy              =   -4482.98001554 Ry
     estimated scf accuracy    <       0.00000378 Ry

     iteration # 40     ecut=    60.00 Ry     beta= 0.15
     Davidson diagonalization with overlap

---- Real-time Memory Report at c_bands before calling an iterative solver
             0 MiB given to the printing process from OS
             0 MiB allocation reported by mallinfo(arena+hblkhd)
         30694 MiB available memory on the node where the printing process lives
------------------
     ethr =  8.64E-10,  avg # of iterations =  2.0

     negative rho (up, down):  7.924E-01 0.000E+00

     total cpu time spent up to now is      648.8 secs

     total energy              =   -4482.98001548 Ry
     estimated scf accuracy    <       0.00000279 Ry

     iteration # 41     ecut=    60.00 Ry     beta= 0.15
     Davidson diagonalization with overlap

---- Real-time Memory Report at c_bands before calling an iterative solver
             0 MiB given to the printing process from OS
             0 MiB allocation reported by mallinfo(arena+hblkhd)
         30698 MiB available memory on the node where the printing process lives
------------------
     ethr =  6.39E-10,  avg # of iterations =  2.7

     negative rho (up, down):  7.924E-01 0.000E+00

     total cpu time spent up to now is      663.5 secs

     total energy              =   -4482.98001546 Ry
     estimated scf accuracy    <       0.00000114 Ry

     iteration # 42     ecut=    60.00 Ry     beta= 0.15
     Davidson diagonalization with overlap

---- Real-time Memory Report at c_bands before calling an iterative solver
             0 MiB given to the printing process from OS
             0 MiB allocation reported by mallinfo(arena+hblkhd)
         30698 MiB available memory on the node where the printing process lives
------------------
     ethr =  2.61E-10,  avg # of iterations =  2.5

     negative rho (up, down):  7.924E-01 0.000E+00

     total cpu time spent up to now is      678.2 secs

     total energy              =   -4482.98001587 Ry
     estimated scf accuracy    <       0.00000072 Ry

     iteration # 43     ecut=    60.00 Ry     beta= 0.15
     Davidson diagonalization with overlap

---- Real-time Memory Report at c_bands before calling an iterative solver
             0 MiB given to the printing process from OS
             0 MiB allocation reported by mallinfo(arena+hblkhd)
         30701 MiB available memory on the node where the printing process lives
------------------
     ethr =  1.66E-10,  avg # of iterations =  3.9

     negative rho (up, down):  7.923E-01 0.000E+00

     total cpu time spent up to now is      693.4 secs

     total energy              =   -4482.98001601 Ry
     estimated scf accuracy    <       0.00000027 Ry

     iteration # 44     ecut=    60.00 Ry     beta= 0.15
     Davidson diagonalization with overlap

---- Real-time Memory Report at c_bands before calling an iterative solver
             0 MiB given to the printing process from OS
             0 MiB allocation reported by mallinfo(arena+hblkhd)
         30696 MiB available memory on the node where the printing process lives
------------------
     ethr =  6.09E-11,  avg # of iterations =  3.9

     negative rho (up, down):  7.923E-01 0.000E+00

     total cpu time spent up to now is      708.8 secs

     total energy              =   -4482.98001604 Ry
     estimated scf accuracy    <       0.00000018 Ry

     iteration # 45     ecut=    60.00 Ry     beta= 0.15
     Davidson diagonalization with overlap

---- Real-time Memory Report at c_bands before calling an iterative solver
             0 MiB given to the printing process from OS
             0 MiB allocation reported by mallinfo(arena+hblkhd)
         30684 MiB available memory on the node where the printing process lives
------------------
     ethr =  4.18E-11,  avg # of iterations =  3.2

     negative rho (up, down):  7.923E-01 0.000E+00

     total cpu time spent up to now is      723.9 secs

     total energy              =   -4482.98001602 Ry
     estimated scf accuracy    <       0.00000012 Ry

     iteration # 46     ecut=    60.00 Ry     beta= 0.15
     Davidson diagonalization with overlap

---- Real-time Memory Report at c_bands before calling an iterative solver
             0 MiB given to the printing process from OS
             0 MiB allocation reported by mallinfo(arena+hblkhd)
         30684 MiB available memory on the node where the printing process lives
------------------
     ethr =  2.82E-11,  avg # of iterations =  4.8

     negative rho (up, down):  7.923E-01 0.000E+00

     total cpu time spent up to now is      740.1 secs

     total energy              =   -4482.98001603 Ry
     estimated scf accuracy    <       0.00000004 Ry

     iteration # 47     ecut=    60.00 Ry     beta= 0.15
     Davidson diagonalization with overlap

---- Real-time Memory Report at c_bands before calling an iterative solver
             0 MiB given to the printing process from OS
             0 MiB allocation reported by mallinfo(arena+hblkhd)
         30674 MiB available memory on the node where the printing process lives
------------------
     ethr =  9.98E-12,  avg # of iterations =  3.6

     negative rho (up, down):  7.923E-01 0.000E+00

     total cpu time spent up to now is      755.2 secs

     total energy              =   -4482.98001604 Ry
     estimated scf accuracy    <       0.00000003 Ry

     iteration # 48     ecut=    60.00 Ry     beta= 0.15
     Davidson diagonalization with overlap

---- Real-time Memory Report at c_bands before calling an iterative solver
             0 MiB given to the printing process from OS
             0 MiB allocation reported by mallinfo(arena+hblkhd)
         30668 MiB available memory on the node where the printing process lives
------------------
     ethr =  6.07E-12,  avg # of iterations =  3.8

     negative rho (up, down):  7.923E-01 0.000E+00

     total cpu time spent up to now is      770.1 secs

     End of self-consistent calculation

          k = 0.0000 0.0000 0.0000 ( 65197 PWs)   bands (ev):

   -92.3530 -92.2986 -92.2068 -92.1590 -92.1004 -92.0594 -92.0418 -91.9186
   -55.7061 -55.6851 -55.5647 -55.5540 -55.5467 -55.5408 -55.5029 -55.4764
   -55.4599 -55.4585 -55.4502 -55.4080 -55.3904 -55.3519 -55.3327 -55.3004
   -55.2943 -55.2481 -55.2461 -55.2451 -55.2366 -55.1929 -55.1726 -55.0854
   -30.9397 -30.9209 -30.8111 -30.7796 -30.6928 -30.6458 -30.5045 -30.4860
   -29.5033 -29.4611 -29.4341 -29.3256 -22.2603 -14.7378 -14.7005 -14.6146
   -14.4848 -14.2990 -14.1772 -13.8772 -13.8628 -13.8294 -13.7976 -13.7811
   -13.7431 -13.7322 -13.7181 -13.7015 -13.6866 -13.6384 -13.5876 -13.4379
   -13.2657 -13.2268 -13.1945 -13.1669 -13.1486 -13.0996 -13.0628 -12.9867
   -12.9136 -12.8114 -12.8009 -12.7726 -12.7593 -12.7373 -12.7186 -12.6904
   -12.6635 -12.6539 -12.6200 -12.5967 -12.5944 -12.5800 -12.5539 -12.5449
   -12.4656 -12.4585 -12.4465 -12.3849 -12.3507 -12.3396 -12.0048 -11.8600
   -11.7212 -11.6502 -11.5175 -11.4430 -11.4315 -11.4098 -11.3921 -11.3280
   -11.3104 -11.2765 -11.2466 -11.1354 -11.0551 -11.0516  -6.0096  -3.1597
    -3.1584  -2.5979  -2.3645  -2.1351  -1.9891  -1.9248  -1.7822  -1.4759
    -1.4615  -1.4407  -1.3585  -1.3395  -1.2715  -1.2559  -1.2133  -1.1697
    -0.9881  -0.7660  -0.7352  -0.5860  -0.5721  -0.5286  -0.5081  -0.4649
    -0.4499  -0.3898  -0.3627  -0.2928  -0.2824  -0.2020  -0.0756  -0.0614
    -0.0318   0.0507   0.0573   0.0673   0.1345   0.2142   0.2514   0.3068
     0.3318   0.3898   0.4641   0.5237   0.5417   0.5521   0.8071   0.8247
     0.9934   1.0648   1.1284   1.1642   1.2636   1.2754   1.2904   1.3630
     1.3904   1.4255   1.4839   1.6183   1.6706   1.6919   1.7095   1.7232
     1.7908   1.8678   1.9627   1.9781   2.0354   2.0559   2.0945   2.1143
     2.1209   2.1780   2.2298   2.2411   2.2705   2.3001   2.3672   2.4964
     2.5790   2.6251   2.6354   2.7905   2.8024   2.8513   2.8594   2.9559
     3.0005   3.0187   3.0319   3.0347   3.0452   3.0598   3.1389   3.2492
     3.2836   3.2969   3.3035   3.3706   3.3742   3.3990   3.4073   3.4146
     3.4239   3.4344   3.4462   3.4526   3.4660   3.4740   3.4818   3.5024
     3.5236   3.5287   3.5407   3.5615   3.6820   3.7310   4.4094   4.7447
     4.7821   5.1269   5.3779   5.4536   5.7408   6.2658   6.3092   6.3354
     6.6198   6.6300   6.6606   6.7082   6.9998   7.1288   7.1931   7.3341
     7.6380   7.7863   7.8458   7.8905   7.9161   7.9528   7.9715   8.0461
     8.3130   8.3521   8.4133   8.4314   8.5299   8.6016   8.6778

     occupation numbers 
     1.0000   1.0000   1.0000   1.0000   1.0000   1.0000   1.0000   1.0000
     1.0000   1.0000   1.0000   1.0000   1.0000   1.0000   1.0000   1.0000
     1.0000   1.0000   1.0000   1.0000   1.0000   1.0000   1.0000   1.0000
     1.0000   1.0000   1.0000   1.0000   1.0000   1.0000   1.0000   1.0000
     1.0000   1.0000   1.0000   1.0000   1.0000   1.0000   1.0000   1.0000
     1.0000   1.0000   1.0000   1.0000   1.0000   1.0000   1.0000   1.0000
     1.0000   1.0000   1.0000   1.0000   1.0000   1.0000   1.0000   1.0000
     1.0000   1.0000   1.0000   1.0000   1.0000   1.0000   1.0000   1.0000
     1.0000   1.0000   1.0000   1.0000   1.0000   1.0000   1.0000   1.0000
     1.0000   1.0000   1.0000   1.0000   1.0000   1.0000   1.0000   1.0000
     1.0000   1.0000   1.0000   1.0000   1.0000   1.0000   1.0000   1.0000
     1.0000   1.0000   1.0000   1.0000   1.0000   1.0000   1.0000   1.0000
     1.0000   1.0000   1.0000   1.0000   1.0000   1.0000   1.0000   1.0000
     1.0000   1.0000   1.0000   1.0000   1.0000   1.0000   1.0000   1.0000
     1.0000   1.0000   1.0000   1.0000   1.0000   1.0000   1.0000   1.0000
     1.0000   1.0000   1.0000   1.0000   1.0000   1.0000   1.0000   1.0000
     1.0000   1.0000   1.0000   1.0000   1.0000   1.0000   1.0000   1.0000
     1.0000   1.0000   1.0000   1.0000   1.0000   1.0000   1.0000   1.0000
     1.0000   1.0000   1.0000   1.0000   1.0000   1.0000   1.0000   1.0000
     1.0000   1.0000   1.0000   1.0000   1.0000   1.0000   1.0000   1.0000
     1.0000   0.9999   0.9999   0.9999   0.9998   0.9998   0.9998   0.9997
     0.9997   0.9996   0.9994   0.9989   0.9985   0.9984   0.9982   0.9981
     0.9974   0.9963   0.9945   0.9941   0.9925   0.9918   0.9905   0.9897
     0.9894   0.9868   0.9840   0.9833   0.9814   0.9793   0.9738   0.9598
     0.9479   0.9402   0.9384   0.9051   0.9021   0.8889   0.8866   0.8567
     0.8412   0.8346   0.8296   0.8286   0.8246   0.8189   0.7863   0.7357
     0.7187   0.7120   0.7086   0.6735   0.6716   0.6582   0.6537   0.6497
     0.6445   0.6387   0.6321   0.6285   0.6210   0.6164   0.6121   0.6003
     0.5880   0.5851   0.5782   0.5660   0.4950   0.4660   0.1372   0.0558
     0.0499   0.0155   0.0057   0.0041   0.0011   0.0001   0.0000   0.0000
     0.0000   0.0000   0.0000   0.0000   0.0000   0.0000   0.0000   0.0000
     0.0000   0.0000   0.0000   0.0000   0.0000   0.0000   0.0000   0.0000
     0.0000   0.0000   0.0000   0.0000   0.0000   0.0000   0.0000

          k = 0.0000 0.2500 0.0000 ( 65257 PWs)   bands (ev):

   -92.3530 -92.2986 -92.2068 -92.1590 -92.1004 -92.0594 -92.0418 -91.9186
   -55.7061 -55.6851 -55.5647 -55.5540 -55.5467 -55.5408 -55.5029 -55.4764
   -55.4599 -55.4585 -55.4502 -55.4080 -55.3904 -55.3519 -55.3327 -55.3004
   -55.2943 -55.2481 -55.2461 -55.2451 -55.2366 -55.1929 -55.1726 -55.0854
   -30.9395 -30.9207 -30.8110 -30.7798 -30.6929 -30.6455 -30.5047 -30.4861
   -29.5027 -29.4608 -29.4347 -29.3259 -22.2603 -14.7008 -14.6744 -14.5896
   -14.4555 -14.3387 -14.1663 -14.0230 -13.8436 -13.8147 -13.7981 -13.7897
   -13.7580 -13.7063 -13.6937 -13.6837 -13.6696 -13.6189 -13.5075 -13.4695
   -13.3076 -13.2894 -13.2375 -13.2016 -13.1599 -13.1145 -13.0728 -13.0049
   -12.9721 -12.9214 -12.8668 -12.8108 -12.7894 -12.7698 -12.7497 -12.6503
   -12.6268 -12.6084 -12.5963 -12.5812 -12.5628 -12.5547 -12.5272 -12.4607
   -12.4500 -12.3972 -12.3612 -12.3458 -12.3028 -12.2179 -12.0661 -11.9112
   -11.7762 -11.7152 -11.4830 -11.4398 -11.4119 -11.3837 -11.3672 -11.3201
   -11.3084 -11.2858 -11.2523 -11.1495 -11.0967 -11.0862  -6.0096  -3.1598
    -3.1585  -2.4626  -2.2402  -2.1031  -1.9209  -1.8773  -1.7128  -1.4955
    -1.4084  -1.3954  -1.3395  -1.2361  -1.2213  -1.1878  -1.1613  -1.1178
    -0.9192  -0.7909  -0.7792  -0.7037  -0.6927  -0.5880  -0.5570  -0.5005
    -0.4760  -0.4333  -0.3718  -0.3463  -0.3122  -0.2823  -0.2652  -0.2318
    -0.1595  -0.1067  -0.0471   0.0659   0.0833   0.1260   0.2501   0.2832
     0.3381   0.3950   0.4439   0.4676   0.5015   0.5584   0.8558   0.9445
     0.9762   1.0595   1.1034   1.1226   1.2490   1.2686   1.3655   1.3879
     1.4194   1.5331   1.6202   1.6480   1.6714   1.6859   1.7165   1.7784
     1.8033   1.8321   1.8797   1.9101   1.9413   2.0216   2.0517   2.0879
     2.1423   2.1958   2.2328   2.2557   2.2849   2.3103   2.4013   2.5357
     2.6034   2.6198   2.7028   2.7465   2.7866   2.7918   2.8565   2.8994
     2.9749   3.0107   3.0255   3.0323   3.0416   3.2099   3.2318   3.2643
     3.2858   3.3030   3.3123   3.3197   3.3274   3.3579   3.3597   3.3768
     3.3804   3.3935   3.4112   3.4204   3.4311   3.4534   3.4636   3.4685
     3.5044   3.5211   3.5812   3.9411   3.9591   4.2204   4.5941   4.7401
     4.8971   5.0744   5.3968   5.4828   5.8694   5.9212   6.1478   6.2927
     6.3310   6.4424   6.5132   6.7375   6.9423   7.0549   7.2395   7.5389
     7.6033   7.7035   7.7790   7.8637   7.9347   7.9790   8.1002   8.2231
     8.3552   8.4417   8.5131   8.6128   8.6591   8.6865   8.9071

     occupation numbers 
     1.0000   1.0000   1.0000   1.0000   1.0000   1.0000   1.0000   1.0000
     1.0000   1.0000   1.0000   1.0000   1.0000   1.0000   1.0000   1.0000
     1.0000   1.0000   1.0000   1.0000   1.0000   1.0000   1.0000   1.0000
     1.0000   1.0000   1.0000   1.0000   1.0000   1.0000   1.0000   1.0000
     1.0000   1.0000   1.0000   1.0000   1.0000   1.0000   1.0000   1.0000
     1.0000   1.0000   1.0000   1.0000   1.0000   1.0000   1.0000   1.0000
     1.0000   1.0000   1.0000   1.0000   1.0000   1.0000   1.0000   1.0000
     1.0000   1.0000   1.0000   1.0000   1.0000   1.0000   1.0000   1.0000
     1.0000   1.0000   1.0000   1.0000   1.0000   1.0000   1.0000   1.0000
     1.0000   1.0000   1.0000   1.0000   1.0000   1.0000   1.0000   1.0000
     1.0000   1.0000   1.0000   1.0000   1.0000   1.0000   1.0000   1.0000
     1.0000   1.0000   1.0000   1.0000   1.0000   1.0000   1.0000   1.0000
     1.0000   1.0000   1.0000   1.0000   1.0000   1.0000   1.0000   1.0000
     1.0000   1.0000   1.0000   1.0000   1.0000   1.0000   1.0000   1.0000
     1.0000   1.0000   1.0000   1.0000   1.0000   1.0000   1.0000   1.0000
     1.0000   1.0000   1.0000   1.0000   1.0000   1.0000   1.0000   1.0000
     1.0000   1.0000   1.0000   1.0000   1.0000   1.0000   1.0000   1.0000
     1.0000   1.0000   1.0000   1.0000   1.0000   1.0000   1.0000   1.0000
     1.0000   1.0000   1.0000   1.0000   1.0000   1.0000   1.0000   1.0000
     1.0000   1.0000   1.0000   1.0000   1.0000   1.0000   1.0000   1.0000
     1.0000   0.9999   0.9999   0.9999   0.9998   0.9998   0.9997   0.9997
     0.9996   0.9993   0.9989   0.9987   0.9985   0.9984   0.9982   0.9976
     0.9973   0.9969   0.9961   0.9956   0.9949   0.9929   0.9920   0.9907
     0.9885   0.9859   0.9838   0.9824   0.9804   0.9785   0.9706   0.9544
     0.9440   0.9412   0.9253   0.9157   0.9061   0.9048   0.8875   0.8748
     0.8502   0.8375   0.8320   0.8295   0.8259   0.7544   0.7440   0.7283
     0.7176   0.7089   0.7041   0.7003   0.6963   0.6803   0.6794   0.6702
     0.6683   0.6612   0.6515   0.6464   0.6405   0.6281   0.6223   0.6195
     0.5991   0.5895   0.5545   0.3455   0.3357   0.2084   0.0858   0.0566
     0.0346   0.0188   0.0052   0.0036   0.0006   0.0004   0.0001   0.0001
     0.0000   0.0000   0.0000   0.0000   0.0000   0.0000   0.0000   0.0000
     0.0000   0.0000   0.0000   0.0000   0.0000   0.0000   0.0000   0.0000
     0.0000   0.0000   0.0000   0.0000   0.0000   0.0000   0.0000

          k = 0.0000-0.5000 0.0000 ( 65180 PWs)   bands (ev):

   -92.3530 -92.2986 -92.2068 -92.1590 -92.1004 -92.0594 -92.0418 -91.9186
   -55.7061 -55.6851 -55.5647 -55.5540 -55.5467 -55.5408 -55.5029 -55.4764
   -55.4599 -55.4585 -55.4502 -55.4080 -55.3904 -55.3519 -55.3327 -55.3004
   -55.2943 -55.2481 -55.2461 -55.2451 -55.2366 -55.1929 -55.1726 -55.0854
   -30.9393 -30.9206 -30.8109 -30.7800 -30.6931 -30.6453 -30.5049 -30.4863
   -29.5021 -29.4605 -29.4354 -29.3263 -22.2603 -14.6682 -14.6201 -14.5664
   -14.4430 -14.3520 -14.2196 -14.0641 -13.9515 -13.8142 -13.7967 -13.7446
   -13.7030 -13.6948 -13.6495 -13.6304 -13.5788 -13.5650 -13.5369 -13.5058
   -13.4825 -13.4251 -13.2407 -13.1837 -13.1681 -13.1146 -13.0664 -13.0183
   -12.9929 -12.9531 -12.9465 -12.8814 -12.7911 -12.7702 -12.7490 -12.6453
   -12.6305 -12.6197 -12.5919 -12.5827 -12.5537 -12.5411 -12.4430 -12.3971
   -12.3674 -12.3533 -12.3459 -12.3138 -12.1772 -12.1599 -12.0108 -11.9865
   -11.8746 -11.8281 -11.4368 -11.4345 -11.4070 -11.3690 -11.3350 -11.3239
   -11.2824 -11.2782 -11.2344 -11.1707 -11.1572 -11.1431  -6.0096  -3.1599
    -3.1586  -2.2478  -2.1888  -2.0371  -1.9647  -1.6845  -1.6014  -1.4721
    -1.3349  -1.2984  -1.2786  -1.2003  -1.1697  -1.0862  -1.0519  -0.9751
    -0.9346  -0.8956  -0.8689  -0.8133  -0.7736  -0.7294  -0.6926  -0.6576
    -0.6258  -0.5135  -0.4692  -0.4362  -0.4335  -0.3484  -0.3173  -0.2941
    -0.2472  -0.1619  -0.0912  -0.0085   0.0181   0.1269   0.1631   0.3139
     0.3398   0.3785   0.4177   0.5380   0.6038   0.7362   0.8028   0.8103
     0.9383   0.9798   1.0683   1.2176   1.3213   1.3533   1.3922   1.3974
     1.4299   1.4539   1.4906   1.5054   1.5223   1.6269   1.6862   1.7129
     1.7361   2.0020   2.0339   2.0540   2.1415   2.1641   2.2057   2.2188
     2.2524   2.2638   2.2686   2.2996   2.3434   2.3683   2.3920   2.4104
     2.4384   2.4922   2.5743   2.6053   2.7783   2.9469   2.9550   2.9688
     3.0008   3.0175   3.0221   3.0255   3.0407   3.0787   3.0912   3.1449
     3.1651   3.2390   3.2538   3.3235   3.3290   3.3560   3.3561   3.3755
     3.3780   3.3821   3.3880   3.3909   3.4037   3.4235   3.4247   3.4901
     3.4943   3.5106   3.5660   4.4574   4.4729   4.5218   4.5748   4.9845
     5.0827   5.2264   5.3208   5.5148   5.6524   5.8195   5.8943   6.0254
     6.2193   6.3608   6.3828   6.5110   7.0148   7.0853   7.1086   7.4282
     7.5034   7.6898   7.7629   8.0099   8.0568   8.1863   8.2316   8.4194
     8.4779   8.6329   8.6819   8.7167   8.7893   8.8530   8.9473

     occupation numbers 
     1.0000   1.0000   1.0000   1.0000   1.0000   1.0000   1.0000   1.0000
     1.0000   1.0000   1.0000   1.0000   1.0000   1.0000   1.0000   1.0000
     1.0000   1.0000   1.0000   1.0000   1.0000   1.0000   1.0000   1.0000
     1.0000   1.0000   1.0000   1.0000   1.0000   1.0000   1.0000   1.0000
     1.0000   1.0000   1.0000   1.0000   1.0000   1.0000   1.0000   1.0000
     1.0000   1.0000   1.0000   1.0000   1.0000   1.0000   1.0000   1.0000
     1.0000   1.0000   1.0000   1.0000   1.0000   1.0000   1.0000   1.0000
     1.0000   1.0000   1.0000   1.0000   1.0000   1.0000   1.0000   1.0000
     1.0000   1.0000   1.0000   1.0000   1.0000   1.0000   1.0000   1.0000
     1.0000   1.0000   1.0000   1.0000   1.0000   1.0000   1.0000   1.0000
     1.0000   1.0000   1.0000   1.0000   1.0000   1.0000   1.0000   1.0000
     1.0000   1.0000   1.0000   1.0000   1.0000   1.0000   1.0000   1.0000
     1.0000   1.0000   1.0000   1.0000   1.0000   1.0000   1.0000   1.0000
     1.0000   1.0000   1.0000   1.0000   1.0000   1.0000   1.0000   1.0000
     1.0000   1.0000   1.0000   1.0000   1.0000   1.0000   1.0000   1.0000
     1.0000   1.0000   1.0000   1.0000   1.0000   1.0000   1.0000   1.0000
     1.0000   1.0000   1.0000   1.0000   1.0000   1.0000   1.0000   1.0000
     1.0000   1.0000   1.0000   1.0000   1.0000   1.0000   1.0000   1.0000
     1.0000   1.0000   1.0000   1.0000   1.0000   1.0000   1.0000   1.0000
     1.0000   1.0000   1.0000   1.0000   1.0000   1.0000   1.0000   1.0000
     1.0000   1.0000   0.9999   0.9999   0.9998   0.9997   0.9996   0.9996
     0.9996   0.9995   0.9994   0.9994   0.9993   0.9988   0.9984   0.9982
     0.9980   0.9935   0.9925   0.9919   0.9885   0.9875   0.9854   0.9846
     0.9826   0.9818   0.9815   0.9793   0.9759   0.9737   0.9715   0.9696
     0.9667   0.9603   0.9487   0.9436   0.9081   0.8597   0.8570   0.8523
     0.8411   0.8350   0.8333   0.8320   0.8263   0.8114   0.8064   0.7838
     0.7749   0.7406   0.7334   0.6983   0.6955   0.6813   0.6813   0.6709
     0.6696   0.6674   0.6642   0.6626   0.6556   0.6447   0.6441   0.6073
     0.6049   0.5955   0.5634   0.1222   0.1176   0.1039   0.0904   0.0258
     0.0182   0.0106   0.0072   0.0031   0.0016   0.0007   0.0005   0.0002
     0.0001   0.0000   0.0000   0.0000   0.0000   0.0000   0.0000   0.0000
     0.0000   0.0000   0.0000   0.0000   0.0000   0.0000   0.0000   0.0000
     0.0000   0.0000   0.0000   0.0000   0.0000   0.0000   0.0000

          k = 0.2500 0.2500 0.0000 ( 65198 PWs)   bands (ev):

   -92.3530 -92.2986 -92.2068 -92.1590 -92.1004 -92.0594 -92.0418 -91.9186
   -55.7061 -55.6851 -55.5647 -55.5540 -55.5467 -55.5408 -55.5029 -55.4764
   -55.4599 -55.4585 -55.4502 -55.4080 -55.3904 -55.3519 -55.3327 -55.3004
   -55.2943 -55.2481 -55.2461 -55.2451 -55.2366 -55.1929 -55.1726 -55.0854
   -30.9378 -30.9225 -30.8108 -30.7794 -30.6933 -30.6457 -30.5028 -30.4880
   -29.5017 -29.4618 -29.4343 -29.3263 -22.2603 -14.6727 -14.6394 -14.5616
   -14.4452 -14.3298 -14.2062 -14.1279 -13.9267 -13.7951 -13.7669 -13.7566
   -13.7189 -13.6921 -13.6656 -13.6450 -13.6161 -13.5794 -13.4990 -13.4833
   -13.3229 -13.3085 -13.2783 -13.2601 -13.2199 -13.1694 -13.1082 -13.0872
   -12.9934 -12.9525 -12.8922 -12.8069 -12.7690 -12.7474 -12.7066 -12.6828
   -12.6365 -12.6102 -12.6059 -12.5790 -12.5601 -12.5235 -12.4571 -12.4257
   -12.4050 -12.4026 -12.3771 -12.3664 -12.1905 -12.1147 -12.1061 -11.9404
   -11.8137 -11.7584 -11.4552 -11.4236 -11.4125 -11.4049 -11.3435 -11.3079
   -11.3017 -11.2662 -11.2578 -11.1662 -11.1251 -11.1075  -6.0096  -3.1599
    -3.1586  -2.3245  -2.1145  -1.9972  -1.9035  -1.7815  -1.7162  -1.5206
    -1.3737  -1.3537  -1.3262  -1.2311  -1.1976  -1.1039  -1.0773  -1.0266
    -0.8947  -0.8474  -0.7748  -0.7294  -0.6857  -0.6610  -0.6361  -0.5934
    -0.5785  -0.4886  -0.4385  -0.3750  -0.3268  -0.2966  -0.2436  -0.2331
    -0.1704  -0.1195  -0.0656  -0.0302   0.0531   0.1086   0.1352   0.1777
     0.2311   0.3043   0.3397   0.3628   0.4342   0.4686   0.7496   0.8966
     0.9341   0.9855   1.0303   1.0760   1.1329   1.2021   1.2355   1.5093
     1.5812   1.6550   1.6824   1.7254   1.7601   1.7957   1.8331   1.8503
     1.8793   1.9197   1.9287   1.9461   1.9854   2.0246   2.0681   2.1181
     2.1569   2.1672   2.1971   2.2337   2.2846   2.3104   2.4422   2.5134
     2.5523   2.5794   2.6356   2.7065   2.7375   2.7754   2.7997   2.8092
     2.9202   2.9580   3.0254   3.0305   3.0486   3.2212   3.2387   3.2451
     3.2609   3.2750   3.2883   3.3004   3.3080   3.3182   3.3315   3.3429
     3.3627   3.3693   3.3802   3.4004   3.4147   3.4247   3.4553   3.7570
     3.8483   3.8857   3.9556   3.9661   4.1914   4.2987   4.6302   4.7913
     4.9652   5.1224   5.3177   5.5398   5.9072   5.9795   6.0062   6.1205
     6.1867   6.2309   6.3480   6.4064   6.9518   6.9974   7.1084   7.2545
     7.6999   7.8108   7.8519   7.9378   8.0154   8.1341   8.2675   8.3059
     8.4330   8.4751   8.5695   8.7053   8.7195   8.7453   8.8333

     occupation numbers 
     1.0000   1.0000   1.0000   1.0000   1.0000   1.0000   1.0000   1.0000
     1.0000   1.0000   1.0000   1.0000   1.0000   1.0000   1.0000   1.0000
     1.0000   1.0000   1.0000   1.0000   1.0000   1.0000   1.0000   1.0000
     1.0000   1.0000   1.0000   1.0000   1.0000   1.0000   1.0000   1.0000
     1.0000   1.0000   1.0000   1.0000   1.0000   1.0000   1.0000   1.0000
     1.0000   1.0000   1.0000   1.0000   1.0000   1.0000   1.0000   1.0000
     1.0000   1.0000   1.0000   1.0000   1.0000   1.0000   1.0000   1.0000
     1.0000   1.0000   1.0000   1.0000   1.0000   1.0000   1.0000   1.0000
     1.0000   1.0000   1.0000   1.0000   1.0000   1.0000   1.0000   1.0000
     1.0000   1.0000   1.0000   1.0000   1.0000   1.0000   1.0000   1.0000
     1.0000   1.0000   1.0000   1.0000   1.0000   1.0000   1.0000   1.0000
     1.0000   1.0000   1.0000   1.0000   1.0000   1.0000   1.0000   1.0000
     1.0000   1.0000   1.0000   1.0000   1.0000   1.0000   1.0000   1.0000
     1.0000   1.0000   1.0000   1.0000   1.0000   1.0000   1.0000   1.0000
     1.0000   1.0000   1.0000   1.0000   1.0000   1.0000   1.0000   1.0000
     1.0000   1.0000   1.0000   1.0000   1.0000   1.0000   1.0000   1.0000
     1.0000   1.0000   1.0000   1.0000   1.0000   1.0000   1.0000   1.0000
     1.0000   1.0000   1.0000   1.0000   1.0000   1.0000   1.0000   1.0000
     1.0000   1.0000   1.0000   1.0000   1.0000   1.0000   1.0000   1.0000
     1.0000   1.0000   1.0000   1.0000   1.0000   1.0000   1.0000   1.0000
     1.0000   1.0000   1.0000   0.9999   0.9999   0.9999   0.9999   0.9993
     0.9991   0.9986   0.9984   0.9981   0.9978   0.9974   0.9969   0.9966
     0.9961   0.9954   0.9952   0.9948   0.9939   0.9928   0.9914   0.9895
     0.9878   0.9873   0.9858   0.9837   0.9804   0.9785   0.9663   0.9575
     0.9520   0.9479   0.9384   0.9245   0.9177   0.9088   0.9028   0.9003
     0.8683   0.8560   0.8321   0.8302   0.8233   0.7491   0.7407   0.7376
     0.7299   0.7230   0.7163   0.7102   0.7063   0.7011   0.6942   0.6883
     0.6778   0.6743   0.6684   0.6574   0.6496   0.6441   0.6270   0.4506
     0.3976   0.3763   0.3377   0.3319   0.2209   0.1766   0.0777   0.0485
     0.0276   0.0157   0.0073   0.0028   0.0005   0.0003   0.0003   0.0001
     0.0001   0.0001   0.0000   0.0000   0.0000   0.0000   0.0000   0.0000
     0.0000   0.0000   0.0000   0.0000   0.0000   0.0000   0.0000   0.0000
     0.0000   0.0000   0.0000   0.0000   0.0000   0.0000   0.0000

          k = 0.2500-0.5000 0.0000 ( 65138 PWs)   bands (ev):

   -92.3530 -92.2986 -92.2068 -92.1590 -92.1004 -92.0594 -92.0418 -91.9186
   -55.7061 -55.6851 -55.5647 -55.5540 -55.5467 -55.5408 -55.5029 -55.4764
   -55.4599 -55.4585 -55.4502 -55.4080 -55.3904 -55.3519 -55.3327 -55.3004
   -55.2943 -55.2481 -55.2461 -55.2451 -55.2366 -55.1929 -55.1726 -55.0854
   -30.9376 -30.9224 -30.8107 -30.7796 -30.6935 -30.6455 -30.5030 -30.4882
   -29.5011 -29.4615 -29.4350 -29.3267 -22.2603 -14.6380 -14.5932 -14.5238
   -14.4127 -14.3754 -14.2589 -14.1671 -14.0452 -13.7946 -13.7301 -13.6810
   -13.6540 -13.6312 -13.6173 -13.6012 -13.5634 -13.5526 -13.5202 -13.4803
   -13.4662 -13.4155 -13.3244 -13.2767 -13.2350 -13.1972 -13.1332 -13.1195
   -13.0391 -13.0112 -12.8692 -12.8051 -12.7893 -12.7357 -12.6937 -12.6530
   -12.6364 -12.6067 -12.5960 -12.5849 -12.5717 -12.5342 -12.4523 -12.4223
   -12.3910 -12.3661 -12.3177 -12.2860 -12.1838 -12.1190 -11.9842 -11.9672
   -11.8689 -11.8375 -11.4306 -11.4187 -11.4077 -11.3801 -11.3493 -11.3203
   -11.2801 -11.2521 -11.2303 -11.1839 -11.1581 -11.1473  -6.0096  -3.1599
    -3.1587  -2.1063  -2.0409  -1.9111  -1.8336  -1.7052  -1.6216  -1.4968
    -1.3465  -1.2931  -1.2711  -1.2086  -1.1949  -1.0967  -1.0314  -0.9456
    -0.8972  -0.8883  -0.8237  -0.7831  -0.7472  -0.6996  -0.6632  -0.6278
    -0.5874  -0.5747  -0.5314  -0.5032  -0.4613  -0.4308  -0.3636  -0.2629
    -0.2246  -0.1463  -0.0815  -0.0333   0.0098   0.0310   0.0848   0.2456
     0.2527   0.3527   0.3910   0.4023   0.4468   0.4789   0.5154   0.5478
     0.6189   0.8871   0.9748   1.0350   1.0981   1.3712   1.3917   1.4812
     1.5106   1.6786   1.7091   1.7530   1.7793   1.7938   1.8143   1.8747
     1.9199   1.9564   2.0292   2.1230   2.1604   2.1800   2.1922   2.2285
     2.2450   2.2471   2.2912   2.3058   2.3239   2.3477   2.3740   2.4025
     2.4305   2.4910   2.5299   2.6077   2.7467   2.8994   2.9152   2.9328
     2.9590   2.9858   3.0044   3.0271   3.0305   3.0401   3.0522   3.0765
     3.1706   3.2186   3.2404   3.2417   3.2578   3.2786   3.2924   3.3113
     3.3180   3.3502   3.3611   3.3775   3.3849   3.3934   3.4051   3.9152
     3.9332   4.0883   4.1401   4.4669   4.5176   4.5281   4.6441   5.0414
     5.1091   5.2686   5.3564   5.4869   5.6200   5.7195   5.8582   5.9386
     6.0636   6.1070   6.3111   6.5337   6.5643   6.6787   7.1345   7.2696
     7.6062   7.7331   7.9554   8.0654   8.1648   8.2028   8.3235   8.4632
     8.5406   8.6034   8.7041   8.8016   8.8628   8.9279   8.9522

     occupation numbers 
     1.0000   1.0000   1.0000   1.0000   1.0000   1.0000   1.0000   1.0000
     1.0000   1.0000   1.0000   1.0000   1.0000   1.0000   1.0000   1.0000
     1.0000   1.0000   1.0000   1.0000   1.0000   1.0000   1.0000   1.0000
     1.0000   1.0000   1.0000   1.0000   1.0000   1.0000   1.0000   1.0000
     1.0000   1.0000   1.0000   1.0000   1.0000   1.0000   1.0000   1.0000
     1.0000   1.0000   1.0000   1.0000   1.0000   1.0000   1.0000   1.0000
     1.0000   1.0000   1.0000   1.0000   1.0000   1.0000   1.0000   1.0000
     1.0000   1.0000   1.0000   1.0000   1.0000   1.0000   1.0000   1.0000
     1.0000   1.0000   1.0000   1.0000   1.0000   1.0000   1.0000   1.0000
     1.0000   1.0000   1.0000   1.0000   1.0000   1.0000   1.0000   1.0000
     1.0000   1.0000   1.0000   1.0000   1.0000   1.0000   1.0000   1.0000
     1.0000   1.0000   1.0000   1.0000   1.0000   1.0000   1.0000   1.0000
     1.0000   1.0000   1.0000   1.0000   1.0000   1.0000   1.0000   1.0000
     1.0000   1.0000   1.0000   1.0000   1.0000   1.0000   1.0000   1.0000
     1.0000   1.0000   1.0000   1.0000   1.0000   1.0000   1.0000   1.0000
     1.0000   1.0000   1.0000   1.0000   1.0000   1.0000   1.0000   1.0000
     1.0000   1.0000   1.0000   1.0000   1.0000   1.0000   1.0000   1.0000
     1.0000   1.0000   1.0000   1.0000   1.0000   1.0000   1.0000   1.0000
     1.0000   1.0000   1.0000   1.0000   1.0000   1.0000   1.0000   1.0000
     1.0000   1.0000   1.0000   1.0000   1.0000   1.0000   1.0000   1.0000
     1.0000   1.0000   1.0000   1.0000   0.9999   0.9997   0.9996   0.9994
     0.9993   0.9985   0.9982   0.9978   0.9975   0.9974   0.9971   0.9962
     0.9954   0.9946   0.9927   0.9893   0.9877   0.9867   0.9861   0.9840
     0.9830   0.9829   0.9799   0.9789   0.9775   0.9755   0.9732   0.9704
     0.9675   0.9604   0.9553   0.9432   0.9156   0.8748   0.8699   0.8643
     0.8556   0.8464   0.8398   0.8314   0.8302   0.8265   0.8219   0.8123
     0.7724   0.7503   0.7399   0.7393   0.7315   0.7212   0.7143   0.7047
     0.7012   0.6844   0.6786   0.6699   0.6658   0.6613   0.6549   0.3598
     0.3499   0.2690   0.2442   0.1194   0.1050   0.1022   0.0747   0.0211
     0.0165   0.0089   0.0062   0.0035   0.0019   0.0012   0.0006   0.0004
     0.0002   0.0002   0.0000   0.0000   0.0000   0.0000   0.0000   0.0000
     0.0000   0.0000   0.0000   0.0000   0.0000   0.0000   0.0000   0.0000
     0.0000   0.0000   0.0000   0.0000   0.0000   0.0000   0.0000

          k =-0.5000-0.5000 0.0000 ( 65132 PWs)   bands (ev):

   -92.3530 -92.2986 -92.2068 -92.1590 -92.1004 -92.0594 -92.0418 -91.9186
   -55.7061 -55.6851 -55.5647 -55.5540 -55.5467 -55.5408 -55.5029 -55.4764
   -55.4599 -55.4585 -55.4502 -55.4080 -55.3904 -55.3519 -55.3327 -55.3004
   -55.2943 -55.2481 -55.2461 -55.2451 -55.2366 -55.1929 -55.1726 -55.0854
   -30.9353 -30.9247 -30.8106 -30.7792 -30.6939 -30.6457 -30.5005 -30.4907
   -29.5000 -29.4626 -29.4346 -29.3271 -22.2603 -14.5926 -14.5654 -14.4490
   -14.4366 -14.3398 -14.3059 -14.2726 -14.1424 -13.7938 -13.6423 -13.6336
   -13.5978 -13.5786 -13.5602 -13.5479 -13.5180 -13.5094 -13.4897 -13.4870
   -13.4724 -13.3920 -13.3874 -13.3532 -13.3339 -13.3243 -13.2234 -13.1981
   -13.0814 -13.0593 -12.8215 -12.7854 -12.7114 -12.6998 -12.6865 -12.6515
   -12.6472 -12.6372 -12.6176 -12.5850 -12.5342 -12.5235 -12.4632 -12.4529
   -12.4281 -12.3830 -12.2672 -12.2598 -12.2001 -12.0858 -11.9807 -11.9174
   -11.8726 -11.8481 -11.4272 -11.4145 -11.3968 -11.3802 -11.3454 -11.3288
   -11.2924 -11.2325 -11.2122 -11.2064 -11.1559 -11.1531  -6.0096  -3.1600
    -3.1587  -1.8826  -1.8068  -1.7970  -1.7250  -1.6857  -1.6070  -1.5391
    -1.4138  -1.2965  -1.2671  -1.2279  -1.1701  -1.0984  -1.0831  -1.0130
    -0.9703  -0.8542  -0.8273  -0.7775  -0.7465  -0.6824  -0.6386  -0.6190
    -0.6085  -0.5549  -0.5076  -0.4946  -0.3805  -0.3246  -0.2774  -0.2276
    -0.2031  -0.1913  -0.1544  -0.1144  -0.0808  -0.0650   0.0191   0.0875
     0.1344   0.1565   0.2318   0.2867   0.2945   0.3548   0.3727   0.3907
     0.3959   0.8537   0.8968   0.9845   1.0009   1.4004   1.4154   1.4489
     1.4832   1.7608   1.7801   1.7867   1.8231   1.9602   2.0538   2.0815
     2.1170   2.1364   2.1562   2.1671   2.1989   2.2069   2.2230   2.2268
     2.2851   2.2923   2.3182   2.3275   2.3492   2.3599   2.4022   2.4278
     2.4392   2.4767   2.4988   2.5745   2.6404   2.9113   2.9438   2.9628
     2.9835   2.9882   3.0106   3.0193   3.0273   3.0397   3.0524   3.0589
     3.0739   3.0949   3.1073   3.1717   3.1755   3.1973   3.2096   3.2223
     3.2409   3.2457   3.2557   3.3566   3.3624   3.3890   3.3992   4.3333
     4.3637   4.3913   4.4158   4.6648   4.7344   4.7649   5.0053   5.1220
     5.1502   5.2102   5.3288   5.3896   5.4360   5.5504   5.5900   5.7292
     5.9875   6.0316   6.0977   6.2508   6.5881   6.7047   6.7797   7.3280
     7.5203   7.5901   7.6834   8.2701   8.2893   8.3652   8.5098   8.5778
     8.7200   8.7488   8.8783   8.9033   8.9251   8.9521   8.9642

     occupation numbers 
     1.0000   1.0000   1.0000   1.0000   1.0000   1.0000   1.0000   1.0000
     1.0000   1.0000   1.0000   1.0000   1.0000   1.0000   1.0000   1.0000
     1.0000   1.0000   1.0000   1.0000   1.0000   1.0000   1.0000   1.0000
     1.0000   1.0000   1.0000   1.0000   1.0000   1.0000   1.0000   1.0000
     1.0000   1.0000   1.0000   1.0000   1.0000   1.0000   1.0000   1.0000
     1.0000   1.0000   1.0000   1.0000   1.0000   1.0000   1.0000   1.0000
     1.0000   1.0000   1.0000   1.0000   1.0000   1.0000   1.0000   1.0000
     1.0000   1.0000   1.0000   1.0000   1.0000   1.0000   1.0000   1.0000
     1.0000   1.0000   1.0000   1.0000   1.0000   1.0000   1.0000   1.0000
     1.0000   1.0000   1.0000   1.0000   1.0000   1.0000   1.0000   1.0000
     1.0000   1.0000   1.0000   1.0000   1.0000   1.0000   1.0000   1.0000
     1.0000   1.0000   1.0000   1.0000   1.0000   1.0000   1.0000   1.0000
     1.0000   1.0000   1.0000   1.0000   1.0000   1.0000   1.0000   1.0000
     1.0000   1.0000   1.0000   1.0000   1.0000   1.0000   1.0000   1.0000
     1.0000   1.0000   1.0000   1.0000   1.0000   1.0000   1.0000   1.0000
     1.0000   1.0000   1.0000   1.0000   1.0000   1.0000   1.0000   1.0000
     1.0000   1.0000   1.0000   1.0000   1.0000   1.0000   1.0000   1.0000
     1.0000   1.0000   1.0000   1.0000   1.0000   1.0000   1.0000   1.0000
     1.0000   1.0000   1.0000   1.0000   1.0000   1.0000   1.0000   1.0000
     1.0000   1.0000   1.0000   1.0000   1.0000   1.0000   1.0000   1.0000
     1.0000   1.0000   1.0000   1.0000   1.0000   0.9996   0.9996   0.9995
     0.9994   0.9977   0.9975   0.9975   0.9970   0.9945   0.9919   0.9910
     0.9896   0.9888   0.9879   0.9874   0.9857   0.9853   0.9844   0.9842
     0.9804   0.9799   0.9779   0.9772   0.9754   0.9744   0.9705   0.9678
     0.9666   0.9622   0.9594   0.9486   0.9375   0.8711   0.8607   0.8544
     0.8472   0.8456   0.8375   0.8343   0.8313   0.8267   0.8218   0.8193
     0.8133   0.8049   0.7997   0.7719   0.7702   0.7603   0.7545   0.7486
     0.7397   0.7373   0.7325   0.6810   0.6779   0.6636   0.6581   0.1636
     0.1527   0.1432   0.1352   0.0705   0.0576   0.0526   0.0240   0.0157
     0.0142   0.0112   0.0070   0.0054   0.0044   0.0027   0.0022   0.0011
     0.0003   0.0002   0.0002   0.0001   0.0000   0.0000   0.0000   0.0000
     0.0000   0.0000   0.0000   0.0000   0.0000   0.0000   0.0000   0.0000
[...]
     0.0000   0.0000   0.0000   0.0000   0.0000   0.0000   0.0000   0.0000
     0.0000   0.0000   0.0000   0.0000   0.0000   0.0000   0.0000

          k =-0.5000 0.0000 0.0000 ( 65180 PWs)   bands (ev):

   -92.3530 -92.2986 -92.2068 -92.1590 -92.1004 -92.0594 -92.0418 -91.9186
   -55.7061 -55.6851 -55.5647 -55.5540 -55.5467 -55.5408 -55.5029 -55.4764
   -55.4599 -55.4585 -55.4502 -55.4080 -55.3904 -55.3519 -55.3327 -55.3004
   -55.2943 -55.2481 -55.2461 -55.2451 -55.2366 -55.1929 -55.1726 -55.0854
   -30.9356 -30.9250 -30.8107 -30.7788 -30.6936 -30.6461 -30.5000 -30.4905
   -29.5012 -29.4632 -29.4333 -29.3264 -22.2603 -14.6724 -14.6241 -14.5613
   -14.4510 -14.3473 -14.2026 -14.0660 -13.9151 -13.7983 -13.7896 -13.7818
   -13.7646 -13.7159 -13.6532 -13.6199 -13.5749 -13.5640 -13.5450 -13.4976
   -13.4785 -13.3868 -13.2127 -13.1941 -13.1536 -13.1445 -13.0918 -13.0240
   -13.0053 -12.9313 -12.9083 -12.9074 -12.7668 -12.7164 -12.7037 -12.6809
   -12.6746 -12.6632 -12.6071 -12.5851 -12.5222 -12.5127 -12.4502 -12.4317
   -12.4299 -12.3712 -12.3021 -12.2931 -12.2033 -12.1191 -11.9906 -11.9635
   -11.8859 -11.8529 -11.4336 -11.4128 -11.4056 -11.3918 -11.3739 -11.3326
   -11.2685 -11.2506 -11.2179 -11.1740 -11.1647 -11.1486  -6.0096  -3.1599
    -3.1585  -2.2379  -2.1990  -2.0346  -1.9953  -1.6834  -1.6087  -1.4598
    -1.3409  -1.3027  -1.2572  -1.2090  -1.1828  -1.0608  -1.0157  -1.0021
    -0.9192  -0.8829  -0.8704  -0.8359  -0.7795  -0.7107  -0.6811  -0.6527
    -0.5576  -0.5103  -0.4626  -0.4297  -0.4080  -0.3789  -0.3301  -0.3053
    -0.2671  -0.1729  -0.1009  -0.0378   0.0251   0.1874   0.2204   0.2870
     0.3132   0.3777   0.3945   0.5303   0.5622   0.5979   0.7846   0.8829
     0.9311   0.9980   1.0683   1.1975   1.2122   1.3438   1.3724   1.4251
     1.4480   1.4876   1.5040   1.5498   1.5730   1.6382   1.6847   1.7310
     1.7411   2.0331   2.0464   2.0613   2.0793   2.1968   2.2044   2.2164
     2.2287   2.2589   2.2698   2.3064   2.3371   2.3569   2.4216   2.4267
     2.4858   2.4988   2.5621   2.6608   2.7691   2.8452   2.8599   2.9433
     2.9724   2.9939   3.0246   3.0302   3.0666   3.0753   3.0844   3.1127
     3.1802   3.2254   3.2704   3.2997   3.3441   3.3497   3.3499   3.3626
     3.3757   3.3882   3.4029   3.4060   3.4280   3.4325   3.4553   3.4753
     3.4801   3.6079   3.6128   4.3954   4.4544   4.5244   4.6385   4.9686
     5.1374   5.1974   5.3397   5.4637   5.6477   5.8592   5.9148   5.9897
     6.2191   6.3677   6.3823   6.4585   6.9643   7.0806   7.2011   7.4321
     7.5346   7.6143   7.7907   8.0755   8.0986   8.1771   8.2290   8.4038
     8.4641   8.5743   8.6329   8.7464   8.7731   8.8571   8.9458

     occupation numbers 
     1.0000   1.0000   1.0000   1.0000   1.0000   1.0000   1.0000   1.0000
     1.0000   1.0000   1.0000   1.0000   1.0000   1.0000   1.0000   1.0000
     1.0000   1.0000   1.0000   1.0000   1.0000   1.0000   1.0000   1.0000
     1.0000   1.0000   1.0000   1.0000   1.0000   1.0000   1.0000   1.0000
     1.0000   1.0000   1.0000   1.0000   1.0000   1.0000   1.0000   1.0000
     1.0000   1.0000   1.0000   1.0000   1.0000   1.0000   1.0000   1.0000
     1.0000   1.0000   1.0000   1.0000   1.0000   1.0000   1.0000   1.0000
     1.0000   1.0000   1.0000   1.0000   1.0000   1.0000   1.0000   1.0000
     1.0000   1.0000   1.0000   1.0000   1.0000   1.0000   1.0000   1.0000
     1.0000   1.0000   1.0000   1.0000   1.0000   1.0000   1.0000   1.0000
     1.0000   1.0000   1.0000   1.0000   1.0000   1.0000   1.0000   1.0000
     1.0000   1.0000   1.0000   1.0000   1.0000   1.0000   1.0000   1.0000
     1.0000   1.0000   1.0000   1.0000   1.0000   1.0000   1.0000   1.0000
     1.0000   1.0000   1.0000   1.0000   1.0000   1.0000   1.0000   1.0000
     1.0000   1.0000   1.0000   1.0000   1.0000   1.0000   1.0000   1.0000
     1.0000   1.0000   1.0000   1.0000   1.0000   1.0000   1.0000   1.0000
     1.0000   1.0000   1.0000   1.0000   1.0000   1.0000   1.0000   1.0000
     1.0000   1.0000   1.0000   1.0000   1.0000   1.0000   1.0000   1.0000
     1.0000   1.0000   1.0000   1.0000   1.0000   1.0000   1.0000   1.0000
     1.0000   1.0000   1.0000   1.0000   1.0000   1.0000   1.0000   1.0000
     1.0000   1.0000   0.9999   0.9999   0.9999   0.9997   0.9997   0.9996
     0.9995   0.9994   0.9994   0.9992   0.9991   0.9987   0.9984   0.9980
     0.9979   0.9926   0.9922   0.9917   0.9910   0.9858   0.9854   0.9848
     0.9840   0.9822   0.9814   0.9788   0.9764   0.9747   0.9685   0.9679
     0.9611   0.9594   0.9506   0.9337   0.9104   0.8906   0.8865   0.8609
     0.8511   0.8435   0.8324   0.8303   0.8163   0.8128   0.8091   0.7975
     0.7681   0.7471   0.7253   0.7106   0.6876   0.6846   0.6845   0.6778
     0.6708   0.6640   0.6560   0.6544   0.6423   0.6398   0.6270   0.6157
     0.6130   0.5388   0.5359   0.1418   0.1231   0.1032   0.0759   0.0272
     0.0149   0.0118   0.0067   0.0039   0.0017   0.0006   0.0004   0.0003
     0.0001   0.0000   0.0000   0.0000   0.0000   0.0000   0.0000   0.0000
     0.0000   0.0000   0.0000   0.0000   0.0000   0.0000   0.0000   0.0000
     0.0000   0.0000   0.0000   0.0000   0.0000   0.0000   0.0000

          k =-0.2500 0.2500 0.0000 ( 65198 PWs)   bands (ev):

   -92.3530 -92.2986 -92.2068 -92.1590 -92.1004 -92.0594 -92.0418 -91.9186
   -55.7061 -55.6851 -55.5647 -55.5540 -55.5467 -55.5408 -55.5029 -55.4764
   -55.4599 -55.4585 -55.4502 -55.4080 -55.3904 -55.3519 -55.3327 -55.3004
   -55.2943 -55.2481 -55.2461 -55.2451 -55.2366 -55.1929 -55.1726 -55.0854
   -30.9378 -30.9225 -30.8108 -30.7794 -30.6933 -30.6457 -30.5028 -30.4880
   -29.5017 -29.4618 -29.4344 -29.3263 -22.2603 -14.6742 -14.6381 -14.5604
   -14.4430 -14.3361 -14.2109 -14.1196 -13.9183 -13.7949 -13.7738 -13.7458
   -13.7346 -13.6858 -13.6621 -13.6419 -13.6315 -13.5831 -13.4951 -13.4841
   -13.3331 -13.3038 -13.2773 -13.2557 -13.2199 -13.1560 -13.1063 -13.0969
   -12.9926 -12.9517 -12.8861 -12.8103 -12.7703 -12.7349 -12.7028 -12.6680
   -12.6474 -12.6145 -12.6040 -12.5900 -12.5654 -12.5292 -12.4537 -12.4344
   -12.4214 -12.4182 -12.3592 -12.3530 -12.2061 -12.1043 -12.0840 -11.9462
   -11.8045 -11.7707 -11.4544 -11.4325 -11.4058 -11.3931 -11.3530 -11.3177
   -11.2952 -11.2727 -11.2505 -11.1659 -11.1205 -11.1108  -6.0096  -3.1598
    -3.1586  -2.3228  -2.1135  -1.9929  -1.9055  -1.7857  -1.7189  -1.5182
    -1.3704  -1.3514  -1.3242  -1.2316  -1.1965  -1.1035  -1.0704  -1.0445
    -0.9003  -0.8450  -0.7784  -0.7494  -0.6890  -0.6662  -0.6259  -0.5971
    -0.5571  -0.4955  -0.4471  -0.3872  -0.3174  -0.2928  -0.2404  -0.2127
    -0.1666  -0.1101  -0.0680  -0.0246   0.0729   0.1084   0.1160   0.1648
     0.2296   0.3035   0.3412   0.3688   0.4380   0.4664   0.7308   0.8974
     0.9428   0.9781   1.0358   1.0734   1.1386   1.2039   1.2358   1.5170
     1.6317   1.6722   1.7038   1.7099   1.7536   1.7714   1.8146   1.8466
     1.8621   1.8879   1.9278   1.9420   1.9862   2.0026   2.0482   2.1339
     2.1434   2.1672   2.1984   2.2328   2.2695   2.3144   2.4317   2.5444
     2.5758   2.6175   2.6395   2.7045   2.7494   2.7776   2.8003   2.8208
     2.9210   2.9567   3.0231   3.0288   3.0515   3.2281   3.2366   3.2505
     3.2603   3.2710   3.2847   3.2906   3.3090   3.3158   3.3327   3.3416
     3.3548   3.3638   3.3708   3.4026   3.4142   3.4239   3.4569   3.7501
     3.8310   3.8891   3.9536   3.9795   4.1760   4.3072   4.6306   4.7895
     4.9643   5.1219   5.3273   5.5383   5.9453   5.9652   5.9856   6.1177
     6.1838   6.2374   6.3496   6.3974   6.9339   7.0198   7.1262   7.2427
     7.7141   7.7678   7.8867   7.9440   7.9738   8.1619   8.2550   8.3447
     8.3914   8.4756   8.5795   8.6927   8.7288   8.7604   8.8269

     occupation numbers 
     1.0000   1.0000   1.0000   1.0000   1.0000   1.0000   1.0000   1.0000
     1.0000   1.0000   1.0000   1.0000   1.0000   1.0000   1.0000   1.0000
     1.0000   1.0000   1.0000   1.0000   1.0000   1.0000   1.0000   1.0000
     1.0000   1.0000   1.0000   1.0000   1.0000   1.0000   1.0000   1.0000
     1.0000   1.0000   1.0000   1.0000   1.0000   1.0000   1.0000   1.0000
     1.0000   1.0000   1.0000   1.0000   1.0000   1.0000   1.0000   1.0000
     1.0000   1.0000   1.0000   1.0000   1.0000   1.0000   1.0000   1.0000
     1.0000   1.0000   1.0000   1.0000   1.0000   1.0000   1.0000   1.0000
     1.0000   1.0000   1.0000   1.0000   1.0000   1.0000   1.0000   1.0000
     1.0000   1.0000   1.0000   1.0000   1.0000   1.0000   1.0000   1.0000
     1.0000   1.0000   1.0000   1.0000   1.0000   1.0000   1.0000   1.0000
     1.0000   1.0000   1.0000   1.0000   1.0000   1.0000   1.0000   1.0000
     1.0000   1.0000   1.0000   1.0000   1.0000   1.0000   1.0000   1.0000
     1.0000   1.0000   1.0000   1.0000   1.0000   1.0000   1.0000   1.0000
     1.0000   1.0000   1.0000   1.0000   1.0000   1.0000   1.0000   1.0000
     1.0000   1.0000   1.0000   1.0000   1.0000   1.0000   1.0000   1.0000
     1.0000   1.0000   1.0000   1.0000   1.0000   1.0000   1.0000   1.0000
     1.0000   1.0000   1.0000   1.0000   1.0000   1.0000   1.0000   1.0000
     1.0000   1.0000   1.0000   1.0000   1.0000   1.0000   1.0000   1.0000
     1.0000   1.0000   1.0000   1.0000   1.0000   1.0000   1.0000   1.0000
     1.0000   1.0000   1.0000   0.9999   0.9999   0.9999   0.9999   0.9993
     0.9988   0.9985   0.9983   0.9982   0.9978   0.9976   0.9971   0.9967
     0.9964   0.9960   0.9952   0.9949   0.9939   0.9934   0.9921   0.9889
     0.9885   0.9873   0.9857   0.9838   0.9815   0.9782   0.9674   0.9532
     0.9484   0.9416   0.9376   0.9249   0.9150   0.9083   0.9026   0.8973
     0.8681   0.8564   0.8329   0.8308   0.8221   0.7458   0.7418   0.7350
     0.7302   0.7250   0.7181   0.7152   0.7058   0.7023   0.6936   0.6889
     0.6820   0.6772   0.6734   0.6563   0.6499   0.6445   0.6261   0.4547
     0.4075   0.3744   0.3387   0.3248   0.2278   0.1733   0.0776   0.0487
     0.0276   0.0157   0.0070   0.0028   0.0004   0.0003   0.0003   0.0001
     0.0001   0.0001   0.0000   0.0000   0.0000   0.0000   0.0000   0.0000
     0.0000   0.0000   0.0000   0.0000   0.0000   0.0000   0.0000   0.0000
     0.0000   0.0000   0.0000   0.0000   0.0000   0.0000   0.0000

          k =-0.5000 0.2500 0.0000 ( 65138 PWs)   bands (ev):

   -92.3530 -92.2986 -92.2068 -92.1590 -92.1004 -92.0594 -92.0418 -91.9186
   -55.7061 -55.6851 -55.5647 -55.5540 -55.5467 -55.5408 -55.5029 -55.4764
   -55.4599 -55.4585 -55.4502 -55.4080 -55.3904 -55.3519 -55.3327 -55.3004
   -55.2943 -55.2481 -55.2461 -55.2451 -55.2366 -55.1929 -55.1726 -55.0854
   -30.9355 -30.9248 -30.8106 -30.7790 -30.6937 -30.6459 -30.5002 -30.4906
   -29.5006 -29.4629 -29.4340 -29.3268 -22.2603 -14.6401 -14.5971 -14.5185
   -14.4181 -14.3747 -14.2497 -14.1680 -14.0344 -13.7941 -13.7244 -13.6959
   -13.6837 -13.6407 -13.6209 -13.5914 -13.5596 -13.5498 -13.5245 -13.4841
   -13.4747 -13.3753 -13.2965 -13.2538 -13.2460 -13.2357 -13.1465 -13.1300
   -13.0438 -12.9841 -12.8635 -12.8271 -12.7432 -12.7172 -12.6886 -12.6777
   -12.6436 -12.6292 -12.6104 -12.6014 -12.5329 -12.5173 -12.4568 -12.4395
   -12.4302 -12.3733 -12.2842 -12.2770 -12.2015 -12.1021 -11.9859 -11.9415
   -11.8777 -11.8512 -11.4266 -11.4142 -11.4002 -11.3880 -11.3675 -11.3374
   -11.2555 -11.2474 -11.2238 -11.1882 -11.1602 -11.1509  -6.0096  -3.1599
    -3.1586  -2.0958  -2.0536  -1.9044  -1.8622  -1.7027  -1.6275  -1.4839
    -1.3471  -1.2916  -1.2640  -1.2251  -1.1853  -1.1053  -0.9903  -0.9338
    -0.9101  -0.8853  -0.8110  -0.7789  -0.7430  -0.7233  -0.6632  -0.6347
    -0.5952  -0.5602  -0.5315  -0.4743  -0.4466  -0.4046  -0.3714  -0.2680
    -0.2411  -0.1557  -0.0929  -0.0628  -0.0061   0.0802   0.1133   0.2154
     0.2503   0.3067   0.3565   0.3783   0.4616   0.4841   0.5158   0.5748
     0.6138   0.9154   0.9794   1.0376   1.0499   1.3524   1.4072   1.4863
     1.5082   1.6899   1.7260   1.7638   1.7776   1.7959   1.8140   1.8819
     1.9258   1.9642   1.9908   2.1114   2.1477   2.1786   2.1896   2.2261
     2.2543   2.2685   2.2813   2.3031   2.3276   2.3694   2.3938   2.4238
     2.4495   2.4749   2.5390   2.6551   2.7617   2.7909   2.8596   2.8993
     2.9583   2.9936   3.0022   3.0254   3.0286   3.0413   3.0742   3.0972
     3.1796   3.2224   3.2361   3.2425   3.2640   3.2861   3.2988   3.3130
     3.3271   3.3463   3.3595   3.3701   3.3777   3.3874   3.3996   3.9212
     3.9649   4.1185   4.1407   4.4050   4.4812   4.5322   4.7311   5.0332
     5.1414   5.2208   5.3428   5.4710   5.6924   5.7672   5.7917   5.9036
     6.0523   6.1108   6.3358   6.5093   6.5803   6.6389   7.1711   7.3401
     7.5358   7.7125   7.9612   8.0562   8.1737   8.2332   8.3144   8.5035
     8.5503   8.6106   8.6928   8.7753   8.8822   8.8889   8.9391

     occupation numbers 
     1.0000   1.0000   1.0000   1.0000   1.0000   1.0000   1.0000   1.0000
     1.0000   1.0000   1.0000   1.0000   1.0000   1.0000   1.0000   1.0000
     1.0000   1.0000   1.0000   1.0000   1.0000   1.0000   1.0000   1.0000
     1.0000   1.0000   1.0000   1.0000   1.0000   1.0000   1.0000   1.0000
     1.0000   1.0000   1.0000   1.0000   1.0000   1.0000   1.0000   1.0000
     1.0000   1.0000   1.0000   1.0000   1.0000   1.0000   1.0000   1.0000
     1.0000   1.0000   1.0000   1.0000   1.0000   1.0000   1.0000   1.0000
     1.0000   1.0000   1.0000   1.0000   1.0000   1.0000   1.0000   1.0000
     1.0000   1.0000   1.0000   1.0000   1.0000   1.0000   1.0000   1.0000
     1.0000   1.0000   1.0000   1.0000   1.0000   1.0000   1.0000   1.0000
     1.0000   1.0000   1.0000   1.0000   1.0000   1.0000   1.0000   1.0000
     1.0000   1.0000   1.0000   1.0000   1.0000   1.0000   1.0000   1.0000
     1.0000   1.0000   1.0000   1.0000   1.0000   1.0000   1.0000   1.0000
     1.0000   1.0000   1.0000   1.0000   1.0000   1.0000   1.0000   1.0000
     1.0000   1.0000   1.0000   1.0000   1.0000   1.0000   1.0000   1.0000
     1.0000   1.0000   1.0000   1.0000   1.0000   1.0000   1.0000   1.0000
     1.0000   1.0000   1.0000   1.0000   1.0000   1.0000   1.0000   1.0000
     1.0000   1.0000   1.0000   1.0000   1.0000   1.0000   1.0000   1.0000
     1.0000   1.0000   1.0000   1.0000   1.0000   1.0000   1.0000   1.0000
     1.0000   1.0000   1.0000   1.0000   1.0000   1.0000   1.0000   1.0000
     1.0000   1.0000   1.0000   1.0000   1.0000   0.9997   0.9996   0.9994
     0.9993   0.9984   0.9981   0.9977   0.9976   0.9973   0.9971   0.9961
     0.9953   0.9944   0.9938   0.9898   0.9883   0.9868   0.9862   0.9842
     0.9825   0.9815   0.9806   0.9791   0.9772   0.9736   0.9713   0.9682
     0.9654   0.9624   0.9540   0.9347   0.9121   0.9050   0.8866   0.8748
     0.8559   0.8437   0.8405   0.8320   0.8309   0.8261   0.8132   0.8039
     0.7683   0.7485   0.7420   0.7389   0.7284   0.7174   0.7110   0.7038
     0.6965   0.6865   0.6795   0.6738   0.6697   0.6645   0.6579   0.3565
     0.3326   0.2544   0.2439   0.1387   0.1152   0.1011   0.0581   0.0217
     0.0146   0.0108   0.0066   0.0038   0.0014   0.0009   0.0008   0.0005
     0.0002   0.0001   0.0000   0.0000   0.0000   0.0000   0.0000   0.0000
     0.0000   0.0000   0.0000   0.0000   0.0000   0.0000   0.0000   0.0000
     0.0000   0.0000   0.0000   0.0000   0.0000   0.0000   0.0000

     the Fermi energy is     3.6735 ev

!    total energy              =   -4482.98001605 Ry
     estimated scf accuracy    <          9.0E-09 Ry
     smearing contrib. (-TS)   =      -1.17192986 Ry
     internal energy E=F+TS    =   -4481.80808620 Ry

     The total energy is F=E-TS. E is the sum of the following terms:
     one-electron contribution =  -20253.27075938 Ry
     hartree contribution      =   10266.09641952 Ry
     xc contribution           =    -701.59154662 Ry
     ewald contribution        =    6492.61016345 Ry
     one-center paw contrib.   =    -285.65236316 Ry
      -> PAW hartree energy AE =      25.16185783 Ry
      -> PAW hartree energy PS =     -25.04579948 Ry
      -> PAW xc energy AE      =     -16.51728548 Ry
      -> PAW xc energy PS      =       6.87675877 Ry
      -> total E_H with PAW    =   10266.21247787 Ry
      -> total E_XC with PAW   =    -711.23207332 Ry

     convergence has been achieved in  48 iterations

     Writing all to output data dir /bsuhome/zayahcortright/scratch/pwscf.save/
 
     init_run     :      8.81s CPU      9.20s WALL (       1 calls)
     electrons    :    747.74s CPU    760.12s WALL (       1 calls)

     Called by init_run:
     wfcinit      :      7.10s CPU      7.22s WALL (       1 calls)
     wfcinit:atom :      0.07s CPU      0.08s WALL (       5 calls)
     wfcinit:wfcr :      6.74s CPU      6.82s WALL (       5 calls)
     potinit      :      0.16s CPU      0.19s WALL (       1 calls)
     hinit0       :      0.68s CPU      0.84s WALL (       1 calls)

     Called by electrons:
     c_bands      :    592.39s CPU    597.45s WALL (      48 calls)
     sum_band     :    115.30s CPU    119.50s WALL (      48 calls)
     v_of_rho     :      5.43s CPU      5.69s WALL (      49 calls)
     v_h          :      0.48s CPU      0.49s WALL (      49 calls)
     v_xc         :      4.95s CPU      5.21s WALL (      49 calls)
     newd         :     20.36s CPU     22.85s WALL (      49 calls)
     PAW_pot      :      1.86s CPU      1.88s WALL (      49 calls)
     mix_rho      :     12.06s CPU     12.29s WALL (      48 calls)

     Called by c_bands:
     init_us_2    :      6.62s CPU      6.67s WALL (     485 calls)
     init_us_2:cp :      6.62s CPU      6.67s WALL (     485 calls)
     cegterg      :    550.24s CPU    555.10s WALL (     240 calls)

     Called by sum_band:
     sum_band:wei :      0.33s CPU      0.34s WALL (      48 calls)
     sum_band:loo :     91.67s CPU     92.38s WALL (      48 calls)
     sum_band:buf :      1.48s CPU      1.50s WALL (     240 calls)
     sum_band:ini :      2.92s CPU      2.93s WALL (     240 calls)
     sum_band:cal :     19.09s CPU     19.15s WALL (     240 calls)
     sum_band:bec :      0.54s CPU      0.55s WALL (     240 calls)
     addusdens    :     17.62s CPU     21.06s WALL (      48 calls)
                                        0.00s GPU  (      48 calls)
     addusd:skk   :      0.35s CPU      0.71s WALL (     192 calls)
                                        0.00s GPU  (     192 calls)

     Called by *egterg:
     cdiaghg      :     59.77s CPU     60.04s WALL (    1337 calls)
     cegterg:over :     41.32s CPU     41.50s WALL (    1097 calls)
     cegterg:upda :     30.30s CPU     30.63s WALL (    1097 calls)
     cegterg:last :     62.07s CPU     62.29s WALL (     445 calls)
     cdiaghg:chol :      3.36s CPU      3.39s WALL (    1337 calls)
     cdiaghg:inve :      3.69s CPU      3.70s WALL (    1337 calls)
     cdiaghg:para :      7.67s CPU      7.71s WALL (    2674 calls)
     h_psi        :    300.02s CPU    302.81s WALL (    1342 calls)
     s_psi        :     40.64s CPU     40.79s WALL (    1342 calls)
     g_psi        :      0.98s CPU      0.99s WALL (    1097 calls)

     Called by h_psi:
     h_psi:calbec :     45.52s CPU     45.69s WALL (    1342 calls)
     vloc_psi     :    211.32s CPU    213.41s WALL (    1342 calls)
     add_vuspsi   :     40.17s CPU     40.31s WALL (    1342 calls)

     General routines
     calbec       :     64.60s CPU     64.84s WALL (    1582 calls)
     fft          :      5.96s CPU      6.05s WALL (     635 calls)
     ffts         :      4.40s CPU      4.43s WALL (    4982 calls)
     fftw         :    180.16s CPU    181.65s WALL (  331366 calls)
     interpolate  :      0.43s CPU      0.44s WALL (      49 calls)
 
     Parallel routines

     PAW routines
     PAW_pot      :      1.86s CPU      1.88s WALL (      49 calls)
 
     PWSCF        :  12m38.65s CPU  12m54.60s WALL

 
   This run was terminated on:  16:11: 6  20Jun2024            

=------------------------------------------------------------------------------=
   JOB DONE.
=------------------------------------------------------------------------------=
