
     Program PWSCF v.7.2 starts on 21Jun2024 at 19:46:29 

     This program is part of the open-source Quantum ESPRESSO suite
     for quantum simulation of materials; please cite
         "P. Giannozzi et al., J. Phys.:Condens. Matter 21 395502 (2009);
         "P. Giannozzi et al., J. Phys.:Condens. Matter 29 465901 (2017);
         "P. Giannozzi et al., J. Chem. Phys. 152 154105 (2020);
          URL http://www.quantum-espresso.org", 
     in publications or presentations arising from this work. More details at
     http://www.quantum-espresso.org/quote

     Parallel version (MPI & OpenMP), running on      48 processor cores
     Number of MPI processes:                48
     Threads/MPI process:                     1

     MPI processes distributed on     1 nodes
     60574 MiB available memory on the printing compute node when the environment starts
 
     Reading input from espresso.pwi
Warning: card &CELL ignored
Warning: card / ignored
Warning: card &FCP ignored
Warning: card / ignored
Warning: card &RISM ignored
Warning: card / ignored

     Current dimensions of program PWSCF are:
     Max number of different atomic species (ntypx) = 10
     Max number of k-points (npk) =  40000
     Max angular momentum in pseudopotentials (lmaxx) =  4
     file O.pbe-n-kjpaw_psl.0.1.UPF: wavefunction(s)  2P renormalized
     signal trapping enabled: kill the code with -SIGUSR1 to stop cleanly the simulation 
 
     K-points division:     npool     =       2
     R & G space division:  proc/nbgrp/npool/nimage =      24
     Subspace diagonalization in iterative solution of the eigenvalue problem:
     one sub-group per band group will be used
     scalapack distributed-memory algorithm (size of sub-group:  3*  3 procs)

 
     Parallelization info
     --------------------
     sticks:   dense  smooth     PW     G-vecs:    dense   smooth      PW
     Min         350     175     47                61430    21716    3036
     Max         351     177     48                61449    21727    3041
     Sum        8421    4205   1137              1474595   521381   72913
 
     Using Slab Decomposition
 


     bravais-lattice index     =            0
     lattice parameter (alat)  =      14.8599  a.u.
     unit-cell volume          =    8305.1283 (a.u.)^3
     number of atoms/cell      =           49
     number of atomic types    =            3
     number of electrons       =       430.00
     number of Kohn-Sham states=          258
     kinetic-energy cutoff     =      60.0000  Ry
     charge density cutoff     =     480.0000  Ry
     scf convergence threshold =      1.0E-08
     mixing beta               =       0.1500
     number of iterations used =            8  local-TF  mixing
     Exchange-correlation= SLA  PW   PBE  PBE
                           (   1   4   3   4   0   0   0)

     celldm(1)=  14.859904  celldm(2)=   0.000000  celldm(3)=   0.000000
     celldm(4)=   0.000000  celldm(5)=   0.000000  celldm(6)=   0.000000

     crystal axes: (cart. coord. in units of alat)
               a(1) = (   1.000000   0.000000   0.000000 )  
               a(2) = (   0.000000   1.000000   0.000000 )  
               a(3) = (   0.000000   0.000000   2.531036 )  

     reciprocal axes: (cart. coord. in units 2 pi/alat)
               b(1) = (  1.000000  0.000000  0.000000 )  
               b(2) = (  0.000000  1.000000  0.000000 )  
               b(3) = (  0.000000  0.000000  0.395095 )  


     PseudoPot. # 1 for Sr read from file:
     /bsuhome/zayahcortright/q-e/pseudo/Sr_pbe_v1.uspp.F.UPF
     MD5 check sum: 6b418c05fbe9db5448babca5e47b7a5b
     Pseudo is Ultrasoft + core correction, Zval = 10.0
     Generated by new atomic code, or converted to UPF format
     Using radial grid of  883 points,  6 beta functions with: 
                l(1) =   0
                l(2) =   0
                l(3) =   1
                l(4) =   1
                l(5) =   2
                l(6) =   2
     Q(r) pseudized with  6 coefficients,  rinner =    1.400   1.400   1.400
                                                       1.400   1.400

     PseudoPot. # 2 for O  read from file:
     /bsuhome/zayahcortright/q-e/pseudo/O.pbe-n-kjpaw_psl.0.1.UPF
     MD5 check sum: 0234752ac141de4415c5fc33072bef88
     Pseudo is Projector augmented-wave + core cor, Zval =  6.0
     Generated using "atomic" code by A. Dal Corso  v.5.0.99 svn rev. 10869
     Shape of augmentation charge: BESSEL
     Using radial grid of 1095 points,  4 beta functions with: 
                l(1) =   0
                l(2) =   0
                l(3) =   1
                l(4) =   1
     Q(r) pseudized with 0 coefficients 


     PseudoPot. # 3 for Co read from file:
     /bsuhome/zayahcortright/q-e/pseudo/Co_pbe_v1.2.uspp.F.UPF
     MD5 check sum: 5f91765df6ddd3222702df6e7b74a16d
     Pseudo is Ultrasoft + core correction, Zval = 17.0
     Generated by new atomic code, or converted to UPF format
     Using radial grid of  863 points,  6 beta functions with: 
                l(1) =   0
                l(2) =   0
                l(3) =   1
                l(4) =   1
                l(5) =   2
                l(6) =   2
     Q(r) pseudized with  8 coefficients,  rinner =    1.200   1.200   1.200
                                                       1.200   1.200

     atomic species   valence    mass     pseudopotential
        Sr            10.00    87.62000     Sr( 1.00)
        O              6.00    15.99900     O ( 1.00)
        Co            17.00    58.93319     Co( 1.00)

     No symmetry found


                                    s                        frac. trans.

      isym =  1     identity                                     

 cryst.   s( 1) = (     1          0          0      )
                  (     0          1          0      )
                  (     0          0          1      )

 cart.    s( 1) = (  1.0000000  0.0000000  0.0000000 )
                  (  0.0000000  1.0000000  0.0000000 )
                  (  0.0000000  0.0000000  1.0000000 )


   Cartesian axes

     site n.     atom                  positions (alat units)
         1           Sr  tau(   1) = (   0.2508693   0.7491307   1.7574407  )
         2           O   tau(   2) = (   0.4985141   0.5014859   1.7715967  )
         3           Sr  tau(   3) = (   0.7482398   0.7454518   1.7648669  )
         4           Sr  tau(   4) = (   0.7441748   0.2558252   1.7667843  )
         5           Sr  tau(   5) = (   0.2508693   0.7491307   1.2696799  )
         6           Sr  tau(   6) = (   0.2508693   0.7491307   0.7632319  )
         7           Co  tau(   7) = (   0.4998914   0.5001086   1.0164559  )
         8           Co  tau(   8) = (   0.4936915   0.5063085   1.5135603  )
         9           O   tau(   9) = (   0.4988895   0.7610401   1.0164559  )
        10           O   tau(  10) = (   0.2389599   0.5011105   1.0164559  )
        11           O   tau(  11) = (   0.0070918   0.7374880   1.0164559  )
        12           O   tau(  12) = (   0.0088340   0.7405089   1.5135603  )
        13           O   tau(  13) = (   0.5066944   0.7415376   1.5135603  )
        14           O   tau(  14) = (   0.2584624   0.4933056   1.5135603  )
        15           O   tau(  15) = (   0.4985141   0.5014859   0.7773880  )
        16           O   tau(  16) = (   0.4985141   0.5014859   1.2555238  )
        17           Sr  tau(  17) = (   0.7482398   0.7454518   0.7706582  )
        18           Sr  tau(  18) = (   0.7482398   0.7454518   1.2622536  )
        19           Sr  tau(  19) = (   0.7441748   0.2558252   0.7725755  )
        20           Sr  tau(  20) = (   0.7441748   0.2558252   1.2603363  )
        21           O   tau(  21) = (   0.7322655   0.0078049   1.5135603  )
        22           O   tau(  22) = (   0.7558175   0.4996027   1.5135603  )
        23           O   tau(  23) = (   0.5003973   0.2441825   1.5135603  )
        24           O   tau(  24) = (   0.7527966   0.4978604   1.0164559  )
        25           O   tau(  25) = (   0.5021396   0.2472034   1.0164559  )
        26           O   tau(  26) = (   0.7517679   0.0000000   1.0164559  )
        27           O   tau(  27) = (   0.0114961   0.4948124   1.7455321  )
        28           O   tau(  28) = (   0.0048226   0.0077944   1.7715967  )
        29           Sr  tau(  29) = (   0.2545482   0.2517602   1.7648669  )
        30           O   tau(  30) = (   0.5048017   0.0015068   1.7786929  )
        31           Co  tau(  31) = (   0.0056869   0.5006215   1.0164559  )
        32           Co  tau(  32) = (   0.0065315   0.4997770   1.5135603  )
        33           Co  tau(  33) = (   0.0061999   0.0064171   1.0164559  )
        34           Co  tau(  34) = (   0.0000000   0.0126169   1.5135603  )
        35           O   tau(  35) = (   0.0114961   0.4948124   1.2815885  )
        36           O   tau(  36) = (   0.0114961   0.4948124   0.7513233  )
        37           O   tau(  37) = (   0.0051979   0.2673486   1.0164559  )
        38           O   tau(  38) = (   0.0130029   0.2478461   1.5135603  )
        39           O   tau(  39) = (   0.0048226   0.0077944   0.7773880  )
        40           O   tau(  40) = (   0.0048226   0.0077944   1.2555238  )
        41           Sr  tau(  41) = (   0.2545482   0.2517602   0.7706582  )
        42           Sr  tau(  42) = (   0.2545482   0.2517602   1.2622536  )
        43           Co  tau(  43) = (   0.4989925   0.0073160   1.5135603  )
        44           Co  tau(  44) = (   0.4998370   0.0064714   1.0164559  )
        45           O   tau(  45) = (   0.5048017   0.0015068   0.7844841  )
        46           O   tau(  46) = (   0.5048017   0.0015068   1.2484277  )
        47           O   tau(  47) = (   0.2621260   0.0059111   1.5135603  )
        48           O   tau(  48) = (   0.2591051   0.0041689   1.0164559  )
        49           O   tau(  49) = (   0.4264937   0.2843291   2.1602013  )

   Crystallographic axes

     site n.     atom                  positions (cryst. coord.)
         1           Sr  tau(   1) = (  0.2508693  0.7491307  0.6943562  )
         2           O   tau(   2) = (  0.4985141  0.5014859  0.6999492  )
         3           Sr  tau(   3) = (  0.7482398  0.7454518  0.6972903  )
         4           Sr  tau(   4) = (  0.7441748  0.2558252  0.6980478  )
         5           Sr  tau(   5) = (  0.2508693  0.7491307  0.5016443  )
         6           Sr  tau(   6) = (  0.2508693  0.7491307  0.3015492  )
         7           Co  tau(   7) = (  0.4998914  0.5001086  0.4015968  )
         8           Co  tau(   8) = (  0.4936915  0.5063085  0.5980003  )
         9           O   tau(   9) = (  0.4988895  0.7610401  0.4015968  )
        10           O   tau(  10) = (  0.2389599  0.5011105  0.4015968  )
        11           O   tau(  11) = (  0.0070918  0.7374880  0.4015968  )
        12           O   tau(  12) = (  0.0088340  0.7405089  0.5980003  )
        13           O   tau(  13) = (  0.5066944  0.7415376  0.5980003  )
        14           O   tau(  14) = (  0.2584624  0.4933056  0.5980003  )
        15           O   tau(  15) = (  0.4985141  0.5014859  0.3071422  )
        16           O   tau(  16) = (  0.4985141  0.5014859  0.4960513  )
        17           Sr  tau(  17) = (  0.7482398  0.7454518  0.3044833  )
        18           Sr  tau(  18) = (  0.7482398  0.7454518  0.4987103  )
        19           Sr  tau(  19) = (  0.7441748  0.2558252  0.3052408  )
        20           Sr  tau(  20) = (  0.7441748  0.2558252  0.4979527  )
        21           O   tau(  21) = (  0.7322655  0.0078049  0.5980003  )
        22           O   tau(  22) = (  0.7558175  0.4996027  0.5980003  )
        23           O   tau(  23) = (  0.5003973  0.2441825  0.5980003  )
        24           O   tau(  24) = (  0.7527966  0.4978604  0.4015968  )
        25           O   tau(  25) = (  0.5021396  0.2472034  0.4015968  )
        26           O   tau(  26) = (  0.7517679  0.0000000  0.4015968  )
        27           O   tau(  27) = (  0.0114961  0.4948124  0.6896512  )
        28           O   tau(  28) = (  0.0048226  0.0077944  0.6999492  )
        29           Sr  tau(  29) = (  0.2545482  0.2517602  0.6972903  )
        30           O   tau(  30) = (  0.5048017  0.0015068  0.7027529  )
        31           Co  tau(  31) = (  0.0056869  0.5006215  0.4015968  )
        32           Co  tau(  32) = (  0.0065315  0.4997770  0.5980003  )
        33           Co  tau(  33) = (  0.0061999  0.0064171  0.4015968  )
        34           Co  tau(  34) = (  0.0000000  0.0126169  0.5980003  )
        35           O   tau(  35) = (  0.0114961  0.4948124  0.5063494  )
        36           O   tau(  36) = (  0.0114961  0.4948124  0.2968442  )
        37           O   tau(  37) = (  0.0051979  0.2673486  0.4015968  )
        38           O   tau(  38) = (  0.0130029  0.2478461  0.5980003  )
        39           O   tau(  39) = (  0.0048226  0.0077944  0.3071422  )
        40           O   tau(  40) = (  0.0048226  0.0077944  0.4960513  )
        41           Sr  tau(  41) = (  0.2545482  0.2517602  0.3044833  )
        42           Sr  tau(  42) = (  0.2545482  0.2517602  0.4987103  )
        43           Co  tau(  43) = (  0.4989925  0.0073160  0.5980003  )
        44           Co  tau(  44) = (  0.4998370  0.0064714  0.4015968  )
        45           O   tau(  45) = (  0.5048017  0.0015068  0.3099459  )
        46           O   tau(  46) = (  0.5048017  0.0015068  0.4932477  )
        47           O   tau(  47) = (  0.2621260  0.0059111  0.5980003  )
        48           O   tau(  48) = (  0.2591051  0.0041689  0.4015968  )
        49           O   tau(  49) = (  0.4264937  0.2843291  0.8534850  )

     number of k points=    10  Gaussian smearing, width (Ry)=  0.0700
                       cart. coord. in units 2pi/alat
        k(    1) = (   0.0000000   0.0000000   0.0000000), wk =   0.1250000
        k(    2) = (   0.0000000   0.2500000   0.0000000), wk =   0.2500000
        k(    3) = (   0.0000000  -0.5000000   0.0000000), wk =   0.1250000
        k(    4) = (   0.2500000   0.2500000   0.0000000), wk =   0.2500000
        k(    5) = (   0.2500000  -0.5000000   0.0000000), wk =   0.2500000
        k(    6) = (  -0.5000000  -0.5000000   0.0000000), wk =   0.1250000
        k(    7) = (   0.2500000   0.0000000   0.0000000), wk =   0.2500000
        k(    8) = (  -0.5000000   0.0000000   0.0000000), wk =   0.1250000
        k(    9) = (  -0.2500000   0.2500000   0.0000000), wk =   0.2500000
        k(   10) = (  -0.5000000   0.2500000   0.0000000), wk =   0.2500000

                       cryst. coord.
        k(    1) = (   0.0000000   0.0000000   0.0000000), wk =   0.1250000
        k(    2) = (   0.0000000   0.2500000   0.0000000), wk =   0.2500000
        k(    3) = (   0.0000000  -0.5000000   0.0000000), wk =   0.1250000
        k(    4) = (   0.2500000   0.2500000   0.0000000), wk =   0.2500000
        k(    5) = (   0.2500000  -0.5000000   0.0000000), wk =   0.2500000
        k(    6) = (  -0.5000000  -0.5000000   0.0000000), wk =   0.1250000
        k(    7) = (   0.2500000   0.0000000   0.0000000), wk =   0.2500000
        k(    8) = (  -0.5000000   0.0000000   0.0000000), wk =   0.1250000
        k(    9) = (  -0.2500000   0.2500000   0.0000000), wk =   0.2500000
        k(   10) = (  -0.5000000   0.2500000   0.0000000), wk =   0.2500000

     Dense  grid:  1474595 G-vectors     FFT dimensions: ( 108, 108, 270)

     Smooth grid:   521381 G-vectors     FFT dimensions: (  75,  75, 192)

     Dynamical RAM for                 wfc:      10.69 MB

     Dynamical RAM for     wfc (w. buffer):      64.13 MB

     Dynamical RAM for           str. fact:       2.81 MB

     Dynamical RAM for           local pot:       0.00 MB

     Dynamical RAM for          nlocal pot:      24.53 MB

     Dynamical RAM for                qrad:       5.27 MB

     Dynamical RAM for          rho,v,vnew:       6.02 MB

     Dynamical RAM for               rhoin:       2.01 MB

     Dynamical RAM for            rho*nmix:      15.00 MB

     Dynamical RAM for           G-vectors:       3.68 MB

     Dynamical RAM for          h,s,v(r/c):       1.35 MB

     Dynamical RAM for          <psi|beta>:       2.33 MB

     Dynamical RAM for                 psi:      21.38 MB

     Dynamical RAM for                hpsi:      21.38 MB

     Dynamical RAM for                spsi:      21.38 MB

     Dynamical RAM for      wfcinit/wfcrot:      34.39 MB

     Dynamical RAM for           addusdens:     101.26 MB

     Estimated static dynamical RAM per process >     117.53 MB

     Estimated max dynamical RAM per process >     233.79 MB

     Estimated total dynamical RAM >      10.61 GB

     Check: negative core charge=   -0.000004

     Initial potential from superposition of free atoms

     starting charge     421.5961, renormalised to     430.0000

     negative rho (up, down):  7.826E-01 0.000E+00
     Starting wfcs are  376 randomized atomic wfcs
     Checking if some PAW data can be deallocated... 
       PAW data deallocated on   19 nodes for type:  2

     total cpu time spent up to now is        9.6 secs

     Self-consistent Calculation

     iteration #  1     ecut=    60.00 Ry     beta= 0.15
     Davidson diagonalization with overlap

---- Real-time Memory Report at c_bands before calling an iterative solver
             0 MiB given to the printing process from OS
             0 MiB allocation reported by mallinfo(arena+hblkhd)
         51487 MiB available memory on the node where the printing process lives
------------------
     ethr =  1.00E-02,  avg # of iterations =  2.0

     negative rho (up, down):  7.714E-01 0.000E+00

     total cpu time spent up to now is       25.2 secs

     total energy              =   -4445.13567403 Ry
     estimated scf accuracy    <      53.89391256 Ry

     iteration #  2     ecut=    60.00 Ry     beta= 0.15
     Davidson diagonalization with overlap

---- Real-time Memory Report at c_bands before calling an iterative solver
             0 MiB given to the printing process from OS
             0 MiB allocation reported by mallinfo(arena+hblkhd)
         51850 MiB available memory on the node where the printing process lives
------------------
     ethr =  1.00E-02,  avg # of iterations =  1.0

     negative rho (up, down):  7.597E-01 0.000E+00

     total cpu time spent up to now is       38.1 secs

     total energy              =   -4442.11751325 Ry
     estimated scf accuracy    <      27.70094686 Ry

     iteration #  3     ecut=    60.00 Ry     beta= 0.15
     Davidson diagonalization with overlap

---- Real-time Memory Report at c_bands before calling an iterative solver
             0 MiB given to the printing process from OS
             0 MiB allocation reported by mallinfo(arena+hblkhd)
         51096 MiB available memory on the node where the printing process lives
------------------
     ethr =  6.44E-03,  avg # of iterations =  1.0

     negative rho (up, down):  7.527E-01 0.000E+00

     total cpu time spent up to now is       51.2 secs

     total energy              =   -4442.50420886 Ry
     estimated scf accuracy    <      30.29590455 Ry

     iteration #  4     ecut=    60.00 Ry     beta= 0.15
     Davidson diagonalization with overlap

---- Real-time Memory Report at c_bands before calling an iterative solver
             0 MiB given to the printing process from OS
             0 MiB allocation reported by mallinfo(arena+hblkhd)
         51047 MiB available memory on the node where the printing process lives
------------------
     ethr =  6.44E-03,  avg # of iterations =  1.0

     negative rho (up, down):  7.513E-01 0.000E+00

     total cpu time spent up to now is       64.2 secs

     total energy              =   -4443.12591484 Ry
     estimated scf accuracy    <      29.04698347 Ry

     iteration #  5     ecut=    60.00 Ry     beta= 0.15
     Davidson diagonalization with overlap

---- Real-time Memory Report at c_bands before calling an iterative solver
             0 MiB given to the printing process from OS
             0 MiB allocation reported by mallinfo(arena+hblkhd)
         51018 MiB available memory on the node where the printing process lives
------------------
     ethr =  6.44E-03,  avg # of iterations =  1.0

     negative rho (up, down):  7.364E-01 0.000E+00

     total cpu time spent up to now is       76.9 secs

     total energy              =   -4442.04137012 Ry
     estimated scf accuracy    <      46.87164003 Ry

     iteration #  6     ecut=    60.00 Ry     beta= 0.15
     Davidson diagonalization with overlap

---- Real-time Memory Report at c_bands before calling an iterative solver
             0 MiB given to the printing process from OS
             0 MiB allocation reported by mallinfo(arena+hblkhd)
         51003 MiB available memory on the node where the printing process lives
------------------
     ethr =  6.44E-03,  avg # of iterations =  1.0

     negative rho (up, down):  7.405E-01 0.000E+00

     total cpu time spent up to now is       89.6 secs

     total energy              =   -4442.36454175 Ry
     estimated scf accuracy    <      32.09917677 Ry

     iteration #  7     ecut=    60.00 Ry     beta= 0.15
     Davidson diagonalization with overlap

---- Real-time Memory Report at c_bands before calling an iterative solver
             0 MiB given to the printing process from OS
             0 MiB allocation reported by mallinfo(arena+hblkhd)
         50986 MiB available memory on the node where the printing process lives
------------------
     ethr =  6.44E-03,  avg # of iterations =  1.0

     negative rho (up, down):  7.474E-01 0.000E+00

     total cpu time spent up to now is      103.1 secs

     total energy              =   -4438.84572648 Ry
     estimated scf accuracy    <      31.15943116 Ry

     iteration #  8     ecut=    60.00 Ry     beta= 0.15
     Davidson diagonalization with overlap

---- Real-time Memory Report at c_bands before calling an iterative solver
             0 MiB given to the printing process from OS
             0 MiB allocation reported by mallinfo(arena+hblkhd)
         50972 MiB available memory on the node where the printing process lives
------------------
     ethr =  6.44E-03,  avg # of iterations =  1.3

     negative rho (up, down):  7.464E-01 0.000E+00

     total cpu time spent up to now is      116.7 secs

     total energy              =   -4440.40763553 Ry
     estimated scf accuracy    <       4.79242209 Ry

     iteration #  9     ecut=    60.00 Ry     beta= 0.15
     Davidson diagonalization with overlap

---- Real-time Memory Report at c_bands before calling an iterative solver
             0 MiB given to the printing process from OS
             0 MiB allocation reported by mallinfo(arena+hblkhd)
         50957 MiB available memory on the node where the printing process lives
------------------
     ethr =  1.11E-03,  avg # of iterations = 10.3

     negative rho (up, down):  7.574E-01 0.000E+00

     total cpu time spent up to now is      135.9 secs

     total energy              =   -4440.60346405 Ry
     estimated scf accuracy    <       5.35363898 Ry

     iteration # 10     ecut=    60.00 Ry     beta= 0.15
     Davidson diagonalization with overlap

---- Real-time Memory Report at c_bands before calling an iterative solver
             0 MiB given to the printing process from OS
             0 MiB allocation reported by mallinfo(arena+hblkhd)
         50559 MiB available memory on the node where the printing process lives
------------------
     ethr =  1.11E-03,  avg # of iterations =  1.2

     negative rho (up, down):  7.789E-01 0.000E+00

     total cpu time spent up to now is      149.3 secs

     total energy              =   -4440.26513115 Ry
     estimated scf accuracy    <       2.73136683 Ry

     iteration # 11     ecut=    60.00 Ry     beta= 0.15
     Davidson diagonalization with overlap

---- Real-time Memory Report at c_bands before calling an iterative solver
             0 MiB given to the printing process from OS
             0 MiB allocation reported by mallinfo(arena+hblkhd)
         50556 MiB available memory on the node where the printing process lives
------------------
     ethr =  6.35E-04,  avg # of iterations =  2.7

     negative rho (up, down):  7.786E-01 0.000E+00

     total cpu time spent up to now is      163.7 secs

     total energy              =   -4440.41493676 Ry
     estimated scf accuracy    <       1.71366211 Ry

     iteration # 12     ecut=    60.00 Ry     beta= 0.15
     Davidson diagonalization with overlap

---- Real-time Memory Report at c_bands before calling an iterative solver
             0 MiB given to the printing process from OS
             0 MiB allocation reported by mallinfo(arena+hblkhd)
         50537 MiB available memory on the node where the printing process lives
------------------
     ethr =  3.99E-04,  avg # of iterations =  2.7

     negative rho (up, down):  7.896E-01 0.000E+00

     total cpu time spent up to now is      178.0 secs

     total energy              =   -4440.48499738 Ry
     estimated scf accuracy    <       0.91498766 Ry

     iteration # 13     ecut=    60.00 Ry     beta= 0.15
     Davidson diagonalization with overlap

---- Real-time Memory Report at c_bands before calling an iterative solver
             0 MiB given to the printing process from OS
             0 MiB allocation reported by mallinfo(arena+hblkhd)
         50541 MiB available memory on the node where the printing process lives
------------------
     c_bands:  1 eigenvalues not converged
     ethr =  2.13E-04,  avg # of iterations = 14.6

     negative rho (up, down):  8.017E-01 0.000E+00

     total cpu time spent up to now is      197.5 secs

     total energy              =   -4440.45059533 Ry
     estimated scf accuracy    <       0.55939946 Ry

     iteration # 14     ecut=    60.00 Ry     beta= 0.15
     Davidson diagonalization with overlap

---- Real-time Memory Report at c_bands before calling an iterative solver
             0 MiB given to the printing process from OS
             0 MiB allocation reported by mallinfo(arena+hblkhd)
         50442 MiB available memory on the node where the printing process lives
------------------
     ethr =  1.30E-04,  avg # of iterations =  2.2

     negative rho (up, down):  8.252E-01 0.000E+00

     total cpu time spent up to now is      211.3 secs

     total energy              =   -4440.40942247 Ry
     estimated scf accuracy    <       0.85360226 Ry

     iteration # 15     ecut=    60.00 Ry     beta= 0.15
     Davidson diagonalization with overlap

---- Real-time Memory Report at c_bands before calling an iterative solver
             0 MiB given to the printing process from OS
             0 MiB allocation reported by mallinfo(arena+hblkhd)
         50445 MiB available memory on the node where the printing process lives
------------------
     c_bands:  1 eigenvalues not converged
     ethr =  1.30E-04,  avg # of iterations = 12.7

     negative rho (up, down):  8.306E-01 0.000E+00

     total cpu time spent up to now is      230.1 secs

     total energy              =   -4440.39186526 Ry
     estimated scf accuracy    <       0.55894114 Ry

     iteration # 16     ecut=    60.00 Ry     beta= 0.15
     Davidson diagonalization with overlap

---- Real-time Memory Report at c_bands before calling an iterative solver
             0 MiB given to the printing process from OS
             0 MiB allocation reported by mallinfo(arena+hblkhd)
         50452 MiB available memory on the node where the printing process lives
------------------
     ethr =  1.30E-04,  avg # of iterations =  1.4

     negative rho (up, down):  8.264E-01 0.000E+00

     total cpu time spent up to now is      243.7 secs

     total energy              =   -4440.34965473 Ry
     estimated scf accuracy    <       0.32837676 Ry

     iteration # 17     ecut=    60.00 Ry     beta= 0.15
     Davidson diagonalization with overlap

---- Real-time Memory Report at c_bands before calling an iterative solver
             0 MiB given to the printing process from OS
             0 MiB allocation reported by mallinfo(arena+hblkhd)
         50427 MiB available memory on the node where the printing process lives
------------------
     c_bands:  1 eigenvalues not converged
     ethr =  7.64E-05,  avg # of iterations =  5.2

     negative rho (up, down):  8.222E-01 0.000E+00

     total cpu time spent up to now is      259.5 secs

     total energy              =   -4440.34560185 Ry
     estimated scf accuracy    <       0.18879306 Ry

     iteration # 18     ecut=    60.00 Ry     beta= 0.15
     Davidson diagonalization with overlap

---- Real-time Memory Report at c_bands before calling an iterative solver
             0 MiB given to the printing process from OS
             0 MiB allocation reported by mallinfo(arena+hblkhd)
         50419 MiB available memory on the node where the printing process lives
------------------
     ethr =  4.39E-05,  avg # of iterations = 10.3

     negative rho (up, down):  8.186E-01 0.000E+00

     total cpu time spent up to now is      277.3 secs

     total energy              =   -4440.34000890 Ry
     estimated scf accuracy    <       0.17344696 Ry

     iteration # 19     ecut=    60.00 Ry     beta= 0.15
     Davidson diagonalization with overlap

---- Real-time Memory Report at c_bands before calling an iterative solver
             0 MiB given to the printing process from OS
             0 MiB allocation reported by mallinfo(arena+hblkhd)
         50429 MiB available memory on the node where the printing process lives
------------------
     ethr =  4.03E-05,  avg # of iterations =  1.6

     negative rho (up, down):  8.071E-01 0.000E+00

     total cpu time spent up to now is      290.8 secs

     total energy              =   -4440.32630476 Ry
     estimated scf accuracy    <       0.13615031 Ry

     iteration # 20     ecut=    60.00 Ry     beta= 0.15
     Davidson diagonalization with overlap

---- Real-time Memory Report at c_bands before calling an iterative solver
             0 MiB given to the printing process from OS
             0 MiB allocation reported by mallinfo(arena+hblkhd)
         50424 MiB available memory on the node where the printing process lives
------------------
     ethr =  3.17E-05,  avg # of iterations =  8.0

     negative rho (up, down):  8.061E-01 0.000E+00

     total cpu time spent up to now is      307.7 secs

     total energy              =   -4440.31403154 Ry
     estimated scf accuracy    <       0.07753087 Ry

     iteration # 21     ecut=    60.00 Ry     beta= 0.15
     Davidson diagonalization with overlap

---- Real-time Memory Report at c_bands before calling an iterative solver
             0 MiB given to the printing process from OS
             0 MiB allocation reported by mallinfo(arena+hblkhd)
         50415 MiB available memory on the node where the printing process lives
------------------
     ethr =  1.80E-05,  avg # of iterations =  8.8

     negative rho (up, down):  8.284E-01 0.000E+00

     total cpu time spent up to now is      325.7 secs

     total energy              =   -4440.31146237 Ry
     estimated scf accuracy    <       0.04227614 Ry

     iteration # 22     ecut=    60.00 Ry     beta= 0.15
     Davidson diagonalization with overlap

---- Real-time Memory Report at c_bands before calling an iterative solver
             0 MiB given to the printing process from OS
             0 MiB allocation reported by mallinfo(arena+hblkhd)
         50369 MiB available memory on the node where the printing process lives
------------------
     c_bands:  1 eigenvalues not converged
     ethr =  9.83E-06,  avg # of iterations =  7.8

     negative rho (up, down):  8.203E-01 0.000E+00

     total cpu time spent up to now is      343.0 secs

     total energy              =   -4440.31003652 Ry
     estimated scf accuracy    <       0.02937424 Ry

     iteration # 23     ecut=    60.00 Ry     beta= 0.15
     Davidson diagonalization with overlap

---- Real-time Memory Report at c_bands before calling an iterative solver
             0 MiB given to the printing process from OS
             0 MiB allocation reported by mallinfo(arena+hblkhd)
         50362 MiB available memory on the node where the printing process lives
------------------
     ethr =  6.83E-06,  avg # of iterations =  1.7

     negative rho (up, down):  8.224E-01 0.000E+00

     total cpu time spent up to now is      356.9 secs

     total energy              =   -4440.30674107 Ry
     estimated scf accuracy    <       0.02279278 Ry

     iteration # 24     ecut=    60.00 Ry     beta= 0.15
     Davidson diagonalization with overlap

---- Real-time Memory Report at c_bands before calling an iterative solver
             0 MiB given to the printing process from OS
             0 MiB allocation reported by mallinfo(arena+hblkhd)
         50340 MiB available memory on the node where the printing process lives
------------------
     ethr =  5.30E-06,  avg # of iterations = 10.5

     negative rho (up, down):  8.109E-01 0.000E+00

     total cpu time spent up to now is      375.3 secs

     total energy              =   -4440.30584962 Ry
     estimated scf accuracy    <       0.01358582 Ry

     iteration # 25     ecut=    60.00 Ry     beta= 0.15
     Davidson diagonalization with overlap

---- Real-time Memory Report at c_bands before calling an iterative solver
             0 MiB given to the printing process from OS
             0 MiB allocation reported by mallinfo(arena+hblkhd)
         50336 MiB available memory on the node where the printing process lives
------------------
     ethr =  3.16E-06,  avg # of iterations =  3.4

     negative rho (up, down):  8.006E-01 0.000E+00

     total cpu time spent up to now is      390.0 secs

     total energy              =   -4440.30484724 Ry
     estimated scf accuracy    <       0.00846378 Ry

     iteration # 26     ecut=    60.00 Ry     beta= 0.15
     Davidson diagonalization with overlap

---- Real-time Memory Report at c_bands before calling an iterative solver
             0 MiB given to the printing process from OS
             0 MiB allocation reported by mallinfo(arena+hblkhd)
         50334 MiB available memory on the node where the printing process lives
------------------
     ethr =  1.97E-06,  avg # of iterations =  7.1

     negative rho (up, down):  7.999E-01 0.000E+00

     total cpu time spent up to now is      406.9 secs

     total energy              =   -4440.30391206 Ry
     estimated scf accuracy    <       0.00443832 Ry

     iteration # 27     ecut=    60.00 Ry     beta= 0.15
     Davidson diagonalization with overlap

---- Real-time Memory Report at c_bands before calling an iterative solver
             0 MiB given to the printing process from OS
             0 MiB allocation reported by mallinfo(arena+hblkhd)
         50352 MiB available memory on the node where the printing process lives
------------------
     c_bands:  1 eigenvalues not converged
     ethr =  1.03E-06,  avg # of iterations =  8.7

     negative rho (up, down):  7.995E-01 0.000E+00

     total cpu time spent up to now is      426.9 secs

     total energy              =   -4440.30422225 Ry
     estimated scf accuracy    <       0.00202647 Ry

     iteration # 28     ecut=    60.00 Ry     beta= 0.15
     Davidson diagonalization with overlap

---- Real-time Memory Report at c_bands before calling an iterative solver
             0 MiB given to the printing process from OS
             0 MiB allocation reported by mallinfo(arena+hblkhd)
         50183 MiB available memory on the node where the printing process lives
------------------
     c_bands:  1 eigenvalues not converged
     ethr =  4.71E-07,  avg # of iterations = 11.5

     negative rho (up, down):  8.007E-01 0.000E+00

     total cpu time spent up to now is      445.4 secs

     total energy              =   -4440.30431531 Ry
     estimated scf accuracy    <       0.00080446 Ry

     iteration # 29     ecut=    60.00 Ry     beta= 0.15
     Davidson diagonalization with overlap

---- Real-time Memory Report at c_bands before calling an iterative solver
             0 MiB given to the printing process from OS
             0 MiB allocation reported by mallinfo(arena+hblkhd)
         50209 MiB available memory on the node where the printing process lives
------------------
     c_bands:  1 eigenvalues not converged
     ethr =  1.87E-07,  avg # of iterations =  4.1

     negative rho (up, down):  7.972E-01 0.000E+00

     total cpu time spent up to now is      460.8 secs

     total energy              =   -4440.30424549 Ry
     estimated scf accuracy    <       0.00048338 Ry

     iteration # 30     ecut=    60.00 Ry     beta= 0.15
     Davidson diagonalization with overlap

---- Real-time Memory Report at c_bands before calling an iterative solver
             0 MiB given to the printing process from OS
             0 MiB allocation reported by mallinfo(arena+hblkhd)
         50201 MiB available memory on the node where the printing process lives
------------------
     c_bands:  1 eigenvalues not converged
     c_bands:  1 eigenvalues not converged
     ethr =  1.12E-07,  avg # of iterations =  6.7

     negative rho (up, down):  7.986E-01 0.000E+00

     total cpu time spent up to now is      477.2 secs

     total energy              =   -4440.30431652 Ry
     estimated scf accuracy    <       0.00020658 Ry

     iteration # 31     ecut=    60.00 Ry     beta= 0.15
     Davidson diagonalization with overlap

---- Real-time Memory Report at c_bands before calling an iterative solver
             0 MiB given to the printing process from OS
             0 MiB allocation reported by mallinfo(arena+hblkhd)
         50368 MiB available memory on the node where the printing process lives
------------------
     c_bands:  1 eigenvalues not converged
     ethr =  4.80E-08,  avg # of iterations =  6.5

     negative rho (up, down):  7.956E-01 0.000E+00

     total cpu time spent up to now is      493.2 secs

     total energy              =   -4440.30426419 Ry
     estimated scf accuracy    <       0.00009789 Ry

     iteration # 32     ecut=    60.00 Ry     beta= 0.15
     Davidson diagonalization with overlap

---- Real-time Memory Report at c_bands before calling an iterative solver
             0 MiB given to the printing process from OS
             0 MiB allocation reported by mallinfo(arena+hblkhd)
         50319 MiB available memory on the node where the printing process lives
------------------
     c_bands:  1 eigenvalues not converged
     c_bands:  1 eigenvalues not converged
     ethr =  2.28E-08,  avg # of iterations =  7.9

     negative rho (up, down):  7.948E-01 0.000E+00

     total cpu time spent up to now is      510.2 secs

     total energy              =   -4440.30425716 Ry
     estimated scf accuracy    <       0.00005067 Ry

     iteration # 33     ecut=    60.00 Ry     beta= 0.15
     Davidson diagonalization with overlap

---- Real-time Memory Report at c_bands before calling an iterative solver
             0 MiB given to the printing process from OS
             0 MiB allocation reported by mallinfo(arena+hblkhd)
         50341 MiB available memory on the node where the printing process lives
------------------
     c_bands:  1 eigenvalues not converged
     ethr =  1.18E-08,  avg # of iterations =  4.7

     negative rho (up, down):  7.935E-01 0.000E+00

     total cpu time spent up to now is      526.3 secs

     total energy              =   -4440.30425063 Ry
     estimated scf accuracy    <       0.00002409 Ry

     iteration # 34     ecut=    60.00 Ry     beta= 0.15
     Davidson diagonalization with overlap

---- Real-time Memory Report at c_bands before calling an iterative solver
             0 MiB given to the printing process from OS
             0 MiB allocation reported by mallinfo(arena+hblkhd)
         50338 MiB available memory on the node where the printing process lives
------------------
     ethr =  5.60E-09,  avg # of iterations =  2.8

     negative rho (up, down):  7.926E-01 0.000E+00

     total cpu time spent up to now is      541.1 secs

     total energy              =   -4440.30425035 Ry
     estimated scf accuracy    <       0.00001299 Ry

     iteration # 35     ecut=    60.00 Ry     beta= 0.15
     Davidson diagonalization with overlap

---- Real-time Memory Report at c_bands before calling an iterative solver
             0 MiB given to the printing process from OS
             0 MiB allocation reported by mallinfo(arena+hblkhd)
         50346 MiB available memory on the node where the printing process lives
------------------
     ethr =  3.02E-09,  avg # of iterations =  2.6

     negative rho (up, down):  7.925E-01 0.000E+00

     total cpu time spent up to now is      556.2 secs

     total energy              =   -4440.30425098 Ry
     estimated scf accuracy    <       0.00000349 Ry

     iteration # 36     ecut=    60.00 Ry     beta= 0.15
     Davidson diagonalization with overlap

---- Real-time Memory Report at c_bands before calling an iterative solver
             0 MiB given to the printing process from OS
             0 MiB allocation reported by mallinfo(arena+hblkhd)
         50343 MiB available memory on the node where the printing process lives
------------------
     ethr =  8.11E-10,  avg # of iterations =  2.0

     negative rho (up, down):  7.925E-01 0.000E+00

     total cpu time spent up to now is      571.9 secs

     total energy              =   -4440.30425185 Ry
     estimated scf accuracy    <       0.00000132 Ry

     iteration # 37     ecut=    60.00 Ry     beta= 0.15
     Davidson diagonalization with overlap

---- Real-time Memory Report at c_bands before calling an iterative solver
             0 MiB given to the printing process from OS
             0 MiB allocation reported by mallinfo(arena+hblkhd)
         50332 MiB available memory on the node where the printing process lives
------------------
     ethr =  3.07E-10,  avg # of iterations =  2.0

     negative rho (up, down):  7.925E-01 0.000E+00

     total cpu time spent up to now is      586.3 secs

     total energy              =   -4440.30425223 Ry
     estimated scf accuracy    <       0.00000080 Ry

     iteration # 38     ecut=    60.00 Ry     beta= 0.15
     Davidson diagonalization with overlap

---- Real-time Memory Report at c_bands before calling an iterative solver
             0 MiB given to the printing process from OS
             0 MiB allocation reported by mallinfo(arena+hblkhd)
         50339 MiB available memory on the node where the printing process lives
------------------
     ethr =  1.86E-10,  avg # of iterations =  2.2

     negative rho (up, down):  7.925E-01 0.000E+00

     total cpu time spent up to now is      600.8 secs

     total energy              =   -4440.30425258 Ry
     estimated scf accuracy    <       0.00000045 Ry

     iteration # 39     ecut=    60.00 Ry     beta= 0.15
     Davidson diagonalization with overlap

---- Real-time Memory Report at c_bands before calling an iterative solver
             0 MiB given to the printing process from OS
             0 MiB allocation reported by mallinfo(arena+hblkhd)
         50350 MiB available memory on the node where the printing process lives
------------------
     ethr =  1.05E-10,  avg # of iterations =  3.3

     negative rho (up, down):  7.926E-01 0.000E+00

     total cpu time spent up to now is      616.0 secs

     total energy              =   -4440.30425269 Ry
     estimated scf accuracy    <       0.00000028 Ry

     iteration # 40     ecut=    60.00 Ry     beta= 0.15
     Davidson diagonalization with overlap

---- Real-time Memory Report at c_bands before calling an iterative solver
             0 MiB given to the printing process from OS
             0 MiB allocation reported by mallinfo(arena+hblkhd)
         50358 MiB available memory on the node where the printing process lives
------------------
     ethr =  6.55E-11,  avg # of iterations =  2.8

     negative rho (up, down):  7.926E-01 0.000E+00

     total cpu time spent up to now is      631.3 secs

     total energy              =   -4440.30425269 Ry
     estimated scf accuracy    <       0.00000013 Ry

     iteration # 41     ecut=    60.00 Ry     beta= 0.15
     Davidson diagonalization with overlap

---- Real-time Memory Report at c_bands before calling an iterative solver
             0 MiB given to the printing process from OS
             0 MiB allocation reported by mallinfo(arena+hblkhd)
         50353 MiB available memory on the node where the printing process lives
------------------
     ethr =  3.11E-11,  avg # of iterations =  3.3

     negative rho (up, down):  7.926E-01 0.000E+00

     total cpu time spent up to now is      646.8 secs

     total energy              =   -4440.30425273 Ry
     estimated scf accuracy    <       0.00000011 Ry

     iteration # 42     ecut=    60.00 Ry     beta= 0.15
     Davidson diagonalization with overlap

---- Real-time Memory Report at c_bands before calling an iterative solver
             0 MiB given to the printing process from OS
             0 MiB allocation reported by mallinfo(arena+hblkhd)
         50350 MiB available memory on the node where the printing process lives
------------------
     ethr =  2.55E-11,  avg # of iterations =  1.0

     negative rho (up, down):  7.926E-01 0.000E+00

     total cpu time spent up to now is      659.9 secs

     total energy              =   -4440.30425275 Ry
     estimated scf accuracy    <       0.00000008 Ry

     iteration # 43     ecut=    60.00 Ry     beta= 0.15
     Davidson diagonalization with overlap

---- Real-time Memory Report at c_bands before calling an iterative solver
             0 MiB given to the printing process from OS
             0 MiB allocation reported by mallinfo(arena+hblkhd)
         50352 MiB available memory on the node where the printing process lives
------------------
     ethr =  1.92E-11,  avg # of iterations =  2.0

     negative rho (up, down):  7.926E-01 0.000E+00

     total cpu time spent up to now is      674.7 secs

     total energy              =   -4440.30425278 Ry
     estimated scf accuracy    <       0.00000005 Ry

     iteration # 44     ecut=    60.00 Ry     beta= 0.15
     Davidson diagonalization with overlap

---- Real-time Memory Report at c_bands before calling an iterative solver
             0 MiB given to the printing process from OS
             0 MiB allocation reported by mallinfo(arena+hblkhd)
         50356 MiB available memory on the node where the printing process lives
------------------
     ethr =  1.07E-11,  avg # of iterations =  2.0

     negative rho (up, down):  7.926E-01 0.000E+00

     total cpu time spent up to now is      689.4 secs

     total energy              =   -4440.30425279 Ry
     estimated scf accuracy    <       0.00000003 Ry

     iteration # 45     ecut=    60.00 Ry     beta= 0.15
     Davidson diagonalization with overlap

---- Real-time Memory Report at c_bands before calling an iterative solver
             0 MiB given to the printing process from OS
             0 MiB allocation reported by mallinfo(arena+hblkhd)
         50360 MiB available memory on the node where the printing process lives
------------------
     ethr =  7.92E-12,  avg # of iterations =  2.0

     negative rho (up, down):  7.926E-01 0.000E+00

     total cpu time spent up to now is      703.7 secs

     total energy              =   -4440.30425281 Ry
     estimated scf accuracy    <       0.00000002 Ry

     iteration # 46     ecut=    60.00 Ry     beta= 0.15
     Davidson diagonalization with overlap

---- Real-time Memory Report at c_bands before calling an iterative solver
             0 MiB given to the printing process from OS
             0 MiB allocation reported by mallinfo(arena+hblkhd)
         50355 MiB available memory on the node where the printing process lives
------------------
     ethr =  3.87E-12,  avg # of iterations =  2.5

     negative rho (up, down):  7.926E-01 0.000E+00

     total cpu time spent up to now is      717.7 secs

     End of self-consistent calculation

          k = 0.0000 0.0000 0.0000 ( 65197 PWs)   bands (ev):

   -92.8764 -92.8242 -92.7302 -92.6848 -92.6257 -92.5834 -92.5652 -92.4442
   -56.2301 -56.2111 -56.0872 -56.0767 -56.0699 -56.0637 -56.0274 -55.9992
   -55.9840 -55.9835 -55.9751 -55.9327 -55.9169 -55.8765 -55.8569 -55.8246
   -55.8198 -55.7705 -55.7705 -55.7680 -55.7596 -55.7190 -55.6953 -55.6101
   -31.4407 -31.4206 -31.2840 -31.2785 -31.1909 -31.0647 -31.0613 -30.6364
   -30.0221 -29.9778 -29.9517 -29.8430 -15.2524 -15.2032 -15.1268 -14.9960
   -14.7984 -14.6732 -14.3897 -14.3678 -14.3404 -14.2936 -14.2422 -14.2285
   -14.2256 -14.2042 -14.1893 -14.1495 -14.1031 -13.9488 -13.7661 -13.7362
   -13.7067 -13.6740 -13.6573 -13.5945 -13.5609 -13.4830 -13.4152 -13.2903
   -13.2740 -13.2712 -13.2479 -13.2384 -13.2194 -13.1661 -13.1598 -13.1454
   -13.1144 -13.0855 -13.0680 -13.0617 -13.0429 -12.9817 -12.9765 -12.9308
   -12.9146 -12.6754 -12.6634 -12.5784 -12.5061 -12.3604 -12.1211 -12.0518
   -12.0340 -11.9734 -11.9610 -11.9495 -11.9253 -11.9073 -11.8448 -11.8274
   -11.7931 -11.7645 -11.6503 -11.5723 -11.5687  -3.1135  -2.8819  -2.6521
    -2.5049  -2.4424  -2.3008  -1.9930  -1.9788  -1.9603  -1.8749  -1.8543
    -1.7861  -1.7688  -1.7283  -1.6867  -1.5027  -1.2787  -1.2476  -1.1036
    -1.0888  -1.0413  -1.0217  -0.9760  -0.9587  -0.9069  -0.8795  -0.8010
    -0.7911  -0.7196  -0.5842  -0.5705  -0.5439  -0.4642  -0.4326  -0.4310
    -0.3681  -0.2998  -0.2328  -0.2001  -0.1670  -0.0931  -0.0379   0.0096
     0.0310   0.0489   0.3058   0.3191   0.4933   0.5584   0.6293   0.6744
     0.7575   0.7698   0.7846   0.8536   0.8805   0.9132   0.9726   1.1008
     1.1635   1.1834   1.2061   1.2209   1.2802   1.3476   1.4629   1.4729
     1.5419   1.5523   1.5967   1.6076   1.6198   1.6784   1.7374   1.7506
     1.7907   1.8292   1.8575   1.9908   2.0847   2.1179   2.1332   2.2894
     2.3029   2.3384   2.3489   2.4520   2.4863   2.5113   2.5300   2.5447
     2.5743   2.6199   2.6332   2.6677   2.7386   2.7670   2.7791   2.7848
     2.8527   2.8593   2.8801   2.8877   2.8975   2.9092   2.9167   2.9305
     2.9378   2.9487   2.9569   2.9671   2.9841   3.0049   3.0096   3.0221
     3.0607   3.1639   3.2546   3.9454   4.2684   4.6171   4.8317   4.8816
     5.7509   5.8163   5.8327   5.8448   6.1407   6.1876   6.4389   6.4476
     6.9419   6.9791   7.0811   7.1646   7.3767   7.5442   7.5585   7.5873
     7.6490   7.8051   7.8873   7.9198   8.0365   8.1305   8.3595   8.6231
     8.7494   8.9374

     occupation numbers 
     1.0000   1.0000   1.0000   1.0000   1.0000   1.0000   1.0000   1.0000
     1.0000   1.0000   1.0000   1.0000   1.0000   1.0000   1.0000   1.0000
     1.0000   1.0000   1.0000   1.0000   1.0000   1.0000   1.0000   1.0000
     1.0000   1.0000   1.0000   1.0000   1.0000   1.0000   1.0000   1.0000
     1.0000   1.0000   1.0000   1.0000   1.0000   1.0000   1.0000   1.0000
     1.0000   1.0000   1.0000   1.0000   1.0000   1.0000   1.0000   1.0000
     1.0000   1.0000   1.0000   1.0000   1.0000   1.0000   1.0000   1.0000
     1.0000   1.0000   1.0000   1.0000   1.0000   1.0000   1.0000   1.0000
     1.0000   1.0000   1.0000   1.0000   1.0000   1.0000   1.0000   1.0000
     1.0000   1.0000   1.0000   1.0000   1.0000   1.0000   1.0000   1.0000
     1.0000   1.0000   1.0000   1.0000   1.0000   1.0000   1.0000   1.0000
     1.0000   1.0000   1.0000   1.0000   1.0000   1.0000   1.0000   1.0000
     1.0000   1.0000   1.0000   1.0000   1.0000   1.0000   1.0000   1.0000
     1.0000   1.0000   1.0000   1.0000   1.0000   1.0000   1.0000   1.0000
     1.0000   1.0000   1.0000   1.0000   1.0000   1.0000   1.0000   1.0000
     1.0000   1.0000   1.0000   1.0000   1.0000   1.0000   1.0000   1.0000
     1.0000   1.0000   1.0000   1.0000   1.0000   1.0000   1.0000   1.0000
     1.0000   1.0000   1.0000   1.0000   1.0000   1.0000   1.0000   1.0000
     1.0000   1.0000   1.0000   1.0000   1.0000   1.0000   1.0000   1.0000
     1.0000   1.0000   1.0000   1.0000   1.0000   0.9999   0.9999   0.9999
     0.9998   0.9998   0.9998   0.9997   0.9996   0.9996   0.9994   0.9988
     0.9984   0.9983   0.9981   0.9979   0.9973   0.9963   0.9939   0.9937
     0.9916   0.9912   0.9896   0.9891   0.9886   0.9857   0.9822   0.9813
     0.9784   0.9753   0.9727   0.9577   0.9436   0.9377   0.9349   0.9000
     0.8964   0.8866   0.8836   0.8508   0.8387   0.8294   0.8223   0.8166
     0.8047   0.7855   0.7796   0.7641   0.7306   0.7164   0.7103   0.7074
     0.6719   0.6683   0.6570   0.6529   0.6474   0.6410   0.6368   0.6291
     0.6250   0.6189   0.6142   0.6084   0.5987   0.5867   0.5840   0.5767
     0.5542   0.4932   0.4397   0.1195   0.0488   0.0148   0.0063   0.0051
     0.0001   0.0000   0.0000   0.0000   0.0000   0.0000   0.0000   0.0000
     0.0000   0.0000   0.0000   0.0000   0.0000   0.0000   0.0000   0.0000
     0.0000   0.0000   0.0000   0.0000   0.0000   0.0000   0.0000   0.0000
     0.0000   0.0000

          k = 0.0000 0.2500 0.0000 ( 65257 PWs)   bands (ev):

   -92.8764 -92.8242 -92.7302 -92.6848 -92.6257 -92.5834 -92.5652 -92.4442
   -56.2301 -56.2111 -56.0872 -56.0767 -56.0699 -56.0637 -56.0274 -55.9992
   -55.9840 -55.9835 -55.9751 -55.9327 -55.9169 -55.8765 -55.8569 -55.8246
   -55.8198 -55.7705 -55.7705 -55.7680 -55.7596 -55.7190 -55.6953 -55.6101
   -31.4405 -31.4205 -31.2839 -31.2787 -31.1911 -31.0648 -31.0612 -30.6364
   -30.0215 -29.9775 -29.9523 -29.8433 -15.2161 -15.1766 -15.1012 -14.9669
   -14.8409 -14.6651 -14.5341 -14.3550 -14.3179 -14.2973 -14.2693 -14.2098
   -14.2022 -14.1863 -14.1694 -14.1160 -14.0207 -13.9802 -13.8153 -13.7916
   -13.7476 -13.7103 -13.6646 -13.6188 -13.5587 -13.5087 -13.4690 -13.3902
   -13.3348 -13.3103 -13.2734 -13.2645 -13.2312 -13.1499 -13.1228 -13.0971
   -13.0732 -13.0594 -13.0356 -13.0293 -12.9915 -12.9623 -12.9493 -12.8524
   -12.8028 -12.6336 -12.5965 -12.5735 -12.5665 -12.4115 -12.1696 -12.1090
   -11.9992 -11.9740 -11.9578 -11.9287 -11.9002 -11.8837 -11.8366 -11.8255
   -11.8028 -11.7695 -11.6647 -11.6137 -11.6034  -2.9780  -2.7575  -2.6194
    -2.4376  -2.3941  -2.2308  -2.0103  -1.9275  -1.9144  -1.8561  -1.7519
    -1.7366  -1.7043  -1.6753  -1.6316  -1.4338  -1.3051  -1.2939  -1.2173
    -1.2078  -1.1040  -1.0743  -1.0138  -0.9890  -0.9504  -0.8856  -0.8579
    -0.8268  -0.7912  -0.7750  -0.7440  -0.6677  -0.6201  -0.5518  -0.4331
    -0.4173  -0.3736  -0.2568  -0.2061  -0.1566  -0.1097  -0.0513  -0.0361
    -0.0089   0.0577   0.3543   0.4405   0.4751   0.5614   0.6092   0.6350
     0.7387   0.7586   0.8571   0.8822   0.9057   1.0186   1.1179   1.1383
     1.1634   1.1802   1.2038   1.2643   1.2910   1.3209   1.3659   1.4064
     1.4361   1.5265   1.5593   1.5974   1.6427   1.7060   1.7572   1.7744
     1.7941   1.8125   1.9085   2.0302   2.1033   2.1172   2.1879   2.2371
     2.2843   2.2931   2.3454   2.3819   2.4676   2.5064   2.5230   2.5741
     2.6263   2.6598   2.6933   2.7176   2.7509   2.7701   2.7859   2.7940
     2.8019   2.8127   2.8409   2.8425   2.8612   2.8663   2.8749   2.8942
     2.9075   2.9140   2.9347   2.9462   2.9511   2.9866   3.0023   3.0631
     3.4468   3.4810   3.7060   4.1367   4.2670   4.5562   4.8960   4.9937
     5.5223   5.6349   5.8109   5.9189   5.9543   5.9894   6.0709   6.5515
     7.0179   7.0551   7.2134   7.2474   7.3513   7.4112   7.5494   7.5726
     7.7340   7.8674   8.0708   8.1631   8.2887   8.3030   8.3507   8.4172
     8.6526   8.8255

     occupation numbers 
     1.0000   1.0000   1.0000   1.0000   1.0000   1.0000   1.0000   1.0000
     1.0000   1.0000   1.0000   1.0000   1.0000   1.0000   1.0000   1.0000
     1.0000   1.0000   1.0000   1.0000   1.0000   1.0000   1.0000   1.0000
     1.0000   1.0000   1.0000   1.0000   1.0000   1.0000   1.0000   1.0000
     1.0000   1.0000   1.0000   1.0000   1.0000   1.0000   1.0000   1.0000
     1.0000   1.0000   1.0000   1.0000   1.0000   1.0000   1.0000   1.0000
     1.0000   1.0000   1.0000   1.0000   1.0000   1.0000   1.0000   1.0000
     1.0000   1.0000   1.0000   1.0000   1.0000   1.0000   1.0000   1.0000
     1.0000   1.0000   1.0000   1.0000   1.0000   1.0000   1.0000   1.0000
     1.0000   1.0000   1.0000   1.0000   1.0000   1.0000   1.0000   1.0000
     1.0000   1.0000   1.0000   1.0000   1.0000   1.0000   1.0000   1.0000
     1.0000   1.0000   1.0000   1.0000   1.0000   1.0000   1.0000   1.0000
     1.0000   1.0000   1.0000   1.0000   1.0000   1.0000   1.0000   1.0000
     1.0000   1.0000   1.0000   1.0000   1.0000   1.0000   1.0000   1.0000
     1.0000   1.0000   1.0000   1.0000   1.0000   1.0000   1.0000   1.0000
     1.0000   1.0000   1.0000   1.0000   1.0000   1.0000   1.0000   1.0000
     1.0000   1.0000   1.0000   1.0000   1.0000   1.0000   1.0000   1.0000
     1.0000   1.0000   1.0000   1.0000   1.0000   1.0000   1.0000   1.0000
     1.0000   1.0000   1.0000   1.0000   1.0000   1.0000   1.0000   1.0000
     1.0000   1.0000   1.0000   1.0000   1.0000   0.9999   0.9999   0.9999
     0.9998   0.9998   0.9997   0.9996   0.9996   0.9992   0.9987   0.9986
     0.9984   0.9983   0.9981   0.9975   0.9971   0.9967   0.9960   0.9952
     0.9946   0.9921   0.9910   0.9895   0.9875   0.9841   0.9809   0.9796
     0.9781   0.9767   0.9676   0.9522   0.9404   0.9379   0.9240   0.9130
     0.9013   0.8990   0.8846   0.8737   0.8454   0.8313   0.8250   0.8047
     0.7827   0.7677   0.7523   0.7407   0.7245   0.7149   0.7069   0.7027
     0.6986   0.6930   0.6782   0.6773   0.6673   0.6645   0.6599   0.6493
     0.6419   0.6383   0.6268   0.6203   0.6175   0.5973   0.5882   0.5527
     0.3310   0.3128   0.2055   0.0719   0.0490   0.0186   0.0048   0.0031
     0.0002   0.0001   0.0000   0.0000   0.0000   0.0000   0.0000   0.0000
     0.0000   0.0000   0.0000   0.0000   0.0000   0.0000   0.0000   0.0000
     0.0000   0.0000   0.0000   0.0000   0.0000   0.0000   0.0000   0.0000
     0.0000   0.0000

          k = 0.0000-0.5000 0.0000 ( 65180 PWs)   bands (ev):

   -92.8764 -92.8242 -92.7302 -92.6848 -92.6257 -92.5834 -92.5652 -92.4442
   -56.2301 -56.2111 -56.0872 -56.0767 -56.0699 -56.0637 -56.0274 -55.9992
   -55.9840 -55.9835 -55.9751 -55.9327 -55.9169 -55.8765 -55.8569 -55.8246
   -55.8198 -55.7705 -55.7705 -55.7680 -55.7596 -55.7190 -55.6953 -55.6101
   -31.4403 -31.4203 -31.2838 -31.2789 -31.1912 -31.0649 -31.0611 -30.6365
   -30.0209 -29.9772 -29.9530 -29.8437 -15.1787 -15.1311 -15.0729 -14.9487
   -14.8634 -14.7315 -14.5631 -14.4530 -14.3278 -14.2522 -14.2112 -14.2054
   -14.1535 -14.1398 -14.0880 -14.0679 -14.0414 -14.0118 -13.9726 -13.9183
   -13.7532 -13.6945 -13.6690 -13.6261 -13.5411 -13.5267 -13.4644 -13.4449
   -13.4285 -13.3791 -13.2755 -13.2663 -13.2238 -13.1324 -13.1222 -13.0969
   -13.0898 -13.0462 -13.0326 -12.9878 -12.9475 -12.8699 -12.8160 -12.8056
   -12.7621 -12.6781 -12.5904 -12.5413 -12.4866 -12.4565 -12.2441 -12.1972
   -11.9747 -11.9547 -11.9507 -11.9231 -11.8863 -11.8520 -11.8408 -11.7995
   -11.7953 -11.7511 -11.6866 -11.6734 -11.6602  -2.7629  -2.7047  -2.5539
    -2.4830  -2.1997  -2.1162  -1.9884  -1.8535  -1.8143  -1.7949  -1.7180
    -1.6871  -1.6020  -1.5683  -1.4890  -1.4507  -1.4135  -1.3864  -1.3230
    -1.2896  -1.2432  -1.2080  -1.1734  -1.1414  -1.0301  -0.9867  -0.9488
    -0.9462  -0.8606  -0.8313  -0.8078  -0.7574  -0.6722  -0.5935  -0.5084
    -0.4819  -0.3612  -0.3331  -0.2015  -0.1589  -0.1286  -0.0795   0.0550
     0.1205   0.2197   0.2902   0.2992   0.4257   0.4894   0.5858   0.7111
     0.8120   0.8439   0.8855   0.8967   0.9280   0.9454   0.9797   0.9978
     1.0114   1.1216   1.1837   1.2080   1.2299   1.5031   1.5348   1.5609
     1.6533   1.6740   1.7077   1.7274   1.7425   1.7747   1.7841   1.8057
     1.8309   1.8643   1.8957   1.8984   1.9297   1.9827   2.0717   2.1150
     2.2800   2.4293   2.4365   2.4593   2.4877   2.5002   2.5064   2.5532
     2.5726   2.5862   2.6253   2.6336   2.6550   2.6620   2.7254   2.7415
     2.8100   2.8172   2.8373   2.8400   2.8569   2.8646   2.8652   2.8727
     2.8756   2.8904   2.9048   2.9077   2.9720   2.9747   2.9920   3.0488
     3.9576   3.9984   4.0418   4.0949   4.5643   4.7511   4.9113   5.0052
     5.2909   5.3686   5.4971   5.5864   5.8600   5.8831   6.2262   6.6726
     6.7923   6.9007   7.1409   7.3166   7.5639   7.6249   7.6471   7.7335
     7.7850   7.8780   8.0781   8.1989   8.2743   8.3506   8.5278   8.6553
     8.6945   8.7548

     occupation numbers 
     1.0000   1.0000   1.0000   1.0000   1.0000   1.0000   1.0000   1.0000
     1.0000   1.0000   1.0000   1.0000   1.0000   1.0000   1.0000   1.0000
     1.0000   1.0000   1.0000   1.0000   1.0000   1.0000   1.0000   1.0000
     1.0000   1.0000   1.0000   1.0000   1.0000   1.0000   1.0000   1.0000
     1.0000   1.0000   1.0000   1.0000   1.0000   1.0000   1.0000   1.0000
     1.0000   1.0000   1.0000   1.0000   1.0000   1.0000   1.0000   1.0000
     1.0000   1.0000   1.0000   1.0000   1.0000   1.0000   1.0000   1.0000
     1.0000   1.0000   1.0000   1.0000   1.0000   1.0000   1.0000   1.0000
     1.0000   1.0000   1.0000   1.0000   1.0000   1.0000   1.0000   1.0000
     1.0000   1.0000   1.0000   1.0000   1.0000   1.0000   1.0000   1.0000
     1.0000   1.0000   1.0000   1.0000   1.0000   1.0000   1.0000   1.0000
     1.0000   1.0000   1.0000   1.0000   1.0000   1.0000   1.0000   1.0000
     1.0000   1.0000   1.0000   1.0000   1.0000   1.0000   1.0000   1.0000
     1.0000   1.0000   1.0000   1.0000   1.0000   1.0000   1.0000   1.0000
     1.0000   1.0000   1.0000   1.0000   1.0000   1.0000   1.0000   1.0000
     1.0000   1.0000   1.0000   1.0000   1.0000   1.0000   1.0000   1.0000
     1.0000   1.0000   1.0000   1.0000   1.0000   1.0000   1.0000   1.0000
     1.0000   1.0000   1.0000   1.0000   1.0000   1.0000   1.0000   1.0000
     1.0000   1.0000   1.0000   1.0000   1.0000   1.0000   1.0000   1.0000
     1.0000   1.0000   1.0000   1.0000   1.0000   1.0000   0.9999   0.9999
     0.9997   0.9997   0.9996   0.9996   0.9995   0.9995   0.9994   0.9993
     0.9993   0.9987   0.9983   0.9981   0.9978   0.9928   0.9918   0.9909
     0.9870   0.9859   0.9840   0.9828   0.9818   0.9796   0.9789   0.9772
     0.9751   0.9721   0.9690   0.9687   0.9653   0.9588   0.9457   0.9383
     0.9024   0.8585   0.8561   0.8483   0.8382   0.8336   0.8313   0.8132
     0.8054   0.7998   0.7831   0.7795   0.7699   0.7667   0.7370   0.7291
     0.6944   0.6907   0.6800   0.6786   0.6696   0.6655   0.6651   0.6610
     0.6595   0.6514   0.6434   0.6418   0.6056   0.6041   0.5941   0.5611
     0.1159   0.1045   0.0933   0.0808   0.0180   0.0088   0.0045   0.0030
     0.0007   0.0005   0.0002   0.0002   0.0000   0.0000   0.0000   0.0000
     0.0000   0.0000   0.0000   0.0000   0.0000   0.0000   0.0000   0.0000
     0.0000   0.0000   0.0000   0.0000   0.0000   0.0000   0.0000   0.0000
     0.0000   0.0000

          k = 0.2500 0.2500 0.0000 ( 65198 PWs)   bands (ev):

   -92.8764 -92.8242 -92.7302 -92.6848 -92.6257 -92.5834 -92.5652 -92.4442
   -56.2301 -56.2111 -56.0872 -56.0767 -56.0699 -56.0637 -56.0274 -55.9992
   -55.9840 -55.9835 -55.9751 -55.9327 -55.9169 -55.8765 -55.8569 -55.8246
   -55.8198 -55.7705 -55.7705 -55.7680 -55.7596 -55.7190 -55.6953 -55.6101
   -31.4389 -31.4221 -31.2838 -31.2783 -31.1915 -31.0647 -31.0613 -30.6365
   -30.0206 -29.9784 -29.9519 -29.8438 -15.1870 -15.1420 -15.0730 -14.9566
   -14.8339 -14.7060 -14.6409 -14.4318 -14.2782 -14.2636 -14.2279 -14.1990
   -14.1747 -14.1409 -14.1162 -14.0785 -14.0110 -13.9942 -13.8311 -13.8176
   -13.7877 -13.7686 -13.7130 -13.6784 -13.5929 -13.5830 -13.4479 -13.4183
   -13.3901 -13.3064 -13.2658 -13.2289 -13.2032 -13.1813 -13.1376 -13.1092
   -13.0811 -13.0678 -13.0034 -12.9595 -12.9334 -12.9126 -12.9068 -12.8771
   -12.7888 -12.6299 -12.6159 -12.5737 -12.4684 -12.4406 -12.1897 -12.1585
   -11.9760 -11.9703 -11.9405 -11.9291 -11.9227 -11.8598 -11.8244 -11.8181
   -11.7830 -11.7755 -11.6815 -11.6419 -11.6248  -2.8396  -2.6316  -2.5130
    -2.4189  -2.2985  -2.2340  -2.0350  -1.8918  -1.8734  -1.8429  -1.7470
    -1.7149  -1.6195  -1.5902  -1.5409  -1.4106  -1.3610  -1.2892  -1.2447
    -1.1992  -1.1772  -1.1533  -1.1094  -1.0953  -1.0044  -0.9535  -0.8865
    -0.8368  -0.8048  -0.7596  -0.7424  -0.6790  -0.6318  -0.5725  -0.5384
    -0.4519  -0.3977  -0.3701  -0.3333  -0.2777  -0.1802  -0.1622  -0.1393
    -0.0518  -0.0261   0.2406   0.3912   0.4229   0.4874   0.5310   0.5917
     0.6420   0.7038   0.7383   1.0070   1.0707   1.1441   1.1693   1.2203
     1.2483   1.2845   1.3227   1.3392   1.3663   1.4168   1.4224   1.4353
     1.4797   1.5188   1.5587   1.6358   1.6669   1.6721   1.7186   1.7450
     1.7961   1.8304   1.9463   2.0121   2.0458   2.0623   2.1326   2.2010
     2.2259   2.2601   2.2912   2.3038   2.4103   2.4468   2.5341   2.5736
     2.6262   2.6636   2.7045   2.7214   2.7264   2.7448   2.7608   2.7733
     2.7846   2.7913   2.8018   2.8146   2.8265   2.8450   2.8512   2.8630
     2.8855   2.8970   2.9067   2.9371   3.2372   3.3320   3.3770   3.4527
     3.4929   3.6866   3.7814   4.1470   4.3548   4.5598   4.8199   5.1335
     5.5090   5.5659   5.5998   5.6670   5.7287   6.0802   6.1164   6.1618
     6.8401   7.0728   7.1861   7.3645   7.4593   7.4869   7.5973   7.7643
     7.8809   8.0494   8.1696   8.2132   8.3307   8.3720   8.4447   8.4727
     8.5380   8.7097

     occupation numbers 
     1.0000   1.0000   1.0000   1.0000   1.0000   1.0000   1.0000   1.0000
     1.0000   1.0000   1.0000   1.0000   1.0000   1.0000   1.0000   1.0000
     1.0000   1.0000   1.0000   1.0000   1.0000   1.0000   1.0000   1.0000
     1.0000   1.0000   1.0000   1.0000   1.0000   1.0000   1.0000   1.0000
     1.0000   1.0000   1.0000   1.0000   1.0000   1.0000   1.0000   1.0000
     1.0000   1.0000   1.0000   1.0000   1.0000   1.0000   1.0000   1.0000
     1.0000   1.0000   1.0000   1.0000   1.0000   1.0000   1.0000   1.0000
     1.0000   1.0000   1.0000   1.0000   1.0000   1.0000   1.0000   1.0000
     1.0000   1.0000   1.0000   1.0000   1.0000   1.0000   1.0000   1.0000
     1.0000   1.0000   1.0000   1.0000   1.0000   1.0000   1.0000   1.0000
     1.0000   1.0000   1.0000   1.0000   1.0000   1.0000   1.0000   1.0000
     1.0000   1.0000   1.0000   1.0000   1.0000   1.0000   1.0000   1.0000
     1.0000   1.0000   1.0000   1.0000   1.0000   1.0000   1.0000   1.0000
     1.0000   1.0000   1.0000   1.0000   1.0000   1.0000   1.0000   1.0000
     1.0000   1.0000   1.0000   1.0000   1.0000   1.0000   1.0000   1.0000
     1.0000   1.0000   1.0000   1.0000   1.0000   1.0000   1.0000   1.0000
     1.0000   1.0000   1.0000   1.0000   1.0000   1.0000   1.0000   1.0000
     1.0000   1.0000   1.0000   1.0000   1.0000   1.0000   1.0000   1.0000
     1.0000   1.0000   1.0000   1.0000   1.0000   1.0000   1.0000   1.0000
     1.0000   1.0000   1.0000   1.0000   1.0000   1.0000   1.0000   0.9999
     0.9999   0.9999   0.9998   0.9993   0.9990   0.9986   0.9984   0.9979
     0.9977   0.9972   0.9967   0.9965   0.9960   0.9950   0.9949   0.9946
     0.9935   0.9924   0.9910   0.9878   0.9863   0.9860   0.9834   0.9817
     0.9780   0.9752   0.9634   0.9548   0.9498   0.9472   0.9350   0.9211
     0.9156   0.9074   0.8995   0.8962   0.8648   0.8526   0.8207   0.8049
     0.7827   0.7660   0.7470   0.7389   0.7365   0.7275   0.7196   0.7133
     0.7075   0.7041   0.6987   0.6921   0.6858   0.6760   0.6726   0.6663
     0.6541   0.6478   0.6424   0.6254   0.4499   0.3948   0.3694   0.3278
     0.3066   0.2138   0.1752   0.0699   0.0371   0.0183   0.0066   0.0016
     0.0002   0.0002   0.0001   0.0001   0.0001   0.0000   0.0000   0.0000
     0.0000   0.0000   0.0000   0.0000   0.0000   0.0000   0.0000   0.0000
     0.0000   0.0000   0.0000   0.0000   0.0000   0.0000   0.0000   0.0000
     0.0000   0.0000

          k = 0.2500-0.5000 0.0000 ( 65138 PWs)   bands (ev):

   -92.8764 -92.8242 -92.7302 -92.6848 -92.6257 -92.5834 -92.5652 -92.4442
   -56.2301 -56.2111 -56.0872 -56.0767 -56.0699 -56.0637 -56.0274 -55.9992
   -55.9840 -55.9835 -55.9751 -55.9327 -55.9169 -55.8765 -55.8569 -55.8246
   -55.8198 -55.7705 -55.7705 -55.7680 -55.7596 -55.7190 -55.6953 -55.6101
   -31.4387 -31.4220 -31.2836 -31.2785 -31.1916 -31.0649 -31.0613 -30.6366
   -30.0200 -29.9781 -29.9526 -29.8441 -15.1477 -15.1042 -15.0297 -14.9204
   -14.8854 -14.7713 -14.6702 -14.5485 -14.2432 -14.1874 -14.1635 -14.1375
   -14.1240 -14.1113 -14.0721 -14.0554 -14.0260 -13.9877 -13.9652 -13.9093
   -13.8343 -13.7859 -13.7287 -13.7065 -13.6340 -13.5877 -13.5037 -13.4783
   -13.3702 -13.3048 -13.2876 -13.2118 -13.1887 -13.1520 -13.1373 -13.1068
   -13.0754 -13.0563 -13.0237 -12.9671 -12.9500 -12.8489 -12.8225 -12.8196
   -12.7881 -12.6847 -12.5926 -12.5016 -12.4839 -12.4120 -12.2382 -12.2039
   -11.9748 -11.9479 -11.9354 -11.9244 -11.8973 -11.8664 -11.8370 -11.7970
   -11.7681 -11.7472 -11.6998 -11.6750 -11.6644  -2.6207  -2.5561  -2.4274
    -2.3514  -2.2200  -2.1362  -2.0127  -1.8646  -1.8095  -1.7874  -1.7257
    -1.7129  -1.6127  -1.5485  -1.4636  -1.4114  -1.4023  -1.3411  -1.2953
    -1.2636  -1.2159  -1.1788  -1.1435  -1.1043  -1.0897  -1.0474  -1.0173
    -0.9752  -0.9433  -0.8774  -0.7751  -0.7333  -0.6546  -0.5876  -0.5367
    -0.4964  -0.4778  -0.4143  -0.2562  -0.2454  -0.1472  -0.1130  -0.1061
    -0.0633  -0.0213   0.0152   0.0467   0.1053   0.3921   0.4974   0.5527
     0.6099   0.8763   0.8933   0.9792   1.0092   1.1675   1.2032   1.2447
     1.2673   1.2801   1.3011   1.3648   1.4133   1.4467   1.5252   1.6367
     1.6698   1.6814   1.6920   1.7309   1.7391   1.7619   1.7986   1.8043
     1.8323   1.8548   1.8740   1.8905   1.9273   1.9827   2.0260   2.1094
     2.2424   2.3816   2.3993   2.4170   2.4461   2.4665   2.4893   2.5174
     2.5300   2.5475   2.5848   2.6382   2.6582   2.6655   2.7048   2.7235
     2.7290   2.7417   2.7605   2.7739   2.7945   2.8021   2.8356   2.8456
     2.8608   2.8684   2.8769   2.8870   3.4128   3.4331   3.5693   3.6269
     3.9719   4.0261   4.0433   4.1521   4.5840   4.7705   4.9298   4.9720
     5.1418   5.3084   5.5059   5.5328   5.6326   5.6798   6.3126   6.3459
     6.4548   6.7760   7.2195   7.5878   7.6688   7.7165   7.7619   7.8023
     7.9129   7.9993   8.1692   8.2898   8.3995   8.4110   8.5585   8.5942
     8.6443   8.7453

     occupation numbers 
     1.0000   1.0000   1.0000   1.0000   1.0000   1.0000   1.0000   1.0000
     1.0000   1.0000   1.0000   1.0000   1.0000   1.0000   1.0000   1.0000
     1.0000   1.0000   1.0000   1.0000   1.0000   1.0000   1.0000   1.0000
     1.0000   1.0000   1.0000   1.0000   1.0000   1.0000   1.0000   1.0000
     1.0000   1.0000   1.0000   1.0000   1.0000   1.0000   1.0000   1.0000
     1.0000   1.0000   1.0000   1.0000   1.0000   1.0000   1.0000   1.0000
     1.0000   1.0000   1.0000   1.0000   1.0000   1.0000   1.0000   1.0000
     1.0000   1.0000   1.0000   1.0000   1.0000   1.0000   1.0000   1.0000
     1.0000   1.0000   1.0000   1.0000   1.0000   1.0000   1.0000   1.0000
     1.0000   1.0000   1.0000   1.0000   1.0000   1.0000   1.0000   1.0000
     1.0000   1.0000   1.0000   1.0000   1.0000   1.0000   1.0000   1.0000
     1.0000   1.0000   1.0000   1.0000   1.0000   1.0000   1.0000   1.0000
     1.0000   1.0000   1.0000   1.0000   1.0000   1.0000   1.0000   1.0000
     1.0000   1.0000   1.0000   1.0000   1.0000   1.0000   1.0000   1.0000
     1.0000   1.0000   1.0000   1.0000   1.0000   1.0000   1.0000   1.0000
     1.0000   1.0000   1.0000   1.0000   1.0000   1.0000   1.0000   1.0000
     1.0000   1.0000   1.0000   1.0000   1.0000   1.0000   1.0000   1.0000
     1.0000   1.0000   1.0000   1.0000   1.0000   1.0000   1.0000   1.0000
     1.0000   1.0000   1.0000   1.0000   1.0000   1.0000   1.0000   1.0000
     1.0000   1.0000   1.0000   1.0000   1.0000   1.0000   1.0000   0.9999
     0.9999   0.9996   0.9996   0.9994   0.9993   0.9984   0.9981   0.9977
     0.9974   0.9973   0.9970   0.9960   0.9951   0.9943   0.9922   0.9878
     0.9862   0.9855   0.9849   0.9826   0.9821   0.9805   0.9778   0.9774
     0.9750   0.9730   0.9712   0.9695   0.9656   0.9588   0.9528   0.9393
     0.9117   0.8738   0.8683   0.8626   0.8529   0.8458   0.8376   0.8272
     0.8223   0.8155   0.8003   0.7774   0.7685   0.7652   0.7469   0.7379
     0.7352   0.7290   0.7197   0.7129   0.7024   0.6985   0.6810   0.6756
     0.6675   0.6634   0.6588   0.6532   0.3495   0.3384   0.2680   0.2405
     0.1118   0.0973   0.0929   0.0689   0.0168   0.0081   0.0042   0.0034
     0.0016   0.0007   0.0002   0.0002   0.0001   0.0001   0.0000   0.0000
     0.0000   0.0000   0.0000   0.0000   0.0000   0.0000   0.0000   0.0000
     0.0000   0.0000   0.0000   0.0000   0.0000   0.0000   0.0000   0.0000
     0.0000   0.0000

          k =-0.5000-0.5000 0.0000 ( 65132 PWs)   bands (ev):

   -92.8764 -92.8242 -92.7302 -92.6848 -92.6257 -92.5834 -92.5652 -92.4442
   -56.2301 -56.2111 -56.0872 -56.0767 -56.0699 -56.0637 -56.0274 -55.9992
   -55.9840 -55.9835 -55.9751 -55.9327 -55.9169 -55.8765 -55.8569 -55.8246
   -55.8198 -55.7705 -55.7705 -55.7680 -55.7596 -55.7190 -55.6953 -55.6101
   -31.4367 -31.4240 -31.2835 -31.2781 -31.1920 -31.0648 -31.0614 -30.6367
   -30.0190 -29.9791 -29.9522 -29.8445 -15.0997 -15.0769 -14.9600 -14.9428
   -14.8476 -14.8165 -14.7796 -14.6470 -14.1542 -14.1401 -14.1078 -14.0898
   -14.0695 -14.0499 -14.0317 -14.0185 -13.9991 -13.9963 -13.9804 -13.9013
   -13.8931 -13.8627 -13.8298 -13.8112 -13.7216 -13.6500 -13.5315 -13.5256
   -13.3210 -13.2856 -13.2127 -13.1895 -13.1788 -13.1526 -13.1470 -13.1373
   -13.1198 -13.0148 -13.0000 -12.9489 -12.9281 -12.9142 -12.8866 -12.7693
   -12.7618 -12.7008 -12.5963 -12.4812 -12.4666 -12.3731 -12.2337 -12.2107
   -11.9748 -11.9439 -11.9322 -11.9146 -11.8971 -11.8627 -11.8445 -11.8090
   -11.7473 -11.7294 -11.7228 -11.6733 -11.6703  -2.3958  -2.3207  -2.3108
    -2.2399  -2.2014  -2.1230  -2.0545  -1.9300  -1.8149  -1.7844  -1.7448
    -1.6876  -1.6168  -1.5997  -1.5310  -1.4885  -1.3708  -1.3387  -1.2935
    -1.2658  -1.2012  -1.1522  -1.1344  -1.1212  -1.0678  -1.0259  -1.0080
    -0.8963  -0.8388  -0.7896  -0.7413  -0.7138  -0.7025  -0.6663  -0.6206
    -0.5850  -0.5780  -0.4924  -0.4218  -0.3824  -0.3496  -0.2815  -0.2145
    -0.1992  -0.1422  -0.1213  -0.1134  -0.1028   0.3600   0.4350   0.4956
     0.5334   0.9047   0.9170   0.9490   0.9847   1.2545   1.2731   1.2814
     1.3182   1.4473   1.5401   1.5685   1.6054   1.6396   1.6516   1.6623
     1.6928   1.7115   1.7313   1.7488   1.7751   1.7818   1.8073   1.8454
     1.8545   1.8656   1.9077   1.9260   1.9391   1.9703   1.9996   2.0615
     2.1284   2.3942   2.4252   2.4461   2.4626   2.4660   2.4986   2.5044
     2.5229   2.5378   2.5555   2.5627   2.5855   2.6060   2.6405   2.6535
     2.6584   2.6676   2.6792   2.6978   2.7052   2.7257   2.7369   2.7424
     2.8418   2.8492   2.8737   2.8843   3.8324   3.8729   3.9197   3.9510
     4.1449   4.2185   4.2443   4.4856   4.6078   4.6900   4.8233   4.9264
     4.9472   5.0340   5.1778   5.2473   5.8153   5.8422   5.9029   6.0142
     6.4845   6.8814   6.9352   7.6333   7.8446   7.8565   7.9380   8.0747
     8.1106   8.1796   8.2026   8.2965   8.3583   8.4590   8.4958   8.5025
     8.5423   8.6194

     occupation numbers 
     1.0000   1.0000   1.0000   1.0000   1.0000   1.0000   1.0000   1.0000
     1.0000   1.0000   1.0000   1.0000   1.0000   1.0000   1.0000   1.0000
     1.0000   1.0000   1.0000   1.0000   1.0000   1.0000   1.0000   1.0000
     1.0000   1.0000   1.0000   1.0000   1.0000   1.0000   1.0000   1.0000
     1.0000   1.0000   1.0000   1.0000   1.0000   1.0000   1.0000   1.0000
     1.0000   1.0000   1.0000   1.0000   1.0000   1.0000   1.0000   1.0000
     1.0000   1.0000   1.0000   1.0000   1.0000   1.0000   1.0000   1.0000
     1.0000   1.0000   1.0000   1.0000   1.0000   1.0000   1.0000   1.0000
     1.0000   1.0000   1.0000   1.0000   1.0000   1.0000   1.0000   1.0000
     1.0000   1.0000   1.0000   1.0000   1.0000   1.0000   1.0000   1.0000
     1.0000   1.0000   1.0000   1.0000   1.0000   1.0000   1.0000   1.0000
     1.0000   1.0000   1.0000   1.0000   1.0000   1.0000   1.0000   1.0000
     1.0000   1.0000   1.0000   1.0000   1.0000   1.0000   1.0000   1.0000
     1.0000   1.0000   1.0000   1.0000   1.0000   1.0000   1.0000   1.0000
     1.0000   1.0000   1.0000   1.0000   1.0000   1.0000   1.0000   1.0000
     1.0000   1.0000   1.0000   1.0000   1.0000   1.0000   1.0000   1.0000
     1.0000   1.0000   1.0000   1.0000   1.0000   1.0000   1.0000   1.0000
     1.0000   1.0000   1.0000   1.0000   1.0000   1.0000   1.0000   1.0000
     1.0000   1.0000   1.0000   1.0000   1.0000   1.0000   1.0000   1.0000
     1.0000   1.0000   1.0000   1.0000   1.0000   1.0000   1.0000   1.0000
     0.9999   0.9996   0.9995   0.9995   0.9994   0.9976   0.9974   0.9973
     0.9968   0.9943   0.9917   0.9907   0.9892   0.9877   0.9871   0.9865
     0.9849   0.9838   0.9826   0.9814   0.9796   0.9791   0.9771   0.9739
     0.9730   0.9720   0.9677   0.9657   0.9642   0.9604   0.9565   0.9474
     0.9358   0.8699   0.8599   0.8529   0.8472   0.8460   0.8342   0.8320
     0.8251   0.8193   0.8123   0.8094   0.8000   0.7914   0.7764   0.7706
     0.7684   0.7642   0.7589   0.7502   0.7467   0.7369   0.7314   0.7287
     0.6777   0.6737   0.6605   0.6547   0.1563   0.1424   0.1273   0.1179
     0.0703   0.0567   0.0525   0.0239   0.0153   0.0112   0.0065   0.0042
     0.0038   0.0026   0.0013   0.0009   0.0000   0.0000   0.0000   0.0000
     0.0000   0.0000   0.0000   0.0000   0.0000   0.0000   0.0000   0.0000
     0.0000   0.0000   0.0000   0.0000   0.0000   0.0000   0.0000   0.0000
     0.0000   0.0000

          k = 0.2500 0.0000 0.0000 ( 65257 PWs)   bands (ev):

   -92.8764 -92.8242 -92.7302 -92.6848 -92.6257 -92.5834 -92.5652 -92.4442
   -56.2301 -56.2111 -56.0872 -56.0767 -56.0699 -56.0637 -56.0274 -55.9992
   -55.9840 -55.9835 -55.9751 -55.9327 -55.9169 -55.8765 -55.8569 -55.8246
   -55.8198 -55.7705 -55.7705 -55.7680 -55.7596 -55.7190 -55.6953 -55.6101
   -31.4391 -31.4222 -31.2839 -31.2781 -31.1913 -31.0646 -31.0614 -30.6364
   -30.0212 -29.9787 -29.9513 -29.8434 -15.2198 -15.1717 -15.1075 -14.9595
   -14.8499 -14.6513 -14.5266 -14.3457 -14.3281 -14.2978 -14.2639 -14.2416
   -14.2039 -14.1885 -14.1705 -14.1205 -14.0118 -13.9793 -13.8279 -13.7607
   -13.7478 -13.6860 -13.6624 -13.6461 -13.5700 -13.5115 -13.4735 -13.3777
   -13.3236 -13.3202 -13.2482 -13.2235 -13.2053 -13.1879 -13.1701 -13.1341
   -13.0992 -13.0729 -13.0275 -12.9933 -12.9832 -12.9626 -12.9340 -12.8428
   -12.7998 -12.6395 -12.5988 -12.5718 -12.5690 -12.4125 -12.1693 -12.1086
   -11.9992 -11.9739 -11.9478 -11.9304 -11.9158 -11.8891 -11.8390 -11.8161
   -11.8076 -11.7576 -11.6664 -11.6121 -11.6062  -2.9776  -2.7566  -2.6263
    -2.4537  -2.3898  -2.2206  -2.0117  -1.9363  -1.8930  -1.8568  -1.7547
    -1.7410  -1.7063  -1.6872  -1.6169  -1.4369  -1.3286  -1.2895  -1.1916
    -1.1791  -1.1021  -1.0752  -1.0228  -0.9817  -0.9307  -0.8990  -0.8520
    -0.8246  -0.8019  -0.7513  -0.7348  -0.6440  -0.6362  -0.5661  -0.4705
    -0.4185  -0.2950  -0.2855  -0.2203  -0.1695  -0.1241  -0.0881  -0.0543
     0.0019   0.0428   0.3316   0.4627   0.4927   0.5826   0.6195   0.6437
     0.6655   0.7365   0.8499   0.8955   0.9221   0.9607   1.1086   1.1426
     1.1757   1.1826   1.2219   1.2680   1.3110   1.3429   1.4006   1.4473
     1.4634   1.5170   1.5726   1.6143   1.6364   1.7192   1.7313   1.7631
     1.7896   1.8125   1.9295   1.9897   2.0693   2.1295   2.1428   2.2261
     2.2910   2.3165   2.3661   2.3775   2.3908   2.4499   2.5673   2.5786
     2.6229   2.6668   2.6891   2.7082   2.7450   2.7669   2.7725   2.7942
     2.8026   2.8166   2.8383   2.8449   2.8696   2.8829   2.8873   2.9001
[...]
     0.6335   0.6209   0.6180   0.6134   0.6105   0.6045   0.5994   0.5205
     0.3499   0.3194   0.2027   0.0752   0.0437   0.0207   0.0048   0.0030
     0.0002   0.0001   0.0000   0.0000   0.0000   0.0000   0.0000   0.0000
     0.0000   0.0000   0.0000   0.0000   0.0000   0.0000   0.0000   0.0000
     0.0000   0.0000   0.0000   0.0000   0.0000   0.0000   0.0000   0.0000
     0.0000   0.0000

          k =-0.5000 0.0000 0.0000 ( 65180 PWs)   bands (ev):

   -92.8764 -92.8242 -92.7302 -92.6848 -92.6257 -92.5834 -92.5652 -92.4442
   -56.2301 -56.2111 -56.0872 -56.0767 -56.0699 -56.0637 -56.0274 -55.9992
   -55.9840 -55.9835 -55.9751 -55.9327 -55.9169 -55.8765 -55.8569 -55.8246
   -55.8198 -55.7705 -55.7705 -55.7680 -55.7596 -55.7190 -55.6953 -55.6101
   -31.4370 -31.4243 -31.2838 -31.2777 -31.1917 -31.0645 -31.0616 -30.6365
   -30.0202 -29.9798 -29.9509 -29.8438 -15.1852 -15.1302 -15.0688 -14.9601
   -14.8571 -14.7150 -14.5607 -14.4239 -14.3027 -14.2882 -14.2791 -14.2151
   -14.1575 -14.1256 -14.0758 -14.0709 -14.0515 -14.0060 -13.9860 -13.8741
   -13.7247 -13.6934 -13.6642 -13.6579 -13.5642 -13.5322 -13.4610 -13.4292
   -13.4057 -13.3891 -13.2397 -13.2172 -13.2015 -13.1779 -13.1662 -13.1190
   -13.1046 -13.0844 -13.0251 -12.9919 -12.9568 -12.8045 -12.7960 -12.7949
   -12.7597 -12.7041 -12.5898 -12.5484 -12.4906 -12.4601 -12.2445 -12.1946
   -11.9752 -11.9516 -11.9294 -11.9230 -11.9077 -11.8896 -11.8487 -11.7858
   -11.7685 -11.7360 -11.6892 -11.6806 -11.6654  -2.7531  -2.7153  -2.5519
    -2.5129  -2.1977  -2.1235  -1.9750  -1.8587  -1.8192  -1.7744  -1.7255
    -1.7018  -1.5770  -1.5336  -1.5168  -1.4352  -1.4007  -1.3823  -1.3534
    -1.2931  -1.2260  -1.1981  -1.1658  -1.0708  -1.0259  -0.9766  -0.9433
    -0.9223  -0.8924  -0.8439  -0.8195  -0.7752  -0.6798  -0.6075  -0.5391
    -0.4795  -0.2966  -0.2784  -0.2262  -0.1869  -0.1183  -0.1014   0.0337
     0.0613   0.0997   0.2695   0.3688   0.4182   0.5009   0.5950   0.6911
     0.7099   0.8465   0.8629   0.9150   0.9448   0.9794   0.9981   1.0379
     1.0629   1.1355   1.1795   1.2269   1.2332   1.5429   1.5489   1.5679
     1.6003   1.6954   1.7088   1.7250   1.7318   1.7579   1.7714   1.8134
     1.8261   1.8593   1.9056   1.9270   1.9736   2.0001   2.0516   2.1583
     2.2768   2.3318   2.3460   2.4262   2.4526   2.4818   2.5441   2.5575
     2.5630   2.5825   2.5953   2.6278   2.6628   2.6722   2.7155   2.7566
     2.7913   2.8268   2.8315   2.8328   2.8444   2.8592   2.8704   2.8849
     2.8892   2.9143   2.9180   2.9361   2.9556   2.9625   3.0918   3.1024
     3.8922   3.9692   4.0386   4.1773   4.6261   4.7130   4.8853   4.9330
     5.3757   5.4149   5.4958   5.5168   5.8678   5.8726   6.2353   6.6583
     6.7431   6.9481   7.2068   7.2599   7.5932   7.6347   7.6730   7.7253
     7.7703   7.8508   8.0707   8.2558   8.3547   8.3740   8.4688   8.5277
     8.6431   8.7316

     occupation numbers 
     1.0000   1.0000   1.0000   1.0000   1.0000   1.0000   1.0000   1.0000
     1.0000   1.0000   1.0000   1.0000   1.0000   1.0000   1.0000   1.0000
     1.0000   1.0000   1.0000   1.0000   1.0000   1.0000   1.0000   1.0000
     1.0000   1.0000   1.0000   1.0000   1.0000   1.0000   1.0000   1.0000
     1.0000   1.0000   1.0000   1.0000   1.0000   1.0000   1.0000   1.0000
     1.0000   1.0000   1.0000   1.0000   1.0000   1.0000   1.0000   1.0000
     1.0000   1.0000   1.0000   1.0000   1.0000   1.0000   1.0000   1.0000
     1.0000   1.0000   1.0000   1.0000   1.0000   1.0000   1.0000   1.0000
     1.0000   1.0000   1.0000   1.0000   1.0000   1.0000   1.0000   1.0000
     1.0000   1.0000   1.0000   1.0000   1.0000   1.0000   1.0000   1.0000
     1.0000   1.0000   1.0000   1.0000   1.0000   1.0000   1.0000   1.0000
     1.0000   1.0000   1.0000   1.0000   1.0000   1.0000   1.0000   1.0000
     1.0000   1.0000   1.0000   1.0000   1.0000   1.0000   1.0000   1.0000
     1.0000   1.0000   1.0000   1.0000   1.0000   1.0000   1.0000   1.0000
     1.0000   1.0000   1.0000   1.0000   1.0000   1.0000   1.0000   1.0000
     1.0000   1.0000   1.0000   1.0000   1.0000   1.0000   1.0000   1.0000
     1.0000   1.0000   1.0000   1.0000   1.0000   1.0000   1.0000   1.0000
     1.0000   1.0000   1.0000   1.0000   1.0000   1.0000   1.0000   1.0000
     1.0000   1.0000   1.0000   1.0000   1.0000   1.0000   1.0000   1.0000
     1.0000   1.0000   1.0000   1.0000   1.0000   1.0000   0.9999   0.9999
     0.9999   0.9997   0.9997   0.9996   0.9995   0.9994   0.9993   0.9992
     0.9990   0.9986   0.9983   0.9979   0.9978   0.9916   0.9914   0.9907
     0.9894   0.9848   0.9840   0.9830   0.9825   0.9808   0.9798   0.9766
     0.9756   0.9726   0.9679   0.9656   0.9600   0.9565   0.9489   0.9300
     0.9032   0.8885   0.8844   0.8596   0.8506   0.8403   0.8168   0.8115
     0.8093   0.8013   0.7959   0.7820   0.7664   0.7621   0.7418   0.7217
     0.7041   0.6856   0.6832   0.6825   0.6763   0.6684   0.6623   0.6544
     0.6520   0.6382   0.6361   0.6260   0.6150   0.6110   0.5359   0.5296
     0.1360   0.1126   0.0941   0.0640   0.0143   0.0102   0.0050   0.0041
     0.0005   0.0004   0.0003   0.0002   0.0000   0.0000   0.0000   0.0000
     0.0000   0.0000   0.0000   0.0000   0.0000   0.0000   0.0000   0.0000
     0.0000   0.0000   0.0000   0.0000   0.0000   0.0000   0.0000   0.0000
     0.0000   0.0000

          k =-0.2500 0.2500 0.0000 ( 65198 PWs)   bands (ev):

   -92.8764 -92.8242 -92.7302 -92.6848 -92.6257 -92.5834 -92.5652 -92.4442
   -56.2301 -56.2111 -56.0872 -56.0767 -56.0699 -56.0637 -56.0274 -55.9992
   -55.9840 -55.9835 -55.9751 -55.9327 -55.9169 -55.8765 -55.8569 -55.8246
   -55.8198 -55.7705 -55.7705 -55.7680 -55.7596 -55.7190 -55.6953 -55.6101
   -31.4389 -31.4221 -31.2838 -31.2783 -31.1915 -31.0647 -31.0613 -30.6365
   -30.0206 -29.9784 -29.9519 -29.8438 -15.1882 -15.1407 -15.0721 -14.9549
   -14.8397 -14.7118 -14.6323 -14.4217 -14.2848 -14.2554 -14.2399 -14.1935
   -14.1686 -14.1453 -14.1266 -14.0847 -14.0060 -13.9949 -13.8392 -13.8150
   -13.7850 -13.7639 -13.7148 -13.6656 -13.6005 -13.5749 -13.4502 -13.4263
   -13.3856 -13.3100 -13.2680 -13.2132 -13.2000 -13.1684 -13.1469 -13.1093
   -13.0897 -13.0595 -13.0221 -12.9841 -12.9488 -12.9336 -12.9059 -12.8556
   -12.7407 -12.6056 -12.5918 -12.5794 -12.5184 -12.4464 -12.2070 -12.1371
   -11.9758 -11.9697 -11.9501 -11.9220 -11.9104 -11.8694 -11.8340 -11.8116
   -11.7901 -11.7678 -11.6813 -11.6374 -11.6279  -2.8379  -2.6305  -2.5091
    -2.4203  -2.3027  -2.2369  -2.0326  -1.8886  -1.8711  -1.8410  -1.7475
    -1.7139  -1.6187  -1.5848  -1.5577  -1.4163  -1.3601  -1.2916  -1.2624
    -1.2028  -1.1830  -1.1432  -1.1144  -1.0738  -1.0107  -0.9619  -0.8978
    -0.8289  -0.8008  -0.7520  -0.7235  -0.6771  -0.6213  -0.5748  -0.5348
    -0.4313  -0.4017  -0.3857  -0.3463  -0.2794  -0.1880  -0.1570  -0.1297
    -0.0481  -0.0293   0.2222   0.3925   0.4312   0.4741   0.5411   0.5929
     0.6445   0.7104   0.7354   1.0155   1.1206   1.1620   1.1949   1.1995
     1.2432   1.2589   1.3038   1.3353   1.3482   1.3735   1.4229   1.4416
     1.4765   1.4962   1.5411   1.6500   1.6581   1.6737   1.7196   1.7415
     1.7803   1.8362   1.9380   2.0428   2.0639   2.1109   2.1300   2.1992
     2.2380   2.2636   2.2928   2.3115   2.4104   2.4463   2.5351   2.5719
     2.6258   2.6640   2.7111   2.7208   2.7340   2.7424   2.7545   2.7709
     2.7746   2.7930   2.8004   2.8154   2.8242   2.8369   2.8460   2.8538
     2.8869   2.8968   2.9054   2.9394   3.2305   3.3127   3.3804   3.4600
     3.4987   3.6710   3.7903   4.1460   4.3530   4.5614   4.8290   5.1337
     5.5108   5.5613   5.6030   5.6634   5.7297   6.0954   6.1120   6.1507
     6.8407   7.0875   7.1680   7.3718   7.4691   7.4926   7.5743   7.7744
     7.8474   8.0777   8.2086   8.2178   8.3229   8.3351   8.4432   8.4614
     8.5352   8.7456

     occupation numbers 
     1.0000   1.0000   1.0000   1.0000   1.0000   1.0000   1.0000   1.0000
     1.0000   1.0000   1.0000   1.0000   1.0000   1.0000   1.0000   1.0000
     1.0000   1.0000   1.0000   1.0000   1.0000   1.0000   1.0000   1.0000
     1.0000   1.0000   1.0000   1.0000   1.0000   1.0000   1.0000   1.0000
     1.0000   1.0000   1.0000   1.0000   1.0000   1.0000   1.0000   1.0000
     1.0000   1.0000   1.0000   1.0000   1.0000   1.0000   1.0000   1.0000
     1.0000   1.0000   1.0000   1.0000   1.0000   1.0000   1.0000   1.0000
     1.0000   1.0000   1.0000   1.0000   1.0000   1.0000   1.0000   1.0000
     1.0000   1.0000   1.0000   1.0000   1.0000   1.0000   1.0000   1.0000
     1.0000   1.0000   1.0000   1.0000   1.0000   1.0000   1.0000   1.0000
     1.0000   1.0000   1.0000   1.0000   1.0000   1.0000   1.0000   1.0000
     1.0000   1.0000   1.0000   1.0000   1.0000   1.0000   1.0000   1.0000
     1.0000   1.0000   1.0000   1.0000   1.0000   1.0000   1.0000   1.0000
     1.0000   1.0000   1.0000   1.0000   1.0000   1.0000   1.0000   1.0000
     1.0000   1.0000   1.0000   1.0000   1.0000   1.0000   1.0000   1.0000
     1.0000   1.0000   1.0000   1.0000   1.0000   1.0000   1.0000   1.0000
     1.0000   1.0000   1.0000   1.0000   1.0000   1.0000   1.0000   1.0000
     1.0000   1.0000   1.0000   1.0000   1.0000   1.0000   1.0000   1.0000
     1.0000   1.0000   1.0000   1.0000   1.0000   1.0000   1.0000   1.0000
     1.0000   1.0000   1.0000   1.0000   1.0000   1.0000   0.9999   0.9999
     0.9999   0.9999   0.9998   0.9992   0.9987   0.9984   0.9982   0.9981
     0.9977   0.9975   0.9970   0.9965   0.9963   0.9959   0.9949   0.9945
     0.9936   0.9930   0.9916   0.9872   0.9868   0.9859   0.9833   0.9819
     0.9792   0.9747   0.9643   0.9503   0.9470   0.9390   0.9355   0.9215
     0.9127   0.9065   0.8991   0.8941   0.8647   0.8528   0.8204   0.8056
     0.7829   0.7658   0.7439   0.7392   0.7328   0.7287   0.7227   0.7145
     0.7126   0.7032   0.6994   0.6916   0.6870   0.6803   0.6754   0.6713
     0.6533   0.6478   0.6431   0.6241   0.4538   0.4060   0.3675   0.3239
     0.3036   0.2206   0.1718   0.0700   0.0373   0.0182   0.0064   0.0016
     0.0002   0.0002   0.0001   0.0001   0.0001   0.0000   0.0000   0.0000
     0.0000   0.0000   0.0000   0.0000   0.0000   0.0000   0.0000   0.0000
     0.0000   0.0000   0.0000   0.0000   0.0000   0.0000   0.0000   0.0000
     0.0000   0.0000

          k =-0.5000 0.2500 0.0000 ( 65138 PWs)   bands (ev):

   -92.8764 -92.8242 -92.7302 -92.6848 -92.6257 -92.5834 -92.5652 -92.4442
   -56.2301 -56.2111 -56.0872 -56.0767 -56.0699 -56.0637 -56.0274 -55.9992
   -55.9840 -55.9835 -55.9751 -55.9327 -55.9169 -55.8765 -55.8569 -55.8246
   -55.8198 -55.7705 -55.7705 -55.7680 -55.7596 -55.7190 -55.6953 -55.6101
   -31.4369 -31.4241 -31.2836 -31.2779 -31.1918 -31.0647 -31.0615 -30.6366
   -30.0196 -29.9794 -29.9516 -29.8442 -15.1517 -15.1042 -15.0256 -14.9271
   -14.8853 -14.7622 -14.6672 -14.5415 -14.2358 -14.2048 -14.1928 -14.1443
   -14.1237 -14.0985 -14.0632 -14.0568 -14.0312 -13.9930 -13.9835 -13.8715
   -13.8054 -13.7571 -13.7517 -13.7372 -13.6349 -13.6064 -13.4987 -13.4588
   -13.3628 -13.3289 -13.2342 -13.2045 -13.1869 -13.1784 -13.1459 -13.1121
   -13.1016 -13.0632 -13.0197 -12.9661 -12.9592 -12.8451 -12.8197 -12.7859
   -12.7788 -12.7022 -12.5920 -12.5045 -12.4857 -12.4137 -12.2392 -12.2019
   -11.9750 -11.9440 -11.9310 -11.9174 -11.9053 -11.8831 -11.8536 -11.7728
   -11.7635 -11.7416 -11.7038 -11.6767 -11.6680  -2.6103  -2.5692  -2.4213
    -2.3791  -2.2169  -2.1420  -1.9993  -1.8648  -1.8080  -1.7815  -1.7419
    -1.7039  -1.6227  -1.5072  -1.4496  -1.4269  -1.4015  -1.3216  -1.2965
    -1.2561  -1.2401  -1.1794  -1.1480  -1.1118  -1.0764  -1.0472  -0.9886
    -0.9608  -0.9189  -0.8841  -0.7802  -0.7495  -0.6617  -0.6016  -0.5689
    -0.5134  -0.4288  -0.3906  -0.2959  -0.2397  -0.1955  -0.1361  -0.1133
    -0.0443  -0.0221   0.0097   0.0601   0.1016   0.4164   0.5041   0.5450
     0.5779   0.8573   0.9076   0.9822   1.0081   1.1812   1.2182   1.2553
     1.2645   1.2832   1.3012   1.3722   1.4154   1.4632   1.4862   1.6284
     1.6589   1.6781   1.6884   1.7422   1.7589   1.7705   1.7842   1.8040
     1.8289   1.8732   1.8824   1.9191   1.9418   1.9781   2.0282   2.1503
     2.2500   2.2822   2.3474   2.3795   2.4426   2.4782   2.4843   2.5235
     2.5492   2.5739   2.5853   2.6294   2.6613   2.6705   2.7096   2.7220
     2.7285   2.7472   2.7690   2.7809   2.7982   2.8103   2.8317   2.8425
     2.8534   2.8599   2.8713   2.8825   3.4115   3.4776   3.6002   3.6258
     3.9002   3.9936   4.0404   4.2511   4.6185   4.7249   4.8805   4.9464
     5.2410   5.2746   5.5030   5.5676   5.6227   5.6437   6.3248   6.3433
     6.4575   6.7532   7.2501   7.6092   7.6768   7.7267   7.7491   7.7891
     7.9057   7.9684   8.1807   8.3439   8.4010   8.4258   8.5123   8.5700
     8.6753   8.7136

     occupation numbers 
     1.0000   1.0000   1.0000   1.0000   1.0000   1.0000   1.0000   1.0000
     1.0000   1.0000   1.0000   1.0000   1.0000   1.0000   1.0000   1.0000
     1.0000   1.0000   1.0000   1.0000   1.0000   1.0000   1.0000   1.0000
     1.0000   1.0000   1.0000   1.0000   1.0000   1.0000   1.0000   1.0000
     1.0000   1.0000   1.0000   1.0000   1.0000   1.0000   1.0000   1.0000
     1.0000   1.0000   1.0000   1.0000   1.0000   1.0000   1.0000   1.0000
     1.0000   1.0000   1.0000   1.0000   1.0000   1.0000   1.0000   1.0000
     1.0000   1.0000   1.0000   1.0000   1.0000   1.0000   1.0000   1.0000
     1.0000   1.0000   1.0000   1.0000   1.0000   1.0000   1.0000   1.0000
     1.0000   1.0000   1.0000   1.0000   1.0000   1.0000   1.0000   1.0000
     1.0000   1.0000   1.0000   1.0000   1.0000   1.0000   1.0000   1.0000
     1.0000   1.0000   1.0000   1.0000   1.0000   1.0000   1.0000   1.0000
     1.0000   1.0000   1.0000   1.0000   1.0000   1.0000   1.0000   1.0000
     1.0000   1.0000   1.0000   1.0000   1.0000   1.0000   1.0000   1.0000
     1.0000   1.0000   1.0000   1.0000   1.0000   1.0000   1.0000   1.0000
     1.0000   1.0000   1.0000   1.0000   1.0000   1.0000   1.0000   1.0000
     1.0000   1.0000   1.0000   1.0000   1.0000   1.0000   1.0000   1.0000
     1.0000   1.0000   1.0000   1.0000   1.0000   1.0000   1.0000   1.0000
     1.0000   1.0000   1.0000   1.0000   1.0000   1.0000   1.0000   1.0000
     1.0000   1.0000   1.0000   1.0000   1.0000   1.0000   1.0000   0.9999
     0.9999   0.9997   0.9996   0.9994   0.9993   0.9983   0.9980   0.9976
     0.9975   0.9972   0.9970   0.9959   0.9950   0.9939   0.9933   0.9882
     0.9867   0.9857   0.9851   0.9819   0.9807   0.9799   0.9789   0.9774
     0.9753   0.9712   0.9703   0.9665   0.9639   0.9594   0.9525   0.9316
     0.9099   0.9018   0.8840   0.8744   0.8540   0.8416   0.8394   0.8248
     0.8148   0.8048   0.8001   0.7813   0.7671   0.7629   0.7446   0.7386
     0.7355   0.7263   0.7154   0.7094   0.7005   0.6943   0.6830   0.6773
     0.6715   0.6680   0.6618   0.6557   0.3502   0.3146   0.2530   0.2410
     0.1334   0.1058   0.0937   0.0514   0.0147   0.0098   0.0051   0.0039
     0.0010   0.0008   0.0002   0.0002   0.0001   0.0001   0.0000   0.0000
     0.0000   0.0000   0.0000   0.0000   0.0000   0.0000   0.0000   0.0000
     0.0000   0.0000   0.0000   0.0000   0.0000   0.0000   0.0000   0.0000
     0.0000   0.0000

     the Fermi energy is     3.1524 ev

!    total energy              =   -4440.30425279 Ry
     estimated scf accuracy    <          7.7E-09 Ry
     smearing contrib. (-TS)   =      -1.20765592 Ry
     internal energy E=F+TS    =   -4439.09659687 Ry

     The total energy is F=E-TS. E is the sum of the following terms:
     one-electron contribution =  -20891.00058130 Ry
     hartree contribution      =   10574.61752613 Ry
     xc contribution           =    -693.24802930 Ry
     ewald contribution        =    6846.72578129 Ry
     one-center paw contrib.   =    -276.19129370 Ry
      -> PAW hartree energy AE =      25.08151098 Ry
      -> PAW hartree energy PS =     -24.96632038 Ry
      -> PAW xc energy AE      =     -16.50578148 Ry
      -> PAW xc energy PS      =       6.86473157 Ry
      -> total E_H with PAW    =   10574.73271674 Ry
      -> total E_XC with PAW   =    -702.88907921 Ry

     convergence has been achieved in  46 iterations

     Writing all to output data dir /bsuhome/zayahcortright/scratch/pwscf.save/
 
     init_run     :      8.17s CPU      8.73s WALL (       1 calls)
     electrons    :    675.66s CPU    708.38s WALL (       1 calls)

     Called by init_run:
     wfcinit      :      6.26s CPU      6.48s WALL (       1 calls)
     wfcinit:atom :      0.04s CPU      0.07s WALL (       5 calls)
     wfcinit:wfcr :      5.95s CPU      6.07s WALL (       5 calls)
     potinit      :      0.16s CPU      0.19s WALL (       1 calls)
     hinit0       :      0.87s CPU      0.92s WALL (       1 calls)

     Called by electrons:
     c_bands      :    538.83s CPU    545.64s WALL (      46 calls)
     sum_band     :    102.35s CPU    116.69s WALL (      46 calls)
     v_of_rho     :      5.03s CPU      5.44s WALL (      47 calls)
     v_h          :      0.40s CPU      0.41s WALL (      47 calls)
     v_xc         :      4.63s CPU      5.03s WALL (      47 calls)
     newd         :     15.28s CPU     25.92s WALL (      47 calls)
     PAW_pot      :      1.67s CPU      1.72s WALL (      47 calls)
     mix_rho      :     12.14s CPU     12.54s WALL (      46 calls)

     Called by c_bands:
     init_us_2    :      6.23s CPU      6.30s WALL (     465 calls)
     init_us_2:cp :      6.23s CPU      6.30s WALL (     465 calls)
     cegterg      :    508.84s CPU    515.30s WALL (     230 calls)

     Called by sum_band:
     sum_band:wei :      0.34s CPU      0.34s WALL (      46 calls)
     sum_band:loo :     86.23s CPU     87.03s WALL (      46 calls)
     sum_band:buf :      1.31s CPU      1.45s WALL (     230 calls)
     sum_band:ini :      2.77s CPU      2.78s WALL (     230 calls)
     sum_band:cal :     18.18s CPU     18.25s WALL (     230 calls)
     sum_band:bec :      0.52s CPU      0.53s WALL (     230 calls)
     addusdens    :     14.44s CPU     27.89s WALL (      46 calls)
                                        0.00s GPU  (      46 calls)
     addusd:skk   :      0.29s CPU      0.93s WALL (     138 calls)
                                        0.00s GPU  (     138 calls)

     Called by *egterg:
     cdiaghg      :     56.58s CPU     56.85s WALL (    1315 calls)
     cegterg:over :     37.56s CPU     37.76s WALL (    1085 calls)
     cegterg:upda :     27.20s CPU     27.74s WALL (    1085 calls)
     cegterg:last :     53.38s CPU     53.67s WALL (     408 calls)
     cdiaghg:chol :      3.24s CPU      3.27s WALL (    1315 calls)
     cdiaghg:inve :      2.83s CPU      2.84s WALL (    1315 calls)
     cdiaghg:para :      7.12s CPU      7.18s WALL (    2630 calls)
     h_psi        :    282.51s CPU    285.70s WALL (    1320 calls)
     s_psi        :     37.37s CPU     37.51s WALL (    1320 calls)
     g_psi        :      0.97s CPU      0.98s WALL (    1085 calls)

     Called by h_psi:
     h_psi:calbec :     43.28s CPU     43.61s WALL (    1320 calls)
     vloc_psi     :    199.40s CPU    201.39s WALL (    1320 calls)
     add_vuspsi   :     37.30s CPU     37.55s WALL (    1320 calls)

     General routines
     calbec       :     61.45s CPU     61.85s WALL (    1550 calls)
     fft          :      3.58s CPU      3.65s WALL (     609 calls)
     ffts         :      4.46s CPU      4.50s WALL (    4990 calls)
     fftw         :    170.24s CPU    171.68s WALL (  311272 calls)
     interpolate  :      0.38s CPU      0.39s WALL (      47 calls)
 
     Parallel routines

     PAW routines
     PAW_pot      :      1.67s CPU      1.72s WALL (      47 calls)
 
     PWSCF        :  11m25.75s CPU  12m 2.08s WALL

 
   This run was terminated on:  19:58:31  21Jun2024            

=------------------------------------------------------------------------------=
   JOB DONE.
=------------------------------------------------------------------------------=
