
     Program PWSCF v.7.2 starts on 21Jun2024 at 22:27:52 

     This program is part of the open-source Quantum ESPRESSO suite
     for quantum simulation of materials; please cite
         "P. Giannozzi et al., J. Phys.:Condens. Matter 21 395502 (2009);
         "P. Giannozzi et al., J. Phys.:Condens. Matter 29 465901 (2017);
         "P. Giannozzi et al., J. Chem. Phys. 152 154105 (2020);
          URL http://www.quantum-espresso.org", 
     in publications or presentations arising from this work. More details at
     http://www.quantum-espresso.org/quote

     Parallel version (MPI & OpenMP), running on      48 processor cores
     Number of MPI processes:                48
     Threads/MPI process:                     1

     MPI processes distributed on     1 nodes
     180147 MiB available memory on the printing compute node when the environment starts
 
     Reading input from espresso.pwi
Warning: card &CELL ignored
Warning: card / ignored
Warning: card &FCP ignored
Warning: card / ignored
Warning: card &RISM ignored
Warning: card / ignored

     Current dimensions of program PWSCF are:
     Max number of different atomic species (ntypx) = 10
     Max number of k-points (npk) =  40000
     Max angular momentum in pseudopotentials (lmaxx) =  4
     file O.pbe-n-kjpaw_psl.0.1.UPF: wavefunction(s)  2P renormalized
     signal trapping enabled: kill the code with -SIGUSR1 to stop cleanly the simulation 
 
     K-points division:     npool     =       2
     R & G space division:  proc/nbgrp/npool/nimage =      24
     Subspace diagonalization in iterative solution of the eigenvalue problem:
     one sub-group per band group will be used
     scalapack distributed-memory algorithm (size of sub-group:  3*  3 procs)

 
     Parallelization info
     --------------------
     sticks:   dense  smooth     PW     G-vecs:    dense   smooth      PW
     Min         350     175     47                61430    21716    3036
     Max         351     177     48                61449    21727    3041
     Sum        8421    4205   1137              1474595   521381   72913
 
     Using Slab Decomposition
 


     bravais-lattice index     =            0
     lattice parameter (alat)  =      14.8599  a.u.
     unit-cell volume          =    8305.1283 (a.u.)^3
     number of atoms/cell      =           49
     number of atomic types    =            4
     number of electrons       =       425.00
     number of Kohn-Sham states=          256
     kinetic-energy cutoff     =      60.0000  Ry
     charge density cutoff     =     480.0000  Ry
     scf convergence threshold =      1.0E-08
     mixing beta               =       0.1500
     number of iterations used =            8  local-TF  mixing
     Exchange-correlation= PBE
                           (   1   4   3   4   0   0   0)

     celldm(1)=  14.859904  celldm(2)=   0.000000  celldm(3)=   0.000000
     celldm(4)=   0.000000  celldm(5)=   0.000000  celldm(6)=   0.000000

     crystal axes: (cart. coord. in units of alat)
               a(1) = (   1.000000   0.000000   0.000000 )  
               a(2) = (   0.000000   1.000000   0.000000 )  
               a(3) = (   0.000000   0.000000   2.531036 )  

     reciprocal axes: (cart. coord. in units 2 pi/alat)
               b(1) = (  1.000000  0.000000  0.000000 )  
               b(2) = (  0.000000  1.000000  0.000000 )  
               b(3) = (  0.000000  0.000000  0.395095 )  


     PseudoPot. # 1 for Sr read from file:
     /bsuhome/zayahcortright/q-e/pseudo/Sr_pbe_v1.uspp.F.UPF
     MD5 check sum: 6b418c05fbe9db5448babca5e47b7a5b
     Pseudo is Ultrasoft + core correction, Zval = 10.0
     Generated by new atomic code, or converted to UPF format
     Using radial grid of  883 points,  6 beta functions with: 
                l(1) =   0
                l(2) =   0
                l(3) =   1
                l(4) =   1
                l(5) =   2
                l(6) =   2
     Q(r) pseudized with  6 coefficients,  rinner =    1.400   1.400   1.400
                                                       1.400   1.400

     PseudoPot. # 2 for O  read from file:
     /bsuhome/zayahcortright/q-e/pseudo/O.pbe-n-kjpaw_psl.0.1.UPF
     MD5 check sum: 0234752ac141de4415c5fc33072bef88
     Pseudo is Projector augmented-wave + core cor, Zval =  6.0
     Generated using "atomic" code by A. Dal Corso  v.5.0.99 svn rev. 10869
     Shape of augmentation charge: BESSEL
     Using radial grid of 1095 points,  4 beta functions with: 
                l(1) =   0
                l(2) =   0
                l(3) =   1
                l(4) =   1
     Q(r) pseudized with 0 coefficients 


     PseudoPot. # 3 for Co read from file:
     /bsuhome/zayahcortright/q-e/pseudo/Co_pbe_v1.2.uspp.F.UPF
     MD5 check sum: 5f91765df6ddd3222702df6e7b74a16d
     Pseudo is Ultrasoft + core correction, Zval = 17.0
     Generated by new atomic code, or converted to UPF format
     Using radial grid of  863 points,  6 beta functions with: 
                l(1) =   0
                l(2) =   0
                l(3) =   1
                l(4) =   1
                l(5) =   2
                l(6) =   2
     Q(r) pseudized with  8 coefficients,  rinner =    1.200   1.200   1.200
                                                       1.200   1.200

     PseudoPot. # 4 for H  read from file:
     /bsuhome/zayahcortright/q-e/pseudo/H.pbe-rrkjus_psl.1.0.0.UPF
     MD5 check sum: f52b6d4d1c606e5624b1dc7b2218f220
     Pseudo is Ultrasoft, Zval =  1.0
     Generated using "atomic" code by A. Dal Corso  v.5.1
     Using radial grid of  929 points,  2 beta functions with: 
                l(1) =   0
                l(2) =   0
     Q(r) pseudized with 0 coefficients 


     atomic species   valence    mass     pseudopotential
        Sr            10.00    87.62000     Sr( 1.00)
        O              6.00    15.99900     O ( 1.00)
        Co            17.00    58.93319     Co( 1.00)
        H              1.00     1.00800     H ( 1.00)

     No symmetry found


                                    s                        frac. trans.

      isym =  1     identity                                     

 cryst.   s( 1) = (     1          0          0      )
                  (     0          1          0      )
                  (     0          0          1      )

 cart.    s( 1) = (  1.0000000  0.0000000  0.0000000 )
                  (  0.0000000  1.0000000  0.0000000 )
                  (  0.0000000  0.0000000  1.0000000 )


   Cartesian axes

     site n.     atom                  positions (alat units)
         1           Sr  tau(   1) = (   0.2508693   0.7491307   1.7574407  )
         2           O   tau(   2) = (   0.4985141   0.5014859   1.7715967  )
         3           Sr  tau(   3) = (   0.7482398   0.7454518   1.7648669  )
         4           Sr  tau(   4) = (   0.7441748   0.2558252   1.7667843  )
         5           Sr  tau(   5) = (   0.2508693   0.7491307   1.2696799  )
         6           Sr  tau(   6) = (   0.2508693   0.7491307   0.7632319  )
         7           Co  tau(   7) = (   0.4998914   0.5001086   1.0164559  )
         8           Co  tau(   8) = (   0.4936915   0.5063085   1.5135603  )
         9           O   tau(   9) = (   0.4988895   0.7610401   1.0164559  )
        10           O   tau(  10) = (   0.2389599   0.5011105   1.0164559  )
        11           O   tau(  11) = (   0.0070918   0.7374880   1.0164559  )
        12           O   tau(  12) = (   0.0088340   0.7405089   1.5135603  )
        13           O   tau(  13) = (   0.5066944   0.7415376   1.5135603  )
        14           O   tau(  14) = (   0.2584624   0.4933056   1.5135603  )
        15           O   tau(  15) = (   0.4985141   0.5014859   0.7773880  )
        16           O   tau(  16) = (   0.4985141   0.5014859   1.2555238  )
        17           Sr  tau(  17) = (   0.7482398   0.7454518   0.7706582  )
        18           Sr  tau(  18) = (   0.7482398   0.7454518   1.2622536  )
        19           Sr  tau(  19) = (   0.7441748   0.2558252   0.7725755  )
        20           Sr  tau(  20) = (   0.7441748   0.2558252   1.2603363  )
        21           O   tau(  21) = (   0.7322655   0.0078049   1.5135603  )
        22           O   tau(  22) = (   0.7558175   0.4996027   1.5135603  )
        23           O   tau(  23) = (   0.5003973   0.2441825   1.5135603  )
        24           O   tau(  24) = (   0.7527966   0.4978604   1.0164559  )
        25           O   tau(  25) = (   0.5021396   0.2472034   1.0164559  )
        26           O   tau(  26) = (   0.7517679   0.0000000   1.0164559  )
        27           O   tau(  27) = (   0.0114961   0.4948124   1.7455321  )
        28           O   tau(  28) = (   0.0048226   0.0077944   1.7715967  )
        29           Sr  tau(  29) = (   0.2545482   0.2517602   1.7648669  )
        30           O   tau(  30) = (   0.5048017   0.0015068   1.7786929  )
        31           Co  tau(  31) = (   0.0056869   0.5006215   1.0164559  )
        32           Co  tau(  32) = (   0.0065315   0.4997770   1.5135603  )
        33           Co  tau(  33) = (   0.0061999   0.0064171   1.0164559  )
        34           Co  tau(  34) = (   0.0000000   0.0126169   1.5135603  )
        35           O   tau(  35) = (   0.0114961   0.4948124   1.2815885  )
        36           O   tau(  36) = (   0.0114961   0.4948124   0.7513233  )
        37           O   tau(  37) = (   0.0051979   0.2673486   1.0164559  )
        38           O   tau(  38) = (   0.0130029   0.2478461   1.5135603  )
        39           O   tau(  39) = (   0.0048226   0.0077944   0.7773880  )
        40           O   tau(  40) = (   0.0048226   0.0077944   1.2555238  )
        41           Sr  tau(  41) = (   0.2545482   0.2517602   0.7706582  )
        42           Sr  tau(  42) = (   0.2545482   0.2517602   1.2622536  )
        43           Co  tau(  43) = (   0.4989925   0.0073160   1.5135603  )
        44           Co  tau(  44) = (   0.4998370   0.0064714   1.0164559  )
        45           O   tau(  45) = (   0.5048017   0.0015068   0.7844841  )
        46           O   tau(  46) = (   0.5048017   0.0015068   1.2484277  )
        47           O   tau(  47) = (   0.2621260   0.0059111   1.5135603  )
        48           O   tau(  48) = (   0.2591051   0.0041689   1.0164559  )
        49           H   tau(  49) = (   0.8529874   0.5686583   2.1602013  )

   Crystallographic axes

     site n.     atom                  positions (cryst. coord.)
         1           Sr  tau(   1) = (  0.2508693  0.7491307  0.6943562  )
         2           O   tau(   2) = (  0.4985141  0.5014859  0.6999492  )
         3           Sr  tau(   3) = (  0.7482398  0.7454518  0.6972903  )
         4           Sr  tau(   4) = (  0.7441748  0.2558252  0.6980478  )
         5           Sr  tau(   5) = (  0.2508693  0.7491307  0.5016443  )
         6           Sr  tau(   6) = (  0.2508693  0.7491307  0.3015492  )
         7           Co  tau(   7) = (  0.4998914  0.5001086  0.4015968  )
         8           Co  tau(   8) = (  0.4936915  0.5063085  0.5980003  )
         9           O   tau(   9) = (  0.4988895  0.7610401  0.4015968  )
        10           O   tau(  10) = (  0.2389599  0.5011105  0.4015968  )
        11           O   tau(  11) = (  0.0070918  0.7374880  0.4015968  )
        12           O   tau(  12) = (  0.0088340  0.7405089  0.5980003  )
        13           O   tau(  13) = (  0.5066944  0.7415376  0.5980003  )
        14           O   tau(  14) = (  0.2584624  0.4933056  0.5980003  )
        15           O   tau(  15) = (  0.4985141  0.5014859  0.3071422  )
        16           O   tau(  16) = (  0.4985141  0.5014859  0.4960513  )
        17           Sr  tau(  17) = (  0.7482398  0.7454518  0.3044833  )
        18           Sr  tau(  18) = (  0.7482398  0.7454518  0.4987103  )
        19           Sr  tau(  19) = (  0.7441748  0.2558252  0.3052408  )
        20           Sr  tau(  20) = (  0.7441748  0.2558252  0.4979527  )
        21           O   tau(  21) = (  0.7322655  0.0078049  0.5980003  )
        22           O   tau(  22) = (  0.7558175  0.4996027  0.5980003  )
        23           O   tau(  23) = (  0.5003973  0.2441825  0.5980003  )
        24           O   tau(  24) = (  0.7527966  0.4978604  0.4015968  )
        25           O   tau(  25) = (  0.5021396  0.2472034  0.4015968  )
        26           O   tau(  26) = (  0.7517679  0.0000000  0.4015968  )
        27           O   tau(  27) = (  0.0114961  0.4948124  0.6896512  )
        28           O   tau(  28) = (  0.0048226  0.0077944  0.6999492  )
        29           Sr  tau(  29) = (  0.2545482  0.2517602  0.6972903  )
        30           O   tau(  30) = (  0.5048017  0.0015068  0.7027529  )
        31           Co  tau(  31) = (  0.0056869  0.5006215  0.4015968  )
        32           Co  tau(  32) = (  0.0065315  0.4997770  0.5980003  )
        33           Co  tau(  33) = (  0.0061999  0.0064171  0.4015968  )
        34           Co  tau(  34) = (  0.0000000  0.0126169  0.5980003  )
        35           O   tau(  35) = (  0.0114961  0.4948124  0.5063494  )
        36           O   tau(  36) = (  0.0114961  0.4948124  0.2968442  )
        37           O   tau(  37) = (  0.0051979  0.2673486  0.4015968  )
        38           O   tau(  38) = (  0.0130029  0.2478461  0.5980003  )
        39           O   tau(  39) = (  0.0048226  0.0077944  0.3071422  )
        40           O   tau(  40) = (  0.0048226  0.0077944  0.4960513  )
        41           Sr  tau(  41) = (  0.2545482  0.2517602  0.3044833  )
        42           Sr  tau(  42) = (  0.2545482  0.2517602  0.4987103  )
        43           Co  tau(  43) = (  0.4989925  0.0073160  0.5980003  )
        44           Co  tau(  44) = (  0.4998370  0.0064714  0.4015968  )
        45           O   tau(  45) = (  0.5048017  0.0015068  0.3099459  )
        46           O   tau(  46) = (  0.5048017  0.0015068  0.4932477  )
        47           O   tau(  47) = (  0.2621260  0.0059111  0.5980003  )
        48           O   tau(  48) = (  0.2591051  0.0041689  0.4015968  )
        49           H   tau(  49) = (  0.8529874  0.5686583  0.8534850  )

     number of k points=    10  Gaussian smearing, width (Ry)=  0.0700
                       cart. coord. in units 2pi/alat
        k(    1) = (   0.0000000   0.0000000   0.0000000), wk =   0.1250000
        k(    2) = (   0.0000000   0.2500000   0.0000000), wk =   0.2500000
        k(    3) = (   0.0000000  -0.5000000   0.0000000), wk =   0.1250000
        k(    4) = (   0.2500000   0.2500000   0.0000000), wk =   0.2500000
        k(    5) = (   0.2500000  -0.5000000   0.0000000), wk =   0.2500000
        k(    6) = (  -0.5000000  -0.5000000   0.0000000), wk =   0.1250000
        k(    7) = (   0.2500000   0.0000000   0.0000000), wk =   0.2500000
        k(    8) = (  -0.5000000   0.0000000   0.0000000), wk =   0.1250000
        k(    9) = (  -0.2500000   0.2500000   0.0000000), wk =   0.2500000
        k(   10) = (  -0.5000000   0.2500000   0.0000000), wk =   0.2500000

                       cryst. coord.
        k(    1) = (   0.0000000   0.0000000   0.0000000), wk =   0.1250000
        k(    2) = (   0.0000000   0.2500000   0.0000000), wk =   0.2500000
        k(    3) = (   0.0000000  -0.5000000   0.0000000), wk =   0.1250000
        k(    4) = (   0.2500000   0.2500000   0.0000000), wk =   0.2500000
        k(    5) = (   0.2500000  -0.5000000   0.0000000), wk =   0.2500000
        k(    6) = (  -0.5000000  -0.5000000   0.0000000), wk =   0.1250000
        k(    7) = (   0.2500000   0.0000000   0.0000000), wk =   0.2500000
        k(    8) = (  -0.5000000   0.0000000   0.0000000), wk =   0.1250000
        k(    9) = (  -0.2500000   0.2500000   0.0000000), wk =   0.2500000
        k(   10) = (  -0.5000000   0.2500000   0.0000000), wk =   0.2500000

     Dense  grid:  1474595 G-vectors     FFT dimensions: ( 108, 108, 270)

     Smooth grid:   521381 G-vectors     FFT dimensions: (  75,  75, 192)

     Dynamical RAM for                 wfc:      10.61 MB

     Dynamical RAM for     wfc (w. buffer):      63.63 MB

     Dynamical RAM for           str. fact:       3.75 MB

     Dynamical RAM for           local pot:       0.00 MB

     Dynamical RAM for          nlocal pot:      24.28 MB

     Dynamical RAM for                qrad:       7.03 MB

     Dynamical RAM for          rho,v,vnew:       6.02 MB

     Dynamical RAM for               rhoin:       2.01 MB

     Dynamical RAM for            rho*nmix:      15.00 MB

     Dynamical RAM for           G-vectors:       3.68 MB

     Dynamical RAM for          h,s,v(r/c):       1.32 MB

     Dynamical RAM for          <psi|beta>:       2.29 MB

     Dynamical RAM for                 psi:      21.21 MB

     Dynamical RAM for                hpsi:      21.21 MB

     Dynamical RAM for                spsi:      21.21 MB

     Dynamical RAM for      wfcinit/wfcrot:      34.09 MB

     Dynamical RAM for           addusdens:     100.79 MB

     Estimated static dynamical RAM per process >     120.42 MB

     Estimated max dynamical RAM per process >     236.21 MB

     Estimated total dynamical RAM >      10.72 GB

     Check: negative core charge=   -0.000004

     Initial potential from superposition of free atoms

     starting charge     416.5961, renormalised to     425.0000

     negative rho (up, down):  7.827E-01 0.000E+00
     Starting wfcs are  373 randomized atomic wfcs
     Checking if some PAW data can be deallocated... 
       PAW data deallocated on   20 nodes for type:  2

     total cpu time spent up to now is        9.1 secs

     Self-consistent Calculation

     iteration #  1     ecut=    60.00 Ry     beta= 0.15
     Davidson diagonalization with overlap

---- Real-time Memory Report at c_bands before calling an iterative solver
             0 MiB given to the printing process from OS
             0 MiB allocation reported by mallinfo(arena+hblkhd)
        170471 MiB available memory on the node where the printing process lives
------------------
     ethr =  1.00E-02,  avg # of iterations =  2.0

     negative rho (up, down):  7.719E-01 0.000E+00

     total cpu time spent up to now is       23.7 secs

     total energy              =   -4404.77662039 Ry
     estimated scf accuracy    <      42.21782141 Ry

     iteration #  2     ecut=    60.00 Ry     beta= 0.15
     Davidson diagonalization with overlap

---- Real-time Memory Report at c_bands before calling an iterative solver
             0 MiB given to the printing process from OS
             0 MiB allocation reported by mallinfo(arena+hblkhd)
        170714 MiB available memory on the node where the printing process lives
------------------
     ethr =  9.93E-03,  avg # of iterations =  1.0

     negative rho (up, down):  7.533E-01 0.000E+00

     total cpu time spent up to now is       35.8 secs

     total energy              =   -4400.02797375 Ry
     estimated scf accuracy    <      26.73505133 Ry

     iteration #  3     ecut=    60.00 Ry     beta= 0.15
     Davidson diagonalization with overlap

---- Real-time Memory Report at c_bands before calling an iterative solver
             0 MiB given to the printing process from OS
             0 MiB allocation reported by mallinfo(arena+hblkhd)
        169975 MiB available memory on the node where the printing process lives
------------------
     ethr =  6.29E-03,  avg # of iterations =  2.0

     negative rho (up, down):  7.545E-01 0.000E+00

     total cpu time spent up to now is       49.3 secs

     total energy              =   -4402.38707426 Ry
     estimated scf accuracy    <      49.21352250 Ry

     iteration #  4     ecut=    60.00 Ry     beta= 0.15
     Davidson diagonalization with overlap

---- Real-time Memory Report at c_bands before calling an iterative solver
             0 MiB given to the printing process from OS
             0 MiB allocation reported by mallinfo(arena+hblkhd)
        169844 MiB available memory on the node where the printing process lives
------------------
     ethr =  6.29E-03,  avg # of iterations =  1.0

     negative rho (up, down):  7.411E-01 0.000E+00

     total cpu time spent up to now is       61.3 secs

     total energy              =   -4401.64972271 Ry
     estimated scf accuracy    <      29.25760169 Ry

     iteration #  5     ecut=    60.00 Ry     beta= 0.15
     Davidson diagonalization with overlap

---- Real-time Memory Report at c_bands before calling an iterative solver
             0 MiB given to the printing process from OS
             0 MiB allocation reported by mallinfo(arena+hblkhd)
        169824 MiB available memory on the node where the printing process lives
------------------
     ethr =  6.29E-03,  avg # of iterations =  1.0

     negative rho (up, down):  7.471E-01 0.000E+00

     total cpu time spent up to now is       73.4 secs

     total energy              =   -4399.78088255 Ry
     estimated scf accuracy    <      44.16973581 Ry

     iteration #  6     ecut=    60.00 Ry     beta= 0.15
     Davidson diagonalization with overlap

---- Real-time Memory Report at c_bands before calling an iterative solver
             0 MiB given to the printing process from OS
             0 MiB allocation reported by mallinfo(arena+hblkhd)
        169804 MiB available memory on the node where the printing process lives
------------------
     ethr =  6.29E-03,  avg # of iterations =  1.0

     negative rho (up, down):  7.420E-01 0.000E+00

     total cpu time spent up to now is       85.5 secs

     total energy              =   -4400.64107672 Ry
     estimated scf accuracy    <      12.15277847 Ry

     iteration #  7     ecut=    60.00 Ry     beta= 0.15
     Davidson diagonalization with overlap

---- Real-time Memory Report at c_bands before calling an iterative solver
             0 MiB given to the printing process from OS
             0 MiB allocation reported by mallinfo(arena+hblkhd)
        169777 MiB available memory on the node where the printing process lives
------------------
     ethr =  2.86E-03,  avg # of iterations =  1.1

     negative rho (up, down):  7.443E-01 0.000E+00

     total cpu time spent up to now is       97.7 secs

     total energy              =   -4400.81546550 Ry
     estimated scf accuracy    <       4.04834208 Ry

     iteration #  8     ecut=    60.00 Ry     beta= 0.15
     Davidson diagonalization with overlap

---- Real-time Memory Report at c_bands before calling an iterative solver
             0 MiB given to the printing process from OS
             0 MiB allocation reported by mallinfo(arena+hblkhd)
        169763 MiB available memory on the node where the printing process lives
------------------
     ethr =  9.53E-04,  avg # of iterations =  1.9

     negative rho (up, down):  7.542E-01 0.000E+00

     total cpu time spent up to now is      110.5 secs

     total energy              =   -4400.28249260 Ry
     estimated scf accuracy    <       3.33295322 Ry

     iteration #  9     ecut=    60.00 Ry     beta= 0.15
     Davidson diagonalization with overlap

---- Real-time Memory Report at c_bands before calling an iterative solver
             0 MiB given to the printing process from OS
             0 MiB allocation reported by mallinfo(arena+hblkhd)
        169742 MiB available memory on the node where the printing process lives
------------------
     ethr =  7.84E-04,  avg # of iterations =  5.4

     negative rho (up, down):  7.758E-01 0.000E+00

     total cpu time spent up to now is      126.2 secs

     total energy              =   -4399.77992029 Ry
     estimated scf accuracy    <      45.37031059 Ry

     iteration # 10     ecut=    60.00 Ry     beta= 0.15
     Davidson diagonalization with overlap

---- Real-time Memory Report at c_bands before calling an iterative solver
             0 MiB given to the printing process from OS
             0 MiB allocation reported by mallinfo(arena+hblkhd)
        169588 MiB available memory on the node where the printing process lives
------------------
     ethr =  7.84E-04,  avg # of iterations =  9.6

     negative rho (up, down):  7.782E-01 0.000E+00

     total cpu time spent up to now is      144.1 secs

     total energy              =   -4399.82017901 Ry
     estimated scf accuracy    <      11.50659867 Ry

     iteration # 11     ecut=    60.00 Ry     beta= 0.15
     Davidson diagonalization with overlap

---- Real-time Memory Report at c_bands before calling an iterative solver
             0 MiB given to the printing process from OS
             0 MiB allocation reported by mallinfo(arena+hblkhd)
        169220 MiB available memory on the node where the printing process lives
------------------
     ethr =  7.84E-04,  avg # of iterations =  1.2

     negative rho (up, down):  7.813E-01 0.000E+00

     total cpu time spent up to now is      156.3 secs

     total energy              =   -4400.11930746 Ry
     estimated scf accuracy    <       1.26959046 Ry

     iteration # 12     ecut=    60.00 Ry     beta= 0.15
     Davidson diagonalization with overlap

---- Real-time Memory Report at c_bands before calling an iterative solver
             0 MiB given to the printing process from OS
             0 MiB allocation reported by mallinfo(arena+hblkhd)
        169204 MiB available memory on the node where the printing process lives
------------------
     ethr =  2.99E-04,  avg # of iterations =  4.4

     negative rho (up, down):  7.896E-01 0.000E+00

     total cpu time spent up to now is      170.6 secs

     total energy              =   -4400.09960566 Ry
     estimated scf accuracy    <       0.74750860 Ry

     iteration # 13     ecut=    60.00 Ry     beta= 0.15
     Davidson diagonalization with overlap

---- Real-time Memory Report at c_bands before calling an iterative solver
             0 MiB given to the printing process from OS
             0 MiB allocation reported by mallinfo(arena+hblkhd)
        169193 MiB available memory on the node where the printing process lives
------------------
     ethr =  1.76E-04,  avg # of iterations =  3.7

     negative rho (up, down):  8.002E-01 0.000E+00

     total cpu time spent up to now is      184.5 secs

     total energy              =   -4400.10124722 Ry
     estimated scf accuracy    <       1.57651035 Ry

     iteration # 14     ecut=    60.00 Ry     beta= 0.15
     Davidson diagonalization with overlap

---- Real-time Memory Report at c_bands before calling an iterative solver
             0 MiB given to the printing process from OS
             0 MiB allocation reported by mallinfo(arena+hblkhd)
        169209 MiB available memory on the node where the printing process lives
------------------
     ethr =  1.76E-04,  avg # of iterations =  4.2

     negative rho (up, down):  8.056E-01 0.000E+00

     total cpu time spent up to now is      198.7 secs

     total energy              =   -4400.01389162 Ry
     estimated scf accuracy    <       1.80155552 Ry

     iteration # 15     ecut=    60.00 Ry     beta= 0.15
     Davidson diagonalization with overlap

---- Real-time Memory Report at c_bands before calling an iterative solver
             0 MiB given to the printing process from OS
             0 MiB allocation reported by mallinfo(arena+hblkhd)
        169203 MiB available memory on the node where the printing process lives
------------------
     ethr =  1.76E-04,  avg # of iterations =  4.9

     negative rho (up, down):  8.086E-01 0.000E+00

     total cpu time spent up to now is      213.2 secs

     total energy              =   -4400.05000416 Ry
     estimated scf accuracy    <       0.36322945 Ry

     iteration # 16     ecut=    60.00 Ry     beta= 0.15
     Davidson diagonalization with overlap

---- Real-time Memory Report at c_bands before calling an iterative solver
             0 MiB given to the printing process from OS
             0 MiB allocation reported by mallinfo(arena+hblkhd)
        169229 MiB available memory on the node where the printing process lives
------------------
     c_bands:  1 eigenvalues not converged
     ethr =  8.55E-05,  avg # of iterations = 10.9

     negative rho (up, down):  8.123E-01 0.000E+00

     total cpu time spent up to now is      230.4 secs

     total energy              =   -4400.02091307 Ry
     estimated scf accuracy    <       0.30619487 Ry

     iteration # 17     ecut=    60.00 Ry     beta= 0.15
     Davidson diagonalization with overlap

---- Real-time Memory Report at c_bands before calling an iterative solver
             0 MiB given to the printing process from OS
             0 MiB allocation reported by mallinfo(arena+hblkhd)
        169286 MiB available memory on the node where the printing process lives
------------------
     ethr =  7.20E-05,  avg # of iterations =  3.2

     negative rho (up, down):  8.194E-01 0.000E+00

     total cpu time spent up to now is      244.6 secs

     total energy              =   -4399.95309216 Ry
     estimated scf accuracy    <       0.24604979 Ry

     iteration # 18     ecut=    60.00 Ry     beta= 0.15
     Davidson diagonalization with overlap

---- Real-time Memory Report at c_bands before calling an iterative solver
             0 MiB given to the printing process from OS
             0 MiB allocation reported by mallinfo(arena+hblkhd)
        169224 MiB available memory on the node where the printing process lives
------------------
     ethr =  5.79E-05,  avg # of iterations = 11.9

     negative rho (up, down):  8.205E-01 0.000E+00

     total cpu time spent up to now is      263.9 secs

     total energy              =   -4399.95378540 Ry
     estimated scf accuracy    <       0.11690289 Ry

     iteration # 19     ecut=    60.00 Ry     beta= 0.15
     Davidson diagonalization with overlap

---- Real-time Memory Report at c_bands before calling an iterative solver
             0 MiB given to the printing process from OS
             0 MiB allocation reported by mallinfo(arena+hblkhd)
        169146 MiB available memory on the node where the printing process lives
------------------
     ethr =  2.75E-05,  avg # of iterations =  5.3

     negative rho (up, down):  8.160E-01 0.000E+00

     total cpu time spent up to now is      279.4 secs

     total energy              =   -4399.94354841 Ry
     estimated scf accuracy    <       0.10258665 Ry

     iteration # 20     ecut=    60.00 Ry     beta= 0.15
     Davidson diagonalization with overlap

---- Real-time Memory Report at c_bands before calling an iterative solver
             0 MiB given to the printing process from OS
             0 MiB allocation reported by mallinfo(arena+hblkhd)
        169117 MiB available memory on the node where the printing process lives
------------------
     ethr =  2.41E-05,  avg # of iterations =  6.1

     negative rho (up, down):  8.126E-01 0.000E+00

     total cpu time spent up to now is      294.7 secs

     total energy              =   -4399.93105783 Ry
     estimated scf accuracy    <       0.07178489 Ry

     iteration # 21     ecut=    60.00 Ry     beta= 0.15
     Davidson diagonalization with overlap

---- Real-time Memory Report at c_bands before calling an iterative solver
             0 MiB given to the printing process from OS
             0 MiB allocation reported by mallinfo(arena+hblkhd)
        169119 MiB available memory on the node where the printing process lives
------------------
     ethr =  1.69E-05,  avg # of iterations = 11.1

     negative rho (up, down):  8.133E-01 0.000E+00

     total cpu time spent up to now is      312.7 secs

     total energy              =   -4399.93016934 Ry
     estimated scf accuracy    <       0.04138078 Ry

     iteration # 22     ecut=    60.00 Ry     beta= 0.15
     Davidson diagonalization with overlap

---- Real-time Memory Report at c_bands before calling an iterative solver
             0 MiB given to the printing process from OS
             0 MiB allocation reported by mallinfo(arena+hblkhd)
        169115 MiB available memory on the node where the printing process lives
------------------
     ethr =  9.74E-06,  avg # of iterations =  3.9

     negative rho (up, down):  7.983E-01 0.000E+00

     total cpu time spent up to now is      327.6 secs

     total energy              =   -4399.92591071 Ry
     estimated scf accuracy    <       0.02982481 Ry

     iteration # 23     ecut=    60.00 Ry     beta= 0.15
     Davidson diagonalization with overlap

---- Real-time Memory Report at c_bands before calling an iterative solver
             0 MiB given to the printing process from OS
             0 MiB allocation reported by mallinfo(arena+hblkhd)
        169070 MiB available memory on the node where the printing process lives
------------------
     ethr =  7.02E-06,  avg # of iterations = 11.6

     negative rho (up, down):  7.937E-01 0.000E+00

     total cpu time spent up to now is      345.8 secs

     total energy              =   -4399.92465911 Ry
     estimated scf accuracy    <       0.01742040 Ry

     iteration # 24     ecut=    60.00 Ry     beta= 0.15
     Davidson diagonalization with overlap

---- Real-time Memory Report at c_bands before calling an iterative solver
             0 MiB given to the printing process from OS
             0 MiB allocation reported by mallinfo(arena+hblkhd)
        168993 MiB available memory on the node where the printing process lives
------------------
     ethr =  4.10E-06,  avg # of iterations =  9.4

     negative rho (up, down):  7.942E-01 0.000E+00

     total cpu time spent up to now is      363.3 secs

     total energy              =   -4399.92487783 Ry
     estimated scf accuracy    <       0.01026973 Ry

     iteration # 25     ecut=    60.00 Ry     beta= 0.15
     Davidson diagonalization with overlap

---- Real-time Memory Report at c_bands before calling an iterative solver
             0 MiB given to the printing process from OS
             0 MiB allocation reported by mallinfo(arena+hblkhd)
        168998 MiB available memory on the node where the printing process lives
------------------
     ethr =  2.42E-06,  avg # of iterations =  9.1

     negative rho (up, down):  7.934E-01 0.000E+00

     total cpu time spent up to now is      380.6 secs

     total energy              =   -4399.92400473 Ry
     estimated scf accuracy    <       0.00800030 Ry

     iteration # 26     ecut=    60.00 Ry     beta= 0.15
     Davidson diagonalization with overlap

---- Real-time Memory Report at c_bands before calling an iterative solver
             0 MiB given to the printing process from OS
             0 MiB allocation reported by mallinfo(arena+hblkhd)
        169003 MiB available memory on the node where the printing process lives
------------------
     c_bands:  1 eigenvalues not converged
     ethr =  1.88E-06,  avg # of iterations =  8.0

     negative rho (up, down):  7.940E-01 0.000E+00

     total cpu time spent up to now is      397.8 secs

     total energy              =   -4399.92379555 Ry
     estimated scf accuracy    <       0.00459668 Ry

     iteration # 27     ecut=    60.00 Ry     beta= 0.15
     Davidson diagonalization with overlap

---- Real-time Memory Report at c_bands before calling an iterative solver
             0 MiB given to the printing process from OS
             0 MiB allocation reported by mallinfo(arena+hblkhd)
        169051 MiB available memory on the node where the printing process lives
------------------
     ethr =  1.08E-06,  avg # of iterations =  3.8

     negative rho (up, down):  7.938E-01 0.000E+00

     total cpu time spent up to now is      412.7 secs

     total energy              =   -4399.92363274 Ry
     estimated scf accuracy    <       0.00271154 Ry

     iteration # 28     ecut=    60.00 Ry     beta= 0.15
     Davidson diagonalization with overlap

---- Real-time Memory Report at c_bands before calling an iterative solver
             0 MiB given to the printing process from OS
             0 MiB allocation reported by mallinfo(arena+hblkhd)
        169033 MiB available memory on the node where the printing process lives
------------------
     ethr =  6.38E-07,  avg # of iterations =  8.5

     negative rho (up, down):  7.953E-01 0.000E+00

     total cpu time spent up to now is      429.7 secs

     total energy              =   -4399.92343924 Ry
     estimated scf accuracy    <       0.00147323 Ry

     iteration # 29     ecut=    60.00 Ry     beta= 0.15
     Davidson diagonalization with overlap

---- Real-time Memory Report at c_bands before calling an iterative solver
             0 MiB given to the printing process from OS
             0 MiB allocation reported by mallinfo(arena+hblkhd)
        169027 MiB available memory on the node where the printing process lives
------------------
     ethr =  3.47E-07,  avg # of iterations = 10.9

     negative rho (up, down):  7.958E-01 0.000E+00

     total cpu time spent up to now is      449.9 secs

     total energy              =   -4399.92359548 Ry
     estimated scf accuracy    <       0.00031372 Ry

     iteration # 30     ecut=    60.00 Ry     beta= 0.15
     Davidson diagonalization with overlap

---- Real-time Memory Report at c_bands before calling an iterative solver
             0 MiB given to the printing process from OS
             0 MiB allocation reported by mallinfo(arena+hblkhd)
        168905 MiB available memory on the node where the printing process lives
------------------
     ethr =  7.38E-08,  avg # of iterations =  2.7

     negative rho (up, down):  7.954E-01 0.000E+00

     total cpu time spent up to now is      463.7 secs

     total energy              =   -4399.92358465 Ry
     estimated scf accuracy    <       0.00020694 Ry

     iteration # 31     ecut=    60.00 Ry     beta= 0.15
     Davidson diagonalization with overlap

---- Real-time Memory Report at c_bands before calling an iterative solver
             0 MiB given to the printing process from OS
             0 MiB allocation reported by mallinfo(arena+hblkhd)
        168927 MiB available memory on the node where the printing process lives
------------------
     ethr =  4.87E-08,  avg # of iterations =  4.2

     negative rho (up, down):  7.935E-01 0.000E+00

     total cpu time spent up to now is      477.8 secs

     total energy              =   -4399.92356625 Ry
     estimated scf accuracy    <       0.00013067 Ry

     iteration # 32     ecut=    60.00 Ry     beta= 0.15
     Davidson diagonalization with overlap

---- Real-time Memory Report at c_bands before calling an iterative solver
             0 MiB given to the printing process from OS
             0 MiB allocation reported by mallinfo(arena+hblkhd)
        168940 MiB available memory on the node where the printing process lives
------------------
     ethr =  3.07E-08,  avg # of iterations =  2.9

     negative rho (up, down):  7.933E-01 0.000E+00

     total cpu time spent up to now is      492.1 secs

     total energy              =   -4399.92357344 Ry
     estimated scf accuracy    <       0.00005728 Ry

     iteration # 33     ecut=    60.00 Ry     beta= 0.15
     Davidson diagonalization with overlap

---- Real-time Memory Report at c_bands before calling an iterative solver
             0 MiB given to the printing process from OS
             0 MiB allocation reported by mallinfo(arena+hblkhd)
        168940 MiB available memory on the node where the printing process lives
------------------
     ethr =  1.35E-08,  avg # of iterations =  2.0

     negative rho (up, down):  7.928E-01 0.000E+00

     total cpu time spent up to now is      506.2 secs

     total energy              =   -4399.92357965 Ry
     estimated scf accuracy    <       0.00004345 Ry

     iteration # 34     ecut=    60.00 Ry     beta= 0.15
     Davidson diagonalization with overlap

---- Real-time Memory Report at c_bands before calling an iterative solver
             0 MiB given to the printing process from OS
             0 MiB allocation reported by mallinfo(arena+hblkhd)
        168941 MiB available memory on the node where the printing process lives
------------------
     ethr =  1.02E-08,  avg # of iterations =  2.9

     negative rho (up, down):  7.926E-01 0.000E+00

     total cpu time spent up to now is      520.0 secs

     total energy              =   -4399.92358361 Ry
     estimated scf accuracy    <       0.00002298 Ry

     iteration # 35     ecut=    60.00 Ry     beta= 0.15
     Davidson diagonalization with overlap

---- Real-time Memory Report at c_bands before calling an iterative solver
             0 MiB given to the printing process from OS
             0 MiB allocation reported by mallinfo(arena+hblkhd)
        168942 MiB available memory on the node where the printing process lives
------------------
     ethr =  5.41E-09,  avg # of iterations =  2.3

     negative rho (up, down):  7.926E-01 0.000E+00

     total cpu time spent up to now is      533.5 secs

     total energy              =   -4399.92358997 Ry
     estimated scf accuracy    <       0.00001869 Ry

     iteration # 36     ecut=    60.00 Ry     beta= 0.15
     Davidson diagonalization with overlap

---- Real-time Memory Report at c_bands before calling an iterative solver
             0 MiB given to the printing process from OS
             0 MiB allocation reported by mallinfo(arena+hblkhd)
        168954 MiB available memory on the node where the printing process lives
------------------
     ethr =  4.40E-09,  avg # of iterations =  3.0

     negative rho (up, down):  7.926E-01 0.000E+00

     total cpu time spent up to now is      547.3 secs

     total energy              =   -4399.92359031 Ry
     estimated scf accuracy    <       0.00000858 Ry

     iteration # 37     ecut=    60.00 Ry     beta= 0.15
     Davidson diagonalization with overlap

---- Real-time Memory Report at c_bands before calling an iterative solver
             0 MiB given to the printing process from OS
             0 MiB allocation reported by mallinfo(arena+hblkhd)
        168953 MiB available memory on the node where the printing process lives
------------------
     ethr =  2.02E-09,  avg # of iterations =  3.1

     negative rho (up, down):  7.926E-01 0.000E+00

     total cpu time spent up to now is      561.4 secs

     total energy              =   -4399.92359124 Ry
     estimated scf accuracy    <       0.00000389 Ry

     iteration # 38     ecut=    60.00 Ry     beta= 0.15
     Davidson diagonalization with overlap

---- Real-time Memory Report at c_bands before calling an iterative solver
             0 MiB given to the printing process from OS
             0 MiB allocation reported by mallinfo(arena+hblkhd)
        168955 MiB available memory on the node where the printing process lives
------------------
     ethr =  9.15E-10,  avg # of iterations =  2.0

     negative rho (up, down):  7.925E-01 0.000E+00

     total cpu time spent up to now is      574.7 secs

     total energy              =   -4399.92359180 Ry
     estimated scf accuracy    <       0.00000270 Ry

     iteration # 39     ecut=    60.00 Ry     beta= 0.15
     Davidson diagonalization with overlap

---- Real-time Memory Report at c_bands before calling an iterative solver
             0 MiB given to the printing process from OS
             0 MiB allocation reported by mallinfo(arena+hblkhd)
        168959 MiB available memory on the node where the printing process lives
------------------
     ethr =  6.34E-10,  avg # of iterations =  2.7

     negative rho (up, down):  7.924E-01 0.000E+00

     total cpu time spent up to now is      588.4 secs

     total energy              =   -4399.92359169 Ry
     estimated scf accuracy    <       0.00000181 Ry

     iteration # 40     ecut=    60.00 Ry     beta= 0.15
     Davidson diagonalization with overlap

---- Real-time Memory Report at c_bands before calling an iterative solver
             0 MiB given to the printing process from OS
             0 MiB allocation reported by mallinfo(arena+hblkhd)
        168959 MiB available memory on the node where the printing process lives
------------------
     ethr =  4.25E-10,  avg # of iterations =  2.9

     negative rho (up, down):  7.924E-01 0.000E+00

     total cpu time spent up to now is      602.2 secs

     total energy              =   -4399.92359153 Ry
     estimated scf accuracy    <       0.00000094 Ry

     iteration # 41     ecut=    60.00 Ry     beta= 0.15
     Davidson diagonalization with overlap

---- Real-time Memory Report at c_bands before calling an iterative solver
             0 MiB given to the printing process from OS
             0 MiB allocation reported by mallinfo(arena+hblkhd)
        168957 MiB available memory on the node where the printing process lives
------------------
     ethr =  2.21E-10,  avg # of iterations =  2.1

     negative rho (up, down):  7.924E-01 0.000E+00

     total cpu time spent up to now is      615.8 secs

     total energy              =   -4399.92359180 Ry
     estimated scf accuracy    <       0.00000066 Ry

     iteration # 42     ecut=    60.00 Ry     beta= 0.15
     Davidson diagonalization with overlap

---- Real-time Memory Report at c_bands before calling an iterative solver
             0 MiB given to the printing process from OS
             0 MiB allocation reported by mallinfo(arena+hblkhd)
        168957 MiB available memory on the node where the printing process lives
------------------
     ethr =  1.56E-10,  avg # of iterations =  2.4

     negative rho (up, down):  7.924E-01 0.000E+00

     total cpu time spent up to now is      629.3 secs

     total energy              =   -4399.92359184 Ry
     estimated scf accuracy    <       0.00000041 Ry

     iteration # 43     ecut=    60.00 Ry     beta= 0.15
     Davidson diagonalization with overlap

---- Real-time Memory Report at c_bands before calling an iterative solver
             0 MiB given to the printing process from OS
             0 MiB allocation reported by mallinfo(arena+hblkhd)
        168962 MiB available memory on the node where the printing process lives
------------------
     ethr =  9.74E-11,  avg # of iterations =  1.8

     negative rho (up, down):  7.925E-01 0.000E+00

     total cpu time spent up to now is      642.7 secs

     total energy              =   -4399.92359193 Ry
     estimated scf accuracy    <       0.00000025 Ry

     iteration # 44     ecut=    60.00 Ry     beta= 0.15
     Davidson diagonalization with overlap

---- Real-time Memory Report at c_bands before calling an iterative solver
             0 MiB given to the printing process from OS
             0 MiB allocation reported by mallinfo(arena+hblkhd)
        168977 MiB available memory on the node where the printing process lives
------------------
     ethr =  5.87E-11,  avg # of iterations =  4.6

     negative rho (up, down):  7.925E-01 0.000E+00

     total cpu time spent up to now is      657.6 secs

     total energy              =   -4399.92359190 Ry
     estimated scf accuracy    <       0.00000011 Ry

     iteration # 45     ecut=    60.00 Ry     beta= 0.15
     Davidson diagonalization with overlap

---- Real-time Memory Report at c_bands before calling an iterative solver
             0 MiB given to the printing process from OS
             0 MiB allocation reported by mallinfo(arena+hblkhd)
        168976 MiB available memory on the node where the printing process lives
------------------
     ethr =  2.70E-11,  avg # of iterations =  2.5

     negative rho (up, down):  7.925E-01 0.000E+00

     total cpu time spent up to now is      671.1 secs

     total energy              =   -4399.92359192 Ry
     estimated scf accuracy    <       0.00000005 Ry

     iteration # 46     ecut=    60.00 Ry     beta= 0.15
     Davidson diagonalization with overlap

---- Real-time Memory Report at c_bands before calling an iterative solver
             0 MiB given to the printing process from OS
             0 MiB allocation reported by mallinfo(arena+hblkhd)
        168974 MiB available memory on the node where the printing process lives
------------------
     ethr =  1.24E-11,  avg # of iterations =  1.9

     negative rho (up, down):  7.925E-01 0.000E+00

     total cpu time spent up to now is      684.5 secs

     total energy              =   -4399.92359196 Ry
     estimated scf accuracy    <       0.00000003 Ry

     iteration # 47     ecut=    60.00 Ry     beta= 0.15
     Davidson diagonalization with overlap

---- Real-time Memory Report at c_bands before calling an iterative solver
             0 MiB given to the printing process from OS
             0 MiB allocation reported by mallinfo(arena+hblkhd)
        168977 MiB available memory on the node where the printing process lives
------------------
     ethr =  7.60E-12,  avg # of iterations =  2.9

     negative rho (up, down):  7.924E-01 0.000E+00

     total cpu time spent up to now is      698.2 secs

     total energy              =   -4399.92359198 Ry
     estimated scf accuracy    <       0.00000002 Ry

     iteration # 48     ecut=    60.00 Ry     beta= 0.15
     Davidson diagonalization with overlap

---- Real-time Memory Report at c_bands before calling an iterative solver
             0 MiB given to the printing process from OS
             0 MiB allocation reported by mallinfo(arena+hblkhd)
        168984 MiB available memory on the node where the printing process lives
------------------
     ethr =  4.23E-12,  avg # of iterations =  3.0

     negative rho (up, down):  7.924E-01 0.000E+00

     total cpu time spent up to now is      712.3 secs

     total energy              =   -4399.92359201 Ry
     estimated scf accuracy    <       0.00000001 Ry

     iteration # 49     ecut=    60.00 Ry     beta= 0.15
     Davidson diagonalization with overlap

---- Real-time Memory Report at c_bands before calling an iterative solver
             0 MiB given to the printing process from OS
             0 MiB allocation reported by mallinfo(arena+hblkhd)
        168983 MiB available memory on the node where the printing process lives
------------------
     ethr =  2.78E-12,  avg # of iterations =  4.0

     negative rho (up, down):  7.924E-01 0.000E+00

     total cpu time spent up to now is      726.3 secs

     End of self-consistent calculation

          k = 0.0000 0.0000 0.0000 ( 65197 PWs)   bands (ev):

   -92.7472 -92.6961 -92.6018 -92.5532 -92.4964 -92.4539 -92.4362 -92.3139
   -56.1006 -56.0820 -55.9588 -55.9479 -55.9411 -55.9347 -55.8995 -55.8708
   -55.8548 -55.8536 -55.8475 -55.8038 -55.7840 -55.7472 -55.7284 -55.6964
   -55.6886 -55.6419 -55.6408 -55.6391 -55.6306 -55.5888 -55.5666 -55.4796
   -31.3220 -31.3029 -31.1611 -31.0748 -31.0011 -30.9627 -30.9382 -30.8716
   -29.8942 -29.8511 -29.8253 -29.7180 -15.1275 -15.0854 -15.0025 -14.8734
   -14.6783 -14.5590 -14.2649 -14.2412 -14.2154 -14.1694 -14.1254 -14.1147
   -14.1029 -14.0828 -14.0620 -14.0169 -13.9762 -13.8241 -13.6425 -13.6119
   -13.5824 -13.5458 -13.5323 -13.4795 -13.4463 -13.3664 -13.2949 -13.1722
   -13.1548 -13.1426 -13.1195 -13.1014 -13.0643 -13.0474 -13.0357 -13.0305
   -12.9977 -12.9677 -12.9454 -12.8831 -12.8645 -12.8431 -12.8202 -12.8023
   -12.7956 -12.7871 -12.7535 -12.7408 -12.3873 -12.2412 -12.0877 -12.0133
   -11.9079 -11.8336 -11.8225 -11.8001 -11.7824 -11.7189 -11.7016 -11.6666
   -11.6371 -11.5269 -11.4465 -11.4430  -2.9879  -2.7558  -2.5263  -2.3784
    -2.3164  -2.1741  -1.8664  -1.8517  -1.8327  -1.7463  -1.7288  -1.6609
    -1.6442  -1.6034  -1.5596  -1.3782  -1.1523  -1.1217  -0.9770  -0.9625
    -0.9164  -0.8967  -0.8514  -0.8357  -0.7802  -0.7531  -0.6803  -0.6700
    -0.5929  -0.4615  -0.4486  -0.4186  -0.3385  -0.3157  -0.2904  -0.2465
    -0.1740  -0.1327  -0.0757  -0.0551   0.0098   0.0825   0.1333   0.1546
     0.1650   0.4256   0.4400   0.6136   0.6770   0.7406   0.7847   0.8782
     0.8896   0.9059   0.9760   1.0035   1.0367   1.0952   1.2274   1.2841
     1.3060   1.3288   1.3421   1.4047   1.4749   1.5837   1.5979   1.6534
     1.6674   1.7114   1.7301   1.7400   1.7949   1.8516   1.8601   1.8922
     1.9182   1.9789   2.1107   2.1973   2.2391   2.2539   2.4019   2.4160
     2.4656   2.4668   2.5734   2.6106   2.6328   2.6527   2.6688   2.7301
     2.7727   2.8609   2.8987   2.9051   2.9114   2.9793   2.9898   3.0078
     3.0146   3.0232   3.0350   3.0432   3.0568   3.0629   3.0738   3.0822
     3.0898   3.1103   3.1318   3.1364   3.1488   3.1716   3.2897   3.3942
     4.0626   4.3794   4.7253   4.8483   4.9930   5.8773   5.9293   5.9586
     6.0077   6.2701   6.3150   6.4585   6.4690   6.7514   6.9814   7.0751
     7.1828   7.2743   7.4191   7.5979   7.6271   7.6485   7.7383   7.8783
     8.0122   8.0843   8.1295   8.1942   8.4252   8.6425   8.7683   8.8654

     occupation numbers 
     1.0000   1.0000   1.0000   1.0000   1.0000   1.0000   1.0000   1.0000
     1.0000   1.0000   1.0000   1.0000   1.0000   1.0000   1.0000   1.0000
     1.0000   1.0000   1.0000   1.0000   1.0000   1.0000   1.0000   1.0000
     1.0000   1.0000   1.0000   1.0000   1.0000   1.0000   1.0000   1.0000
     1.0000   1.0000   1.0000   1.0000   1.0000   1.0000   1.0000   1.0000
     1.0000   1.0000   1.0000   1.0000   1.0000   1.0000   1.0000   1.0000
     1.0000   1.0000   1.0000   1.0000   1.0000   1.0000   1.0000   1.0000
     1.0000   1.0000   1.0000   1.0000   1.0000   1.0000   1.0000   1.0000
     1.0000   1.0000   1.0000   1.0000   1.0000   1.0000   1.0000   1.0000
     1.0000   1.0000   1.0000   1.0000   1.0000   1.0000   1.0000   1.0000
     1.0000   1.0000   1.0000   1.0000   1.0000   1.0000   1.0000   1.0000
     1.0000   1.0000   1.0000   1.0000   1.0000   1.0000   1.0000   1.0000
     1.0000   1.0000   1.0000   1.0000   1.0000   1.0000   1.0000   1.0000
     1.0000   1.0000   1.0000   1.0000   1.0000   1.0000   1.0000   1.0000
     1.0000   1.0000   1.0000   1.0000   1.0000   1.0000   1.0000   1.0000
     1.0000   1.0000   1.0000   1.0000   1.0000   1.0000   1.0000   1.0000
     1.0000   1.0000   1.0000   1.0000   1.0000   1.0000   1.0000   1.0000
     1.0000   1.0000   1.0000   1.0000   1.0000   1.0000   1.0000   1.0000
     1.0000   1.0000   1.0000   1.0000   1.0000   1.0000   1.0000   1.0000
     1.0000   1.0000   1.0000   1.0000   0.9999   0.9999   0.9999   0.9998
     0.9998   0.9998   0.9997   0.9996   0.9996   0.9994   0.9989   0.9985
     0.9983   0.9981   0.9980   0.9973   0.9963   0.9941   0.9938   0.9922
     0.9917   0.9901   0.9893   0.9889   0.9863   0.9831   0.9825   0.9804
     0.9785   0.9734   0.9588   0.9461   0.9390   0.9363   0.9040   0.9004
     0.8869   0.8865   0.8531   0.8400   0.8319   0.8244   0.8181   0.7931
     0.7746   0.7334   0.7146   0.7113   0.7082   0.6726   0.6670   0.6572
     0.6535   0.6488   0.6423   0.6377   0.6301   0.6267   0.6205   0.6158
     0.6115   0.5997   0.5874   0.5847   0.5775   0.5642   0.4945   0.4329
     0.1228   0.0514   0.0160   0.0100   0.0055   0.0001   0.0000   0.0000
     0.0000   0.0000   0.0000   0.0000   0.0000   0.0000   0.0000   0.0000
     0.0000   0.0000   0.0000   0.0000   0.0000   0.0000   0.0000   0.0000
     0.0000   0.0000   0.0000   0.0000   0.0000   0.0000   0.0000   0.0000

          k = 0.0000 0.2500 0.0000 ( 65257 PWs)   bands (ev):

   -92.7472 -92.6961 -92.6018 -92.5532 -92.4964 -92.4539 -92.4362 -92.3139
   -56.1006 -56.0820 -55.9588 -55.9479 -55.9411 -55.9347 -55.8995 -55.8708
   -55.8548 -55.8536 -55.8475 -55.8038 -55.7840 -55.7472 -55.7284 -55.6964
   -55.6886 -55.6419 -55.6408 -55.6391 -55.6306 -55.5888 -55.5666 -55.4796
   -31.3218 -31.3028 -31.1613 -31.0749 -31.0005 -30.9625 -30.9385 -30.8719
   -29.8936 -29.8508 -29.8259 -29.7183 -15.0908 -15.0593 -14.9778 -14.8436
   -14.7207 -14.5470 -14.4109 -14.2307 -14.1938 -14.1729 -14.1452 -14.0876
   -14.0811 -14.0678 -14.0441 -13.9913 -13.8955 -13.8546 -13.6928 -13.6670
   -13.6232 -13.5872 -13.5345 -13.4981 -13.4526 -13.3874 -13.3519 -13.2839
   -13.2182 -13.1919 -13.1529 -13.1339 -13.0389 -13.0310 -13.0052 -12.9791
   -12.9466 -12.9234 -12.9115 -12.8453 -12.8417 -12.8280 -12.8081 -12.7940
   -12.7803 -12.7518 -12.6471 -12.5620 -12.4486 -12.2923 -12.1457 -12.0815
   -11.8734 -11.8304 -11.8026 -11.7744 -11.7579 -11.7106 -11.6992 -11.6765
   -11.6421 -11.5412 -11.4882 -11.4776  -2.8525  -2.6315  -2.4938  -2.3113
    -2.2679  -2.1046  -1.8836  -1.8007  -1.7876  -1.7266  -1.6266  -1.6112
    -1.5777  -1.5504  -1.5066  -1.3094  -1.1792  -1.1683  -1.0911  -1.0817
    -0.9774  -0.9476  -0.8895  -0.8631  -0.8240  -0.7593  -0.7328  -0.7002
    -0.6699  -0.6537  -0.6199  -0.5469  -0.4955  -0.4226  -0.3151  -0.2886
    -0.2508  -0.1369  -0.1008  -0.0410   0.0118   0.0640   0.0824   0.1131
     0.1704   0.4716   0.5606   0.5963   0.6775   0.7223   0.7416   0.8618
     0.8800   0.9780   1.0028   1.0301   1.1440   1.2385   1.2608   1.2862
     1.3046   1.3278   1.3882   1.4162   1.4443   1.4911   1.5256   1.5577
     1.6444   1.6768   1.7046   1.7626   1.8155   1.8526   1.8782   1.9048
     1.9240   2.0174   2.1510   2.2202   2.2375   2.3134   2.3578   2.3985
     2.4039   2.4687   2.5084   2.5907   2.6221   2.6500   2.7463   2.8213
     2.8454   2.8741   2.8980   2.9133   2.9224   2.9280   2.9361   2.9672
     2.9700   2.9866   2.9953   3.0012   3.0257   3.0330   3.0439   3.0616
     3.0722   3.0782   3.1126   3.1294   3.1888   3.5554   3.6017   3.8355
     4.2498   4.3740   4.6717   5.0003   5.0196   5.6072   5.7702   5.9299
     6.0182   6.0549   6.0846   6.1466   6.5750   6.8957   6.9237   7.0879
     7.3011   7.4481   7.4653   7.5389   7.6120   7.7841   7.8270   8.0080
     8.0896   8.1322   8.1480   8.2372   8.3734   8.5688   8.7761   8.9039

     occupation numbers 
     1.0000   1.0000   1.0000   1.0000   1.0000   1.0000   1.0000   1.0000
     1.0000   1.0000   1.0000   1.0000   1.0000   1.0000   1.0000   1.0000
     1.0000   1.0000   1.0000   1.0000   1.0000   1.0000   1.0000   1.0000
     1.0000   1.0000   1.0000   1.0000   1.0000   1.0000   1.0000   1.0000
     1.0000   1.0000   1.0000   1.0000   1.0000   1.0000   1.0000   1.0000
     1.0000   1.0000   1.0000   1.0000   1.0000   1.0000   1.0000   1.0000
     1.0000   1.0000   1.0000   1.0000   1.0000   1.0000   1.0000   1.0000
     1.0000   1.0000   1.0000   1.0000   1.0000   1.0000   1.0000   1.0000
     1.0000   1.0000   1.0000   1.0000   1.0000   1.0000   1.0000   1.0000
     1.0000   1.0000   1.0000   1.0000   1.0000   1.0000   1.0000   1.0000
     1.0000   1.0000   1.0000   1.0000   1.0000   1.0000   1.0000   1.0000
     1.0000   1.0000   1.0000   1.0000   1.0000   1.0000   1.0000   1.0000
     1.0000   1.0000   1.0000   1.0000   1.0000   1.0000   1.0000   1.0000
     1.0000   1.0000   1.0000   1.0000   1.0000   1.0000   1.0000   1.0000
     1.0000   1.0000   1.0000   1.0000   1.0000   1.0000   1.0000   1.0000
     1.0000   1.0000   1.0000   1.0000   1.0000   1.0000   1.0000   1.0000
     1.0000   1.0000   1.0000   1.0000   1.0000   1.0000   1.0000   1.0000
     1.0000   1.0000   1.0000   1.0000   1.0000   1.0000   1.0000   1.0000
     1.0000   1.0000   1.0000   1.0000   1.0000   1.0000   1.0000   1.0000
     1.0000   1.0000   1.0000   1.0000   0.9999   0.9999   0.9999   0.9998
     0.9998   0.9997   0.9996   0.9996   0.9992   0.9988   0.9986   0.9985
     0.9983   0.9981   0.9975   0.9972   0.9968   0.9961   0.9954   0.9947
     0.9924   0.9914   0.9904   0.9879   0.9852   0.9830   0.9813   0.9795
     0.9780   0.9696   0.9532   0.9423   0.9393   0.9245   0.9147   0.9048
     0.9035   0.8860   0.8742   0.8471   0.8359   0.8254   0.7862   0.7523
     0.7408   0.7269   0.7149   0.7072   0.7025   0.6996   0.6954   0.6791
     0.6776   0.6687   0.6640   0.6608   0.6474   0.6434   0.6373   0.6274
     0.6215   0.6180   0.5984   0.5887   0.5542   0.3415   0.3167   0.2049
     0.0750   0.0522   0.0194   0.0053   0.0049   0.0003   0.0001   0.0000
     0.0000   0.0000   0.0000   0.0000   0.0000   0.0000   0.0000   0.0000
     0.0000   0.0000   0.0000   0.0000   0.0000   0.0000   0.0000   0.0000
     0.0000   0.0000   0.0000   0.0000   0.0000   0.0000   0.0000   0.0000

          k = 0.0000-0.5000 0.0000 ( 65180 PWs)   bands (ev):

   -92.7472 -92.6961 -92.6018 -92.5532 -92.4964 -92.4539 -92.4362 -92.3139
   -56.1006 -56.0820 -55.9588 -55.9479 -55.9411 -55.9347 -55.8995 -55.8708
   -55.8548 -55.8536 -55.8475 -55.8038 -55.7840 -55.7472 -55.7284 -55.6964
   -55.6886 -55.6419 -55.6408 -55.6391 -55.6306 -55.5888 -55.5666 -55.4796
   -31.3216 -31.3026 -31.1615 -31.0751 -31.0000 -30.9624 -30.9388 -30.8723
   -29.8929 -29.8505 -29.8266 -29.7186 -15.0563 -15.0077 -14.9555 -14.8243
   -14.7420 -14.6034 -14.4520 -14.3250 -14.2031 -14.1279 -14.0866 -14.0804
   -14.0307 -14.0160 -13.9698 -13.9420 -13.9226 -13.8851 -13.8356 -13.8141
   -13.6291 -13.5701 -13.5382 -13.5022 -13.4407 -13.4038 -13.3635 -13.3274
   -13.3086 -13.2622 -13.1537 -13.1342 -13.0173 -13.0121 -12.9945 -12.9916
   -12.9733 -12.9259 -12.8402 -12.8289 -12.7977 -12.7862 -12.7718 -12.7607
   -12.7498 -12.6967 -12.5596 -12.4870 -12.3673 -12.3337 -12.2544 -12.2188
   -11.8274 -11.8249 -11.7976 -11.7605 -11.7258 -11.7146 -11.6719 -11.6682
   -11.6238 -11.5630 -11.5492 -11.5350  -2.6374  -2.5792  -2.4285  -2.3562
    -2.0726  -1.9913  -1.8635  -1.7265  -1.6850  -1.6695  -1.5916  -1.5584
    -1.4784  -1.4424  -1.3637  -1.3249  -1.2867  -1.2592  -1.2010  -1.1641
    -1.1165  -1.0793  -1.0487  -1.0143  -0.9042  -0.8599  -0.8242  -0.8206
    -0.7350  -0.7046  -0.6820  -0.6359  -0.5456  -0.4769  -0.3864  -0.3516
    -0.2533  -0.2222  -0.0761  -0.0278  -0.0058   0.0360   0.1530   0.2209
     0.3456   0.4152   0.4248   0.5503   0.6084   0.6877   0.8293   0.9328
     0.9664   1.0064   1.0171   1.0482   1.0668   1.1024   1.1193   1.1337
     1.2407   1.2998   1.3329   1.3596   1.6292   1.6477   1.6725   1.7581
     1.7842   1.8245   1.8374   1.8654   1.8828   1.8849   1.9114   1.9590
     1.9831   2.0133   2.0209   2.0506   2.1045   2.1925   2.2271   2.3907
     2.5523   2.5605   2.5825   2.6215   2.6257   2.6356   2.6827   2.6978
     2.7516   2.7573   2.7730   2.8578   2.8675   2.9367   2.9379   2.9680
     2.9691   2.9835   2.9865   2.9910   2.9985   3.0040   3.0224   3.0319
     3.0392   3.0988   3.1023   3.1193   3.1770   4.0758   4.0855   4.1411
     4.2273   4.6866   4.8616   4.9891   5.1388   5.3868   5.4294   5.5479
     5.7046   5.9857   6.0000   6.1245   6.7205   6.8270   6.9309   7.1937
     7.2982   7.3780   7.4632   7.6400   7.7130   7.7731   7.8695   7.9439
     8.1904   8.2363   8.2513   8.4530   8.6253   8.7648   8.7936   8.8289

     occupation numbers 
     1.0000   1.0000   1.0000   1.0000   1.0000   1.0000   1.0000   1.0000
     1.0000   1.0000   1.0000   1.0000   1.0000   1.0000   1.0000   1.0000
     1.0000   1.0000   1.0000   1.0000   1.0000   1.0000   1.0000   1.0000
     1.0000   1.0000   1.0000   1.0000   1.0000   1.0000   1.0000   1.0000
     1.0000   1.0000   1.0000   1.0000   1.0000   1.0000   1.0000   1.0000
     1.0000   1.0000   1.0000   1.0000   1.0000   1.0000   1.0000   1.0000
     1.0000   1.0000   1.0000   1.0000   1.0000   1.0000   1.0000   1.0000
     1.0000   1.0000   1.0000   1.0000   1.0000   1.0000   1.0000   1.0000
     1.0000   1.0000   1.0000   1.0000   1.0000   1.0000   1.0000   1.0000
     1.0000   1.0000   1.0000   1.0000   1.0000   1.0000   1.0000   1.0000
     1.0000   1.0000   1.0000   1.0000   1.0000   1.0000   1.0000   1.0000
     1.0000   1.0000   1.0000   1.0000   1.0000   1.0000   1.0000   1.0000
     1.0000   1.0000   1.0000   1.0000   1.0000   1.0000   1.0000   1.0000
     1.0000   1.0000   1.0000   1.0000   1.0000   1.0000   1.0000   1.0000
     1.0000   1.0000   1.0000   1.0000   1.0000   1.0000   1.0000   1.0000
     1.0000   1.0000   1.0000   1.0000   1.0000   1.0000   1.0000   1.0000
     1.0000   1.0000   1.0000   1.0000   1.0000   1.0000   1.0000   1.0000
     1.0000   1.0000   1.0000   1.0000   1.0000   1.0000   1.0000   1.0000
     1.0000   1.0000   1.0000   1.0000   1.0000   1.0000   1.0000   1.0000
     1.0000   1.0000   1.0000   1.0000   1.0000   0.9999   0.9999   0.9998
     0.9997   0.9996   0.9996   0.9995   0.9995   0.9994   0.9993   0.9993
     0.9988   0.9984   0.9981   0.9978   0.9929   0.9923   0.9915   0.9881
     0.9869   0.9847   0.9839   0.9822   0.9810   0.9809   0.9790   0.9751
     0.9730   0.9701   0.9693   0.9661   0.9596   0.9469   0.9411   0.9068
     0.8602   0.8575   0.8500   0.8361   0.8345   0.8309   0.8126   0.8065
     0.7839   0.7814   0.7744   0.7348   0.7301   0.6951   0.6945   0.6786
     0.6781   0.6704   0.6688   0.6663   0.6623   0.6593   0.6492   0.6440
     0.6399   0.6063   0.6043   0.5945   0.5611   0.1188   0.1160   0.1006
     0.0799   0.0184   0.0094   0.0056   0.0029   0.0009   0.0007   0.0004
     0.0002   0.0000   0.0000   0.0000   0.0000   0.0000   0.0000   0.0000
     0.0000   0.0000   0.0000   0.0000   0.0000   0.0000   0.0000   0.0000
     0.0000   0.0000   0.0000   0.0000   0.0000   0.0000   0.0000   0.0000

          k = 0.2500 0.2500 0.0000 ( 65198 PWs)   bands (ev):

   -92.7472 -92.6961 -92.6018 -92.5532 -92.4964 -92.4539 -92.4362 -92.3139
   -56.1006 -56.0820 -55.9588 -55.9479 -55.9411 -55.9347 -55.8995 -55.8708
   -55.8548 -55.8536 -55.8475 -55.8038 -55.7840 -55.7472 -55.7284 -55.6964
   -55.6886 -55.6419 -55.6408 -55.6391 -55.6306 -55.5888 -55.5666 -55.4796
   -31.3201 -31.3045 -31.1609 -31.0753 -31.0003 -30.9612 -30.9398 -30.8722
   -29.8926 -29.8518 -29.8255 -29.7187 -15.0622 -15.0246 -14.9498 -14.8330
   -14.7124 -14.5889 -14.5158 -14.3071 -14.1534 -14.1395 -14.1044 -14.0739
   -14.0537 -14.0280 -13.9896 -13.9516 -13.8856 -13.8683 -13.7081 -13.6942
   -13.6645 -13.6451 -13.5794 -13.5556 -13.4824 -13.4705 -13.3452 -13.3047
   -13.2733 -13.1862 -13.1456 -13.0933 -13.0631 -13.0213 -12.9944 -12.9800
   -12.9607 -12.9321 -12.8615 -12.8523 -12.8159 -12.7928 -12.7865 -12.7683
   -12.7584 -12.7465 -12.5792 -12.4971 -12.4444 -12.3214 -12.1750 -12.1355
   -11.8456 -11.8141 -11.8032 -11.7958 -11.7336 -11.6984 -11.6922 -11.6569
   -11.6483 -11.5579 -11.5165 -11.4991  -2.7141  -2.5058  -2.3878  -2.2926
    -2.1728  -2.1079  -1.9083  -1.7655  -1.7460  -1.7141  -1.6210  -1.5881
    -1.4936  -1.4664  -1.4160  -1.2847  -1.2371  -1.1630  -1.1188  -1.0732
    -1.0501  -1.0262  -0.9836  -0.9687  -0.8779  -0.8278  -0.7599  -0.7123
    -0.6834  -0.6345  -0.6217  -0.5570  -0.5063  -0.4442  -0.4157  -0.3246
    -0.2764  -0.2468  -0.2090  -0.1535  -0.0792  -0.0431  -0.0168   0.0538
     0.0888   0.3638   0.5140   0.5467   0.6058   0.6457   0.6964   0.7468
     0.8174   0.8567   1.1289   1.1946   1.2680   1.2926   1.3443   1.3722
     1.4094   1.4468   1.4632   1.4913   1.5362   1.5442   1.5606   1.6056
     1.6410   1.6826   1.7406   1.7724   1.7892   1.8164   1.8540   1.9066
     1.9290   2.0573   2.1294   2.1662   2.1884   2.2538   2.3175   2.3488
     2.3853   2.4112   2.4201   2.5333   2.5709   2.6579   2.7478   2.8308
     2.8505   2.8551   2.8703   2.8893   2.9001   2.9104   2.9163   2.9293
     2.9426   2.9548   2.9717   2.9783   2.9902   3.0151   3.0238   3.0332
     3.0639   3.3648   3.4564   3.5073   3.5714   3.5876   3.8196   3.9079
     4.2560   4.4635   4.6768   4.9343   5.1498   5.6067   5.6637   5.7351
     5.7924   5.8531   6.0940   6.1614   6.1862   6.8255   6.8758   7.0822
     7.2704   7.5206   7.5704   7.6762   7.7451   7.8339   7.9600   8.0926
     8.2254   8.2536   8.2956   8.3364   8.3879   8.4205   8.6732   8.8519

     occupation numbers 
     1.0000   1.0000   1.0000   1.0000   1.0000   1.0000   1.0000   1.0000
     1.0000   1.0000   1.0000   1.0000   1.0000   1.0000   1.0000   1.0000
     1.0000   1.0000   1.0000   1.0000   1.0000   1.0000   1.0000   1.0000
     1.0000   1.0000   1.0000   1.0000   1.0000   1.0000   1.0000   1.0000
     1.0000   1.0000   1.0000   1.0000   1.0000   1.0000   1.0000   1.0000
     1.0000   1.0000   1.0000   1.0000   1.0000   1.0000   1.0000   1.0000
     1.0000   1.0000   1.0000   1.0000   1.0000   1.0000   1.0000   1.0000
     1.0000   1.0000   1.0000   1.0000   1.0000   1.0000   1.0000   1.0000
     1.0000   1.0000   1.0000   1.0000   1.0000   1.0000   1.0000   1.0000
     1.0000   1.0000   1.0000   1.0000   1.0000   1.0000   1.0000   1.0000
     1.0000   1.0000   1.0000   1.0000   1.0000   1.0000   1.0000   1.0000
     1.0000   1.0000   1.0000   1.0000   1.0000   1.0000   1.0000   1.0000
     1.0000   1.0000   1.0000   1.0000   1.0000   1.0000   1.0000   1.0000
     1.0000   1.0000   1.0000   1.0000   1.0000   1.0000   1.0000   1.0000
     1.0000   1.0000   1.0000   1.0000   1.0000   1.0000   1.0000   1.0000
     1.0000   1.0000   1.0000   1.0000   1.0000   1.0000   1.0000   1.0000
     1.0000   1.0000   1.0000   1.0000   1.0000   1.0000   1.0000   1.0000
     1.0000   1.0000   1.0000   1.0000   1.0000   1.0000   1.0000   1.0000
     1.0000   1.0000   1.0000   1.0000   1.0000   1.0000   1.0000   1.0000
     1.0000   1.0000   1.0000   1.0000   1.0000   1.0000   0.9999   0.9999
     0.9999   0.9998   0.9993   0.9990   0.9986   0.9984   0.9980   0.9977
     0.9973   0.9968   0.9965   0.9961   0.9952   0.9950   0.9947   0.9936
     0.9925   0.9912   0.9889   0.9874   0.9866   0.9851   0.9829   0.9793
     0.9776   0.9653   0.9563   0.9510   0.9476   0.9363   0.9236   0.9167
     0.9081   0.9016   0.8993   0.8664   0.8540   0.8224   0.7855   0.7478
     0.7384   0.7362   0.7287   0.7193   0.7139   0.7087   0.7057   0.6989
     0.6920   0.6857   0.6767   0.6732   0.6668   0.6532   0.6484   0.6432
     0.6261   0.4502   0.3970   0.3681   0.3329   0.3242   0.2117   0.1757
     0.0737   0.0395   0.0191   0.0070   0.0028   0.0003   0.0002   0.0001
     0.0001   0.0001   0.0000   0.0000   0.0000   0.0000   0.0000   0.0000
     0.0000   0.0000   0.0000   0.0000   0.0000   0.0000   0.0000   0.0000
     0.0000   0.0000   0.0000   0.0000   0.0000   0.0000   0.0000   0.0000

          k = 0.2500-0.5000 0.0000 ( 65138 PWs)   bands (ev):

   -92.7472 -92.6961 -92.6018 -92.5532 -92.4964 -92.4539 -92.4362 -92.3139
   -56.1006 -56.0820 -55.9588 -55.9479 -55.9411 -55.9347 -55.8995 -55.8708
   -55.8548 -55.8536 -55.8475 -55.8038 -55.7840 -55.7472 -55.7284 -55.6964
   -55.6886 -55.6419 -55.6408 -55.6391 -55.6306 -55.5888 -55.5666 -55.4796
   -31.3199 -31.3044 -31.1611 -31.0754 -30.9997 -30.9610 -30.9402 -30.8726
   -29.8920 -29.8515 -29.8262 -29.7190 -15.0260 -14.9808 -14.9126 -14.7944
   -14.7642 -14.6446 -14.5536 -14.4228 -14.1182 -14.0639 -14.0381 -14.0163
   -13.9980 -13.9889 -13.9539 -13.9309 -13.8988 -13.8642 -13.8332 -13.7962
   -13.7113 -13.6626 -13.5966 -13.5838 -13.5137 -13.4860 -13.3995 -13.3686
   -13.2515 -13.1866 -13.1629 -13.0777 -13.0359 -13.0202 -12.9895 -12.9694
   -12.9564 -12.9416 -12.8599 -12.8395 -12.8215 -12.7909 -12.7717 -12.7610
   -12.7003 -12.6688 -12.5662 -12.4683 -12.3648 -12.3144 -12.2415 -12.2176
   -11.8212 -11.8091 -11.7984 -11.7711 -11.7394 -11.7111 -11.6694 -11.6428
   -11.6202 -11.5761 -11.5502 -11.5391  -2.4951  -2.4312  -2.3024  -2.2250
    -2.0932  -2.0113  -1.8880  -1.7374  -1.6817  -1.6607  -1.5988  -1.5858
    -1.4890  -1.4211  -1.3367  -1.2861  -1.2765  -1.2143  -1.1715  -1.1374
    -1.0889  -1.0515  -1.0172  -0.9780  -0.9659  -0.9209  -0.8919  -0.8474
    -0.8188  -0.7509  -0.6470  -0.6125  -0.5311  -0.4650  -0.4133  -0.3745
    -0.3557  -0.2946  -0.1406  -0.1310  -0.0166   0.0058   0.0160   0.0597
     0.0962   0.1281   0.1614   0.2297   0.5124   0.6030   0.6541   0.7124
     0.9944   1.0087   1.1013   1.1260   1.2917   1.3288   1.3661   1.3918
     1.4041   1.4263   1.4897   1.5403   1.5741   1.6446   1.7467   1.7770
     1.7981   1.8078   1.8429   1.8604   1.8656   1.9075   1.9205   1.9396
     1.9721   1.9867   2.0133   2.0447   2.1038   2.1480   2.2255   2.3586
     2.5081   2.5255   2.5428   2.5693   2.5956   2.6226   2.6448   2.6567
     2.6779   2.7503   2.7790   2.8370   2.8514   2.8596   2.8698   2.8879
     2.9010   2.9198   2.9289   2.9710   2.9765   2.9863   2.9939   3.0032
     3.0139   3.5259   3.5611   3.6966   3.7516   4.0769   4.1356   4.1454
     4.2797   4.7071   4.8820   5.0224   5.1026   5.2600   5.4004   5.5744
     5.6282   5.7275   5.7508   6.2399   6.3732   6.4660   6.6428   7.1339
     7.4555   7.5557   7.6691   7.7657   7.8003   7.8439   8.0035   8.2664
     8.3537   8.3780   8.4166   8.5075   8.5305   8.5825   8.6733   8.7375

     occupation numbers 
     1.0000   1.0000   1.0000   1.0000   1.0000   1.0000   1.0000   1.0000
     1.0000   1.0000   1.0000   1.0000   1.0000   1.0000   1.0000   1.0000
     1.0000   1.0000   1.0000   1.0000   1.0000   1.0000   1.0000   1.0000
     1.0000   1.0000   1.0000   1.0000   1.0000   1.0000   1.0000   1.0000
     1.0000   1.0000   1.0000   1.0000   1.0000   1.0000   1.0000   1.0000
     1.0000   1.0000   1.0000   1.0000   1.0000   1.0000   1.0000   1.0000
     1.0000   1.0000   1.0000   1.0000   1.0000   1.0000   1.0000   1.0000
     1.0000   1.0000   1.0000   1.0000   1.0000   1.0000   1.0000   1.0000
     1.0000   1.0000   1.0000   1.0000   1.0000   1.0000   1.0000   1.0000
     1.0000   1.0000   1.0000   1.0000   1.0000   1.0000   1.0000   1.0000
     1.0000   1.0000   1.0000   1.0000   1.0000   1.0000   1.0000   1.0000
     1.0000   1.0000   1.0000   1.0000   1.0000   1.0000   1.0000   1.0000
     1.0000   1.0000   1.0000   1.0000   1.0000   1.0000   1.0000   1.0000
     1.0000   1.0000   1.0000   1.0000   1.0000   1.0000   1.0000   1.0000
     1.0000   1.0000   1.0000   1.0000   1.0000   1.0000   1.0000   1.0000
     1.0000   1.0000   1.0000   1.0000   1.0000   1.0000   1.0000   1.0000
     1.0000   1.0000   1.0000   1.0000   1.0000   1.0000   1.0000   1.0000
     1.0000   1.0000   1.0000   1.0000   1.0000   1.0000   1.0000   1.0000
     1.0000   1.0000   1.0000   1.0000   1.0000   1.0000   1.0000   1.0000
     1.0000   1.0000   1.0000   1.0000   1.0000   1.0000   1.0000   0.9999
     0.9997   0.9996   0.9994   0.9993   0.9984   0.9981   0.9978   0.9975
     0.9973   0.9970   0.9961   0.9951   0.9944   0.9924   0.9886   0.9872
     0.9861   0.9856   0.9836   0.9825   0.9822   0.9793   0.9783   0.9768
     0.9740   0.9726   0.9701   0.9667   0.9597   0.9537   0.9414   0.9145
     0.8743   0.8688   0.8633   0.8545   0.8454   0.8357   0.8274   0.8228
     0.8145   0.7844   0.7718   0.7449   0.7379   0.7340   0.7290   0.7200
     0.7135   0.7038   0.6992   0.6771   0.6741   0.6689   0.6648   0.6597
     0.6539   0.3577   0.3384   0.2683   0.2421   0.1185   0.1021   0.0995
     0.0689   0.0171   0.0087   0.0048   0.0034   0.0016   0.0008   0.0003
     0.0002   0.0001   0.0001   0.0000   0.0000   0.0000   0.0000   0.0000
     0.0000   0.0000   0.0000   0.0000   0.0000   0.0000   0.0000   0.0000
     0.0000   0.0000   0.0000   0.0000   0.0000   0.0000   0.0000   0.0000

          k =-0.5000-0.5000 0.0000 ( 65132 PWs)   bands (ev):

   -92.7472 -92.6961 -92.6018 -92.5532 -92.4964 -92.4539 -92.4362 -92.3139
   -56.1006 -56.0820 -55.9588 -55.9479 -55.9411 -55.9347 -55.8995 -55.8708
   -55.8548 -55.8536 -55.8475 -55.8038 -55.7840 -55.7472 -55.7284 -55.6964
   -55.6886 -55.6419 -55.6408 -55.6391 -55.6306 -55.5888 -55.5666 -55.4796
   -31.3176 -31.3066 -31.1608 -31.0758 -30.9995 -30.9594 -30.9418 -30.8728
   -29.8909 -29.8526 -29.8258 -29.7195 -14.9803 -14.9537 -14.8362 -14.8240
   -14.7265 -14.6938 -14.6541 -14.5226 -14.0302 -14.0165 -13.9831 -13.9634
   -13.9486 -13.9287 -13.9058 -13.8964 -13.8791 -13.8679 -13.8479 -13.7776
   -13.7721 -13.7321 -13.7067 -13.6898 -13.6027 -13.5417 -13.4400 -13.4173
   -13.2028 -13.1592 -13.0944 -13.0701 -13.0353 -13.0292 -13.0197 -13.0007
   -12.9353 -12.9005 -12.8584 -12.8512 -12.8327 -12.8131 -12.7777 -12.7725
   -12.6501 -12.6422 -12.5825 -12.4507 -12.3611 -12.2942 -12.2280 -12.2178
   -11.8180 -11.8053 -11.7873 -11.7707 -11.7355 -11.7181 -11.6830 -11.6234
   -11.6024 -11.5984 -11.5479 -11.5450  -2.2695  -2.1957  -2.1875  -2.1151
    -2.0760  -1.9976  -1.9297  -1.8030  -1.6877  -1.6582  -1.6160  -1.5619
    -1.4889  -1.4750  -1.4041  -1.3615  -1.2434  -1.2138  -1.1657  -1.1384
    -1.0740  -1.0275  -1.0091  -0.9969  -0.9423  -0.8988  -0.8799  -0.7697
    -0.7136  -0.6677  -0.6166  -0.5884  -0.5728  -0.5412  -0.5016  -0.4616
    -0.4533  -0.3691  -0.2996  -0.2565  -0.2299  -0.1564  -0.0953  -0.0916
    -0.0288   0.0020   0.0079   0.0203   0.4853   0.5239   0.6053   0.6162
     1.0213   1.0326   1.0687   1.1066   1.3772   1.3959   1.4031   1.4456
     1.5714   1.6659   1.6934   1.7292   1.7565   1.7708   1.7820   1.8136
     1.8260   1.8414   1.8485   1.9004   1.9052   1.9315   1.9443   1.9641
     1.9766   2.0178   2.0437   2.0575   2.0886   2.1194   2.1868   2.2538
     2.5231   2.5493   2.5677   2.5910   2.6019   2.6246   2.6342   2.6526
     2.6630   2.6811   2.7008   2.7147   2.7521   2.7812   2.7846   2.8057
     2.8186   2.8488   2.8558   2.8562   2.8786   2.9707   2.9853   2.9982
     3.0104   3.9513   3.9943   4.0006   4.0499   4.2723   4.3459   4.3722
     4.6126   4.7351   4.8176   4.9474   5.0379   5.0455   5.1632   5.2577
     5.4077   5.8375   5.8670   5.9266   6.0177   6.5471   6.5730   6.6292
     7.7023   7.8620   7.9209   7.9269   7.9407   7.9453   8.0062   8.0572
     8.2345   8.4398   8.5514   8.5588   8.5810   8.6015   8.6229   8.6543

     occupation numbers 
     1.0000   1.0000   1.0000   1.0000   1.0000   1.0000   1.0000   1.0000
     1.0000   1.0000   1.0000   1.0000   1.0000   1.0000   1.0000   1.0000
     1.0000   1.0000   1.0000   1.0000   1.0000   1.0000   1.0000   1.0000
     1.0000   1.0000   1.0000   1.0000   1.0000   1.0000   1.0000   1.0000
     1.0000   1.0000   1.0000   1.0000   1.0000   1.0000   1.0000   1.0000
     1.0000   1.0000   1.0000   1.0000   1.0000   1.0000   1.0000   1.0000
     1.0000   1.0000   1.0000   1.0000   1.0000   1.0000   1.0000   1.0000
     1.0000   1.0000   1.0000   1.0000   1.0000   1.0000   1.0000   1.0000
     1.0000   1.0000   1.0000   1.0000   1.0000   1.0000   1.0000   1.0000
     1.0000   1.0000   1.0000   1.0000   1.0000   1.0000   1.0000   1.0000
     1.0000   1.0000   1.0000   1.0000   1.0000   1.0000   1.0000   1.0000
     1.0000   1.0000   1.0000   1.0000   1.0000   1.0000   1.0000   1.0000
     1.0000   1.0000   1.0000   1.0000   1.0000   1.0000   1.0000   1.0000
     1.0000   1.0000   1.0000   1.0000   1.0000   1.0000   1.0000   1.0000
     1.0000   1.0000   1.0000   1.0000   1.0000   1.0000   1.0000   1.0000
     1.0000   1.0000   1.0000   1.0000   1.0000   1.0000   1.0000   1.0000
     1.0000   1.0000   1.0000   1.0000   1.0000   1.0000   1.0000   1.0000
     1.0000   1.0000   1.0000   1.0000   1.0000   1.0000   1.0000   1.0000
     1.0000   1.0000   1.0000   1.0000   1.0000   1.0000   1.0000   1.0000
     1.0000   1.0000   1.0000   1.0000   1.0000   1.0000   1.0000   1.0000
     0.9996   0.9996   0.9995   0.9994   0.9976   0.9974   0.9973   0.9968
     0.9944   0.9917   0.9908   0.9894   0.9882   0.9875   0.9870   0.9853
     0.9846   0.9837   0.9833   0.9798   0.9794   0.9774   0.9764   0.9747
     0.9736   0.9696   0.9669   0.9653   0.9616   0.9577   0.9478   0.9363
     0.8696   0.8612   0.8550   0.8470   0.8432   0.8350   0.8314   0.8244
     0.8204   0.8132   0.8053   0.7996   0.7836   0.7708   0.7692   0.7596
     0.7536   0.7392   0.7358   0.7357   0.7247   0.6772   0.6694   0.6624
     0.6558   0.1596   0.1446   0.1424   0.1266   0.0704   0.0568   0.0525
     0.0240   0.0154   0.0112   0.0067   0.0045   0.0044   0.0026   0.0017
     0.0008   0.0001   0.0001   0.0000   0.0000   0.0000   0.0000   0.0000
     0.0000   0.0000   0.0000   0.0000   0.0000   0.0000   0.0000   0.0000
     0.0000   0.0000   0.0000   0.0000   0.0000   0.0000   0.0000   0.0000

          k = 0.2500 0.0000 0.0000 ( 65257 PWs)   bands (ev):

   -92.7472 -92.6961 -92.6018 -92.5532 -92.4964 -92.4539 -92.4362 -92.3139
   -56.1006 -56.0820 -55.9588 -55.9479 -55.9411 -55.9347 -55.8995 -55.8708
   -55.8548 -55.8536 -55.8475 -55.8038 -55.7840 -55.7472 -55.7284 -55.6964
   -55.6886 -55.6419 -55.6408 -55.6391 -55.6306 -55.5888 -55.5666 -55.4796
[...]
     0.7455   0.7308   0.7153   0.7135   0.7030   0.6988   0.6912   0.6790
     0.6771   0.6627   0.6574   0.6532   0.6467   0.6344   0.6219   0.6194
     0.6150   0.6100   0.6053   0.5995   0.5275   0.3572   0.3191   0.2029
     0.0789   0.0463   0.0218   0.0055   0.0047   0.0003   0.0001   0.0000
     0.0000   0.0000   0.0000   0.0000   0.0000   0.0000   0.0000   0.0000
     0.0000   0.0000   0.0000   0.0000   0.0000   0.0000   0.0000   0.0000
     0.0000   0.0000   0.0000   0.0000   0.0000   0.0000   0.0000   0.0000

          k =-0.5000 0.0000 0.0000 ( 65180 PWs)   bands (ev):

   -92.7472 -92.6961 -92.6018 -92.5532 -92.4964 -92.4539 -92.4362 -92.3139
   -56.1006 -56.0820 -55.9588 -55.9479 -55.9411 -55.9347 -55.8995 -55.8708
   -55.8548 -55.8536 -55.8475 -55.8038 -55.7840 -55.7472 -55.7284 -55.6964
   -55.6886 -55.6419 -55.6408 -55.6391 -55.6306 -55.5888 -55.5666 -55.4796
   -31.3180 -31.3069 -31.1603 -31.0755 -31.0005 -30.9601 -30.9408 -30.8721
   -29.8922 -29.8532 -29.8245 -29.7188 -15.0613 -15.0106 -14.9486 -14.8347
   -14.7359 -14.5904 -14.4500 -14.2932 -14.1779 -14.1619 -14.1538 -14.0923
   -14.0376 -14.0066 -13.9559 -13.9412 -13.9301 -13.8816 -13.8523 -13.7628
   -13.6009 -13.5639 -13.5397 -13.5316 -13.4532 -13.4097 -13.3677 -13.3122
   -13.2887 -13.2745 -13.0987 -13.0864 -13.0617 -13.0520 -13.0085 -13.0059
   -12.9873 -12.9678 -12.8311 -12.8245 -12.8127 -12.7924 -12.7725 -12.7389
   -12.6851 -12.6759 -12.5858 -12.4897 -12.3712 -12.3388 -12.2531 -12.2185
   -11.8245 -11.8032 -11.7962 -11.7822 -11.7638 -11.7225 -11.6597 -11.6415
   -11.6083 -11.5656 -11.5563 -11.5404  -2.6278  -2.5892  -2.4260  -2.3865
    -2.0727  -1.9962  -1.8510  -1.7321  -1.6922  -1.6460  -1.5997  -1.5746
    -1.4515  -1.4070  -1.3913  -1.3093  -1.2733  -1.2583  -1.2269  -1.1673
    -1.1003  -1.0718  -1.0397  -0.9454  -0.9004  -0.8510  -0.8186  -0.7979
    -0.7648  -0.7181  -0.6936  -0.6555  -0.5517  -0.4887  -0.4125  -0.3539
    -0.1971  -0.1575  -0.1026  -0.0586  -0.0055   0.0099   0.1478   0.1801
     0.2176   0.3940   0.4936   0.5419   0.6254   0.6858   0.8105   0.8231
     0.9574   0.9852   1.0391   1.0702   1.1056   1.1160   1.1645   1.1858
     1.2548   1.3017   1.3469   1.3618   1.6538   1.6649   1.6828   1.7057
     1.8118   1.8240   1.8354   1.8440   1.8759   1.8876   1.9215   1.9496
     1.9710   2.0314   2.0433   2.0983   2.1155   2.1757   2.2811   2.3805
     2.4561   2.4709   2.5476   2.5802   2.5996   2.6740   2.6835   2.6925
     2.7230   2.7534   2.7901   2.8388   2.8992   2.9083   2.9543   2.9593
     2.9653   2.9714   2.9885   2.9989   3.0115   3.0177   3.0392   3.0410
     3.0652   3.0829   3.0881   3.2168   3.2229   4.0147   4.0825   4.1550
     4.2701   4.7461   4.8202   5.0044   5.0257   5.4579   5.4782   5.5672
     5.6145   5.9877   6.0015   6.1215   6.7711   6.8317   6.9822   7.2535
     7.2910   7.3471   7.4382   7.5753   7.6456   7.7376   7.8487   7.9363
     8.1558   8.2628   8.2995   8.4758   8.5864   8.7234   8.8052   8.8642

     occupation numbers 
     1.0000   1.0000   1.0000   1.0000   1.0000   1.0000   1.0000   1.0000
     1.0000   1.0000   1.0000   1.0000   1.0000   1.0000   1.0000   1.0000
     1.0000   1.0000   1.0000   1.0000   1.0000   1.0000   1.0000   1.0000
     1.0000   1.0000   1.0000   1.0000   1.0000   1.0000   1.0000   1.0000
     1.0000   1.0000   1.0000   1.0000   1.0000   1.0000   1.0000   1.0000
     1.0000   1.0000   1.0000   1.0000   1.0000   1.0000   1.0000   1.0000
     1.0000   1.0000   1.0000   1.0000   1.0000   1.0000   1.0000   1.0000
     1.0000   1.0000   1.0000   1.0000   1.0000   1.0000   1.0000   1.0000
     1.0000   1.0000   1.0000   1.0000   1.0000   1.0000   1.0000   1.0000
     1.0000   1.0000   1.0000   1.0000   1.0000   1.0000   1.0000   1.0000
     1.0000   1.0000   1.0000   1.0000   1.0000   1.0000   1.0000   1.0000
     1.0000   1.0000   1.0000   1.0000   1.0000   1.0000   1.0000   1.0000
     1.0000   1.0000   1.0000   1.0000   1.0000   1.0000   1.0000   1.0000
     1.0000   1.0000   1.0000   1.0000   1.0000   1.0000   1.0000   1.0000
     1.0000   1.0000   1.0000   1.0000   1.0000   1.0000   1.0000   1.0000
     1.0000   1.0000   1.0000   1.0000   1.0000   1.0000   1.0000   1.0000
     1.0000   1.0000   1.0000   1.0000   1.0000   1.0000   1.0000   1.0000
     1.0000   1.0000   1.0000   1.0000   1.0000   1.0000   1.0000   1.0000
     1.0000   1.0000   1.0000   1.0000   1.0000   1.0000   1.0000   1.0000
     1.0000   1.0000   1.0000   1.0000   1.0000   0.9999   0.9999   0.9999
     0.9997   0.9997   0.9996   0.9995   0.9994   0.9993   0.9992   0.9991
     0.9987   0.9983   0.9980   0.9978   0.9921   0.9918   0.9912   0.9903
     0.9854   0.9847   0.9841   0.9835   0.9815   0.9807   0.9782   0.9759
     0.9741   0.9682   0.9669   0.9604   0.9582   0.9495   0.9311   0.9093
     0.8895   0.8854   0.8617   0.8508   0.8440   0.8161   0.8123   0.8087
     0.7961   0.7831   0.7667   0.7440   0.7143   0.7097   0.6859   0.6833
     0.6801   0.6768   0.6677   0.6620   0.6552   0.6518   0.6399   0.6389
     0.6254   0.6153   0.6124   0.5377   0.5340   0.1378   0.1168   0.0970
     0.0709   0.0148   0.0111   0.0052   0.0048   0.0006   0.0006   0.0003
     0.0003   0.0000   0.0000   0.0000   0.0000   0.0000   0.0000   0.0000
     0.0000   0.0000   0.0000   0.0000   0.0000   0.0000   0.0000   0.0000
     0.0000   0.0000   0.0000   0.0000   0.0000   0.0000   0.0000   0.0000

          k =-0.2500 0.2500 0.0000 ( 65198 PWs)   bands (ev):

   -92.7472 -92.6961 -92.6018 -92.5532 -92.4964 -92.4539 -92.4362 -92.3139
   -56.1006 -56.0820 -55.9588 -55.9479 -55.9411 -55.9347 -55.8995 -55.8708
   -55.8548 -55.8536 -55.8475 -55.8038 -55.7840 -55.7472 -55.7284 -55.6964
   -55.6886 -55.6419 -55.6408 -55.6391 -55.6306 -55.5888 -55.5666 -55.4796
   -31.3201 -31.3045 -31.1609 -31.0753 -31.0003 -30.9612 -30.9398 -30.8722
   -29.8926 -29.8518 -29.8255 -29.7187 -15.0636 -15.0235 -14.9482 -14.8317
   -14.7180 -14.5943 -14.5076 -14.2976 -14.1601 -14.1315 -14.1152 -14.0715
   -14.0443 -14.0278 -14.0061 -13.9567 -13.8810 -13.8681 -13.7172 -13.6901
   -13.6608 -13.6412 -13.5858 -13.5423 -13.4805 -13.4683 -13.3486 -13.3130
   -13.2675 -13.1905 -13.1466 -13.0846 -13.0521 -13.0306 -12.9953 -12.9838
   -12.9714 -12.9235 -12.8769 -12.8417 -12.8186 -12.8098 -12.7901 -12.7617
   -12.7534 -12.7358 -12.5501 -12.4869 -12.4752 -12.3271 -12.1837 -12.1241
   -11.8448 -11.8233 -11.7964 -11.7839 -11.7430 -11.7083 -11.6853 -11.6635
   -11.6412 -11.5577 -11.5118 -11.5025  -2.7125  -2.5047  -2.3837  -2.2941
    -2.1771  -2.1106  -1.9059  -1.7624  -1.7436  -1.7120  -1.6217  -1.5870
    -1.4936  -1.4595  -1.4332  -1.2912  -1.2346  -1.1655  -1.1383  -1.0771
    -1.0563  -1.0161  -0.9875  -0.9474  -0.8839  -0.8365  -0.7694  -0.7048
    -0.6798  -0.6293  -0.6004  -0.5551  -0.4958  -0.4467  -0.4108  -0.3061
    -0.2784  -0.2648  -0.2200  -0.1567  -0.0818  -0.0439  -0.0072   0.0575
     0.0870   0.3441   0.5175   0.5550   0.5959   0.6513   0.6950   0.7512
     0.8249   0.8536   1.1364   1.2458   1.2846   1.3193   1.3249   1.3653
     1.3822   1.4284   1.4600   1.4725   1.4993   1.5457   1.5603   1.6009
     1.6220   1.6660   1.7507   1.7656   1.7891   1.8182   1.8519   1.8899
     1.9352   2.0468   2.1615   2.1867   2.2338   2.2528   2.3153   2.3600
     2.3879   2.4109   2.4318   2.5338   2.5683   2.6635   2.7432   2.8373
     2.8475   2.8607   2.8701   2.8801   2.8931   2.9041   2.9203   2.9339
     2.9416   2.9544   2.9635   2.9727   2.9817   3.0139   3.0243   3.0319
     3.0658   3.3581   3.4388   3.5105   3.5723   3.5966   3.8061   3.9162
     4.2562   4.4605   4.6789   4.9418   5.1500   5.6074   5.6614   5.7387
     5.7886   5.8539   6.1133   6.1434   6.1944   6.7918   6.8735   7.0817
     7.3056   7.5340   7.5775   7.6373   7.7691   7.8506   7.9556   8.1062
     8.1826   8.2536   8.2941   8.3508   8.3876   8.4197   8.6336   8.8595

     occupation numbers 
     1.0000   1.0000   1.0000   1.0000   1.0000   1.0000   1.0000   1.0000
     1.0000   1.0000   1.0000   1.0000   1.0000   1.0000   1.0000   1.0000
     1.0000   1.0000   1.0000   1.0000   1.0000   1.0000   1.0000   1.0000
     1.0000   1.0000   1.0000   1.0000   1.0000   1.0000   1.0000   1.0000
     1.0000   1.0000   1.0000   1.0000   1.0000   1.0000   1.0000   1.0000
     1.0000   1.0000   1.0000   1.0000   1.0000   1.0000   1.0000   1.0000
     1.0000   1.0000   1.0000   1.0000   1.0000   1.0000   1.0000   1.0000
     1.0000   1.0000   1.0000   1.0000   1.0000   1.0000   1.0000   1.0000
     1.0000   1.0000   1.0000   1.0000   1.0000   1.0000   1.0000   1.0000
     1.0000   1.0000   1.0000   1.0000   1.0000   1.0000   1.0000   1.0000
     1.0000   1.0000   1.0000   1.0000   1.0000   1.0000   1.0000   1.0000
     1.0000   1.0000   1.0000   1.0000   1.0000   1.0000   1.0000   1.0000
     1.0000   1.0000   1.0000   1.0000   1.0000   1.0000   1.0000   1.0000
     1.0000   1.0000   1.0000   1.0000   1.0000   1.0000   1.0000   1.0000
     1.0000   1.0000   1.0000   1.0000   1.0000   1.0000   1.0000   1.0000
     1.0000   1.0000   1.0000   1.0000   1.0000   1.0000   1.0000   1.0000
     1.0000   1.0000   1.0000   1.0000   1.0000   1.0000   1.0000   1.0000
     1.0000   1.0000   1.0000   1.0000   1.0000   1.0000   1.0000   1.0000
     1.0000   1.0000   1.0000   1.0000   1.0000   1.0000   1.0000   1.0000
     1.0000   1.0000   1.0000   1.0000   1.0000   1.0000   0.9999   0.9999
     0.9999   0.9998   0.9993   0.9987   0.9985   0.9982   0.9982   0.9978
     0.9976   0.9970   0.9966   0.9964   0.9959   0.9950   0.9947   0.9937
     0.9931   0.9917   0.9884   0.9878   0.9866   0.9850   0.9830   0.9805
     0.9771   0.9665   0.9517   0.9478   0.9399   0.9365   0.9241   0.9142
     0.9075   0.9017   0.8962   0.8662   0.8549   0.8202   0.7875   0.7448
     0.7398   0.7334   0.7288   0.7239   0.7174   0.7118   0.7036   0.6966
     0.6926   0.6858   0.6810   0.6762   0.6713   0.6539   0.6482   0.6440
     0.6251   0.4541   0.4071   0.3663   0.3324   0.3194   0.2175   0.1726
     0.0737   0.0399   0.0189   0.0068   0.0028   0.0003   0.0002   0.0001
     0.0001   0.0001   0.0000   0.0000   0.0000   0.0000   0.0000   0.0000
     0.0000   0.0000   0.0000   0.0000   0.0000   0.0000   0.0000   0.0000
     0.0000   0.0000   0.0000   0.0000   0.0000   0.0000   0.0000   0.0000

          k =-0.5000 0.2500 0.0000 ( 65138 PWs)   bands (ev):

   -92.7472 -92.6961 -92.6018 -92.5532 -92.4964 -92.4539 -92.4362 -92.3139
   -56.1006 -56.0820 -55.9588 -55.9479 -55.9411 -55.9347 -55.8995 -55.8708
   -55.8548 -55.8536 -55.8475 -55.8038 -55.7840 -55.7472 -55.7284 -55.6964
   -55.6886 -55.6419 -55.6408 -55.6391 -55.6306 -55.5888 -55.5666 -55.4796
   -31.3178 -31.3068 -31.1606 -31.0757 -31.0000 -30.9598 -30.9413 -30.8724
   -29.8915 -29.8529 -29.8251 -29.7191 -15.0287 -14.9841 -14.9058 -14.8021
   -14.7627 -14.6377 -14.5516 -14.4139 -14.1107 -14.0797 -14.0682 -14.0259
   -14.0004 -13.9784 -13.9418 -13.9243 -13.9105 -13.8683 -13.8517 -13.7532
   -13.6830 -13.6336 -13.6277 -13.6091 -13.5138 -13.4987 -13.4032 -13.3471
   -13.2451 -13.2080 -13.1108 -13.0716 -13.0604 -13.0302 -12.9964 -12.9844
   -12.9643 -12.9550 -12.8562 -12.8376 -12.8211 -12.7969 -12.7679 -12.7555
   -12.6671 -12.6594 -12.5839 -12.4694 -12.3665 -12.3169 -12.2410 -12.2175
   -11.8174 -11.8049 -11.7906 -11.7784 -11.7575 -11.7272 -11.6461 -11.6384
   -11.6141 -11.5801 -11.5519 -11.5428  -2.4851  -2.4434  -2.2957  -2.2532
    -2.0923  -2.0150  -1.8751  -1.7379  -1.6804  -1.6537  -1.6156  -1.5774
    -1.4968  -1.3810  -1.3241  -1.3007  -1.2740  -1.1981  -1.1694  -1.1310
    -1.1138  -1.0535  -1.0221  -0.9849  -0.9501  -0.9211  -0.8626  -0.8355
    -0.7938  -0.7583  -0.6539  -0.6288  -0.5341  -0.4797  -0.4462  -0.3854
    -0.3071  -0.2729  -0.1710  -0.1342  -0.0739  -0.0262   0.0090   0.0746
     0.0992   0.1316   0.1854   0.2251   0.5445   0.6017   0.6551   0.6655
     0.9693   1.0298   1.1038   1.1301   1.3055   1.3403   1.3783   1.3899
     1.4080   1.4255   1.4949   1.5420   1.5808   1.6133   1.7282   1.7736
     1.7981   1.8084   1.8396   1.8723   1.8885   1.8969   1.9173   1.9435
     1.9842   2.0048   2.0380   2.0632   2.0932   2.1519   2.2732   2.3720
     2.4023   2.4697   2.5065   2.5665   2.5969   2.6109   2.6511   2.6824
     2.7069   2.7465   2.7889   2.8388   2.8481   2.8586   2.8825   2.8948
     2.9069   2.9233   2.9366   2.9619   2.9710   2.9822   2.9898   2.9971
     3.0089   3.5426   3.5772   3.7290   3.7488   4.0219   4.0980   4.1629
     4.3561   4.7403   4.8380   5.0021   5.0437   5.3664   5.3894   5.5535
     5.6204   5.7061   5.7581   6.2324   6.3670   6.4756   6.6995   7.1137
     7.4639   7.5450   7.6829   7.7355   7.7659   7.8530   7.9870   8.2379
     8.3661   8.3859   8.4241   8.4969   8.5432   8.5874   8.6305   8.7190

     occupation numbers 
     1.0000   1.0000   1.0000   1.0000   1.0000   1.0000   1.0000   1.0000
     1.0000   1.0000   1.0000   1.0000   1.0000   1.0000   1.0000   1.0000
     1.0000   1.0000   1.0000   1.0000   1.0000   1.0000   1.0000   1.0000
     1.0000   1.0000   1.0000   1.0000   1.0000   1.0000   1.0000   1.0000
     1.0000   1.0000   1.0000   1.0000   1.0000   1.0000   1.0000   1.0000
     1.0000   1.0000   1.0000   1.0000   1.0000   1.0000   1.0000   1.0000
     1.0000   1.0000   1.0000   1.0000   1.0000   1.0000   1.0000   1.0000
     1.0000   1.0000   1.0000   1.0000   1.0000   1.0000   1.0000   1.0000
     1.0000   1.0000   1.0000   1.0000   1.0000   1.0000   1.0000   1.0000
     1.0000   1.0000   1.0000   1.0000   1.0000   1.0000   1.0000   1.0000
     1.0000   1.0000   1.0000   1.0000   1.0000   1.0000   1.0000   1.0000
     1.0000   1.0000   1.0000   1.0000   1.0000   1.0000   1.0000   1.0000
     1.0000   1.0000   1.0000   1.0000   1.0000   1.0000   1.0000   1.0000
     1.0000   1.0000   1.0000   1.0000   1.0000   1.0000   1.0000   1.0000
     1.0000   1.0000   1.0000   1.0000   1.0000   1.0000   1.0000   1.0000
     1.0000   1.0000   1.0000   1.0000   1.0000   1.0000   1.0000   1.0000
     1.0000   1.0000   1.0000   1.0000   1.0000   1.0000   1.0000   1.0000
     1.0000   1.0000   1.0000   1.0000   1.0000   1.0000   1.0000   1.0000
     1.0000   1.0000   1.0000   1.0000   1.0000   1.0000   1.0000   1.0000
     1.0000   1.0000   1.0000   1.0000   1.0000   1.0000   1.0000   0.9999
     0.9997   0.9996   0.9994   0.9993   0.9983   0.9980   0.9976   0.9975
     0.9973   0.9971   0.9960   0.9951   0.9942   0.9933   0.9894   0.9874
     0.9861   0.9856   0.9838   0.9817   0.9806   0.9800   0.9785   0.9764
     0.9729   0.9709   0.9675   0.9647   0.9610   0.9531   0.9326   0.9113
     0.9039   0.8857   0.8748   0.8555   0.8450   0.8399   0.8250   0.8128
     0.8028   0.7861   0.7673   0.7440   0.7396   0.7345   0.7227   0.7166
     0.7105   0.7021   0.6952   0.6819   0.6771   0.6711   0.6670   0.6631
     0.6566   0.3485   0.3298   0.2527   0.2434   0.1354   0.1124   0.0950
     0.0551   0.0151   0.0104   0.0053   0.0044   0.0010   0.0009   0.0004
     0.0003   0.0002   0.0001   0.0000   0.0000   0.0000   0.0000   0.0000
     0.0000   0.0000   0.0000   0.0000   0.0000   0.0000   0.0000   0.0000
     0.0000   0.0000   0.0000   0.0000   0.0000   0.0000   0.0000   0.0000

     the Fermi energy is     3.2804 ev

!    total energy              =   -4399.92359199 Ry
     estimated scf accuracy    <          6.0E-09 Ry
     smearing contrib. (-TS)   =      -1.14691486 Ry
     internal energy E=F+TS    =   -4398.77667713 Ry

     The total energy is F=E-TS. E is the sum of the following terms:
     one-electron contribution =  -21251.92217654 Ry
     hartree contribution      =   10753.41562679 Ry
     xc contribution           =    -686.72712325 Ry
     ewald contribution        =    7053.10213839 Ry
     one-center paw contrib.   =    -266.64514253 Ry
      -> PAW hartree energy AE =      25.15116296 Ry
      -> PAW hartree energy PS =     -25.03519506 Ry
      -> PAW xc energy AE      =     -16.51581302 Ry
      -> PAW xc energy PS      =       6.87519832 Ry
      -> total E_H with PAW    =   10753.53159469 Ry
      -> total E_XC with PAW   =    -696.36773796 Ry

     convergence has been achieved in  49 iterations

     Writing all to output data dir /bsuhome/zayahcortright/scratch/pwscf.save/
 
     init_run     :      7.82s CPU      8.44s WALL (       1 calls)
     electrons    :    705.09s CPU    717.46s WALL (       1 calls)

     Called by init_run:
     wfcinit      :      6.22s CPU      6.35s WALL (       1 calls)
     wfcinit:atom :      0.05s CPU      0.06s WALL (       5 calls)
     wfcinit:wfcr :      5.89s CPU      5.97s WALL (       5 calls)
     potinit      :      0.21s CPU      0.23s WALL (       1 calls)
     hinit0       :      0.37s CPU      0.78s WALL (       1 calls)

     Called by electrons:
     c_bands      :    558.66s CPU    563.48s WALL (      49 calls)
     sum_band     :    109.49s CPU    113.90s WALL (      49 calls)
     v_of_rho     :      5.48s CPU      5.74s WALL (      50 calls)
     v_h          :      0.53s CPU      0.53s WALL (      50 calls)
     v_xc         :      4.95s CPU      5.21s WALL (      50 calls)
     newd         :     16.88s CPU     19.36s WALL (      50 calls)
     PAW_pot      :      1.57s CPU      1.61s WALL (      50 calls)
     mix_rho      :     12.69s CPU     12.94s WALL (      49 calls)

     Called by c_bands:
     init_us_2    :      7.13s CPU      7.18s WALL (     495 calls)
     init_us_2:cp :      7.12s CPU      7.18s WALL (     495 calls)
     cegterg      :    528.82s CPU    533.46s WALL (     245 calls)

     Called by sum_band:
     sum_band:wei :      0.35s CPU      0.35s WALL (      49 calls)
     sum_band:loo :     89.79s CPU     90.49s WALL (      49 calls)
     sum_band:buf :      1.46s CPU      1.49s WALL (     245 calls)
     sum_band:ini :      3.42s CPU      3.43s WALL (     245 calls)
     sum_band:cal :     18.26s CPU     18.32s WALL (     245 calls)
     sum_band:bec :      0.55s CPU      0.55s WALL (     245 calls)
     addusdens    :     18.27s CPU     21.95s WALL (      49 calls)
                                        0.00s GPU  (      49 calls)
     addusd:skk   :      0.34s CPU      0.67s WALL (     196 calls)
                                        0.00s GPU  (     196 calls)

     Called by *egterg:
     cdiaghg      :     58.25s CPU     58.47s WALL (    1372 calls)
     cegterg:over :     37.92s CPU     38.07s WALL (    1127 calls)
     cegterg:upda :     28.11s CPU     28.47s WALL (    1127 calls)
     cegterg:last :     58.89s CPU     59.08s WALL (     452 calls)
     cdiaghg:chol :      3.41s CPU      3.42s WALL (    1372 calls)
     cdiaghg:inve :      3.70s CPU      3.72s WALL (    1372 calls)
     cdiaghg:para :      7.37s CPU      7.40s WALL (    2744 calls)
     h_psi        :    291.23s CPU    293.87s WALL (    1377 calls)
     s_psi        :     39.68s CPU     39.80s WALL (    1377 calls)
     g_psi        :      1.21s CPU      1.21s WALL (    1127 calls)

     Called by h_psi:
     h_psi:calbec :     42.45s CPU     42.59s WALL (    1377 calls)
     vloc_psi     :    206.03s CPU    207.97s WALL (    1377 calls)
     add_vuspsi   :     39.43s CPU     39.58s WALL (    1377 calls)

     General routines
     calbec       :     60.71s CPU     60.90s WALL (    1622 calls)
     fft          :      3.57s CPU      3.62s WALL (     648 calls)
     ffts         :      4.61s CPU      4.65s WALL (    5235 calls)
     fftw         :    173.42s CPU    174.86s WALL (  328184 calls)
     interpolate  :      0.39s CPU      0.41s WALL (      50 calls)
 
     Parallel routines

     PAW routines
     PAW_pot      :      1.57s CPU      1.61s WALL (      50 calls)
 
     PWSCF        :  11m54.85s CPU  12m10.83s WALL

 
   This run was terminated on:  22:40: 3  21Jun2024            

=------------------------------------------------------------------------------=
   JOB DONE.
=------------------------------------------------------------------------------=
