
     Program PWSCF v.7.2 starts on 21Jun2024 at 17: 1:39 

     This program is part of the open-source Quantum ESPRESSO suite
     for quantum simulation of materials; please cite
         "P. Giannozzi et al., J. Phys.:Condens. Matter 21 395502 (2009);
         "P. Giannozzi et al., J. Phys.:Condens. Matter 29 465901 (2017);
         "P. Giannozzi et al., J. Chem. Phys. 152 154105 (2020);
          URL http://www.quantum-espresso.org", 
     in publications or presentations arising from this work. More details at
     http://www.quantum-espresso.org/quote

     Parallel version (MPI & OpenMP), running on      48 processor cores
     Number of MPI processes:                48
     Threads/MPI process:                     1

     MPI processes distributed on     1 nodes
     60581 MiB available memory on the printing compute node when the environment starts
 
     Reading input from espresso.pwi
Warning: card &CELL ignored
Warning: card / ignored
Warning: card &FCP ignored
Warning: card / ignored
Warning: card &RISM ignored
Warning: card / ignored

     Current dimensions of program PWSCF are:
     Max number of different atomic species (ntypx) = 10
     Max number of k-points (npk) =  40000
     Max angular momentum in pseudopotentials (lmaxx) =  4
     file O.pbe-n-kjpaw_psl.0.1.UPF: wavefunction(s)  2P renormalized
     signal trapping enabled: kill the code with -SIGUSR1 to stop cleanly the simulation 
 
     K-points division:     npool     =       2
     R & G space division:  proc/nbgrp/npool/nimage =      24
     Subspace diagonalization in iterative solution of the eigenvalue problem:
     one sub-group per band group will be used
     scalapack distributed-memory algorithm (size of sub-group:  3*  3 procs)

 
     Parallelization info
     --------------------
     sticks:   dense  smooth     PW     G-vecs:    dense   smooth      PW
     Min         350     175     47                61430    21716    3036
     Max         351     177     48                61449    21727    3041
     Sum        8421    4205   1137              1474595   521381   72913
 
     Using Slab Decomposition
 


     bravais-lattice index     =            0
     lattice parameter (alat)  =      14.8599  a.u.
     unit-cell volume          =    8305.1283 (a.u.)^3
     number of atoms/cell      =           49
     number of atomic types    =            3
     number of electrons       =       430.00
     number of Kohn-Sham states=          258
     kinetic-energy cutoff     =      60.0000  Ry
     charge density cutoff     =     480.0000  Ry
     scf convergence threshold =      1.0E-08
     mixing beta               =       0.1500
     number of iterations used =            8  local-TF  mixing
     Exchange-correlation= SLA  PW   PBE  PBE
                           (   1   4   3   4   0   0   0)

     celldm(1)=  14.859904  celldm(2)=   0.000000  celldm(3)=   0.000000
     celldm(4)=   0.000000  celldm(5)=   0.000000  celldm(6)=   0.000000

     crystal axes: (cart. coord. in units of alat)
               a(1) = (   1.000000   0.000000   0.000000 )  
               a(2) = (   0.000000   1.000000   0.000000 )  
               a(3) = (   0.000000   0.000000   2.531036 )  

     reciprocal axes: (cart. coord. in units 2 pi/alat)
               b(1) = (  1.000000  0.000000  0.000000 )  
               b(2) = (  0.000000  1.000000  0.000000 )  
               b(3) = (  0.000000  0.000000  0.395095 )  


     PseudoPot. # 1 for Sr read from file:
     /bsuhome/zayahcortright/q-e/pseudo/Sr_pbe_v1.uspp.F.UPF
     MD5 check sum: 6b418c05fbe9db5448babca5e47b7a5b
     Pseudo is Ultrasoft + core correction, Zval = 10.0
     Generated by new atomic code, or converted to UPF format
     Using radial grid of  883 points,  6 beta functions with: 
                l(1) =   0
                l(2) =   0
                l(3) =   1
                l(4) =   1
                l(5) =   2
                l(6) =   2
     Q(r) pseudized with  6 coefficients,  rinner =    1.400   1.400   1.400
                                                       1.400   1.400

     PseudoPot. # 2 for O  read from file:
     /bsuhome/zayahcortright/q-e/pseudo/O.pbe-n-kjpaw_psl.0.1.UPF
     MD5 check sum: 0234752ac141de4415c5fc33072bef88
     Pseudo is Projector augmented-wave + core cor, Zval =  6.0
     Generated using "atomic" code by A. Dal Corso  v.5.0.99 svn rev. 10869
     Shape of augmentation charge: BESSEL
     Using radial grid of 1095 points,  4 beta functions with: 
                l(1) =   0
                l(2) =   0
                l(3) =   1
                l(4) =   1
     Q(r) pseudized with 0 coefficients 


     PseudoPot. # 3 for Co read from file:
     /bsuhome/zayahcortright/q-e/pseudo/Co_pbe_v1.2.uspp.F.UPF
     MD5 check sum: 5f91765df6ddd3222702df6e7b74a16d
     Pseudo is Ultrasoft + core correction, Zval = 17.0
     Generated by new atomic code, or converted to UPF format
     Using radial grid of  863 points,  6 beta functions with: 
                l(1) =   0
                l(2) =   0
                l(3) =   1
                l(4) =   1
                l(5) =   2
                l(6) =   2
     Q(r) pseudized with  8 coefficients,  rinner =    1.200   1.200   1.200
                                                       1.200   1.200

     atomic species   valence    mass     pseudopotential
        Sr            10.00    87.62000     Sr( 1.00)
        O              6.00    15.99900     O ( 1.00)
        Co            17.00    58.93319     Co( 1.00)

     No symmetry found


                                    s                        frac. trans.

      isym =  1     identity                                     

 cryst.   s( 1) = (     1          0          0      )
                  (     0          1          0      )
                  (     0          0          1      )

 cart.    s( 1) = (  1.0000000  0.0000000  0.0000000 )
                  (  0.0000000  1.0000000  0.0000000 )
                  (  0.0000000  0.0000000  1.0000000 )


   Cartesian axes

     site n.     atom                  positions (alat units)
         1           Sr  tau(   1) = (   0.2508693   0.7491307   1.7574407  )
         2           O   tau(   2) = (   0.4985141   0.5014859   1.7715967  )
         3           Sr  tau(   3) = (   0.7482398   0.7454518   1.7648669  )
         4           Sr  tau(   4) = (   0.7441748   0.2558252   1.7667843  )
         5           Sr  tau(   5) = (   0.2508693   0.7491307   1.2696799  )
         6           Sr  tau(   6) = (   0.2508693   0.7491307   0.7632319  )
         7           Co  tau(   7) = (   0.4998914   0.5001086   1.0164559  )
         8           Co  tau(   8) = (   0.4936915   0.5063085   1.5135603  )
         9           O   tau(   9) = (   0.4988895   0.7610401   1.0164559  )
        10           O   tau(  10) = (   0.2389599   0.5011105   1.0164559  )
        11           O   tau(  11) = (   0.0070918   0.7374880   1.0164559  )
        12           O   tau(  12) = (   0.0088340   0.7405089   1.5135603  )
        13           O   tau(  13) = (   0.5066944   0.7415376   1.5135603  )
        14           O   tau(  14) = (   0.2584624   0.4933056   1.5135603  )
        15           O   tau(  15) = (   0.4985141   0.5014859   0.7773880  )
        16           O   tau(  16) = (   0.4985141   0.5014859   1.2555238  )
        17           Sr  tau(  17) = (   0.7482398   0.7454518   0.7706582  )
        18           Sr  tau(  18) = (   0.7482398   0.7454518   1.2622536  )
        19           Sr  tau(  19) = (   0.7441748   0.2558252   0.7725755  )
        20           Sr  tau(  20) = (   0.7441748   0.2558252   1.2603363  )
        21           O   tau(  21) = (   0.7322655   0.0078049   1.5135603  )
        22           O   tau(  22) = (   0.7558175   0.4996027   1.5135603  )
        23           O   tau(  23) = (   0.5003973   0.2441825   1.5135603  )
        24           O   tau(  24) = (   0.7527966   0.4978604   1.0164559  )
        25           O   tau(  25) = (   0.5021396   0.2472034   1.0164559  )
        26           O   tau(  26) = (   0.7517679   0.0000000   1.0164559  )
        27           O   tau(  27) = (   0.0114961   0.4948124   1.7455321  )
        28           O   tau(  28) = (   0.0048226   0.0077944   1.7715967  )
        29           Sr  tau(  29) = (   0.2545482   0.2517602   1.7648669  )
        30           O   tau(  30) = (   0.5048017   0.0015068   1.7786929  )
        31           Co  tau(  31) = (   0.0056869   0.5006215   1.0164559  )
        32           Co  tau(  32) = (   0.0065315   0.4997770   1.5135603  )
        33           Co  tau(  33) = (   0.0061999   0.0064171   1.0164559  )
        34           Co  tau(  34) = (   0.0000000   0.0126169   1.5135603  )
        35           O   tau(  35) = (   0.0114961   0.4948124   1.2815885  )
        36           O   tau(  36) = (   0.0114961   0.4948124   0.7513233  )
        37           O   tau(  37) = (   0.0051979   0.2673486   1.0164559  )
        38           O   tau(  38) = (   0.0130029   0.2478461   1.5135603  )
        39           O   tau(  39) = (   0.0048226   0.0077944   0.7773880  )
        40           O   tau(  40) = (   0.0048226   0.0077944   1.2555238  )
        41           Sr  tau(  41) = (   0.2545482   0.2517602   0.7706582  )
        42           Sr  tau(  42) = (   0.2545482   0.2517602   1.2622536  )
        43           Co  tau(  43) = (   0.4989925   0.0073160   1.5135603  )
        44           Co  tau(  44) = (   0.4998370   0.0064714   1.0164559  )
        45           O   tau(  45) = (   0.5048017   0.0015068   0.7844841  )
        46           O   tau(  46) = (   0.5048017   0.0015068   1.2484277  )
        47           O   tau(  47) = (   0.2621260   0.0059111   1.5135603  )
        48           O   tau(  48) = (   0.2591051   0.0041689   1.0164559  )
        49           O   tau(  49) = (   0.1421646   0.7108228   2.1602013  )

   Crystallographic axes

     site n.     atom                  positions (cryst. coord.)
         1           Sr  tau(   1) = (  0.2508693  0.7491307  0.6943562  )
         2           O   tau(   2) = (  0.4985141  0.5014859  0.6999492  )
         3           Sr  tau(   3) = (  0.7482398  0.7454518  0.6972903  )
         4           Sr  tau(   4) = (  0.7441748  0.2558252  0.6980478  )
         5           Sr  tau(   5) = (  0.2508693  0.7491307  0.5016443  )
         6           Sr  tau(   6) = (  0.2508693  0.7491307  0.3015492  )
         7           Co  tau(   7) = (  0.4998914  0.5001086  0.4015968  )
         8           Co  tau(   8) = (  0.4936915  0.5063085  0.5980003  )
         9           O   tau(   9) = (  0.4988895  0.7610401  0.4015968  )
        10           O   tau(  10) = (  0.2389599  0.5011105  0.4015968  )
        11           O   tau(  11) = (  0.0070918  0.7374880  0.4015968  )
        12           O   tau(  12) = (  0.0088340  0.7405089  0.5980003  )
        13           O   tau(  13) = (  0.5066944  0.7415376  0.5980003  )
        14           O   tau(  14) = (  0.2584624  0.4933056  0.5980003  )
        15           O   tau(  15) = (  0.4985141  0.5014859  0.3071422  )
        16           O   tau(  16) = (  0.4985141  0.5014859  0.4960513  )
        17           Sr  tau(  17) = (  0.7482398  0.7454518  0.3044833  )
        18           Sr  tau(  18) = (  0.7482398  0.7454518  0.4987103  )
        19           Sr  tau(  19) = (  0.7441748  0.2558252  0.3052408  )
        20           Sr  tau(  20) = (  0.7441748  0.2558252  0.4979527  )
        21           O   tau(  21) = (  0.7322655  0.0078049  0.5980003  )
        22           O   tau(  22) = (  0.7558175  0.4996027  0.5980003  )
        23           O   tau(  23) = (  0.5003973  0.2441825  0.5980003  )
        24           O   tau(  24) = (  0.7527966  0.4978604  0.4015968  )
        25           O   tau(  25) = (  0.5021396  0.2472034  0.4015968  )
        26           O   tau(  26) = (  0.7517679  0.0000000  0.4015968  )
        27           O   tau(  27) = (  0.0114961  0.4948124  0.6896512  )
        28           O   tau(  28) = (  0.0048226  0.0077944  0.6999492  )
        29           Sr  tau(  29) = (  0.2545482  0.2517602  0.6972903  )
        30           O   tau(  30) = (  0.5048017  0.0015068  0.7027529  )
        31           Co  tau(  31) = (  0.0056869  0.5006215  0.4015968  )
        32           Co  tau(  32) = (  0.0065315  0.4997770  0.5980003  )
        33           Co  tau(  33) = (  0.0061999  0.0064171  0.4015968  )
        34           Co  tau(  34) = (  0.0000000  0.0126169  0.5980003  )
        35           O   tau(  35) = (  0.0114961  0.4948124  0.5063494  )
        36           O   tau(  36) = (  0.0114961  0.4948124  0.2968442  )
        37           O   tau(  37) = (  0.0051979  0.2673486  0.4015968  )
        38           O   tau(  38) = (  0.0130029  0.2478461  0.5980003  )
        39           O   tau(  39) = (  0.0048226  0.0077944  0.3071422  )
        40           O   tau(  40) = (  0.0048226  0.0077944  0.4960513  )
        41           Sr  tau(  41) = (  0.2545482  0.2517602  0.3044833  )
        42           Sr  tau(  42) = (  0.2545482  0.2517602  0.4987103  )
        43           Co  tau(  43) = (  0.4989925  0.0073160  0.5980003  )
        44           Co  tau(  44) = (  0.4998370  0.0064714  0.4015968  )
        45           O   tau(  45) = (  0.5048017  0.0015068  0.3099459  )
        46           O   tau(  46) = (  0.5048017  0.0015068  0.4932477  )
        47           O   tau(  47) = (  0.2621260  0.0059111  0.5980003  )
        48           O   tau(  48) = (  0.2591051  0.0041689  0.4015968  )
        49           O   tau(  49) = (  0.1421646  0.7108228  0.8534850  )

     number of k points=    10  Gaussian smearing, width (Ry)=  0.0700
                       cart. coord. in units 2pi/alat
        k(    1) = (   0.0000000   0.0000000   0.0000000), wk =   0.1250000
        k(    2) = (   0.0000000   0.2500000   0.0000000), wk =   0.2500000
        k(    3) = (   0.0000000  -0.5000000   0.0000000), wk =   0.1250000
        k(    4) = (   0.2500000   0.2500000   0.0000000), wk =   0.2500000
        k(    5) = (   0.2500000  -0.5000000   0.0000000), wk =   0.2500000
        k(    6) = (  -0.5000000  -0.5000000   0.0000000), wk =   0.1250000
        k(    7) = (   0.2500000   0.0000000   0.0000000), wk =   0.2500000
        k(    8) = (  -0.5000000   0.0000000   0.0000000), wk =   0.1250000
        k(    9) = (  -0.2500000   0.2500000   0.0000000), wk =   0.2500000
        k(   10) = (  -0.5000000   0.2500000   0.0000000), wk =   0.2500000

                       cryst. coord.
        k(    1) = (   0.0000000   0.0000000   0.0000000), wk =   0.1250000
        k(    2) = (   0.0000000   0.2500000   0.0000000), wk =   0.2500000
        k(    3) = (   0.0000000  -0.5000000   0.0000000), wk =   0.1250000
        k(    4) = (   0.2500000   0.2500000   0.0000000), wk =   0.2500000
        k(    5) = (   0.2500000  -0.5000000   0.0000000), wk =   0.2500000
        k(    6) = (  -0.5000000  -0.5000000   0.0000000), wk =   0.1250000
        k(    7) = (   0.2500000   0.0000000   0.0000000), wk =   0.2500000
        k(    8) = (  -0.5000000   0.0000000   0.0000000), wk =   0.1250000
        k(    9) = (  -0.2500000   0.2500000   0.0000000), wk =   0.2500000
        k(   10) = (  -0.5000000   0.2500000   0.0000000), wk =   0.2500000

     Dense  grid:  1474595 G-vectors     FFT dimensions: ( 108, 108, 270)

     Smooth grid:   521381 G-vectors     FFT dimensions: (  75,  75, 192)

     Dynamical RAM for                 wfc:      10.69 MB

     Dynamical RAM for     wfc (w. buffer):      64.13 MB

     Dynamical RAM for           str. fact:       2.81 MB

     Dynamical RAM for           local pot:       0.00 MB

     Dynamical RAM for          nlocal pot:      24.53 MB

     Dynamical RAM for                qrad:       5.27 MB

     Dynamical RAM for          rho,v,vnew:       6.02 MB

     Dynamical RAM for               rhoin:       2.01 MB

     Dynamical RAM for            rho*nmix:      15.00 MB

     Dynamical RAM for           G-vectors:       3.68 MB

     Dynamical RAM for          h,s,v(r/c):       1.35 MB

     Dynamical RAM for          <psi|beta>:       2.33 MB

     Dynamical RAM for                 psi:      21.38 MB

     Dynamical RAM for                hpsi:      21.38 MB

     Dynamical RAM for                spsi:      21.38 MB

     Dynamical RAM for      wfcinit/wfcrot:      34.39 MB

     Dynamical RAM for           addusdens:     101.26 MB

     Estimated static dynamical RAM per process >     117.53 MB

     Estimated max dynamical RAM per process >     233.79 MB

     Estimated total dynamical RAM >      10.61 GB

     Check: negative core charge=   -0.000004

     Initial potential from superposition of free atoms

     starting charge     421.5961, renormalised to     430.0000

     negative rho (up, down):  7.826E-01 0.000E+00
     Starting wfcs are  376 randomized atomic wfcs
     Checking if some PAW data can be deallocated... 
       PAW data deallocated on   19 nodes for type:  2

     total cpu time spent up to now is        9.2 secs

     Self-consistent Calculation

     iteration #  1     ecut=    60.00 Ry     beta= 0.15
     Davidson diagonalization with overlap

---- Real-time Memory Report at c_bands before calling an iterative solver
             0 MiB given to the printing process from OS
             0 MiB allocation reported by mallinfo(arena+hblkhd)
         51479 MiB available memory on the node where the printing process lives
------------------
     ethr =  1.00E-02,  avg # of iterations =  2.0

     negative rho (up, down):  7.717E-01 0.000E+00

     total cpu time spent up to now is       24.6 secs

     total energy              =   -4445.22612882 Ry
     estimated scf accuracy    <      53.86380197 Ry

     iteration #  2     ecut=    60.00 Ry     beta= 0.15
     Davidson diagonalization with overlap

---- Real-time Memory Report at c_bands before calling an iterative solver
             0 MiB given to the printing process from OS
             0 MiB allocation reported by mallinfo(arena+hblkhd)
         51848 MiB available memory on the node where the printing process lives
------------------
     ethr =  1.00E-02,  avg # of iterations =  1.0

     negative rho (up, down):  7.594E-01 0.000E+00

     total cpu time spent up to now is       37.8 secs

     total energy              =   -4441.99928059 Ry
     estimated scf accuracy    <      28.22104805 Ry

     iteration #  3     ecut=    60.00 Ry     beta= 0.15
     Davidson diagonalization with overlap

---- Real-time Memory Report at c_bands before calling an iterative solver
             0 MiB given to the printing process from OS
             0 MiB allocation reported by mallinfo(arena+hblkhd)
         51090 MiB available memory on the node where the printing process lives
------------------
     ethr =  6.56E-03,  avg # of iterations =  1.0

     negative rho (up, down):  7.529E-01 0.000E+00

     total cpu time spent up to now is       50.6 secs

     total energy              =   -4442.57335032 Ry
     estimated scf accuracy    <      30.00547279 Ry

     iteration #  4     ecut=    60.00 Ry     beta= 0.15
     Davidson diagonalization with overlap

---- Real-time Memory Report at c_bands before calling an iterative solver
             0 MiB given to the printing process from OS
             0 MiB allocation reported by mallinfo(arena+hblkhd)
         51043 MiB available memory on the node where the printing process lives
------------------
     ethr =  6.56E-03,  avg # of iterations =  1.0

     negative rho (up, down):  7.529E-01 0.000E+00

     total cpu time spent up to now is       63.4 secs

     total energy              =   -4442.84125054 Ry
     estimated scf accuracy    <      28.40919212 Ry

     iteration #  5     ecut=    60.00 Ry     beta= 0.15
     Davidson diagonalization with overlap

---- Real-time Memory Report at c_bands before calling an iterative solver
             0 MiB given to the printing process from OS
             0 MiB allocation reported by mallinfo(arena+hblkhd)
         51023 MiB available memory on the node where the printing process lives
------------------
     ethr =  6.56E-03,  avg # of iterations =  1.0

     negative rho (up, down):  7.518E-01 0.000E+00

     total cpu time spent up to now is       76.2 secs

     total energy              =   -4442.84452821 Ry
     estimated scf accuracy    <      28.78538501 Ry

     iteration #  6     ecut=    60.00 Ry     beta= 0.15
     Davidson diagonalization with overlap

---- Real-time Memory Report at c_bands before calling an iterative solver
             0 MiB given to the printing process from OS
             0 MiB allocation reported by mallinfo(arena+hblkhd)
         50999 MiB available memory on the node where the printing process lives
------------------
     ethr =  6.56E-03,  avg # of iterations =  1.0

     negative rho (up, down):  7.400E-01 0.000E+00

     total cpu time spent up to now is       89.0 secs

     total energy              =   -4443.28001266 Ry
     estimated scf accuracy    <      30.73951500 Ry

     iteration #  7     ecut=    60.00 Ry     beta= 0.15
     Davidson diagonalization with overlap

---- Real-time Memory Report at c_bands before calling an iterative solver
             0 MiB given to the printing process from OS
             0 MiB allocation reported by mallinfo(arena+hblkhd)
         50985 MiB available memory on the node where the printing process lives
------------------
     ethr =  6.56E-03,  avg # of iterations =  1.0

     negative rho (up, down):  7.566E-01 0.000E+00

     total cpu time spent up to now is      101.7 secs

     total energy              =   -4443.16261878 Ry
     estimated scf accuracy    <      67.10555516 Ry

     iteration #  8     ecut=    60.00 Ry     beta= 0.15
     Davidson diagonalization with overlap

---- Real-time Memory Report at c_bands before calling an iterative solver
             0 MiB given to the printing process from OS
             0 MiB allocation reported by mallinfo(arena+hblkhd)
         50970 MiB available memory on the node where the printing process lives
------------------
     ethr =  6.56E-03,  avg # of iterations =  1.0

     negative rho (up, down):  7.688E-01 0.000E+00

     total cpu time spent up to now is      114.5 secs

     total energy              =   -4444.66879833 Ry
     estimated scf accuracy    <      56.89648555 Ry

     iteration #  9     ecut=    60.00 Ry     beta= 0.15
     Davidson diagonalization with overlap

---- Real-time Memory Report at c_bands before calling an iterative solver
             0 MiB given to the printing process from OS
             0 MiB allocation reported by mallinfo(arena+hblkhd)
         50953 MiB available memory on the node where the printing process lives
------------------
     ethr =  6.56E-03,  avg # of iterations =  1.0

     negative rho (up, down):  7.213E-01 0.000E+00

     total cpu time spent up to now is      127.3 secs

     total energy              =   -4443.02519046 Ry
     estimated scf accuracy    <      66.67690364 Ry

     iteration # 10     ecut=    60.00 Ry     beta= 0.15
     Davidson diagonalization with overlap

---- Real-time Memory Report at c_bands before calling an iterative solver
             0 MiB given to the printing process from OS
             0 MiB allocation reported by mallinfo(arena+hblkhd)
         50926 MiB available memory on the node where the printing process lives
------------------
     ethr =  6.56E-03,  avg # of iterations =  2.0

     negative rho (up, down):  7.341E-01 0.000E+00

     total cpu time spent up to now is      142.3 secs

     total energy              =   -4440.79069494 Ry
     estimated scf accuracy    <      81.57655992 Ry

     iteration # 11     ecut=    60.00 Ry     beta= 0.15
     Davidson diagonalization with overlap

---- Real-time Memory Report at c_bands before calling an iterative solver
             0 MiB given to the printing process from OS
             0 MiB allocation reported by mallinfo(arena+hblkhd)
         50896 MiB available memory on the node where the printing process lives
------------------
     ethr =  6.56E-03,  avg # of iterations =  1.0

     negative rho (up, down):  7.191E-01 0.000E+00

     total cpu time spent up to now is      155.4 secs

     total energy              =   -4442.64383619 Ry
     estimated scf accuracy    <      26.36661499 Ry

     iteration # 12     ecut=    60.00 Ry     beta= 0.15
     Davidson diagonalization with overlap

---- Real-time Memory Report at c_bands before calling an iterative solver
             0 MiB given to the printing process from OS
             0 MiB allocation reported by mallinfo(arena+hblkhd)
         50908 MiB available memory on the node where the printing process lives
------------------
     ethr =  6.13E-03,  avg # of iterations =  1.1

     negative rho (up, down):  7.469E-01 0.000E+00

     total cpu time spent up to now is      168.7 secs

     total energy              =   -4439.32199830 Ry
     estimated scf accuracy    <      24.85195541 Ry

     iteration # 13     ecut=    60.00 Ry     beta= 0.15
     Davidson diagonalization with overlap

---- Real-time Memory Report at c_bands before calling an iterative solver
             0 MiB given to the printing process from OS
             0 MiB allocation reported by mallinfo(arena+hblkhd)
         50909 MiB available memory on the node where the printing process lives
------------------
     ethr =  5.78E-03,  avg # of iterations =  1.0

     negative rho (up, down):  7.499E-01 0.000E+00

     total cpu time spent up to now is      181.7 secs

     total energy              =   -4441.42393574 Ry
     estimated scf accuracy    <       7.67702190 Ry

     iteration # 14     ecut=    60.00 Ry     beta= 0.15
     Davidson diagonalization with overlap

---- Real-time Memory Report at c_bands before calling an iterative solver
             0 MiB given to the printing process from OS
             0 MiB allocation reported by mallinfo(arena+hblkhd)
         50910 MiB available memory on the node where the printing process lives
------------------
     ethr =  1.79E-03,  avg # of iterations =  1.0

     negative rho (up, down):  7.465E-01 0.000E+00

     total cpu time spent up to now is      194.7 secs

     total energy              =   -4441.03787048 Ry
     estimated scf accuracy    <       6.77795660 Ry

     iteration # 15     ecut=    60.00 Ry     beta= 0.15
     Davidson diagonalization with overlap

---- Real-time Memory Report at c_bands before calling an iterative solver
             0 MiB given to the printing process from OS
             0 MiB allocation reported by mallinfo(arena+hblkhd)
         50908 MiB available memory on the node where the printing process lives
------------------
     ethr =  1.58E-03,  avg # of iterations =  1.8

     negative rho (up, down):  7.631E-01 0.000E+00

     total cpu time spent up to now is      209.0 secs

     total energy              =   -4440.62506970 Ry
     estimated scf accuracy    <       4.49661532 Ry

     iteration # 16     ecut=    60.00 Ry     beta= 0.15
     Davidson diagonalization with overlap

---- Real-time Memory Report at c_bands before calling an iterative solver
             0 MiB given to the printing process from OS
             0 MiB allocation reported by mallinfo(arena+hblkhd)
         50908 MiB available memory on the node where the printing process lives
------------------
     ethr =  1.05E-03,  avg # of iterations =  4.8

     negative rho (up, down):  7.739E-01 0.000E+00

     total cpu time spent up to now is      224.6 secs

     total energy              =   -4440.59183832 Ry
     estimated scf accuracy    <       2.86444640 Ry

     iteration # 17     ecut=    60.00 Ry     beta= 0.15
     Davidson diagonalization with overlap

---- Real-time Memory Report at c_bands before calling an iterative solver
             0 MiB given to the printing process from OS
             0 MiB allocation reported by mallinfo(arena+hblkhd)
         50866 MiB available memory on the node where the printing process lives
------------------
     ethr =  6.66E-04,  avg # of iterations = 10.8

     negative rho (up, down):  7.827E-01 0.000E+00

     total cpu time spent up to now is      244.1 secs

     total energy              =   -4440.54045326 Ry
     estimated scf accuracy    <       1.72526975 Ry

     iteration # 18     ecut=    60.00 Ry     beta= 0.15
     Davidson diagonalization with overlap

---- Real-time Memory Report at c_bands before calling an iterative solver
             0 MiB given to the printing process from OS
             0 MiB allocation reported by mallinfo(arena+hblkhd)
         50515 MiB available memory on the node where the printing process lives
------------------
     ethr =  4.01E-04,  avg # of iterations =  1.7

     negative rho (up, down):  7.872E-01 0.000E+00

     total cpu time spent up to now is      258.2 secs

     total energy              =   -4440.57407306 Ry
     estimated scf accuracy    <       1.07959163 Ry

     iteration # 19     ecut=    60.00 Ry     beta= 0.15
     Davidson diagonalization with overlap

---- Real-time Memory Report at c_bands before calling an iterative solver
             0 MiB given to the printing process from OS
             0 MiB allocation reported by mallinfo(arena+hblkhd)
         50513 MiB available memory on the node where the printing process lives
------------------
     ethr =  2.51E-04,  avg # of iterations =  5.0

     negative rho (up, down):  7.968E-01 0.000E+00

     total cpu time spent up to now is      274.6 secs

     total energy              =   -4440.51917361 Ry
     estimated scf accuracy    <       0.69817150 Ry

     iteration # 20     ecut=    60.00 Ry     beta= 0.15
     Davidson diagonalization with overlap

---- Real-time Memory Report at c_bands before calling an iterative solver
             0 MiB given to the printing process from OS
             0 MiB allocation reported by mallinfo(arena+hblkhd)
         50505 MiB available memory on the node where the printing process lives
------------------
     ethr =  1.62E-04,  avg # of iterations =  5.0

     negative rho (up, down):  8.198E-01 0.000E+00

     total cpu time spent up to now is      290.1 secs

     total energy              =   -4440.42372445 Ry
     estimated scf accuracy    <       0.74780782 Ry

     iteration # 21     ecut=    60.00 Ry     beta= 0.15
     Davidson diagonalization with overlap

---- Real-time Memory Report at c_bands before calling an iterative solver
             0 MiB given to the printing process from OS
             0 MiB allocation reported by mallinfo(arena+hblkhd)
         50502 MiB available memory on the node where the printing process lives
------------------
     ethr =  1.62E-04,  avg # of iterations =  5.5

     negative rho (up, down):  8.241E-01 0.000E+00

     total cpu time spent up to now is      306.0 secs

     total energy              =   -4440.39408239 Ry
     estimated scf accuracy    <       1.19982617 Ry

     iteration # 22     ecut=    60.00 Ry     beta= 0.15
     Davidson diagonalization with overlap

---- Real-time Memory Report at c_bands before calling an iterative solver
             0 MiB given to the printing process from OS
             0 MiB allocation reported by mallinfo(arena+hblkhd)
         50500 MiB available memory on the node where the printing process lives
------------------
     ethr =  1.62E-04,  avg # of iterations = 10.3

     negative rho (up, down):  8.259E-01 0.000E+00

     total cpu time spent up to now is      323.2 secs

     total energy              =   -4440.38531370 Ry
     estimated scf accuracy    <       0.25306097 Ry

     iteration # 23     ecut=    60.00 Ry     beta= 0.15
     Davidson diagonalization with overlap

---- Real-time Memory Report at c_bands before calling an iterative solver
             0 MiB given to the printing process from OS
             0 MiB allocation reported by mallinfo(arena+hblkhd)
         50503 MiB available memory on the node where the printing process lives
------------------
     ethr =  5.89E-05,  avg # of iterations = 13.5

     negative rho (up, down):  8.238E-01 0.000E+00

     total cpu time spent up to now is      342.6 secs

     total energy              =   -4440.36201881 Ry
     estimated scf accuracy    <       0.23983181 Ry

     iteration # 24     ecut=    60.00 Ry     beta= 0.15
     Davidson diagonalization with overlap

---- Real-time Memory Report at c_bands before calling an iterative solver
             0 MiB given to the printing process from OS
             0 MiB allocation reported by mallinfo(arena+hblkhd)
         50481 MiB available memory on the node where the printing process lives
------------------
     ethr =  5.58E-05,  avg # of iterations =  2.7

     negative rho (up, down):  8.376E-01 0.000E+00

     total cpu time spent up to now is      357.1 secs

     total energy              =   -4440.34951210 Ry
     estimated scf accuracy    <       0.17880241 Ry

     iteration # 25     ecut=    60.00 Ry     beta= 0.15
     Davidson diagonalization with overlap

---- Real-time Memory Report at c_bands before calling an iterative solver
             0 MiB given to the printing process from OS
             0 MiB allocation reported by mallinfo(arena+hblkhd)
         50496 MiB available memory on the node where the printing process lives
------------------
     ethr =  4.16E-05,  avg # of iterations =  4.2

     negative rho (up, down):  8.244E-01 0.000E+00

     total cpu time spent up to now is      372.7 secs

     total energy              =   -4440.33395289 Ry
     estimated scf accuracy    <       0.12427243 Ry

     iteration # 26     ecut=    60.00 Ry     beta= 0.15
     Davidson diagonalization with overlap

---- Real-time Memory Report at c_bands before calling an iterative solver
             0 MiB given to the printing process from OS
             0 MiB allocation reported by mallinfo(arena+hblkhd)
         50477 MiB available memory on the node where the printing process lives
------------------
     ethr =  2.89E-05,  avg # of iterations =  5.8

     negative rho (up, down):  8.105E-01 0.000E+00

     total cpu time spent up to now is      388.9 secs

     total energy              =   -4440.32650430 Ry
     estimated scf accuracy    <       0.08351252 Ry

     iteration # 27     ecut=    60.00 Ry     beta= 0.15
     Davidson diagonalization with overlap

---- Real-time Memory Report at c_bands before calling an iterative solver
             0 MiB given to the printing process from OS
             0 MiB allocation reported by mallinfo(arena+hblkhd)
         50494 MiB available memory on the node where the printing process lives
------------------
     ethr =  1.94E-05,  avg # of iterations =  8.0

     negative rho (up, down):  8.090E-01 0.000E+00

     total cpu time spent up to now is      406.0 secs

     total energy              =   -4440.32179946 Ry
     estimated scf accuracy    <       0.06385392 Ry

     iteration # 28     ecut=    60.00 Ry     beta= 0.15
     Davidson diagonalization with overlap

---- Real-time Memory Report at c_bands before calling an iterative solver
             0 MiB given to the printing process from OS
             0 MiB allocation reported by mallinfo(arena+hblkhd)
         50430 MiB available memory on the node where the printing process lives
------------------
     ethr =  1.48E-05,  avg # of iterations =  3.6

     negative rho (up, down):  7.899E-01 0.000E+00

     total cpu time spent up to now is      421.0 secs

     total energy              =   -4440.31616822 Ry
     estimated scf accuracy    <       0.04413137 Ry

     iteration # 29     ecut=    60.00 Ry     beta= 0.15
     Davidson diagonalization with overlap

---- Real-time Memory Report at c_bands before calling an iterative solver
             0 MiB given to the printing process from OS
             0 MiB allocation reported by mallinfo(arena+hblkhd)
         50475 MiB available memory on the node where the printing process lives
------------------
     ethr =  1.03E-05,  avg # of iterations =  8.6

     negative rho (up, down):  7.995E-01 0.000E+00

     total cpu time spent up to now is      438.3 secs

     total energy              =   -4440.31398239 Ry
     estimated scf accuracy    <       0.03356478 Ry

     iteration # 30     ecut=    60.00 Ry     beta= 0.15
     Davidson diagonalization with overlap

---- Real-time Memory Report at c_bands before calling an iterative solver
             0 MiB given to the printing process from OS
             0 MiB allocation reported by mallinfo(arena+hblkhd)
         50459 MiB available memory on the node where the printing process lives
------------------
     ethr =  7.81E-06,  avg # of iterations =  6.8

     negative rho (up, down):  7.957E-01 0.000E+00

     total cpu time spent up to now is      454.8 secs

     total energy              =   -4440.31204760 Ry
     estimated scf accuracy    <       0.02103068 Ry

     iteration # 31     ecut=    60.00 Ry     beta= 0.15
     Davidson diagonalization with overlap

---- Real-time Memory Report at c_bands before calling an iterative solver
             0 MiB given to the printing process from OS
             0 MiB allocation reported by mallinfo(arena+hblkhd)
         50497 MiB available memory on the node where the printing process lives
------------------
     c_bands:  1 eigenvalues not converged
     ethr =  4.89E-06,  avg # of iterations =  7.4

     negative rho (up, down):  7.888E-01 0.000E+00

     total cpu time spent up to now is      471.9 secs

     total energy              =   -4440.30954916 Ry
     estimated scf accuracy    <       0.01501464 Ry

     iteration # 32     ecut=    60.00 Ry     beta= 0.15
     Davidson diagonalization with overlap

---- Real-time Memory Report at c_bands before calling an iterative solver
             0 MiB given to the printing process from OS
             0 MiB allocation reported by mallinfo(arena+hblkhd)
         50442 MiB available memory on the node where the printing process lives
------------------
     ethr =  3.49E-06,  avg # of iterations =  7.5

     negative rho (up, down):  7.887E-01 0.000E+00

     total cpu time spent up to now is      489.3 secs

     total energy              =   -4440.30970178 Ry
     estimated scf accuracy    <       0.00594368 Ry

     iteration # 33     ecut=    60.00 Ry     beta= 0.15
     Davidson diagonalization with overlap

---- Real-time Memory Report at c_bands before calling an iterative solver
             0 MiB given to the printing process from OS
             0 MiB allocation reported by mallinfo(arena+hblkhd)
         50437 MiB available memory on the node where the printing process lives
------------------
     ethr =  1.38E-06,  avg # of iterations =  7.0

     negative rho (up, down):  7.895E-01 0.000E+00

     total cpu time spent up to now is      506.4 secs

     total energy              =   -4440.30934928 Ry
     estimated scf accuracy    <       0.00364831 Ry

     iteration # 34     ecut=    60.00 Ry     beta= 0.15
     Davidson diagonalization with overlap

---- Real-time Memory Report at c_bands before calling an iterative solver
             0 MiB given to the printing process from OS
             0 MiB allocation reported by mallinfo(arena+hblkhd)
         50439 MiB available memory on the node where the printing process lives
------------------
     c_bands:  1 eigenvalues not converged
     ethr =  8.48E-07,  avg # of iterations =  4.7

     negative rho (up, down):  7.921E-01 0.000E+00

     total cpu time spent up to now is      522.7 secs

     total energy              =   -4440.30947681 Ry
     estimated scf accuracy    <       0.00213417 Ry

     iteration # 35     ecut=    60.00 Ry     beta= 0.15
     Davidson diagonalization with overlap

---- Real-time Memory Report at c_bands before calling an iterative solver
             0 MiB given to the printing process from OS
             0 MiB allocation reported by mallinfo(arena+hblkhd)
         50464 MiB available memory on the node where the printing process lives
------------------
     c_bands:  1 eigenvalues not converged
     ethr =  4.96E-07,  avg # of iterations = 11.5

     negative rho (up, down):  7.946E-01 0.000E+00

     total cpu time spent up to now is      542.1 secs

     total energy              =   -4440.30966605 Ry
     estimated scf accuracy    <       0.00087720 Ry

     iteration # 36     ecut=    60.00 Ry     beta= 0.15
     Davidson diagonalization with overlap

---- Real-time Memory Report at c_bands before calling an iterative solver
             0 MiB given to the printing process from OS
             0 MiB allocation reported by mallinfo(arena+hblkhd)
         50369 MiB available memory on the node where the printing process lives
------------------
     c_bands:  1 eigenvalues not converged
     ethr =  2.04E-07,  avg # of iterations =  6.9

     negative rho (up, down):  7.959E-01 0.000E+00

     total cpu time spent up to now is      558.6 secs

     total energy              =   -4440.30972809 Ry
     estimated scf accuracy    <       0.00045590 Ry

     iteration # 37     ecut=    60.00 Ry     beta= 0.15
     Davidson diagonalization with overlap

---- Real-time Memory Report at c_bands before calling an iterative solver
             0 MiB given to the printing process from OS
             0 MiB allocation reported by mallinfo(arena+hblkhd)
         50437 MiB available memory on the node where the printing process lives
------------------
     ethr =  1.06E-07,  avg # of iterations =  2.0

     negative rho (up, down):  7.940E-01 0.000E+00

     total cpu time spent up to now is      572.6 secs

     total energy              =   -4440.30967174 Ry
     estimated scf accuracy    <       0.00026964 Ry

     iteration # 38     ecut=    60.00 Ry     beta= 0.15
     Davidson diagonalization with overlap

---- Real-time Memory Report at c_bands before calling an iterative solver
             0 MiB given to the printing process from OS
             0 MiB allocation reported by mallinfo(arena+hblkhd)
         50416 MiB available memory on the node where the printing process lives
------------------
     ethr =  6.27E-08,  avg # of iterations =  2.0

     negative rho (up, down):  7.962E-01 0.000E+00

     total cpu time spent up to now is      586.8 secs

     total energy              =   -4440.30969989 Ry
     estimated scf accuracy    <       0.00013365 Ry

     iteration # 39     ecut=    60.00 Ry     beta= 0.15
     Davidson diagonalization with overlap

---- Real-time Memory Report at c_bands before calling an iterative solver
             0 MiB given to the printing process from OS
             0 MiB allocation reported by mallinfo(arena+hblkhd)
         50429 MiB available memory on the node where the printing process lives
------------------
     ethr =  3.11E-08,  avg # of iterations =  3.1

     negative rho (up, down):  7.968E-01 0.000E+00

     total cpu time spent up to now is      601.6 secs

     total energy              =   -4440.30972085 Ry
     estimated scf accuracy    <       0.00006715 Ry

     iteration # 40     ecut=    60.00 Ry     beta= 0.15
     Davidson diagonalization with overlap

---- Real-time Memory Report at c_bands before calling an iterative solver
             0 MiB given to the printing process from OS
             0 MiB allocation reported by mallinfo(arena+hblkhd)
         50439 MiB available memory on the node where the printing process lives
------------------
     ethr =  1.56E-08,  avg # of iterations =  2.0

     negative rho (up, down):  7.949E-01 0.000E+00

     total cpu time spent up to now is      615.9 secs

     total energy              =   -4440.30968544 Ry
     estimated scf accuracy    <       0.00003716 Ry

     iteration # 41     ecut=    60.00 Ry     beta= 0.15
     Davidson diagonalization with overlap

---- Real-time Memory Report at c_bands before calling an iterative solver
             0 MiB given to the printing process from OS
             0 MiB allocation reported by mallinfo(arena+hblkhd)
         50450 MiB available memory on the node where the printing process lives
------------------
     ethr =  8.64E-09,  avg # of iterations =  2.1

     negative rho (up, down):  7.932E-01 0.000E+00

     total cpu time spent up to now is      630.2 secs

     total energy              =   -4440.30966789 Ry
     estimated scf accuracy    <       0.00002021 Ry

     iteration # 42     ecut=    60.00 Ry     beta= 0.15
     Davidson diagonalization with overlap

---- Real-time Memory Report at c_bands before calling an iterative solver
             0 MiB given to the printing process from OS
             0 MiB allocation reported by mallinfo(arena+hblkhd)
         50454 MiB available memory on the node where the printing process lives
------------------
     ethr =  4.70E-09,  avg # of iterations =  3.6

     negative rho (up, down):  7.930E-01 0.000E+00

     total cpu time spent up to now is      645.7 secs

     total energy              =   -4440.30966882 Ry
     estimated scf accuracy    <       0.00000784 Ry

     iteration # 43     ecut=    60.00 Ry     beta= 0.15
     Davidson diagonalization with overlap

---- Real-time Memory Report at c_bands before calling an iterative solver
             0 MiB given to the printing process from OS
             0 MiB allocation reported by mallinfo(arena+hblkhd)
         50450 MiB available memory on the node where the printing process lives
------------------
     ethr =  1.82E-09,  avg # of iterations =  1.9

     negative rho (up, down):  7.928E-01 0.000E+00

     total cpu time spent up to now is      659.8 secs

     total energy              =   -4440.30966920 Ry
     estimated scf accuracy    <       0.00000528 Ry

     iteration # 44     ecut=    60.00 Ry     beta= 0.15
     Davidson diagonalization with overlap

---- Real-time Memory Report at c_bands before calling an iterative solver
             0 MiB given to the printing process from OS
             0 MiB allocation reported by mallinfo(arena+hblkhd)
         50474 MiB available memory on the node where the printing process lives
------------------
     ethr =  1.23E-09,  avg # of iterations =  1.0

     negative rho (up, down):  7.928E-01 0.000E+00

     total cpu time spent up to now is      672.6 secs

     total energy              =   -4440.30967038 Ry
     estimated scf accuracy    <       0.00000377 Ry

     iteration # 45     ecut=    60.00 Ry     beta= 0.15
     Davidson diagonalization with overlap

---- Real-time Memory Report at c_bands before calling an iterative solver
             0 MiB given to the printing process from OS
             0 MiB allocation reported by mallinfo(arena+hblkhd)
         50472 MiB available memory on the node where the printing process lives
------------------
     ethr =  8.78E-10,  avg # of iterations =  2.3

     negative rho (up, down):  7.926E-01 0.000E+00

     total cpu time spent up to now is      687.1 secs

     total energy              =   -4440.30967076 Ry
     estimated scf accuracy    <       0.00000271 Ry

     iteration # 46     ecut=    60.00 Ry     beta= 0.15
     Davidson diagonalization with overlap

---- Real-time Memory Report at c_bands before calling an iterative solver
             0 MiB given to the printing process from OS
             0 MiB allocation reported by mallinfo(arena+hblkhd)
         50477 MiB available memory on the node where the printing process lives
------------------
     ethr =  6.31E-10,  avg # of iterations =  3.5

     negative rho (up, down):  7.926E-01 0.000E+00

     total cpu time spent up to now is      702.1 secs

     total energy              =   -4440.30967083 Ry
     estimated scf accuracy    <       0.00000123 Ry

     iteration # 47     ecut=    60.00 Ry     beta= 0.15
     Davidson diagonalization with overlap

---- Real-time Memory Report at c_bands before calling an iterative solver
             0 MiB given to the printing process from OS
             0 MiB allocation reported by mallinfo(arena+hblkhd)
         50474 MiB available memory on the node where the printing process lives
------------------
     ethr =  2.86E-10,  avg # of iterations =  2.0

     negative rho (up, down):  7.926E-01 0.000E+00

     total cpu time spent up to now is      716.1 secs

     total energy              =   -4440.30967082 Ry
     estimated scf accuracy    <       0.00000092 Ry

     iteration # 48     ecut=    60.00 Ry     beta= 0.15
     Davidson diagonalization with overlap

---- Real-time Memory Report at c_bands before calling an iterative solver
             0 MiB given to the printing process from OS
             0 MiB allocation reported by mallinfo(arena+hblkhd)
         50482 MiB available memory on the node where the printing process lives
------------------
     ethr =  2.15E-10,  avg # of iterations =  1.0

     negative rho (up, down):  7.926E-01 0.000E+00

     total cpu time spent up to now is      728.8 secs

     total energy              =   -4440.30967086 Ry
     estimated scf accuracy    <       0.00000070 Ry

     iteration # 49     ecut=    60.00 Ry     beta= 0.15
     Davidson diagonalization with overlap

---- Real-time Memory Report at c_bands before calling an iterative solver
             0 MiB given to the printing process from OS
             0 MiB allocation reported by mallinfo(arena+hblkhd)
         50480 MiB available memory on the node where the printing process lives
------------------
     ethr =  1.64E-10,  avg # of iterations =  2.0

     negative rho (up, down):  7.926E-01 0.000E+00

     total cpu time spent up to now is      743.4 secs

     total energy              =   -4440.30967091 Ry
     estimated scf accuracy    <       0.00000037 Ry

     iteration # 50     ecut=    60.00 Ry     beta= 0.15
     Davidson diagonalization with overlap

---- Real-time Memory Report at c_bands before calling an iterative solver
             0 MiB given to the printing process from OS
             0 MiB allocation reported by mallinfo(arena+hblkhd)
         50483 MiB available memory on the node where the printing process lives
------------------
     ethr =  8.71E-11,  avg # of iterations =  2.0

     negative rho (up, down):  7.926E-01 0.000E+00

     total cpu time spent up to now is      757.7 secs

     total energy              =   -4440.30967095 Ry
     estimated scf accuracy    <       0.00000022 Ry

     iteration # 51     ecut=    60.00 Ry     beta= 0.15
     Davidson diagonalization with overlap

---- Real-time Memory Report at c_bands before calling an iterative solver
             0 MiB given to the printing process from OS
             0 MiB allocation reported by mallinfo(arena+hblkhd)
         50492 MiB available memory on the node where the printing process lives
------------------
     ethr =  5.10E-11,  avg # of iterations =  1.8

     negative rho (up, down):  7.926E-01 0.000E+00

     total cpu time spent up to now is      771.6 secs

     total energy              =   -4440.30967095 Ry
     estimated scf accuracy    <       0.00000017 Ry

     iteration # 52     ecut=    60.00 Ry     beta= 0.15
     Davidson diagonalization with overlap

---- Real-time Memory Report at c_bands before calling an iterative solver
             0 MiB given to the printing process from OS
             0 MiB allocation reported by mallinfo(arena+hblkhd)
         50488 MiB available memory on the node where the printing process lives
------------------
     ethr =  4.00E-11,  avg # of iterations =  1.2

     negative rho (up, down):  7.926E-01 0.000E+00

     total cpu time spent up to now is      784.5 secs

     total energy              =   -4440.30967094 Ry
     estimated scf accuracy    <       0.00000014 Ry

     iteration # 53     ecut=    60.00 Ry     beta= 0.15
     Davidson diagonalization with overlap

---- Real-time Memory Report at c_bands before calling an iterative solver
             0 MiB given to the printing process from OS
             0 MiB allocation reported by mallinfo(arena+hblkhd)
         50489 MiB available memory on the node where the printing process lives
------------------
     ethr =  3.17E-11,  avg # of iterations =  2.0

     negative rho (up, down):  7.926E-01 0.000E+00

     total cpu time spent up to now is      798.7 secs

     total energy              =   -4440.30967092 Ry
     estimated scf accuracy    <       0.00000009 Ry

     iteration # 54     ecut=    60.00 Ry     beta= 0.15
     Davidson diagonalization with overlap

---- Real-time Memory Report at c_bands before calling an iterative solver
             0 MiB given to the printing process from OS
             0 MiB allocation reported by mallinfo(arena+hblkhd)
         50489 MiB available memory on the node where the printing process lives
------------------
     ethr =  2.01E-11,  avg # of iterations =  2.0

     negative rho (up, down):  7.926E-01 0.000E+00

     total cpu time spent up to now is      812.8 secs

     total energy              =   -4440.30967090 Ry
     estimated scf accuracy    <       0.00000004 Ry

     iteration # 55     ecut=    60.00 Ry     beta= 0.15
     Davidson diagonalization with overlap

---- Real-time Memory Report at c_bands before calling an iterative solver
             0 MiB given to the printing process from OS
             0 MiB allocation reported by mallinfo(arena+hblkhd)
         50495 MiB available memory on the node where the printing process lives
------------------
     ethr =  9.56E-12,  avg # of iterations =  2.0

     negative rho (up, down):  7.926E-01 0.000E+00

     total cpu time spent up to now is      826.9 secs

     total energy              =   -4440.30967088 Ry
     estimated scf accuracy    <       0.00000003 Ry

     iteration # 56     ecut=    60.00 Ry     beta= 0.15
     Davidson diagonalization with overlap

---- Real-time Memory Report at c_bands before calling an iterative solver
             0 MiB given to the printing process from OS
             0 MiB allocation reported by mallinfo(arena+hblkhd)
         50504 MiB available memory on the node where the printing process lives
------------------
     ethr =  5.84E-12,  avg # of iterations =  2.5

     negative rho (up, down):  7.927E-01 0.000E+00

     total cpu time spent up to now is      841.4 secs

     total energy              =   -4440.30967087 Ry
     estimated scf accuracy    <       0.00000001 Ry

     iteration # 57     ecut=    60.00 Ry     beta= 0.15
     Davidson diagonalization with overlap

---- Real-time Memory Report at c_bands before calling an iterative solver
             0 MiB given to the printing process from OS
             0 MiB allocation reported by mallinfo(arena+hblkhd)
         50502 MiB available memory on the node where the printing process lives
------------------
     ethr =  2.83E-12,  avg # of iterations =  2.7

     negative rho (up, down):  7.926E-01 0.000E+00

     total cpu time spent up to now is      855.7 secs

     End of self-consistent calculation

          k = 0.0000 0.0000 0.0000 ( 65197 PWs)   bands (ev):

   -92.8929 -92.8446 -92.7473 -92.7002 -92.6442 -92.5995 -92.5822 -92.4616
   -56.2465 -56.2312 -56.1040 -56.0933 -56.0873 -56.0801 -56.0484 -56.0161
   -56.0011 -55.9994 -55.9938 -55.9507 -55.9305 -55.8951 -55.8743 -55.8439
   -55.8358 -55.7873 -55.7867 -55.7843 -55.7759 -55.7368 -55.7121 -55.6275
   -31.4557 -31.4352 -31.2956 -31.2219 -31.2079 -31.2056 -30.9393 -30.6812
   -30.0364 -29.9927 -29.9696 -29.8596 -15.2689 -15.2176 -15.1426 -15.0129
   -14.8112 -14.6890 -14.4033 -14.3829 -14.3539 -14.3089 -14.2624 -14.2493
   -14.2373 -14.2161 -14.1865 -14.1648 -14.1163 -13.9638 -13.7784 -13.7512
   -13.7217 -13.6847 -13.6680 -13.6130 -13.5813 -13.4981 -13.4306 -13.3055
   -13.2878 -13.2780 -13.2535 -13.2363 -13.2346 -13.1844 -13.1799 -13.1539
   -13.1336 -13.1015 -13.0803 -13.0674 -13.0509 -13.0430 -12.9330 -12.9078
   -12.8961 -12.6770 -12.6605 -12.6011 -12.5224 -12.3762 -12.1502 -12.0769
   -12.0494 -11.9812 -11.9750 -11.9652 -11.9407 -11.9236 -11.8602 -11.8436
   -11.8075 -11.7799 -11.6675 -11.5886 -11.5849  -3.1293  -2.8981  -2.6687
    -2.5199  -2.4588  -2.3173  -2.0089  -1.9944  -1.9764  -1.8881  -1.8694
    -1.8020  -1.7852  -1.7449  -1.7011  -1.5185  -1.2915  -1.2620  -1.1199
    -1.1049  -1.0539  -1.0381  -0.9911  -0.9729  -0.9222  -0.8953  -0.8184
    -0.8070  -0.7357  -0.5999  -0.5871  -0.5594  -0.4788  -0.4516  -0.4142
    -0.3807  -0.3133  -0.2617  -0.2131  -0.1865  -0.1175  -0.0468  -0.0076
     0.0202   0.0298   0.2891   0.3068   0.4801   0.5404   0.6070   0.6614
     0.7416   0.7550   0.7719   0.8390   0.8648   0.9005   0.9555   1.0849
     1.1473   1.1688   1.1956   1.2059   1.2661   1.3308   1.4475   1.4644
     1.5283   1.5293   1.5767   1.5956   1.6071   1.6611   1.7228   1.7316
     1.7741   1.8080   1.8428   1.9741   2.0634   2.1010   2.1259   2.2687
     2.2837   2.3217   2.3287   2.4394   2.4700   2.4941   2.5138   2.5248
     2.5444   2.6085   2.6386   2.6479   2.7197   2.7542   2.7624   2.7680
     2.8362   2.8439   2.8635   2.8710   2.8816   2.8957   2.9006   2.9161
     2.9219   2.9318   2.9404   2.9491   2.9673   2.9883   2.9931   3.0055
     3.0313   3.1455   3.2441   3.9286   4.2442   4.6004   4.8220   4.8600
     5.7601   5.8064   5.8194   5.8668   6.1248   6.1711   6.4263   6.4372
     6.9353   6.9833   7.0755   7.1521   7.3770   7.5308   7.5507   7.5723
     7.7458   7.8553   7.8817   7.8979   8.0240   8.1428   8.4742   8.4862
     8.7609   8.9248

     occupation numbers 
     1.0000   1.0000   1.0000   1.0000   1.0000   1.0000   1.0000   1.0000
     1.0000   1.0000   1.0000   1.0000   1.0000   1.0000   1.0000   1.0000
     1.0000   1.0000   1.0000   1.0000   1.0000   1.0000   1.0000   1.0000
     1.0000   1.0000   1.0000   1.0000   1.0000   1.0000   1.0000   1.0000
     1.0000   1.0000   1.0000   1.0000   1.0000   1.0000   1.0000   1.0000
     1.0000   1.0000   1.0000   1.0000   1.0000   1.0000   1.0000   1.0000
     1.0000   1.0000   1.0000   1.0000   1.0000   1.0000   1.0000   1.0000
     1.0000   1.0000   1.0000   1.0000   1.0000   1.0000   1.0000   1.0000
     1.0000   1.0000   1.0000   1.0000   1.0000   1.0000   1.0000   1.0000
     1.0000   1.0000   1.0000   1.0000   1.0000   1.0000   1.0000   1.0000
     1.0000   1.0000   1.0000   1.0000   1.0000   1.0000   1.0000   1.0000
     1.0000   1.0000   1.0000   1.0000   1.0000   1.0000   1.0000   1.0000
     1.0000   1.0000   1.0000   1.0000   1.0000   1.0000   1.0000   1.0000
     1.0000   1.0000   1.0000   1.0000   1.0000   1.0000   1.0000   1.0000
     1.0000   1.0000   1.0000   1.0000   1.0000   1.0000   1.0000   1.0000
     1.0000   1.0000   1.0000   1.0000   1.0000   1.0000   1.0000   1.0000
     1.0000   1.0000   1.0000   1.0000   1.0000   1.0000   1.0000   1.0000
     1.0000   1.0000   1.0000   1.0000   1.0000   1.0000   1.0000   1.0000
     1.0000   1.0000   1.0000   1.0000   1.0000   1.0000   1.0000   1.0000
     1.0000   1.0000   1.0000   1.0000   1.0000   0.9999   0.9999   0.9999
     0.9998   0.9998   0.9998   0.9997   0.9996   0.9995   0.9994   0.9988
     0.9984   0.9983   0.9980   0.9979   0.9973   0.9963   0.9939   0.9935
     0.9915   0.9915   0.9897   0.9889   0.9884   0.9857   0.9821   0.9815
     0.9784   0.9757   0.9726   0.9577   0.9444   0.9378   0.9332   0.9011
     0.8971   0.8867   0.8847   0.8495   0.8386   0.8297   0.8222   0.8179
     0.8101   0.7832   0.7699   0.7656   0.7317   0.7145   0.7104   0.7076
     0.6718   0.6677   0.6570   0.6529   0.6471   0.6393   0.6366   0.6279
     0.6247   0.6191   0.6142   0.6092   0.5988   0.5867   0.5840   0.5767
     0.5617   0.4943   0.4361   0.1196   0.0499   0.0148   0.0061   0.0052
     0.0000   0.0000   0.0000   0.0000   0.0000   0.0000   0.0000   0.0000
     0.0000   0.0000   0.0000   0.0000   0.0000   0.0000   0.0000   0.0000
     0.0000   0.0000   0.0000   0.0000   0.0000   0.0000   0.0000   0.0000
     0.0000   0.0000

          k = 0.0000 0.2500 0.0000 ( 65257 PWs)   bands (ev):

   -92.8929 -92.8446 -92.7473 -92.7002 -92.6442 -92.5995 -92.5822 -92.4616
   -56.2465 -56.2312 -56.1040 -56.0933 -56.0873 -56.0801 -56.0484 -56.0161
   -56.0011 -55.9994 -55.9938 -55.9507 -55.9305 -55.8951 -55.8743 -55.8439
   -55.8358 -55.7873 -55.7867 -55.7843 -55.7759 -55.7368 -55.7121 -55.6275
   -31.4555 -31.4350 -31.2958 -31.2198 -31.2080 -31.2077 -30.9392 -30.6813
   -30.0357 -29.9924 -29.9702 -29.8599 -15.2326 -15.1914 -15.1175 -14.9833
   -14.8535 -14.6800 -14.5501 -14.3706 -14.3285 -14.3126 -14.2847 -14.2243
   -14.2171 -14.2019 -14.1763 -14.1272 -14.0348 -13.9922 -13.8313 -13.8022
   -13.7624 -13.7258 -13.6697 -13.6359 -13.5861 -13.5240 -13.4843 -13.4146
   -13.3386 -13.3248 -13.2867 -13.2693 -13.2129 -13.1695 -13.1440 -13.1162
   -13.0969 -13.0789 -13.0459 -12.9904 -12.9775 -12.9630 -12.9251 -12.8906
   -12.8649 -12.6156 -12.5964 -12.5836 -12.5531 -12.4274 -12.2061 -12.1424
   -12.0150 -11.9812 -11.9720 -11.9441 -11.9169 -11.9004 -11.8516 -11.8411
   -11.8187 -11.7827 -11.6823 -11.6302 -11.6196  -2.9938  -2.7738  -2.6355
    -2.4532  -2.4101  -2.2476  -2.0250  -1.9442  -1.9311  -1.8688  -1.7693
    -1.7518  -1.7193  -1.6914  -1.6469  -1.4501  -1.3203  -1.3087  -1.2314
    -1.2212  -1.1185  -1.0901  -1.0312  -1.0037  -0.9664  -0.8992  -0.8712
    -0.8409  -0.8086  -0.7919  -0.7582  -0.6857  -0.6354  -0.5574  -0.4508
    -0.4223  -0.3827  -0.2753  -0.2333  -0.1680  -0.1276  -0.0583  -0.0488
    -0.0258   0.0352   0.3387   0.4253   0.4583   0.5482   0.5942   0.6177
     0.7252   0.7442   0.8392   0.8674   0.8900   1.0042   1.1048   1.1217
     1.1480   1.1694   1.1892   1.2478   1.2771   1.3043   1.3507   1.3901
     1.4220   1.5112   1.5496   1.5797   1.6303   1.6853   1.7278   1.7584
     1.7806   1.7929   1.8967   2.0115   2.0867   2.1088   2.1730   2.2201
     2.2632   2.2710   2.3309   2.3657   2.4544   2.4917   2.5044   2.5448
     2.6283   2.6376   2.6795   2.6993   2.7318   2.7567   2.7701   2.7781
     2.7849   2.7944   2.8244   2.8274   2.8445   2.8551   2.8581   2.8782
     2.8921   2.8969   2.9179   2.9298   2.9357   2.9701   2.9861   3.0454
     3.4190   3.4629   3.6946   4.1201   4.2422   4.5394   4.8774   4.9846
     5.5046   5.6383   5.8017   5.9027   5.9484   6.0141   6.0606   6.5419
     7.0235   7.0576   7.2105   7.2368   7.3375   7.3979   7.5374   7.6264
     7.7738   7.9010   8.0616   8.1677   8.2839   8.3069   8.3745   8.4688
     8.5405   8.8076

     occupation numbers 
     1.0000   1.0000   1.0000   1.0000   1.0000   1.0000   1.0000   1.0000
     1.0000   1.0000   1.0000   1.0000   1.0000   1.0000   1.0000   1.0000
     1.0000   1.0000   1.0000   1.0000   1.0000   1.0000   1.0000   1.0000
     1.0000   1.0000   1.0000   1.0000   1.0000   1.0000   1.0000   1.0000
     1.0000   1.0000   1.0000   1.0000   1.0000   1.0000   1.0000   1.0000
     1.0000   1.0000   1.0000   1.0000   1.0000   1.0000   1.0000   1.0000
     1.0000   1.0000   1.0000   1.0000   1.0000   1.0000   1.0000   1.0000
     1.0000   1.0000   1.0000   1.0000   1.0000   1.0000   1.0000   1.0000
     1.0000   1.0000   1.0000   1.0000   1.0000   1.0000   1.0000   1.0000
     1.0000   1.0000   1.0000   1.0000   1.0000   1.0000   1.0000   1.0000
     1.0000   1.0000   1.0000   1.0000   1.0000   1.0000   1.0000   1.0000
     1.0000   1.0000   1.0000   1.0000   1.0000   1.0000   1.0000   1.0000
     1.0000   1.0000   1.0000   1.0000   1.0000   1.0000   1.0000   1.0000
     1.0000   1.0000   1.0000   1.0000   1.0000   1.0000   1.0000   1.0000
     1.0000   1.0000   1.0000   1.0000   1.0000   1.0000   1.0000   1.0000
     1.0000   1.0000   1.0000   1.0000   1.0000   1.0000   1.0000   1.0000
     1.0000   1.0000   1.0000   1.0000   1.0000   1.0000   1.0000   1.0000
     1.0000   1.0000   1.0000   1.0000   1.0000   1.0000   1.0000   1.0000
     1.0000   1.0000   1.0000   1.0000   1.0000   1.0000   1.0000   1.0000
     1.0000   1.0000   1.0000   1.0000   1.0000   0.9999   0.9999   0.9999
     0.9998   0.9998   0.9997   0.9996   0.9996   0.9992   0.9987   0.9986
     0.9984   0.9982   0.9981   0.9975   0.9971   0.9967   0.9960   0.9952
     0.9945   0.9921   0.9907   0.9896   0.9873   0.9844   0.9817   0.9796
     0.9779   0.9769   0.9671   0.9525   0.9404   0.9364   0.9236   0.9131
     0.9025   0.9005   0.8840   0.8736   0.8442   0.8306   0.8258   0.8099
     0.7745   0.7703   0.7510   0.7416   0.7257   0.7133   0.7065   0.7024
     0.6988   0.6940   0.6781   0.6765   0.6674   0.6616   0.6600   0.6490
     0.6413   0.6386   0.6269   0.6202   0.6169   0.5972   0.5880   0.5534
     0.3371   0.3136   0.2034   0.0719   0.0502   0.0186   0.0049   0.0030
     0.0002   0.0001   0.0000   0.0000   0.0000   0.0000   0.0000   0.0000
     0.0000   0.0000   0.0000   0.0000   0.0000   0.0000   0.0000   0.0000
     0.0000   0.0000   0.0000   0.0000   0.0000   0.0000   0.0000   0.0000
     0.0000   0.0000

          k = 0.0000-0.5000 0.0000 ( 65180 PWs)   bands (ev):

   -92.8929 -92.8446 -92.7473 -92.7002 -92.6442 -92.5995 -92.5822 -92.4616
   -56.2465 -56.2312 -56.1040 -56.0933 -56.0873 -56.0801 -56.0484 -56.0161
   -56.0011 -55.9994 -55.9938 -55.9507 -55.9305 -55.8951 -55.8743 -55.8439
   -55.8358 -55.7873 -55.7867 -55.7843 -55.7759 -55.7368 -55.7121 -55.6275
   -31.4553 -31.4349 -31.2960 -31.2163 -31.2111 -31.2082 -30.9391 -30.6814
   -30.0351 -29.9921 -29.9709 -29.8603 -15.1949 -15.1458 -15.0931 -14.9569
   -14.8833 -14.7404 -14.5906 -14.4530 -14.3440 -14.2688 -14.2270 -14.2189
   -14.1669 -14.1546 -14.1092 -14.0794 -14.0599 -14.0186 -13.9616 -13.9424
   -13.7702 -13.7106 -13.6725 -13.6422 -13.5816 -13.5421 -13.4886 -13.4597
   -13.4239 -13.3951 -13.2874 -13.2705 -13.1880 -13.1595 -13.1469 -13.1272
   -13.1076 -13.0620 -12.9691 -12.9555 -12.9263 -12.8860 -12.8664 -12.8409
   -12.8317 -12.6948 -12.6039 -12.5025 -12.4827 -12.3742 -12.2977 -12.2863
   -11.9821 -11.9689 -11.9660 -11.9391 -11.9041 -11.8686 -11.8574 -11.8130
   -11.8090 -11.7629 -11.7051 -11.6912 -11.6768  -2.7789  -2.7201  -2.5706
    -2.4990  -2.2142  -2.1324  -2.0064  -1.8697  -1.8276  -1.8118  -1.7341
    -1.6999  -1.6207  -1.5841  -1.5047  -1.4669  -1.4290  -1.4011  -1.3401
    -1.3067  -1.2531  -1.2207  -1.1911  -1.1529  -1.0470  -1.0023  -0.9638
    -0.9622  -0.8751  -0.8440  -0.8217  -0.7728  -0.6840  -0.6134  -0.5210
    -0.4833  -0.3879  -0.3535  -0.2175  -0.1543  -0.1476  -0.0882   0.0359
     0.0894   0.2034   0.2766   0.2841   0.4098   0.4775   0.5761   0.6913
     0.7960   0.8294   0.8687   0.8831   0.9180   0.9296   0.9636   0.9823
     0.9908   1.1034   1.1637   1.1991   1.2282   1.4949   1.5160   1.5406
     1.6352   1.6591   1.6892   1.7065   1.7264   1.7521   1.7614   1.7838
     1.8225   1.8490   1.8800   1.8878   1.9161   1.9679   2.0596   2.0927
     2.2629   2.4151   2.4222   2.4463   2.4803   2.4874   2.4952   2.5266
     2.5532   2.5558   2.6072   2.6220   2.6297   2.6433   2.7160   2.7307
     2.7957   2.7982   2.8211   2.8295   2.8410   2.8468   2.8498   2.8565
     2.8615   2.8717   2.8878   2.8915   2.9539   2.9603   2.9756   3.0296
     3.9466   3.9641   4.0042   4.0892   4.5578   4.7239   4.8976   5.0017
     5.2774   5.3561   5.4835   5.5828   5.8526   5.8657   6.2807   6.6667
     6.7866   6.8849   7.1386   7.2979   7.5741   7.6484   7.6785   7.7605
     7.7675   7.9156   8.0959   8.2263   8.3322   8.3582   8.5026   8.5086
     8.6805   8.7851

     occupation numbers 
     1.0000   1.0000   1.0000   1.0000   1.0000   1.0000   1.0000   1.0000
     1.0000   1.0000   1.0000   1.0000   1.0000   1.0000   1.0000   1.0000
     1.0000   1.0000   1.0000   1.0000   1.0000   1.0000   1.0000   1.0000
     1.0000   1.0000   1.0000   1.0000   1.0000   1.0000   1.0000   1.0000
     1.0000   1.0000   1.0000   1.0000   1.0000   1.0000   1.0000   1.0000
     1.0000   1.0000   1.0000   1.0000   1.0000   1.0000   1.0000   1.0000
     1.0000   1.0000   1.0000   1.0000   1.0000   1.0000   1.0000   1.0000
     1.0000   1.0000   1.0000   1.0000   1.0000   1.0000   1.0000   1.0000
     1.0000   1.0000   1.0000   1.0000   1.0000   1.0000   1.0000   1.0000
     1.0000   1.0000   1.0000   1.0000   1.0000   1.0000   1.0000   1.0000
     1.0000   1.0000   1.0000   1.0000   1.0000   1.0000   1.0000   1.0000
     1.0000   1.0000   1.0000   1.0000   1.0000   1.0000   1.0000   1.0000
     1.0000   1.0000   1.0000   1.0000   1.0000   1.0000   1.0000   1.0000
     1.0000   1.0000   1.0000   1.0000   1.0000   1.0000   1.0000   1.0000
     1.0000   1.0000   1.0000   1.0000   1.0000   1.0000   1.0000   1.0000
     1.0000   1.0000   1.0000   1.0000   1.0000   1.0000   1.0000   1.0000
     1.0000   1.0000   1.0000   1.0000   1.0000   1.0000   1.0000   1.0000
     1.0000   1.0000   1.0000   1.0000   1.0000   1.0000   1.0000   1.0000
     1.0000   1.0000   1.0000   1.0000   1.0000   1.0000   1.0000   1.0000
     1.0000   1.0000   1.0000   1.0000   1.0000   1.0000   0.9999   0.9999
     0.9997   0.9997   0.9996   0.9996   0.9995   0.9995   0.9994   0.9993
     0.9993   0.9987   0.9983   0.9980   0.9977   0.9926   0.9919   0.9911
     0.9871   0.9858   0.9842   0.9831   0.9818   0.9800   0.9794   0.9777
     0.9744   0.9720   0.9689   0.9681   0.9649   0.9586   0.9450   0.9393
     0.9026   0.8578   0.8554   0.8471   0.8348   0.8322   0.8293   0.8172
     0.8066   0.8055   0.7838   0.7773   0.7739   0.7677   0.7335   0.7263
     0.6933   0.6920   0.6799   0.6754   0.6693   0.6661   0.6645   0.6608
     0.6581   0.6526   0.6437   0.6417   0.6065   0.6028   0.5941   0.5627
     0.1143   0.1094   0.0986   0.0784   0.0174   0.0092   0.0044   0.0028
     0.0007   0.0005   0.0002   0.0001   0.0000   0.0000   0.0000   0.0000
     0.0000   0.0000   0.0000   0.0000   0.0000   0.0000   0.0000   0.0000
     0.0000   0.0000   0.0000   0.0000   0.0000   0.0000   0.0000   0.0000
     0.0000   0.0000

          k = 0.2500 0.2500 0.0000 ( 65198 PWs)   bands (ev):

   -92.8929 -92.8446 -92.7473 -92.7002 -92.6442 -92.5995 -92.5822 -92.4616
   -56.2465 -56.2312 -56.1040 -56.0933 -56.0873 -56.0801 -56.0484 -56.0161
   -56.0011 -55.9994 -55.9938 -55.9507 -55.9305 -55.8951 -55.8743 -55.8439
   -55.8358 -55.7873 -55.7867 -55.7843 -55.7759 -55.7368 -55.7121 -55.6275
   -31.4540 -31.4366 -31.2954 -31.2197 -31.2084 -31.2076 -30.9393 -30.6814
   -30.0348 -29.9934 -29.9698 -29.8603 -15.2034 -15.1565 -15.0896 -14.9727
   -14.8473 -14.7221 -14.6562 -14.4424 -14.2938 -14.2785 -14.2415 -14.2124
   -14.1886 -14.1590 -14.1239 -14.0915 -14.0258 -14.0051 -13.8476 -13.8313
   -13.8036 -13.7830 -13.7095 -13.6932 -13.6098 -13.6074 -13.4641 -13.4263
   -13.4064 -13.3196 -13.2802 -13.2290 -13.1987 -13.1915 -13.1606 -13.1256
   -13.1062 -13.0885 -13.0260 -12.9929 -12.9250 -12.9043 -12.8928 -12.8627
   -12.7671 -12.6322 -12.6069 -12.5640 -12.5216 -12.4563 -12.2450 -12.1697
   -11.9885 -11.9807 -11.9555 -11.9440 -11.9377 -11.8743 -11.8416 -11.8340
   -11.7975 -11.7910 -11.6988 -11.6586 -11.6408  -2.8553  -2.6480  -2.5296
    -2.4338  -2.3150  -2.2506  -2.0495  -1.9081  -1.8899  -1.8562  -1.7637
    -1.7300  -1.6347  -1.6068  -1.5563  -1.4268  -1.3772  -1.3027  -1.2588
    -1.2146  -1.1919  -1.1690  -1.1260  -1.1104  -1.0188  -0.9689  -0.8984
    -0.8513  -0.8221  -0.7760  -0.7580  -0.6954  -0.6458  -0.5806  -0.5540
    -0.4607  -0.4135  -0.3818  -0.3484  -0.2922  -0.2097  -0.1806  -0.1461
    -0.0712  -0.0364   0.2260   0.3770   0.4071   0.4734   0.5116   0.5785
     0.6243   0.6896   0.7221   0.9951   1.0565   1.1294   1.1519   1.2093
     1.2333   1.2714   1.3075   1.3235   1.3506   1.3992   1.4060   1.4235
     1.4711   1.5084   1.5437   1.6086   1.6504   1.6599   1.6925   1.7242
     1.7842   1.8071   1.9348   1.9942   2.0272   2.0464   2.1245   2.1843
     2.2093   2.2438   2.2728   2.2828   2.3979   2.4340   2.5105   2.5453
     2.6262   2.6408   2.6878   2.7061   2.7101   2.7277   2.7421   2.7560
     2.7692   2.7740   2.7862   2.8000   2.8167   2.8290   2.8351   2.8479
     2.8726   2.8808   2.8897   2.9216   3.2209   3.3144   3.3652   3.4358
     3.4546   3.6794   3.7649   4.1238   4.3340   4.5472   4.7985   5.1236
     5.4919   5.5546   5.6026   5.6501   5.7131   6.0806   6.1399   6.1585
     6.8288   7.0996   7.2099   7.3800   7.4462   7.4745   7.5855   7.7512
     7.8696   8.0907   8.1987   8.2447   8.3195   8.3742   8.4465   8.5111
     8.5448   8.6525

     occupation numbers 
     1.0000   1.0000   1.0000   1.0000   1.0000   1.0000   1.0000   1.0000
     1.0000   1.0000   1.0000   1.0000   1.0000   1.0000   1.0000   1.0000
     1.0000   1.0000   1.0000   1.0000   1.0000   1.0000   1.0000   1.0000
     1.0000   1.0000   1.0000   1.0000   1.0000   1.0000   1.0000   1.0000
     1.0000   1.0000   1.0000   1.0000   1.0000   1.0000   1.0000   1.0000
     1.0000   1.0000   1.0000   1.0000   1.0000   1.0000   1.0000   1.0000
     1.0000   1.0000   1.0000   1.0000   1.0000   1.0000   1.0000   1.0000
     1.0000   1.0000   1.0000   1.0000   1.0000   1.0000   1.0000   1.0000
     1.0000   1.0000   1.0000   1.0000   1.0000   1.0000   1.0000   1.0000
     1.0000   1.0000   1.0000   1.0000   1.0000   1.0000   1.0000   1.0000
     1.0000   1.0000   1.0000   1.0000   1.0000   1.0000   1.0000   1.0000
     1.0000   1.0000   1.0000   1.0000   1.0000   1.0000   1.0000   1.0000
     1.0000   1.0000   1.0000   1.0000   1.0000   1.0000   1.0000   1.0000
     1.0000   1.0000   1.0000   1.0000   1.0000   1.0000   1.0000   1.0000
     1.0000   1.0000   1.0000   1.0000   1.0000   1.0000   1.0000   1.0000
     1.0000   1.0000   1.0000   1.0000   1.0000   1.0000   1.0000   1.0000
     1.0000   1.0000   1.0000   1.0000   1.0000   1.0000   1.0000   1.0000
     1.0000   1.0000   1.0000   1.0000   1.0000   1.0000   1.0000   1.0000
     1.0000   1.0000   1.0000   1.0000   1.0000   1.0000   1.0000   1.0000
     1.0000   1.0000   1.0000   1.0000   1.0000   1.0000   1.0000   0.9999
     0.9999   0.9999   0.9998   0.9993   0.9990   0.9986   0.9984   0.9979
     0.9976   0.9972   0.9967   0.9964   0.9960   0.9950   0.9949   0.9945
     0.9933   0.9922   0.9910   0.9883   0.9863   0.9858   0.9840   0.9820
     0.9776   0.9758   0.9627   0.9550   0.9502   0.9471   0.9334   0.9212
     0.9156   0.9073   0.9000   0.8974   0.8634   0.8513   0.8234   0.8097
     0.7754   0.7689   0.7471   0.7383   0.7364   0.7278   0.7206   0.7137
     0.7069   0.7045   0.6982   0.6910   0.6822   0.6757   0.6724   0.6655
     0.6521   0.6476   0.6426   0.6248   0.4498   0.3955   0.3667   0.3280
     0.3180   0.2098   0.1751   0.0712   0.0376   0.0181   0.0068   0.0016
     0.0002   0.0002   0.0001   0.0001   0.0001   0.0000   0.0000   0.0000
     0.0000   0.0000   0.0000   0.0000   0.0000   0.0000   0.0000   0.0000
     0.0000   0.0000   0.0000   0.0000   0.0000   0.0000   0.0000   0.0000
     0.0000   0.0000

          k = 0.2500-0.5000 0.0000 ( 65138 PWs)   bands (ev):

   -92.8929 -92.8446 -92.7473 -92.7002 -92.6442 -92.5995 -92.5822 -92.4616
   -56.2465 -56.2312 -56.1040 -56.0933 -56.0873 -56.0801 -56.0484 -56.0161
   -56.0011 -55.9994 -55.9938 -55.9507 -55.9305 -55.8951 -55.8743 -55.8439
   -55.8358 -55.7873 -55.7867 -55.7843 -55.7759 -55.7368 -55.7121 -55.6275
   -31.4538 -31.4365 -31.2957 -31.2162 -31.2111 -31.2086 -30.9392 -30.6815
   -30.0341 -29.9930 -29.9705 -29.8607 -15.1641 -15.1188 -15.0497 -14.9286
   -14.9043 -14.7828 -14.6929 -14.5543 -14.2593 -14.2019 -14.1774 -14.1532
   -14.1386 -14.1281 -14.0924 -14.0690 -14.0334 -14.0016 -13.9651 -13.9247
   -13.8511 -13.8012 -13.7257 -13.7222 -13.6502 -13.6238 -13.5224 -13.4762
   -13.3849 -13.3207 -13.2980 -13.2135 -13.1810 -13.1627 -13.1435 -13.1347
   -13.1212 -13.0911 -12.9815 -12.9603 -12.9083 -12.8653 -12.8527 -12.8350
   -12.8038 -12.7017 -12.6064 -12.5000 -12.4741 -12.3693 -12.2872 -12.2724
   -11.9823 -11.9624 -11.9503 -11.9401 -11.9137 -11.8806 -11.8541 -11.8102
   -11.7850 -11.7612 -11.7176 -11.6925 -11.6804  -2.6363  -2.5718  -2.4442
    -2.3676  -2.2345  -2.1521  -2.0305  -1.8802  -1.8245  -1.8025  -1.7404
    -1.7282  -1.6318  -1.5626  -1.4792  -1.4269  -1.4174  -1.3569  -1.3113
    -1.2793  -1.2310  -1.1923  -1.1580  -1.1200  -1.1081  -1.0618  -1.0314
    -0.9881  -0.9578  -0.8912  -0.7866  -0.7492  -0.6689  -0.6022  -0.5488
    -0.5121  -0.4934  -0.4304  -0.2769  -0.2666  -0.1460  -0.1274  -0.1195
    -0.0746  -0.0387  -0.0023   0.0252   0.0890   0.3767   0.4789   0.5409
     0.5940   0.8611   0.8788   0.9691   0.9906   1.1538   1.1930   1.2287
     1.2501   1.2638   1.2865   1.3515   1.4032   1.4364   1.5132   1.6147
     1.6471   1.6672   1.6738   1.7134   1.7241   1.7342   1.7787   1.7889
     1.8091   1.8464   1.8598   1.8736   1.9121   1.9685   2.0128   2.0927
     2.2252   2.3657   2.3854   2.4038   2.4347   2.4545   2.4807   2.5010
     2.5129   2.5239   2.5514   2.6188   2.6320   2.6468   2.6925   2.7060
     2.7192   2.7263   2.7441   2.7575   2.7767   2.7882   2.8234   2.8344
     2.8446   2.8528   2.8635   2.8715   3.3965   3.4153   3.5528   3.6062
     3.9499   4.0072   4.0096   4.1399   4.5762   4.7446   4.9167   4.9609
     5.1256   5.2991   5.5045   5.5255   5.6250   5.6583   6.3397   6.3770
     6.4369   6.7605   7.2777   7.5807   7.6558   7.7108   7.7680   7.8098
     7.9139   8.0227   8.1717   8.3713   8.4014   8.4080   8.5397   8.5801
     8.6303   8.6652

     occupation numbers 
     1.0000   1.0000   1.0000   1.0000   1.0000   1.0000   1.0000   1.0000
     1.0000   1.0000   1.0000   1.0000   1.0000   1.0000   1.0000   1.0000
     1.0000   1.0000   1.0000   1.0000   1.0000   1.0000   1.0000   1.0000
     1.0000   1.0000   1.0000   1.0000   1.0000   1.0000   1.0000   1.0000
     1.0000   1.0000   1.0000   1.0000   1.0000   1.0000   1.0000   1.0000
     1.0000   1.0000   1.0000   1.0000   1.0000   1.0000   1.0000   1.0000
     1.0000   1.0000   1.0000   1.0000   1.0000   1.0000   1.0000   1.0000
     1.0000   1.0000   1.0000   1.0000   1.0000   1.0000   1.0000   1.0000
     1.0000   1.0000   1.0000   1.0000   1.0000   1.0000   1.0000   1.0000
     1.0000   1.0000   1.0000   1.0000   1.0000   1.0000   1.0000   1.0000
     1.0000   1.0000   1.0000   1.0000   1.0000   1.0000   1.0000   1.0000
     1.0000   1.0000   1.0000   1.0000   1.0000   1.0000   1.0000   1.0000
     1.0000   1.0000   1.0000   1.0000   1.0000   1.0000   1.0000   1.0000
     1.0000   1.0000   1.0000   1.0000   1.0000   1.0000   1.0000   1.0000
     1.0000   1.0000   1.0000   1.0000   1.0000   1.0000   1.0000   1.0000
     1.0000   1.0000   1.0000   1.0000   1.0000   1.0000   1.0000   1.0000
     1.0000   1.0000   1.0000   1.0000   1.0000   1.0000   1.0000   1.0000
     1.0000   1.0000   1.0000   1.0000   1.0000   1.0000   1.0000   1.0000
     1.0000   1.0000   1.0000   1.0000   1.0000   1.0000   1.0000   1.0000
     1.0000   1.0000   1.0000   1.0000   1.0000   1.0000   1.0000   0.9999
     0.9999   0.9996   0.9996   0.9994   0.9993   0.9984   0.9980   0.9977
     0.9974   0.9973   0.9970   0.9960   0.9950   0.9942   0.9920   0.9881
     0.9865   0.9854   0.9850   0.9827   0.9820   0.9813   0.9781   0.9773
     0.9756   0.9722   0.9709   0.9696   0.9654   0.9585   0.9523   0.9393
     0.9119   0.8736   0.8674   0.8615   0.8511   0.8442   0.8347   0.8271
     0.8225   0.8182   0.8073   0.7787   0.7728   0.7662   0.7448   0.7383
     0.7320   0.7285   0.7196   0.7129   0.7031   0.6972   0.6787   0.6728
     0.6673   0.6629   0.6571   0.6527   0.3494   0.3391   0.2679   0.2425
     0.1134   0.0979   0.0972   0.0680   0.0162   0.0085   0.0041   0.0034
     0.0016   0.0007   0.0002   0.0002   0.0001   0.0001   0.0000   0.0000
     0.0000   0.0000   0.0000   0.0000   0.0000   0.0000   0.0000   0.0000
     0.0000   0.0000   0.0000   0.0000   0.0000   0.0000   0.0000   0.0000
     0.0000   0.0000

          k =-0.5000-0.5000 0.0000 ( 65132 PWs)   bands (ev):

   -92.8929 -92.8446 -92.7473 -92.7002 -92.6442 -92.5995 -92.5822 -92.4616
[...]
     0.6334   0.6208   0.6181   0.6143   0.6096   0.6046   0.5993   0.5253
     0.3496   0.3180   0.2031   0.0763   0.0445   0.0205   0.0049   0.0029
     0.0002   0.0001   0.0000   0.0000   0.0000   0.0000   0.0000   0.0000
     0.0000   0.0000   0.0000   0.0000   0.0000   0.0000   0.0000   0.0000
     0.0000   0.0000   0.0000   0.0000   0.0000   0.0000   0.0000   0.0000
     0.0000   0.0000

          k =-0.5000 0.0000 0.0000 ( 65180 PWs)   bands (ev):

   -92.8929 -92.8446 -92.7473 -92.7002 -92.6442 -92.5995 -92.5822 -92.4616
   -56.2465 -56.2312 -56.1040 -56.0933 -56.0873 -56.0801 -56.0484 -56.0161
   -56.0011 -55.9994 -55.9938 -55.9507 -55.9305 -55.8951 -55.8743 -55.8439
   -55.8358 -55.7873 -55.7867 -55.7843 -55.7759 -55.7368 -55.7121 -55.6275
   -31.4522 -31.4387 -31.2949 -31.2217 -31.2087 -31.2054 -30.9396 -30.6813
   -30.0344 -29.9947 -29.9688 -29.8604 -15.2014 -15.1452 -15.0834 -14.9761
   -14.8738 -14.7308 -14.5748 -14.4388 -14.3183 -14.3002 -14.2950 -14.2171
   -14.1739 -14.1415 -14.0921 -14.0820 -14.0651 -14.0210 -14.0005 -13.8831
   -13.7413 -13.6953 -13.6785 -13.6705 -13.5898 -13.5479 -13.4650 -13.4450
   -13.4208 -13.4021 -13.2335 -13.2317 -13.2201 -13.1956 -13.1879 -13.1258
   -13.1077 -13.1041 -13.0654 -13.0468 -12.8951 -12.8210 -12.8115 -12.7210
   -12.7199 -12.6883 -12.6063 -12.6009 -12.5065 -12.5016 -12.2772 -12.2236
   -11.9831 -11.9666 -11.9428 -11.9376 -11.9233 -11.9049 -11.8626 -11.8027
   -11.7855 -11.7525 -11.7055 -11.6967 -11.6819  -2.7690  -2.7313  -2.5683
    -2.5294  -2.2134  -2.1374  -1.9914  -1.8748  -1.8347  -1.7882  -1.7411
    -1.7183  -1.5933  -1.5502  -1.5315  -1.4511  -1.4169  -1.3959  -1.3694
    -1.3087  -1.2407  -1.2140  -1.1818  -1.0863  -1.0415  -0.9897  -0.9586
    -0.9380  -0.9044  -0.8599  -0.8347  -0.7937  -0.6893  -0.6237  -0.5471
    -0.4896  -0.3253  -0.2866  -0.2437  -0.1934  -0.1366  -0.1263   0.0177
     0.0470   0.0943   0.2520   0.3520   0.4007   0.5017   0.5657   0.6777
     0.6877   0.8224   0.8462   0.9013   0.9358   0.9737   0.9785   1.0257
     1.0493   1.1207   1.1661   1.2146   1.2228   1.5263   1.5378   1.5582
     1.5772   1.6764   1.6899   1.7067   1.7110   1.7439   1.7531   1.7936
     1.8130   1.8385   1.8895   1.9114   1.9591   1.9849   2.0378   2.1554
     2.2482   2.3144   2.3295   2.4112   2.4363   2.4626   2.5113   2.5422
     2.5450   2.5637   2.5836   2.6334   2.6404   2.6548   2.6950   2.7483
     2.7674   2.8113   2.8162   2.8200   2.8283   2.8454   2.8574   2.8697
     2.8763   2.8948   2.8976   2.9202   2.9394   2.9446   3.0748   3.0810
     3.8921   3.9540   4.0094   4.1426   4.6095   4.6903   4.8861   4.9121
     5.3663   5.3981   5.4819   5.5103   5.8523   5.8652   6.2691   6.7037
     6.7250   6.9418   7.1905   7.2529   7.5956   7.6193   7.7002   7.7191
     7.7755   7.8356   8.0810   8.3403   8.3581   8.4079   8.4573   8.4877
     8.6274   8.7314

     occupation numbers 
     1.0000   1.0000   1.0000   1.0000   1.0000   1.0000   1.0000   1.0000
     1.0000   1.0000   1.0000   1.0000   1.0000   1.0000   1.0000   1.0000
     1.0000   1.0000   1.0000   1.0000   1.0000   1.0000   1.0000   1.0000
     1.0000   1.0000   1.0000   1.0000   1.0000   1.0000   1.0000   1.0000
     1.0000   1.0000   1.0000   1.0000   1.0000   1.0000   1.0000   1.0000
     1.0000   1.0000   1.0000   1.0000   1.0000   1.0000   1.0000   1.0000
     1.0000   1.0000   1.0000   1.0000   1.0000   1.0000   1.0000   1.0000
     1.0000   1.0000   1.0000   1.0000   1.0000   1.0000   1.0000   1.0000
     1.0000   1.0000   1.0000   1.0000   1.0000   1.0000   1.0000   1.0000
     1.0000   1.0000   1.0000   1.0000   1.0000   1.0000   1.0000   1.0000
     1.0000   1.0000   1.0000   1.0000   1.0000   1.0000   1.0000   1.0000
     1.0000   1.0000   1.0000   1.0000   1.0000   1.0000   1.0000   1.0000
     1.0000   1.0000   1.0000   1.0000   1.0000   1.0000   1.0000   1.0000
     1.0000   1.0000   1.0000   1.0000   1.0000   1.0000   1.0000   1.0000
     1.0000   1.0000   1.0000   1.0000   1.0000   1.0000   1.0000   1.0000
     1.0000   1.0000   1.0000   1.0000   1.0000   1.0000   1.0000   1.0000
     1.0000   1.0000   1.0000   1.0000   1.0000   1.0000   1.0000   1.0000
     1.0000   1.0000   1.0000   1.0000   1.0000   1.0000   1.0000   1.0000
     1.0000   1.0000   1.0000   1.0000   1.0000   1.0000   1.0000   1.0000
     1.0000   1.0000   1.0000   1.0000   1.0000   1.0000   0.9999   0.9999
     0.9999   0.9997   0.9997   0.9995   0.9995   0.9993   0.9993   0.9991
     0.9990   0.9986   0.9983   0.9978   0.9977   0.9916   0.9912   0.9904
     0.9897   0.9849   0.9841   0.9831   0.9828   0.9806   0.9800   0.9769
     0.9752   0.9730   0.9679   0.9655   0.9597   0.9563   0.9485   0.9273
     0.9063   0.8887   0.8844   0.8590   0.8505   0.8413   0.8231   0.8110
     0.8099   0.8022   0.7939   0.7722   0.7690   0.7625   0.7436   0.7175
     0.7079   0.6851   0.6825   0.6805   0.6760   0.6669   0.6604   0.6537
     0.6500   0.6398   0.6382   0.6256   0.6148   0.6118   0.5361   0.5325
     0.1307   0.1122   0.0973   0.0675   0.0143   0.0105   0.0047   0.0042
     0.0005   0.0004   0.0002   0.0002   0.0000   0.0000   0.0000   0.0000
     0.0000   0.0000   0.0000   0.0000   0.0000   0.0000   0.0000   0.0000
     0.0000   0.0000   0.0000   0.0000   0.0000   0.0000   0.0000   0.0000
     0.0000   0.0000

          k =-0.2500 0.2500 0.0000 ( 65198 PWs)   bands (ev):

   -92.8929 -92.8446 -92.7473 -92.7002 -92.6442 -92.5995 -92.5822 -92.4616
   -56.2465 -56.2312 -56.1040 -56.0933 -56.0873 -56.0801 -56.0484 -56.0161
   -56.0011 -55.9994 -55.9938 -55.9507 -55.9305 -55.8951 -55.8743 -55.8439
   -55.8358 -55.7873 -55.7867 -55.7843 -55.7759 -55.7368 -55.7121 -55.6275
   -31.4540 -31.4366 -31.2955 -31.2197 -31.2084 -31.2076 -30.9393 -30.6814
   -30.0348 -29.9934 -29.9698 -29.8603 -15.2047 -15.1556 -15.0878 -14.9716
   -14.8534 -14.7256 -14.6487 -14.4338 -14.2995 -14.2696 -14.2561 -14.2066
   -14.1861 -14.1634 -14.1310 -14.0940 -14.0220 -14.0066 -13.8549 -13.8300
   -13.7973 -13.7795 -13.7118 -13.6822 -13.6160 -13.6078 -13.4761 -13.4138
   -13.3992 -13.3238 -13.2817 -13.2181 -13.1948 -13.1877 -13.1652 -13.1315
   -13.1066 -13.0932 -13.0210 -12.9937 -12.9507 -12.9024 -12.8715 -12.8497
   -12.7982 -12.6252 -12.6173 -12.5901 -12.4703 -12.4620 -12.2240 -12.1949
   -11.9875 -11.9809 -11.9641 -11.9380 -11.9259 -11.8837 -11.8514 -11.8262
   -11.8063 -11.7828 -11.6985 -11.6540 -11.6440  -2.8537  -2.6469  -2.5255
    -2.4352  -2.3193  -2.2534  -2.0471  -1.9053  -1.8876  -1.8542  -1.7644
    -1.7289  -1.6343  -1.5997  -1.5740  -1.4325  -1.3754  -1.3062  -1.2786
    -1.2169  -1.1984  -1.1583  -1.1299  -1.0891  -1.0249  -0.9771  -0.9096
    -0.8433  -0.8176  -0.7691  -0.7398  -0.6935  -0.6354  -0.5837  -0.5484
    -0.4429  -0.4154  -0.3987  -0.3595  -0.2945  -0.2161  -0.1772  -0.1371
    -0.0661  -0.0391   0.2055   0.3815   0.4150   0.4585   0.5214   0.5807
     0.6261   0.6920   0.7232   1.0030   1.1061   1.1465   1.1786   1.1889
     1.2293   1.2425   1.2892   1.3200   1.3325   1.3578   1.4092   1.4240
     1.4637   1.4887   1.5308   1.6272   1.6385   1.6577   1.6944   1.7237
     1.7612   1.8189   1.9235   2.0252   2.0481   2.0977   2.1191   2.1812
     2.2212   2.2468   2.2733   2.2941   2.3974   2.4333   2.5083   2.5466
     2.6260   2.6402   2.6975   2.7030   2.7174   2.7253   2.7369   2.7521
     2.7597   2.7769   2.7872   2.7988   2.8096   2.8209   2.8310   2.8379
     2.8737   2.8832   2.8890   2.9235   3.2143   3.2958   3.3675   3.4433
     3.4603   3.6641   3.7735   4.1231   4.3313   4.5491   4.8082   5.1238
     5.4931   5.5516   5.6070   5.6468   5.7140   6.0948   6.1319   6.1488
     6.8300   7.0803   7.2337   7.3858   7.4556   7.4798   7.5617   7.7611
     7.8572   8.1031   8.1902   8.2206   8.3199   8.4065   8.4586   8.4945
     8.5336   8.6637

     occupation numbers 
     1.0000   1.0000   1.0000   1.0000   1.0000   1.0000   1.0000   1.0000
     1.0000   1.0000   1.0000   1.0000   1.0000   1.0000   1.0000   1.0000
     1.0000   1.0000   1.0000   1.0000   1.0000   1.0000   1.0000   1.0000
     1.0000   1.0000   1.0000   1.0000   1.0000   1.0000   1.0000   1.0000
     1.0000   1.0000   1.0000   1.0000   1.0000   1.0000   1.0000   1.0000
     1.0000   1.0000   1.0000   1.0000   1.0000   1.0000   1.0000   1.0000
     1.0000   1.0000   1.0000   1.0000   1.0000   1.0000   1.0000   1.0000
     1.0000   1.0000   1.0000   1.0000   1.0000   1.0000   1.0000   1.0000
     1.0000   1.0000   1.0000   1.0000   1.0000   1.0000   1.0000   1.0000
     1.0000   1.0000   1.0000   1.0000   1.0000   1.0000   1.0000   1.0000
     1.0000   1.0000   1.0000   1.0000   1.0000   1.0000   1.0000   1.0000
     1.0000   1.0000   1.0000   1.0000   1.0000   1.0000   1.0000   1.0000
     1.0000   1.0000   1.0000   1.0000   1.0000   1.0000   1.0000   1.0000
     1.0000   1.0000   1.0000   1.0000   1.0000   1.0000   1.0000   1.0000
     1.0000   1.0000   1.0000   1.0000   1.0000   1.0000   1.0000   1.0000
     1.0000   1.0000   1.0000   1.0000   1.0000   1.0000   1.0000   1.0000
     1.0000   1.0000   1.0000   1.0000   1.0000   1.0000   1.0000   1.0000
     1.0000   1.0000   1.0000   1.0000   1.0000   1.0000   1.0000   1.0000
     1.0000   1.0000   1.0000   1.0000   1.0000   1.0000   1.0000   1.0000
     1.0000   1.0000   1.0000   1.0000   1.0000   1.0000   0.9999   0.9999
     0.9999   0.9999   0.9998   0.9992   0.9987   0.9984   0.9982   0.9981
     0.9977   0.9975   0.9969   0.9965   0.9963   0.9959   0.9948   0.9945
     0.9935   0.9928   0.9914   0.9875   0.9869   0.9859   0.9838   0.9820
     0.9794   0.9747   0.9641   0.9504   0.9469   0.9384   0.9344   0.9218
     0.9128   0.9066   0.8999   0.8943   0.8636   0.8516   0.8243   0.8092
     0.7755   0.7692   0.7425   0.7398   0.7328   0.7289   0.7232   0.7156
     0.7118   0.7030   0.6977   0.6916   0.6860   0.6800   0.6746   0.6709
     0.6515   0.6462   0.6430   0.6237   0.4536   0.4061   0.3655   0.3240
     0.3150   0.2164   0.1719   0.0713   0.0379   0.0179   0.0065   0.0016
     0.0002   0.0002   0.0001   0.0001   0.0001   0.0000   0.0000   0.0000
     0.0000   0.0000   0.0000   0.0000   0.0000   0.0000   0.0000   0.0000
     0.0000   0.0000   0.0000   0.0000   0.0000   0.0000   0.0000   0.0000
     0.0000   0.0000

          k =-0.5000 0.2500 0.0000 ( 65138 PWs)   bands (ev):

   -92.8929 -92.8446 -92.7473 -92.7002 -92.6442 -92.5995 -92.5822 -92.4616
   -56.2465 -56.2312 -56.1040 -56.0933 -56.0873 -56.0801 -56.0484 -56.0161
   -56.0011 -55.9994 -55.9938 -55.9507 -55.9305 -55.8951 -55.8743 -55.8439
   -55.8358 -55.7873 -55.7867 -55.7843 -55.7759 -55.7368 -55.7121 -55.6275
   -31.4520 -31.4386 -31.2951 -31.2196 -31.2088 -31.2075 -30.9395 -30.6814
   -30.0337 -29.9944 -29.9694 -29.8607 -15.1680 -15.1195 -15.0405 -14.9420
   -14.9037 -14.7774 -14.6799 -14.5544 -14.2510 -14.2184 -14.2052 -14.1588
   -14.1357 -14.1159 -14.0788 -14.0654 -14.0460 -14.0089 -13.9975 -13.8794
   -13.8219 -13.7736 -13.7652 -13.7320 -13.6509 -13.6326 -13.5086 -13.4685
   -13.3772 -13.3437 -13.2468 -13.2055 -13.1952 -13.1885 -13.1672 -13.1348
   -13.1187 -13.0928 -13.0484 -13.0003 -12.9011 -12.8054 -12.7981 -12.7947
   -12.7757 -12.7190 -12.6077 -12.5213 -12.5010 -12.4246 -12.2762 -12.2378
   -11.9827 -11.9592 -11.9458 -11.9317 -11.9201 -11.8979 -11.8678 -11.7895
   -11.7812 -11.7580 -11.7201 -11.6923 -11.6845  -2.6261  -2.5850  -2.4378
    -2.3957  -2.2330  -2.1558  -2.0156  -1.8808  -1.8223  -1.7965  -1.7572
    -1.7208  -1.6389  -1.5235  -1.4659  -1.4435  -1.4160  -1.3360  -1.3124
    -1.2705  -1.2558  -1.1943  -1.1639  -1.1259  -1.0911  -1.0622  -1.0035
    -0.9760  -0.9354  -0.8990  -0.7933  -0.7671  -0.6711  -0.6179  -0.5821
    -0.5213  -0.4440  -0.4099  -0.3081  -0.2664  -0.2082  -0.1569  -0.1210
    -0.0638  -0.0344   0.0002   0.0449   0.0850   0.4147   0.4735   0.5333
     0.5567   0.8363   0.8996   0.9675   0.9981   1.1680   1.2028   1.2406
     1.2512   1.2693   1.2870   1.3583   1.4022   1.4460   1.4791   1.6010
     1.6412   1.6645   1.6764   1.7163   1.7394   1.7547   1.7694   1.7863
     1.8084   1.8540   1.8661   1.9044   1.9281   1.9629   2.0155   2.1428
     2.2340   2.2619   2.3279   2.3630   2.4278   2.4610   2.4678   2.5030
     2.5314   2.5520   2.5649   2.6235   2.6391   2.6545   2.6941   2.7055
     2.7113   2.7313   2.7533   2.7652   2.7828   2.7921   2.8159   2.8295
     2.8382   2.8485   2.8561   2.8687   3.4020   3.4419   3.5872   3.6062
     3.8994   3.9674   4.0190   4.2231   4.6019   4.7024   4.8777   4.9269
     5.2320   5.2566   5.4826   5.5719   5.6037   5.6433   6.3220   6.3674
     6.4524   6.7996   7.2475   7.5940   7.6655   7.7201   7.7535   7.8016
     7.9001   8.0284   8.1416   8.3583   8.4087   8.4649   8.5001   8.5582
     8.6901   8.6986

     occupation numbers 
     1.0000   1.0000   1.0000   1.0000   1.0000   1.0000   1.0000   1.0000
     1.0000   1.0000   1.0000   1.0000   1.0000   1.0000   1.0000   1.0000
     1.0000   1.0000   1.0000   1.0000   1.0000   1.0000   1.0000   1.0000
     1.0000   1.0000   1.0000   1.0000   1.0000   1.0000   1.0000   1.0000
     1.0000   1.0000   1.0000   1.0000   1.0000   1.0000   1.0000   1.0000
     1.0000   1.0000   1.0000   1.0000   1.0000   1.0000   1.0000   1.0000
     1.0000   1.0000   1.0000   1.0000   1.0000   1.0000   1.0000   1.0000
     1.0000   1.0000   1.0000   1.0000   1.0000   1.0000   1.0000   1.0000
     1.0000   1.0000   1.0000   1.0000   1.0000   1.0000   1.0000   1.0000
     1.0000   1.0000   1.0000   1.0000   1.0000   1.0000   1.0000   1.0000
     1.0000   1.0000   1.0000   1.0000   1.0000   1.0000   1.0000   1.0000
     1.0000   1.0000   1.0000   1.0000   1.0000   1.0000   1.0000   1.0000
     1.0000   1.0000   1.0000   1.0000   1.0000   1.0000   1.0000   1.0000
     1.0000   1.0000   1.0000   1.0000   1.0000   1.0000   1.0000   1.0000
     1.0000   1.0000   1.0000   1.0000   1.0000   1.0000   1.0000   1.0000
     1.0000   1.0000   1.0000   1.0000   1.0000   1.0000   1.0000   1.0000
     1.0000   1.0000   1.0000   1.0000   1.0000   1.0000   1.0000   1.0000
     1.0000   1.0000   1.0000   1.0000   1.0000   1.0000   1.0000   1.0000
     1.0000   1.0000   1.0000   1.0000   1.0000   1.0000   1.0000   1.0000
     1.0000   1.0000   1.0000   1.0000   1.0000   1.0000   1.0000   0.9999
     0.9999   0.9997   0.9996   0.9994   0.9992   0.9983   0.9980   0.9976
     0.9974   0.9972   0.9970   0.9958   0.9950   0.9940   0.9931   0.9887
     0.9868   0.9855   0.9849   0.9825   0.9809   0.9799   0.9788   0.9775
     0.9756   0.9715   0.9703   0.9663   0.9635   0.9592   0.9519   0.9298
     0.9097   0.9028   0.8849   0.8744   0.8535   0.8419   0.8394   0.8263
     0.8153   0.8070   0.8017   0.7766   0.7696   0.7626   0.7441   0.7386
     0.7358   0.7260   0.7150   0.7090   0.7000   0.6951   0.6826   0.6754
     0.6708   0.6652   0.6611   0.6542   0.3464   0.3248   0.2514   0.2425
     0.1284   0.1085   0.0949   0.0532   0.0147   0.0100   0.0048   0.0039
     0.0009   0.0008   0.0002   0.0001   0.0001   0.0001   0.0000   0.0000
     0.0000   0.0000   0.0000   0.0000   0.0000   0.0000   0.0000   0.0000
     0.0000   0.0000   0.0000   0.0000   0.0000   0.0000   0.0000   0.0000
     0.0000   0.0000

     the Fermi energy is     3.1359 ev

!    total energy              =   -4440.30967088 Ry
     estimated scf accuracy    <          8.1E-09 Ry
     smearing contrib. (-TS)   =      -1.20838652 Ry
     internal energy E=F+TS    =   -4439.10128436 Ry

     The total energy is F=E-TS. E is the sum of the following terms:
     one-electron contribution =  -20888.98245796 Ry
     hartree contribution      =   10573.38225703 Ry
     xc contribution           =    -693.25149330 Ry
     ewald contribution        =    6845.94112681 Ry
     one-center paw contrib.   =    -276.19071694 Ry
      -> PAW hartree energy AE =      25.14647522 Ry
      -> PAW hartree energy PS =     -25.03052695 Ry
      -> PAW xc energy AE      =     -16.51518821 Ry
      -> PAW xc energy PS      =       6.87453024 Ry
      -> total E_H with PAW    =   10573.49820530 Ry
      -> total E_XC with PAW   =    -702.89215127 Ry

     convergence has been achieved in  57 iterations

     Writing all to output data dir /bsuhome/zayahcortright/scratch/pwscf.save/
 
     init_run     :      7.80s CPU      8.55s WALL (       1 calls)
     electrons    :    807.62s CPU    846.67s WALL (       1 calls)

     Called by init_run:
     wfcinit      :      6.31s CPU      6.54s WALL (       1 calls)
     wfcinit:atom :      0.05s CPU      0.07s WALL (       5 calls)
     wfcinit:wfcr :      5.98s CPU      6.13s WALL (       5 calls)
     potinit      :      0.18s CPU      0.20s WALL (       1 calls)
     hinit0       :      0.45s CPU      0.68s WALL (       1 calls)

     Called by electrons:
     c_bands      :    635.88s CPU    643.56s WALL (      57 calls)
     sum_band     :    128.90s CPU    146.27s WALL (      57 calls)
     v_of_rho     :      6.17s CPU      6.62s WALL (      58 calls)
     v_h          :      0.54s CPU      0.55s WALL (      58 calls)
     v_xc         :      5.63s CPU      6.07s WALL (      58 calls)
     newd         :     18.89s CPU     32.01s WALL (      58 calls)
     PAW_pot      :      1.91s CPU      1.95s WALL (      58 calls)
     mix_rho      :     15.37s CPU     15.78s WALL (      57 calls)

     Called by c_bands:
     init_us_2    :      7.84s CPU      7.96s WALL (     575 calls)
     init_us_2:cp :      7.83s CPU      7.96s WALL (     575 calls)
     cegterg      :    599.98s CPU    607.21s WALL (     285 calls)

     Called by sum_band:
     sum_band:wei :      0.43s CPU      0.43s WALL (      57 calls)
     sum_band:loo :    107.56s CPU    108.40s WALL (      57 calls)
     sum_band:buf :      1.54s CPU      1.61s WALL (     285 calls)
     sum_band:ini :      3.54s CPU      3.56s WALL (     285 calls)
     sum_band:cal :     22.61s CPU     22.70s WALL (     285 calls)
     sum_band:bec :      0.65s CPU      0.67s WALL (     285 calls)
     addusdens    :     18.43s CPU     34.86s WALL (      57 calls)
                                        0.00s GPU  (      57 calls)
     addusd:skk   :      0.36s CPU      1.15s WALL (     171 calls)
                                        0.00s GPU  (     171 calls)

     Called by *egterg:
     cdiaghg      :     58.82s CPU     59.07s WALL (    1324 calls)
     cegterg:over :     44.36s CPU     44.55s WALL (    1039 calls)
     cegterg:upda :     31.29s CPU     31.89s WALL (    1039 calls)
     cegterg:last :     63.71s CPU     63.96s WALL (     494 calls)
     cdiaghg:chol :      3.42s CPU      3.44s WALL (    1324 calls)
     cdiaghg:inve :      3.00s CPU      3.01s WALL (    1324 calls)
     cdiaghg:para :      7.57s CPU      7.62s WALL (    2648 calls)
     h_psi        :    338.37s CPU    341.84s WALL (    1329 calls)
     s_psi        :     44.70s CPU     44.83s WALL (    1329 calls)
     g_psi        :      1.13s CPU      1.14s WALL (    1039 calls)

     Called by h_psi:
     h_psi:calbec :     51.21s CPU     51.45s WALL (    1329 calls)
     vloc_psi     :    239.60s CPU    241.81s WALL (    1329 calls)
     add_vuspsi   :     44.43s CPU     44.66s WALL (    1329 calls)

     General routines
     calbec       :     73.81s CPU     74.14s WALL (    1614 calls)
     fft          :      4.37s CPU      4.42s WALL (     752 calls)
     ffts         :      5.67s CPU      5.72s WALL (    6255 calls)
     fftw         :    207.41s CPU    209.04s WALL (  380418 calls)
     interpolate  :      0.47s CPU      0.48s WALL (      58 calls)
 
     Parallel routines

     PAW routines
     PAW_pot      :      1.91s CPU      1.95s WALL (      58 calls)
 
     PWSCF        :  13m37.75s CPU  14m20.74s WALL

 
   This run was terminated on:  17:16: 0  21Jun2024            

=------------------------------------------------------------------------------=
   JOB DONE.
=------------------------------------------------------------------------------=
