
     Program PWSCF v.7.2 starts on 21Jun2024 at 17: 1:32 

     This program is part of the open-source Quantum ESPRESSO suite
     for quantum simulation of materials; please cite
         "P. Giannozzi et al., J. Phys.:Condens. Matter 21 395502 (2009);
         "P. Giannozzi et al., J. Phys.:Condens. Matter 29 465901 (2017);
         "P. Giannozzi et al., J. Chem. Phys. 152 154105 (2020);
          URL http://www.quantum-espresso.org", 
     in publications or presentations arising from this work. More details at
     http://www.quantum-espresso.org/quote

     Parallel version (MPI & OpenMP), running on      48 processor cores
     Number of MPI processes:                48
     Threads/MPI process:                     1

     MPI processes distributed on     1 nodes
     180146 MiB available memory on the printing compute node when the environment starts
 
     Reading input from espresso.pwi
Warning: card &CELL ignored
Warning: card / ignored
Warning: card &FCP ignored
Warning: card / ignored
Warning: card &RISM ignored
Warning: card / ignored

     Current dimensions of program PWSCF are:
     Max number of different atomic species (ntypx) = 10
     Max number of k-points (npk) =  40000
     Max angular momentum in pseudopotentials (lmaxx) =  4
     file O.pbe-n-kjpaw_psl.0.1.UPF: wavefunction(s)  2P renormalized
     signal trapping enabled: kill the code with -SIGUSR1 to stop cleanly the simulation 
 
     K-points division:     npool     =       2
     R & G space division:  proc/nbgrp/npool/nimage =      24
     Subspace diagonalization in iterative solution of the eigenvalue problem:
     one sub-group per band group will be used
     scalapack distributed-memory algorithm (size of sub-group:  3*  3 procs)

 
     Parallelization info
     --------------------
     sticks:   dense  smooth     PW     G-vecs:    dense   smooth      PW
     Min         350     175     47                61430    21716    3036
     Max         351     177     48                61449    21727    3041
     Sum        8421    4205   1137              1474595   521381   72913
 
     Using Slab Decomposition
 


     bravais-lattice index     =            0
     lattice parameter (alat)  =      14.8599  a.u.
     unit-cell volume          =    8305.1283 (a.u.)^3
     number of atoms/cell      =           49
     number of atomic types    =            4
     number of electrons       =       425.00
     number of Kohn-Sham states=          256
     kinetic-energy cutoff     =      60.0000  Ry
     charge density cutoff     =     480.0000  Ry
     scf convergence threshold =      1.0E-08
     mixing beta               =       0.1500
     number of iterations used =            8  local-TF  mixing
     Exchange-correlation= PBE
                           (   1   4   3   4   0   0   0)

     celldm(1)=  14.859904  celldm(2)=   0.000000  celldm(3)=   0.000000
     celldm(4)=   0.000000  celldm(5)=   0.000000  celldm(6)=   0.000000

     crystal axes: (cart. coord. in units of alat)
               a(1) = (   1.000000   0.000000   0.000000 )  
               a(2) = (   0.000000   1.000000   0.000000 )  
               a(3) = (   0.000000   0.000000   2.531036 )  

     reciprocal axes: (cart. coord. in units 2 pi/alat)
               b(1) = (  1.000000  0.000000  0.000000 )  
               b(2) = (  0.000000  1.000000  0.000000 )  
               b(3) = (  0.000000  0.000000  0.395095 )  


     PseudoPot. # 1 for Sr read from file:
     /bsuhome/zayahcortright/q-e/pseudo/Sr_pbe_v1.uspp.F.UPF
     MD5 check sum: 6b418c05fbe9db5448babca5e47b7a5b
     Pseudo is Ultrasoft + core correction, Zval = 10.0
     Generated by new atomic code, or converted to UPF format
     Using radial grid of  883 points,  6 beta functions with: 
                l(1) =   0
                l(2) =   0
                l(3) =   1
                l(4) =   1
                l(5) =   2
                l(6) =   2
     Q(r) pseudized with  6 coefficients,  rinner =    1.400   1.400   1.400
                                                       1.400   1.400

     PseudoPot. # 2 for O  read from file:
     /bsuhome/zayahcortright/q-e/pseudo/O.pbe-n-kjpaw_psl.0.1.UPF
     MD5 check sum: 0234752ac141de4415c5fc33072bef88
     Pseudo is Projector augmented-wave + core cor, Zval =  6.0
     Generated using "atomic" code by A. Dal Corso  v.5.0.99 svn rev. 10869
     Shape of augmentation charge: BESSEL
     Using radial grid of 1095 points,  4 beta functions with: 
                l(1) =   0
                l(2) =   0
                l(3) =   1
                l(4) =   1
     Q(r) pseudized with 0 coefficients 


     PseudoPot. # 3 for Co read from file:
     /bsuhome/zayahcortright/q-e/pseudo/Co_pbe_v1.2.uspp.F.UPF
     MD5 check sum: 5f91765df6ddd3222702df6e7b74a16d
     Pseudo is Ultrasoft + core correction, Zval = 17.0
     Generated by new atomic code, or converted to UPF format
     Using radial grid of  863 points,  6 beta functions with: 
                l(1) =   0
                l(2) =   0
                l(3) =   1
                l(4) =   1
                l(5) =   2
                l(6) =   2
     Q(r) pseudized with  8 coefficients,  rinner =    1.200   1.200   1.200
                                                       1.200   1.200

     PseudoPot. # 4 for H  read from file:
     /bsuhome/zayahcortright/q-e/pseudo/H.pbe-rrkjus_psl.1.0.0.UPF
     MD5 check sum: f52b6d4d1c606e5624b1dc7b2218f220
     Pseudo is Ultrasoft, Zval =  1.0
     Generated using "atomic" code by A. Dal Corso  v.5.1
     Using radial grid of  929 points,  2 beta functions with: 
                l(1) =   0
                l(2) =   0
     Q(r) pseudized with 0 coefficients 


     atomic species   valence    mass     pseudopotential
        Sr            10.00    87.62000     Sr( 1.00)
        O              6.00    15.99900     O ( 1.00)
        Co            17.00    58.93319     Co( 1.00)
        H              1.00     1.00800     H ( 1.00)

     No symmetry found


                                    s                        frac. trans.

      isym =  1     identity                                     

 cryst.   s( 1) = (     1          0          0      )
                  (     0          1          0      )
                  (     0          0          1      )

 cart.    s( 1) = (  1.0000000  0.0000000  0.0000000 )
                  (  0.0000000  1.0000000  0.0000000 )
                  (  0.0000000  0.0000000  1.0000000 )


   Cartesian axes

     site n.     atom                  positions (alat units)
         1           Sr  tau(   1) = (   0.2508693   0.7491307   1.7574407  )
         2           O   tau(   2) = (   0.4985141   0.5014859   1.7715967  )
         3           Sr  tau(   3) = (   0.7482398   0.7454518   1.7648669  )
         4           Sr  tau(   4) = (   0.7441748   0.2558252   1.7667843  )
         5           Sr  tau(   5) = (   0.2508693   0.7491307   1.2696799  )
         6           Sr  tau(   6) = (   0.2508693   0.7491307   0.7632319  )
         7           Co  tau(   7) = (   0.4998914   0.5001086   1.0164559  )
         8           Co  tau(   8) = (   0.4936915   0.5063085   1.5135603  )
         9           O   tau(   9) = (   0.4988895   0.7610401   1.0164559  )
        10           O   tau(  10) = (   0.2389599   0.5011105   1.0164559  )
        11           O   tau(  11) = (   0.0070918   0.7374880   1.0164559  )
        12           O   tau(  12) = (   0.0088340   0.7405089   1.5135603  )
        13           O   tau(  13) = (   0.5066944   0.7415376   1.5135603  )
        14           O   tau(  14) = (   0.2584624   0.4933056   1.5135603  )
        15           O   tau(  15) = (   0.4985141   0.5014859   0.7773880  )
        16           O   tau(  16) = (   0.4985141   0.5014859   1.2555238  )
        17           Sr  tau(  17) = (   0.7482398   0.7454518   0.7706582  )
        18           Sr  tau(  18) = (   0.7482398   0.7454518   1.2622536  )
        19           Sr  tau(  19) = (   0.7441748   0.2558252   0.7725755  )
        20           Sr  tau(  20) = (   0.7441748   0.2558252   1.2603363  )
        21           O   tau(  21) = (   0.7322655   0.0078049   1.5135603  )
        22           O   tau(  22) = (   0.7558175   0.4996027   1.5135603  )
        23           O   tau(  23) = (   0.5003973   0.2441825   1.5135603  )
        24           O   tau(  24) = (   0.7527966   0.4978604   1.0164559  )
        25           O   tau(  25) = (   0.5021396   0.2472034   1.0164559  )
        26           O   tau(  26) = (   0.7517679   0.0000000   1.0164559  )
        27           O   tau(  27) = (   0.0114961   0.4948124   1.7455321  )
        28           O   tau(  28) = (   0.0048226   0.0077944   1.7715967  )
        29           Sr  tau(  29) = (   0.2545482   0.2517602   1.7648669  )
        30           O   tau(  30) = (   0.5048017   0.0015068   1.7786929  )
        31           Co  tau(  31) = (   0.0056869   0.5006215   1.0164559  )
        32           Co  tau(  32) = (   0.0065315   0.4997770   1.5135603  )
        33           Co  tau(  33) = (   0.0061999   0.0064171   1.0164559  )
        34           Co  tau(  34) = (   0.0000000   0.0126169   1.5135603  )
        35           O   tau(  35) = (   0.0114961   0.4948124   1.2815885  )
        36           O   tau(  36) = (   0.0114961   0.4948124   0.7513233  )
        37           O   tau(  37) = (   0.0051979   0.2673486   1.0164559  )
        38           O   tau(  38) = (   0.0130029   0.2478461   1.5135603  )
        39           O   tau(  39) = (   0.0048226   0.0077944   0.7773880  )
        40           O   tau(  40) = (   0.0048226   0.0077944   1.2555238  )
        41           Sr  tau(  41) = (   0.2545482   0.2517602   0.7706582  )
        42           Sr  tau(  42) = (   0.2545482   0.2517602   1.2622536  )
        43           Co  tau(  43) = (   0.4989925   0.0073160   1.5135603  )
        44           Co  tau(  44) = (   0.4998370   0.0064714   1.0164559  )
        45           O   tau(  45) = (   0.5048017   0.0015068   0.7844841  )
        46           O   tau(  46) = (   0.5048017   0.0015068   1.2484277  )
        47           O   tau(  47) = (   0.2621260   0.0059111   1.5135603  )
        48           O   tau(  48) = (   0.2591051   0.0041689   1.0164559  )
        49           H   tau(  49) = (   0.4264937   0.1421646   2.1602013  )

   Crystallographic axes

     site n.     atom                  positions (cryst. coord.)
         1           Sr  tau(   1) = (  0.2508693  0.7491307  0.6943562  )
         2           O   tau(   2) = (  0.4985141  0.5014859  0.6999492  )
         3           Sr  tau(   3) = (  0.7482398  0.7454518  0.6972903  )
         4           Sr  tau(   4) = (  0.7441748  0.2558252  0.6980478  )
         5           Sr  tau(   5) = (  0.2508693  0.7491307  0.5016443  )
         6           Sr  tau(   6) = (  0.2508693  0.7491307  0.3015492  )
         7           Co  tau(   7) = (  0.4998914  0.5001086  0.4015968  )
         8           Co  tau(   8) = (  0.4936915  0.5063085  0.5980003  )
         9           O   tau(   9) = (  0.4988895  0.7610401  0.4015968  )
        10           O   tau(  10) = (  0.2389599  0.5011105  0.4015968  )
        11           O   tau(  11) = (  0.0070918  0.7374880  0.4015968  )
        12           O   tau(  12) = (  0.0088340  0.7405089  0.5980003  )
        13           O   tau(  13) = (  0.5066944  0.7415376  0.5980003  )
        14           O   tau(  14) = (  0.2584624  0.4933056  0.5980003  )
        15           O   tau(  15) = (  0.4985141  0.5014859  0.3071422  )
        16           O   tau(  16) = (  0.4985141  0.5014859  0.4960513  )
        17           Sr  tau(  17) = (  0.7482398  0.7454518  0.3044833  )
        18           Sr  tau(  18) = (  0.7482398  0.7454518  0.4987103  )
        19           Sr  tau(  19) = (  0.7441748  0.2558252  0.3052408  )
        20           Sr  tau(  20) = (  0.7441748  0.2558252  0.4979527  )
        21           O   tau(  21) = (  0.7322655  0.0078049  0.5980003  )
        22           O   tau(  22) = (  0.7558175  0.4996027  0.5980003  )
        23           O   tau(  23) = (  0.5003973  0.2441825  0.5980003  )
        24           O   tau(  24) = (  0.7527966  0.4978604  0.4015968  )
        25           O   tau(  25) = (  0.5021396  0.2472034  0.4015968  )
        26           O   tau(  26) = (  0.7517679  0.0000000  0.4015968  )
        27           O   tau(  27) = (  0.0114961  0.4948124  0.6896512  )
        28           O   tau(  28) = (  0.0048226  0.0077944  0.6999492  )
        29           Sr  tau(  29) = (  0.2545482  0.2517602  0.6972903  )
        30           O   tau(  30) = (  0.5048017  0.0015068  0.7027529  )
        31           Co  tau(  31) = (  0.0056869  0.5006215  0.4015968  )
        32           Co  tau(  32) = (  0.0065315  0.4997770  0.5980003  )
        33           Co  tau(  33) = (  0.0061999  0.0064171  0.4015968  )
        34           Co  tau(  34) = (  0.0000000  0.0126169  0.5980003  )
        35           O   tau(  35) = (  0.0114961  0.4948124  0.5063494  )
        36           O   tau(  36) = (  0.0114961  0.4948124  0.2968442  )
        37           O   tau(  37) = (  0.0051979  0.2673486  0.4015968  )
        38           O   tau(  38) = (  0.0130029  0.2478461  0.5980003  )
        39           O   tau(  39) = (  0.0048226  0.0077944  0.3071422  )
        40           O   tau(  40) = (  0.0048226  0.0077944  0.4960513  )
        41           Sr  tau(  41) = (  0.2545482  0.2517602  0.3044833  )
        42           Sr  tau(  42) = (  0.2545482  0.2517602  0.4987103  )
        43           Co  tau(  43) = (  0.4989925  0.0073160  0.5980003  )
        44           Co  tau(  44) = (  0.4998370  0.0064714  0.4015968  )
        45           O   tau(  45) = (  0.5048017  0.0015068  0.3099459  )
        46           O   tau(  46) = (  0.5048017  0.0015068  0.4932477  )
        47           O   tau(  47) = (  0.2621260  0.0059111  0.5980003  )
        48           O   tau(  48) = (  0.2591051  0.0041689  0.4015968  )
        49           H   tau(  49) = (  0.4264937  0.1421646  0.8534850  )

     number of k points=    10  Gaussian smearing, width (Ry)=  0.0700
                       cart. coord. in units 2pi/alat
        k(    1) = (   0.0000000   0.0000000   0.0000000), wk =   0.1250000
        k(    2) = (   0.0000000   0.2500000   0.0000000), wk =   0.2500000
        k(    3) = (   0.0000000  -0.5000000   0.0000000), wk =   0.1250000
        k(    4) = (   0.2500000   0.2500000   0.0000000), wk =   0.2500000
        k(    5) = (   0.2500000  -0.5000000   0.0000000), wk =   0.2500000
        k(    6) = (  -0.5000000  -0.5000000   0.0000000), wk =   0.1250000
        k(    7) = (   0.2500000   0.0000000   0.0000000), wk =   0.2500000
        k(    8) = (  -0.5000000   0.0000000   0.0000000), wk =   0.1250000
        k(    9) = (  -0.2500000   0.2500000   0.0000000), wk =   0.2500000
        k(   10) = (  -0.5000000   0.2500000   0.0000000), wk =   0.2500000

                       cryst. coord.
        k(    1) = (   0.0000000   0.0000000   0.0000000), wk =   0.1250000
        k(    2) = (   0.0000000   0.2500000   0.0000000), wk =   0.2500000
        k(    3) = (   0.0000000  -0.5000000   0.0000000), wk =   0.1250000
        k(    4) = (   0.2500000   0.2500000   0.0000000), wk =   0.2500000
        k(    5) = (   0.2500000  -0.5000000   0.0000000), wk =   0.2500000
        k(    6) = (  -0.5000000  -0.5000000   0.0000000), wk =   0.1250000
        k(    7) = (   0.2500000   0.0000000   0.0000000), wk =   0.2500000
        k(    8) = (  -0.5000000   0.0000000   0.0000000), wk =   0.1250000
        k(    9) = (  -0.2500000   0.2500000   0.0000000), wk =   0.2500000
        k(   10) = (  -0.5000000   0.2500000   0.0000000), wk =   0.2500000

     Dense  grid:  1474595 G-vectors     FFT dimensions: ( 108, 108, 270)

     Smooth grid:   521381 G-vectors     FFT dimensions: (  75,  75, 192)

     Dynamical RAM for                 wfc:      10.61 MB

     Dynamical RAM for     wfc (w. buffer):      63.63 MB

     Dynamical RAM for           str. fact:       3.75 MB

     Dynamical RAM for           local pot:       0.00 MB

     Dynamical RAM for          nlocal pot:      24.28 MB

     Dynamical RAM for                qrad:       7.03 MB

     Dynamical RAM for          rho,v,vnew:       6.02 MB

     Dynamical RAM for               rhoin:       2.01 MB

     Dynamical RAM for            rho*nmix:      15.00 MB

     Dynamical RAM for           G-vectors:       3.68 MB

     Dynamical RAM for          h,s,v(r/c):       1.32 MB

     Dynamical RAM for          <psi|beta>:       2.29 MB

     Dynamical RAM for                 psi:      21.21 MB

     Dynamical RAM for                hpsi:      21.21 MB

     Dynamical RAM for                spsi:      21.21 MB

     Dynamical RAM for      wfcinit/wfcrot:      34.09 MB

     Dynamical RAM for           addusdens:     100.79 MB

     Estimated static dynamical RAM per process >     120.42 MB

     Estimated max dynamical RAM per process >     236.21 MB

     Estimated total dynamical RAM >      10.72 GB

     Check: negative core charge=   -0.000004

     Initial potential from superposition of free atoms

     starting charge     416.5961, renormalised to     425.0000

     negative rho (up, down):  7.827E-01 0.000E+00
     Starting wfcs are  373 randomized atomic wfcs
     Checking if some PAW data can be deallocated... 
       PAW data deallocated on   20 nodes for type:  2

     total cpu time spent up to now is        8.5 secs

     Self-consistent Calculation

     iteration #  1     ecut=    60.00 Ry     beta= 0.15
     Davidson diagonalization with overlap

---- Real-time Memory Report at c_bands before calling an iterative solver
             0 MiB given to the printing process from OS
             0 MiB allocation reported by mallinfo(arena+hblkhd)
        170482 MiB available memory on the node where the printing process lives
------------------
     ethr =  1.00E-02,  avg # of iterations =  2.0

     negative rho (up, down):  7.719E-01 0.000E+00

     total cpu time spent up to now is       22.9 secs

     total energy              =   -4404.79120354 Ry
     estimated scf accuracy    <      42.17668990 Ry

     iteration #  2     ecut=    60.00 Ry     beta= 0.15
     Davidson diagonalization with overlap

---- Real-time Memory Report at c_bands before calling an iterative solver
             0 MiB given to the printing process from OS
             0 MiB allocation reported by mallinfo(arena+hblkhd)
        170707 MiB available memory on the node where the printing process lives
------------------
     ethr =  9.92E-03,  avg # of iterations =  1.0

     negative rho (up, down):  7.533E-01 0.000E+00

     total cpu time spent up to now is       35.1 secs

     total energy              =   -4400.01157197 Ry
     estimated scf accuracy    <      26.75024352 Ry

     iteration #  3     ecut=    60.00 Ry     beta= 0.15
     Davidson diagonalization with overlap

---- Real-time Memory Report at c_bands before calling an iterative solver
             0 MiB given to the printing process from OS
             0 MiB allocation reported by mallinfo(arena+hblkhd)
        169961 MiB available memory on the node where the printing process lives
------------------
     ethr =  6.29E-03,  avg # of iterations =  2.0

     negative rho (up, down):  7.545E-01 0.000E+00

     total cpu time spent up to now is       48.4 secs

     total energy              =   -4402.39574471 Ry
     estimated scf accuracy    <      49.58786159 Ry

     iteration #  4     ecut=    60.00 Ry     beta= 0.15
     Davidson diagonalization with overlap

---- Real-time Memory Report at c_bands before calling an iterative solver
             0 MiB given to the printing process from OS
             0 MiB allocation reported by mallinfo(arena+hblkhd)
        169852 MiB available memory on the node where the printing process lives
------------------
     ethr =  6.29E-03,  avg # of iterations =  1.0

     negative rho (up, down):  7.410E-01 0.000E+00

     total cpu time spent up to now is       60.2 secs

     total energy              =   -4401.66886534 Ry
     estimated scf accuracy    <      29.61292261 Ry

     iteration #  5     ecut=    60.00 Ry     beta= 0.15
     Davidson diagonalization with overlap

---- Real-time Memory Report at c_bands before calling an iterative solver
             0 MiB given to the printing process from OS
             0 MiB allocation reported by mallinfo(arena+hblkhd)
        169835 MiB available memory on the node where the printing process lives
------------------
     ethr =  6.29E-03,  avg # of iterations =  1.0

     negative rho (up, down):  7.469E-01 0.000E+00

     total cpu time spent up to now is       72.0 secs

     total energy              =   -4399.88566108 Ry
     estimated scf accuracy    <      44.65029297 Ry

     iteration #  6     ecut=    60.00 Ry     beta= 0.15
     Davidson diagonalization with overlap

---- Real-time Memory Report at c_bands before calling an iterative solver
             0 MiB given to the printing process from OS
             0 MiB allocation reported by mallinfo(arena+hblkhd)
        169813 MiB available memory on the node where the printing process lives
------------------
     ethr =  6.29E-03,  avg # of iterations =  1.0

     negative rho (up, down):  7.419E-01 0.000E+00

     total cpu time spent up to now is       83.9 secs

     total energy              =   -4400.65934065 Ry
     estimated scf accuracy    <      11.88033522 Ry

     iteration #  7     ecut=    60.00 Ry     beta= 0.15
     Davidson diagonalization with overlap

---- Real-time Memory Report at c_bands before calling an iterative solver
             0 MiB given to the printing process from OS
             0 MiB allocation reported by mallinfo(arena+hblkhd)
        169796 MiB available memory on the node where the printing process lives
------------------
     ethr =  2.80E-03,  avg # of iterations =  1.1

     negative rho (up, down):  7.442E-01 0.000E+00

     total cpu time spent up to now is       95.8 secs

     total energy              =   -4400.79830470 Ry
     estimated scf accuracy    <       4.22855678 Ry

     iteration #  8     ecut=    60.00 Ry     beta= 0.15
     Davidson diagonalization with overlap

---- Real-time Memory Report at c_bands before calling an iterative solver
             0 MiB given to the printing process from OS
             0 MiB allocation reported by mallinfo(arena+hblkhd)
        169771 MiB available memory on the node where the printing process lives
------------------
     ethr =  9.95E-04,  avg # of iterations =  1.6

     negative rho (up, down):  7.535E-01 0.000E+00

     total cpu time spent up to now is      108.3 secs

     total energy              =   -4400.33026734 Ry
     estimated scf accuracy    <       3.67751312 Ry

     iteration #  9     ecut=    60.00 Ry     beta= 0.15
     Davidson diagonalization with overlap

---- Real-time Memory Report at c_bands before calling an iterative solver
             0 MiB given to the printing process from OS
             0 MiB allocation reported by mallinfo(arena+hblkhd)
        169743 MiB available memory on the node where the printing process lives
------------------
     ethr =  8.65E-04,  avg # of iterations =  4.4

     negative rho (up, down):  7.764E-01 0.000E+00

     total cpu time spent up to now is      123.8 secs

     total energy              =   -4399.90167639 Ry
     estimated scf accuracy    <      39.73436422 Ry

     iteration # 10     ecut=    60.00 Ry     beta= 0.15
     Davidson diagonalization with overlap

---- Real-time Memory Report at c_bands before calling an iterative solver
             0 MiB given to the printing process from OS
             0 MiB allocation reported by mallinfo(arena+hblkhd)
        169657 MiB available memory on the node where the printing process lives
------------------
     ethr =  8.65E-04,  avg # of iterations =  9.0

     negative rho (up, down):  7.787E-01 0.000E+00

     total cpu time spent up to now is      141.8 secs

     total energy              =   -4399.78862648 Ry
     estimated scf accuracy    <      12.43018509 Ry

     iteration # 11     ecut=    60.00 Ry     beta= 0.15
     Davidson diagonalization with overlap

---- Real-time Memory Report at c_bands before calling an iterative solver
             0 MiB given to the printing process from OS
             0 MiB allocation reported by mallinfo(arena+hblkhd)
        169297 MiB available memory on the node where the printing process lives
------------------
     ethr =  8.65E-04,  avg # of iterations =  1.6

     negative rho (up, down):  7.811E-01 0.000E+00

     total cpu time spent up to now is      154.9 secs

     total energy              =   -4400.11725678 Ry
     estimated scf accuracy    <       1.22124383 Ry

     iteration # 12     ecut=    60.00 Ry     beta= 0.15
     Davidson diagonalization with overlap

---- Real-time Memory Report at c_bands before calling an iterative solver
             0 MiB given to the printing process from OS
             0 MiB allocation reported by mallinfo(arena+hblkhd)
        169316 MiB available memory on the node where the printing process lives
------------------
     ethr =  2.87E-04,  avg # of iterations =  3.4

     negative rho (up, down):  7.902E-01 0.000E+00

     total cpu time spent up to now is      169.9 secs

     total energy              =   -4400.07630002 Ry
     estimated scf accuracy    <       0.70348271 Ry

     iteration # 13     ecut=    60.00 Ry     beta= 0.15
     Davidson diagonalization with overlap

---- Real-time Memory Report at c_bands before calling an iterative solver
             0 MiB given to the printing process from OS
             0 MiB allocation reported by mallinfo(arena+hblkhd)
        169299 MiB available memory on the node where the printing process lives
------------------
     ethr =  1.66E-04,  avg # of iterations =  5.9

     negative rho (up, down):  8.013E-01 0.000E+00

     total cpu time spent up to now is      185.6 secs

     total energy              =   -4400.08113750 Ry
     estimated scf accuracy    <       1.01510258 Ry

     iteration # 14     ecut=    60.00 Ry     beta= 0.15
     Davidson diagonalization with overlap

---- Real-time Memory Report at c_bands before calling an iterative solver
             0 MiB given to the printing process from OS
             0 MiB allocation reported by mallinfo(arena+hblkhd)
        169274 MiB available memory on the node where the printing process lives
------------------
     ethr =  1.66E-04,  avg # of iterations =  5.8

     negative rho (up, down):  8.045E-01 0.000E+00

     total cpu time spent up to now is      200.8 secs

     total energy              =   -4400.02277154 Ry
     estimated scf accuracy    <       1.46523950 Ry

     iteration # 15     ecut=    60.00 Ry     beta= 0.15
     Davidson diagonalization with overlap

---- Real-time Memory Report at c_bands before calling an iterative solver
             0 MiB given to the printing process from OS
             0 MiB allocation reported by mallinfo(arena+hblkhd)
        169262 MiB available memory on the node where the printing process lives
------------------
     ethr =  1.66E-04,  avg # of iterations =  3.8

     negative rho (up, down):  8.063E-01 0.000E+00

     total cpu time spent up to now is      215.1 secs

     total energy              =   -4400.04820041 Ry
     estimated scf accuracy    <       0.39081123 Ry

     iteration # 16     ecut=    60.00 Ry     beta= 0.15
     Davidson diagonalization with overlap

---- Real-time Memory Report at c_bands before calling an iterative solver
             0 MiB given to the printing process from OS
             0 MiB allocation reported by mallinfo(arena+hblkhd)
        169252 MiB available memory on the node where the printing process lives
------------------
     ethr =  9.20E-05,  avg # of iterations =  1.8

     negative rho (up, down):  8.088E-01 0.000E+00

     total cpu time spent up to now is      228.5 secs

     total energy              =   -4400.01106501 Ry
     estimated scf accuracy    <       0.31211699 Ry

     iteration # 17     ecut=    60.00 Ry     beta= 0.15
     Davidson diagonalization with overlap

---- Real-time Memory Report at c_bands before calling an iterative solver
             0 MiB given to the printing process from OS
             0 MiB allocation reported by mallinfo(arena+hblkhd)
        169256 MiB available memory on the node where the printing process lives
------------------
     ethr =  7.34E-05,  avg # of iterations =  6.0

     negative rho (up, down):  8.157E-01 0.000E+00

     total cpu time spent up to now is      243.9 secs

     total energy              =   -4399.95060130 Ry
     estimated scf accuracy    <       0.31498514 Ry

     iteration # 18     ecut=    60.00 Ry     beta= 0.15
     Davidson diagonalization with overlap

---- Real-time Memory Report at c_bands before calling an iterative solver
             0 MiB given to the printing process from OS
             0 MiB allocation reported by mallinfo(arena+hblkhd)
        169248 MiB available memory on the node where the printing process lives
------------------
     c_bands:  1 eigenvalues not converged
     ethr =  7.34E-05,  avg # of iterations = 14.4

     negative rho (up, down):  8.224E-01 0.000E+00

     total cpu time spent up to now is      262.7 secs

     total energy              =   -4399.94469066 Ry
     estimated scf accuracy    <       0.12789786 Ry

     iteration # 19     ecut=    60.00 Ry     beta= 0.15
     Davidson diagonalization with overlap

---- Real-time Memory Report at c_bands before calling an iterative solver
             0 MiB given to the printing process from OS
             0 MiB allocation reported by mallinfo(arena+hblkhd)
        169231 MiB available memory on the node where the printing process lives
------------------
     ethr =  3.01E-05,  avg # of iterations =  6.6

     negative rho (up, down):  8.259E-01 0.000E+00

     total cpu time spent up to now is      278.6 secs

     total energy              =   -4399.93327948 Ry
     estimated scf accuracy    <       0.10025877 Ry

     iteration # 20     ecut=    60.00 Ry     beta= 0.15
     Davidson diagonalization with overlap

---- Real-time Memory Report at c_bands before calling an iterative solver
             0 MiB given to the printing process from OS
             0 MiB allocation reported by mallinfo(arena+hblkhd)
        169205 MiB available memory on the node where the printing process lives
------------------
     ethr =  2.36E-05,  avg # of iterations =  6.9

     negative rho (up, down):  8.171E-01 0.000E+00

     total cpu time spent up to now is      294.1 secs

     total energy              =   -4399.92546478 Ry
     estimated scf accuracy    <       0.08562746 Ry

     iteration # 21     ecut=    60.00 Ry     beta= 0.15
     Davidson diagonalization with overlap

---- Real-time Memory Report at c_bands before calling an iterative solver
             0 MiB given to the printing process from OS
             0 MiB allocation reported by mallinfo(arena+hblkhd)
        169187 MiB available memory on the node where the printing process lives
------------------
     ethr =  2.01E-05,  avg # of iterations =  9.5

     negative rho (up, down):  8.096E-01 0.000E+00

     total cpu time spent up to now is      310.8 secs

     total energy              =   -4399.92298784 Ry
     estimated scf accuracy    <       0.05107686 Ry

     iteration # 22     ecut=    60.00 Ry     beta= 0.15
     Davidson diagonalization with overlap

---- Real-time Memory Report at c_bands before calling an iterative solver
             0 MiB given to the printing process from OS
             0 MiB allocation reported by mallinfo(arena+hblkhd)
        169226 MiB available memory on the node where the printing process lives
------------------
     c_bands:  1 eigenvalues not converged
     ethr =  1.20E-05,  avg # of iterations =  5.7

     negative rho (up, down):  7.974E-01 0.000E+00

     total cpu time spent up to now is      326.3 secs

     total energy              =   -4399.91697662 Ry
     estimated scf accuracy    <       0.03482203 Ry

     iteration # 23     ecut=    60.00 Ry     beta= 0.15
     Davidson diagonalization with overlap

---- Real-time Memory Report at c_bands before calling an iterative solver
             0 MiB given to the printing process from OS
             0 MiB allocation reported by mallinfo(arena+hblkhd)
        169254 MiB available memory on the node where the printing process lives
------------------
     ethr =  8.19E-06,  avg # of iterations = 11.2

     negative rho (up, down):  8.036E-01 0.000E+00

     total cpu time spent up to now is      344.2 secs

     total energy              =   -4399.91606635 Ry
     estimated scf accuracy    <       0.01787945 Ry

     iteration # 24     ecut=    60.00 Ry     beta= 0.15
     Davidson diagonalization with overlap

---- Real-time Memory Report at c_bands before calling an iterative solver
             0 MiB given to the printing process from OS
             0 MiB allocation reported by mallinfo(arena+hblkhd)
        169164 MiB available memory on the node where the printing process lives
------------------
     ethr =  4.21E-06,  avg # of iterations =  9.3

     negative rho (up, down):  8.010E-01 0.000E+00

     total cpu time spent up to now is      360.9 secs

     total energy              =   -4399.91626887 Ry
     estimated scf accuracy    <       0.01145347 Ry

     iteration # 25     ecut=    60.00 Ry     beta= 0.15
     Davidson diagonalization with overlap

---- Real-time Memory Report at c_bands before calling an iterative solver
             0 MiB given to the printing process from OS
             0 MiB allocation reported by mallinfo(arena+hblkhd)
        169107 MiB available memory on the node where the printing process lives
------------------
     ethr =  2.69E-06,  avg # of iterations =  2.0

     negative rho (up, down):  7.922E-01 0.000E+00

     total cpu time spent up to now is      374.5 secs

     total energy              =   -4399.91503473 Ry
     estimated scf accuracy    <       0.00962796 Ry

     iteration # 26     ecut=    60.00 Ry     beta= 0.15
     Davidson diagonalization with overlap

---- Real-time Memory Report at c_bands before calling an iterative solver
             0 MiB given to the printing process from OS
             0 MiB allocation reported by mallinfo(arena+hblkhd)
        169174 MiB available memory on the node where the printing process lives
------------------
     ethr =  2.27E-06,  avg # of iterations =  5.8

     negative rho (up, down):  7.946E-01 0.000E+00

     total cpu time spent up to now is      389.9 secs

     total energy              =   -4399.91419308 Ry
     estimated scf accuracy    <       0.00542207 Ry

     iteration # 27     ecut=    60.00 Ry     beta= 0.15
     Davidson diagonalization with overlap

---- Real-time Memory Report at c_bands before calling an iterative solver
             0 MiB given to the printing process from OS
             0 MiB allocation reported by mallinfo(arena+hblkhd)
        169173 MiB available memory on the node where the printing process lives
------------------
     ethr =  1.28E-06,  avg # of iterations = 12.3

     negative rho (up, down):  7.991E-01 0.000E+00

     total cpu time spent up to now is      409.0 secs

     total energy              =   -4399.91465426 Ry
     estimated scf accuracy    <       0.00145300 Ry

     iteration # 28     ecut=    60.00 Ry     beta= 0.15
     Davidson diagonalization with overlap

---- Real-time Memory Report at c_bands before calling an iterative solver
             0 MiB given to the printing process from OS
             0 MiB allocation reported by mallinfo(arena+hblkhd)
        169088 MiB available memory on the node where the printing process lives
------------------
     ethr =  3.42E-07,  avg # of iterations =  9.5

     negative rho (up, down):  7.954E-01 0.000E+00

     total cpu time spent up to now is      425.9 secs

     total energy              =   -4399.91447967 Ry
     estimated scf accuracy    <       0.00067269 Ry

     iteration # 29     ecut=    60.00 Ry     beta= 0.15
     Davidson diagonalization with overlap

---- Real-time Memory Report at c_bands before calling an iterative solver
             0 MiB given to the printing process from OS
             0 MiB allocation reported by mallinfo(arena+hblkhd)
        169013 MiB available memory on the node where the printing process lives
------------------
     ethr =  1.58E-07,  avg # of iterations =  7.9

     negative rho (up, down):  7.954E-01 0.000E+00

     total cpu time spent up to now is      441.8 secs

     total energy              =   -4399.91446606 Ry
     estimated scf accuracy    <       0.00032205 Ry

     iteration # 30     ecut=    60.00 Ry     beta= 0.15
     Davidson diagonalization with overlap

---- Real-time Memory Report at c_bands before calling an iterative solver
             0 MiB given to the printing process from OS
             0 MiB allocation reported by mallinfo(arena+hblkhd)
        169066 MiB available memory on the node where the printing process lives
------------------
     ethr =  7.58E-08,  avg # of iterations =  6.0

     negative rho (up, down):  7.946E-01 0.000E+00

     total cpu time spent up to now is      457.5 secs

     total energy              =   -4399.91445884 Ry
     estimated scf accuracy    <       0.00018081 Ry

     iteration # 31     ecut=    60.00 Ry     beta= 0.15
     Davidson diagonalization with overlap

---- Real-time Memory Report at c_bands before calling an iterative solver
             0 MiB given to the printing process from OS
             0 MiB allocation reported by mallinfo(arena+hblkhd)
        169092 MiB available memory on the node where the printing process lives
------------------
     ethr =  4.25E-08,  avg # of iterations =  2.2

     negative rho (up, down):  7.938E-01 0.000E+00

     total cpu time spent up to now is      471.4 secs

     total energy              =   -4399.91447175 Ry
     estimated scf accuracy    <       0.00006903 Ry

     iteration # 32     ecut=    60.00 Ry     beta= 0.15
     Davidson diagonalization with overlap

---- Real-time Memory Report at c_bands before calling an iterative solver
             0 MiB given to the printing process from OS
             0 MiB allocation reported by mallinfo(arena+hblkhd)
        169100 MiB available memory on the node where the printing process lives
------------------
     ethr =  1.62E-08,  avg # of iterations =  2.0

     negative rho (up, down):  7.925E-01 0.000E+00

     total cpu time spent up to now is      485.0 secs

     total energy              =   -4399.91448630 Ry
     estimated scf accuracy    <       0.00004921 Ry

     iteration # 33     ecut=    60.00 Ry     beta= 0.15
     Davidson diagonalization with overlap

---- Real-time Memory Report at c_bands before calling an iterative solver
             0 MiB given to the printing process from OS
             0 MiB allocation reported by mallinfo(arena+hblkhd)
        169107 MiB available memory on the node where the printing process lives
------------------
     ethr =  1.16E-08,  avg # of iterations =  2.9

     negative rho (up, down):  7.922E-01 0.000E+00

     total cpu time spent up to now is      498.9 secs

     total energy              =   -4399.91449411 Ry
     estimated scf accuracy    <       0.00001712 Ry

     iteration # 34     ecut=    60.00 Ry     beta= 0.15
     Davidson diagonalization with overlap

---- Real-time Memory Report at c_bands before calling an iterative solver
             0 MiB given to the printing process from OS
             0 MiB allocation reported by mallinfo(arena+hblkhd)
        169151 MiB available memory on the node where the printing process lives
------------------
     ethr =  4.03E-09,  avg # of iterations =  3.0

     negative rho (up, down):  7.922E-01 0.000E+00

     total cpu time spent up to now is      513.4 secs

     total energy              =   -4399.91449579 Ry
     estimated scf accuracy    <       0.00000739 Ry

     iteration # 35     ecut=    60.00 Ry     beta= 0.15
     Davidson diagonalization with overlap

---- Real-time Memory Report at c_bands before calling an iterative solver
             0 MiB given to the printing process from OS
             0 MiB allocation reported by mallinfo(arena+hblkhd)
        169170 MiB available memory on the node where the printing process lives
------------------
     ethr =  1.74E-09,  avg # of iterations =  2.2

     negative rho (up, down):  7.923E-01 0.000E+00

     total cpu time spent up to now is      527.2 secs

     total energy              =   -4399.91449605 Ry
     estimated scf accuracy    <       0.00000540 Ry

     iteration # 36     ecut=    60.00 Ry     beta= 0.15
     Davidson diagonalization with overlap

---- Real-time Memory Report at c_bands before calling an iterative solver
             0 MiB given to the printing process from OS
             0 MiB allocation reported by mallinfo(arena+hblkhd)
        169185 MiB available memory on the node where the printing process lives
------------------
     ethr =  1.27E-09,  avg # of iterations =  1.8

     negative rho (up, down):  7.923E-01 0.000E+00

     total cpu time spent up to now is      540.8 secs

     total energy              =   -4399.91449595 Ry
     estimated scf accuracy    <       0.00000433 Ry

     iteration # 37     ecut=    60.00 Ry     beta= 0.15
     Davidson diagonalization with overlap

---- Real-time Memory Report at c_bands before calling an iterative solver
             0 MiB given to the printing process from OS
             0 MiB allocation reported by mallinfo(arena+hblkhd)
        169187 MiB available memory on the node where the printing process lives
------------------
     ethr =  1.02E-09,  avg # of iterations =  2.2

     negative rho (up, down):  7.924E-01 0.000E+00

     total cpu time spent up to now is      554.6 secs

     total energy              =   -4399.91449577 Ry
     estimated scf accuracy    <       0.00000366 Ry

     iteration # 38     ecut=    60.00 Ry     beta= 0.15
     Davidson diagonalization with overlap

---- Real-time Memory Report at c_bands before calling an iterative solver
             0 MiB given to the printing process from OS
             0 MiB allocation reported by mallinfo(arena+hblkhd)
        169186 MiB available memory on the node where the printing process lives
------------------
     ethr =  8.61E-10,  avg # of iterations =  2.1

     negative rho (up, down):  7.924E-01 0.000E+00

     total cpu time spent up to now is      568.0 secs

     total energy              =   -4399.91449529 Ry
     estimated scf accuracy    <       0.00000278 Ry

     iteration # 39     ecut=    60.00 Ry     beta= 0.15
     Davidson diagonalization with overlap

---- Real-time Memory Report at c_bands before calling an iterative solver
             0 MiB given to the printing process from OS
             0 MiB allocation reported by mallinfo(arena+hblkhd)
        169185 MiB available memory on the node where the printing process lives
------------------
     ethr =  6.55E-10,  avg # of iterations =  2.2

     negative rho (up, down):  7.924E-01 0.000E+00

     total cpu time spent up to now is      581.2 secs

     total energy              =   -4399.91449469 Ry
     estimated scf accuracy    <       0.00000188 Ry

     iteration # 40     ecut=    60.00 Ry     beta= 0.15
     Davidson diagonalization with overlap

---- Real-time Memory Report at c_bands before calling an iterative solver
             0 MiB given to the printing process from OS
             0 MiB allocation reported by mallinfo(arena+hblkhd)
        169188 MiB available memory on the node where the printing process lives
------------------
     ethr =  4.41E-10,  avg # of iterations =  2.6

     negative rho (up, down):  7.925E-01 0.000E+00

     total cpu time spent up to now is      594.8 secs

     total energy              =   -4399.91449575 Ry
     estimated scf accuracy    <       0.00000085 Ry

     iteration # 41     ecut=    60.00 Ry     beta= 0.15
     Davidson diagonalization with overlap

---- Real-time Memory Report at c_bands before calling an iterative solver
             0 MiB given to the printing process from OS
             0 MiB allocation reported by mallinfo(arena+hblkhd)
        169195 MiB available memory on the node where the printing process lives
------------------
     ethr =  2.00E-10,  avg # of iterations =  3.1

     negative rho (up, down):  7.925E-01 0.000E+00

     total cpu time spent up to now is      608.6 secs

     total energy              =   -4399.91449613 Ry
     estimated scf accuracy    <       0.00000064 Ry

     iteration # 42     ecut=    60.00 Ry     beta= 0.15
     Davidson diagonalization with overlap

---- Real-time Memory Report at c_bands before calling an iterative solver
             0 MiB given to the printing process from OS
             0 MiB allocation reported by mallinfo(arena+hblkhd)
        169195 MiB available memory on the node where the printing process lives
------------------
     ethr =  1.50E-10,  avg # of iterations =  3.1

     negative rho (up, down):  7.925E-01 0.000E+00

     total cpu time spent up to now is      622.5 secs

     total energy              =   -4399.91449611 Ry
     estimated scf accuracy    <       0.00000036 Ry

     iteration # 43     ecut=    60.00 Ry     beta= 0.15
     Davidson diagonalization with overlap

---- Real-time Memory Report at c_bands before calling an iterative solver
             0 MiB given to the printing process from OS
             0 MiB allocation reported by mallinfo(arena+hblkhd)
        169191 MiB available memory on the node where the printing process lives
------------------
     ethr =  8.38E-11,  avg # of iterations =  4.2

     negative rho (up, down):  7.924E-01 0.000E+00

     total cpu time spent up to now is      637.1 secs

     total energy              =   -4399.91449601 Ry
     estimated scf accuracy    <       0.00000023 Ry

     iteration # 44     ecut=    60.00 Ry     beta= 0.15
     Davidson diagonalization with overlap

---- Real-time Memory Report at c_bands before calling an iterative solver
             0 MiB given to the printing process from OS
             0 MiB allocation reported by mallinfo(arena+hblkhd)
        169165 MiB available memory on the node where the printing process lives
------------------
     ethr =  5.30E-11,  avg # of iterations =  2.3

     negative rho (up, down):  7.924E-01 0.000E+00

     total cpu time spent up to now is      650.5 secs

     total energy              =   -4399.91449601 Ry
     estimated scf accuracy    <       0.00000009 Ry

     iteration # 45     ecut=    60.00 Ry     beta= 0.15
     Davidson diagonalization with overlap

---- Real-time Memory Report at c_bands before calling an iterative solver
             0 MiB given to the printing process from OS
             0 MiB allocation reported by mallinfo(arena+hblkhd)
        169168 MiB available memory on the node where the printing process lives
------------------
     ethr =  2.22E-11,  avg # of iterations =  1.6

     negative rho (up, down):  7.924E-01 0.000E+00

     total cpu time spent up to now is      663.6 secs

     total energy              =   -4399.91449608 Ry
     estimated scf accuracy    <       0.00000007 Ry

     iteration # 46     ecut=    60.00 Ry     beta= 0.15
     Davidson diagonalization with overlap

---- Real-time Memory Report at c_bands before calling an iterative solver
             0 MiB given to the printing process from OS
             0 MiB allocation reported by mallinfo(arena+hblkhd)
        169171 MiB available memory on the node where the printing process lives
------------------
     ethr =  1.75E-11,  avg # of iterations =  2.2

     negative rho (up, down):  7.924E-01 0.000E+00

     total cpu time spent up to now is      677.2 secs

     total energy              =   -4399.91449618 Ry
     estimated scf accuracy    <       0.00000003 Ry

     iteration # 47     ecut=    60.00 Ry     beta= 0.15
     Davidson diagonalization with overlap

---- Real-time Memory Report at c_bands before calling an iterative solver
             0 MiB given to the printing process from OS
             0 MiB allocation reported by mallinfo(arena+hblkhd)
        169170 MiB available memory on the node where the printing process lives
------------------
     ethr =  7.83E-12,  avg # of iterations =  4.2

     negative rho (up, down):  7.924E-01 0.000E+00

     total cpu time spent up to now is      692.1 secs

     End of self-consistent calculation

          k = 0.0000 0.0000 0.0000 ( 65197 PWs)   bands (ev):

   -92.7096 -92.6541 -92.5631 -92.5129 -92.4571 -92.4159 -92.3983 -92.2757
   -56.0630 -56.0406 -55.9206 -55.9102 -55.8999 -55.8970 -55.8587 -55.8324
   -55.8168 -55.8154 -55.8053 -55.7648 -55.7463 -55.7081 -55.6894 -55.6572
   -55.6463 -55.6041 -55.6021 -55.6011 -55.5927 -55.5504 -55.5287 -55.4426
   -31.2862 -31.2666 -31.1654 -31.1246 -31.0374 -31.0003 -30.9407 -30.6432
   -29.8584 -29.8143 -29.7884 -29.6796 -15.0899 -15.0490 -14.9671 -14.8363
   -14.6482 -14.5233 -14.2300 -14.2115 -14.1805 -14.1364 -14.0908 -14.0797
   -14.0715 -14.0530 -14.0361 -13.9996 -13.9408 -13.7900 -13.6165 -13.5787
   -13.5468 -13.5214 -13.4999 -13.4472 -13.4125 -13.3305 -13.2592 -13.1642
   -13.1481 -13.1188 -13.1053 -13.0838 -13.0656 -13.0349 -13.0134 -13.0006
   -12.9693 -12.9486 -12.9428 -12.9283 -12.9074 -12.8895 -12.8594 -12.8273
   -12.8026 -12.6246 -12.6171 -12.5843 -12.3506 -12.2049 -12.0349 -11.9680
   -11.8713 -11.7975 -11.7861 -11.7632 -11.7454 -11.6818 -11.6644 -11.6301
   -11.6014 -11.4887 -11.4091 -11.4056  -2.9515  -2.7185  -2.4891  -2.3427
    -2.2790  -2.1364  -1.8297  -1.8158  -1.7954  -1.7126  -1.6929  -1.6248
    -1.6082  -1.5669  -1.5233  -1.3413  -1.1189  -1.0886  -0.9397  -0.9258
    -0.8814  -0.8625  -0.8174  -0.8014  -0.7435  -0.7167  -0.6450  -0.6331
    -0.5561  -0.4248  -0.4114  -0.3841  -0.3031  -0.2988  -0.2790  -0.2118
    -0.1389  -0.0935  -0.0439  -0.0165   0.0442   0.1182   0.1709   0.1898
     0.2022   0.4587   0.4732   0.6442   0.7140   0.7794   0.8193   0.9116
     0.9260   0.9404   1.0111   1.0383   1.0723   1.1319   1.2640   1.3206
     1.3409   1.3596   1.3718   1.4381   1.5128   1.6144   1.6247   1.6907
     1.7058   1.7472   1.7635   1.7710   1.8287   1.8824   1.8922   1.9240
     1.9634   2.0142   2.1460   2.2312   2.2735   2.2858   2.4406   2.4546
     2.5023   2.5045   2.6103   2.6467   2.6711   2.6906   2.7055   2.7601
     2.8207   2.9044   2.9294   2.9422   2.9489   3.0171   3.0215   3.0442
     3.0525   3.0606   3.0738   3.0800   3.0921   3.0982   3.1119   3.1200
     3.1277   3.1479   3.1693   3.1740   3.1865   3.2379   3.3284   3.4235
     4.0988   4.4242   4.7648   4.8628   5.0286   5.7680   5.9377   5.9885
     5.9942   6.3053   6.3527   6.4811   6.4900   6.7331   7.0039   7.0914
     7.1232   7.3071   7.3456   7.5791   7.6549   7.6752   7.7101   7.8939
     7.9426   8.0912   8.1117   8.1607   8.4808   8.6113   8.7346   8.8553

     occupation numbers 
     1.0000   1.0000   1.0000   1.0000   1.0000   1.0000   1.0000   1.0000
     1.0000   1.0000   1.0000   1.0000   1.0000   1.0000   1.0000   1.0000
     1.0000   1.0000   1.0000   1.0000   1.0000   1.0000   1.0000   1.0000
     1.0000   1.0000   1.0000   1.0000   1.0000   1.0000   1.0000   1.0000
     1.0000   1.0000   1.0000   1.0000   1.0000   1.0000   1.0000   1.0000
     1.0000   1.0000   1.0000   1.0000   1.0000   1.0000   1.0000   1.0000
     1.0000   1.0000   1.0000   1.0000   1.0000   1.0000   1.0000   1.0000
     1.0000   1.0000   1.0000   1.0000   1.0000   1.0000   1.0000   1.0000
     1.0000   1.0000   1.0000   1.0000   1.0000   1.0000   1.0000   1.0000
     1.0000   1.0000   1.0000   1.0000   1.0000   1.0000   1.0000   1.0000
     1.0000   1.0000   1.0000   1.0000   1.0000   1.0000   1.0000   1.0000
     1.0000   1.0000   1.0000   1.0000   1.0000   1.0000   1.0000   1.0000
     1.0000   1.0000   1.0000   1.0000   1.0000   1.0000   1.0000   1.0000
     1.0000   1.0000   1.0000   1.0000   1.0000   1.0000   1.0000   1.0000
     1.0000   1.0000   1.0000   1.0000   1.0000   1.0000   1.0000   1.0000
     1.0000   1.0000   1.0000   1.0000   1.0000   1.0000   1.0000   1.0000
     1.0000   1.0000   1.0000   1.0000   1.0000   1.0000   1.0000   1.0000
     1.0000   1.0000   1.0000   1.0000   1.0000   1.0000   1.0000   1.0000
     1.0000   1.0000   1.0000   1.0000   1.0000   1.0000   1.0000   1.0000
     1.0000   1.0000   1.0000   1.0000   0.9999   0.9999   0.9999   0.9998
     0.9998   0.9998   0.9997   0.9996   0.9996   0.9994   0.9989   0.9985
     0.9983   0.9982   0.9981   0.9974   0.9963   0.9943   0.9940   0.9922
     0.9917   0.9902   0.9895   0.9892   0.9865   0.9835   0.9829   0.9808
     0.9779   0.9736   0.9591   0.9467   0.9396   0.9374   0.9037   0.9002
     0.8872   0.8866   0.8534   0.8407   0.8317   0.8243   0.8186   0.7964
     0.7700   0.7306   0.7182   0.7117   0.7083   0.6726   0.6703   0.6580
     0.6534   0.6490   0.6417   0.6383   0.6315   0.6281   0.6203   0.6158
     0.6114   0.5999   0.5875   0.5848   0.5776   0.5475   0.4940   0.4379
     0.1232   0.0503   0.0159   0.0109   0.0055   0.0001   0.0001   0.0000
     0.0000   0.0000   0.0000   0.0000   0.0000   0.0000   0.0000   0.0000
     0.0000   0.0000   0.0000   0.0000   0.0000   0.0000   0.0000   0.0000
     0.0000   0.0000   0.0000   0.0000   0.0000   0.0000   0.0000   0.0000

          k = 0.0000 0.2500 0.0000 ( 65257 PWs)   bands (ev):

   -92.7096 -92.6541 -92.5631 -92.5129 -92.4571 -92.4159 -92.3983 -92.2757
   -56.0630 -56.0406 -55.9206 -55.9102 -55.8999 -55.8970 -55.8587 -55.8324
   -55.8168 -55.8154 -55.8053 -55.7648 -55.7463 -55.7081 -55.6894 -55.6572
   -55.6463 -55.6041 -55.6021 -55.6011 -55.5927 -55.5504 -55.5287 -55.4426
   -31.2861 -31.2665 -31.1652 -31.1248 -31.0375 -31.0005 -30.9406 -30.6434
   -29.8578 -29.8140 -29.7891 -29.6800 -15.0533 -15.0225 -14.9419 -14.8072
   -14.6882 -14.5147 -14.3747 -14.1951 -14.1639 -14.1407 -14.1125 -14.0554
   -14.0481 -14.0326 -14.0182 -13.9765 -13.8599 -13.8212 -13.6569 -13.6420
   -13.5887 -13.5532 -13.5130 -13.4642 -13.4242 -13.3522 -13.3165 -13.2668
   -13.2143 -13.1568 -13.1389 -13.1161 -13.0948 -13.0047 -12.9794 -12.9567
   -12.9415 -12.9173 -12.9099 -12.8808 -12.8682 -12.8496 -12.8057 -12.7600
   -12.7267 -12.6000 -12.5490 -12.5086 -12.4119 -12.2562 -12.0878 -12.0307
   -11.8368 -11.7942 -11.7662 -11.7376 -11.7209 -11.6738 -11.6624 -11.6399
   -11.6064 -11.5029 -11.4507 -11.4401  -2.8162  -2.5941  -2.4568  -2.2747
    -2.2312  -2.0671  -1.8487  -1.7630  -1.7500  -1.6939  -1.5900  -1.5748
    -1.5411  -1.5142  -1.4707  -1.2725  -1.1444  -1.1327  -1.0568  -1.0461
    -0.9416  -0.9109  -0.8541  -0.8297  -0.7874  -0.7247  -0.6986  -0.6659
    -0.6336  -0.6168  -0.5847  -0.5094  -0.4593  -0.4000  -0.2828  -0.2669
    -0.2214  -0.1007  -0.0662  -0.0063   0.0435   0.0986   0.1197   0.1497
     0.2095   0.5056   0.5938   0.6251   0.7118   0.7576   0.7778   0.8986
     0.9174   1.0115   1.0379   1.0657   1.1800   1.2707   1.2959   1.3189
     1.3351   1.3644   1.4250   1.4507   1.4790   1.5270   1.5607   1.5895
     1.6712   1.7032   1.7426   1.7931   1.8510   1.8944   1.9164   1.9418
     1.9641   2.0479   2.1836   2.2535   2.2702   2.3493   2.3955   2.4328
     2.4440   2.5040   2.5454   2.6278   2.6636   2.6812   2.7905   2.8556
     2.8878   2.9144   2.9323   2.9509   2.9580   2.9653   2.9830   3.0037
     3.0061   3.0264   3.0313   3.0404   3.0585   3.0701   3.0774   3.0992
     3.1096   3.1144   3.1503   3.1669   3.2275   3.6053   3.6460   3.8682
     4.2840   4.4260   4.6981   5.0200   5.0531   5.6275   5.7557   5.8894
     5.9843   6.0834   6.1016   6.1791   6.5969   6.8934   6.9271   7.1078
     7.3032   7.3279   7.4790   7.4941   7.6391   7.7403   7.8090   7.9700
     8.0168   8.1095   8.1901   8.3092   8.4038   8.5460   8.7429   8.8870

     occupation numbers 
     1.0000   1.0000   1.0000   1.0000   1.0000   1.0000   1.0000   1.0000
     1.0000   1.0000   1.0000   1.0000   1.0000   1.0000   1.0000   1.0000
     1.0000   1.0000   1.0000   1.0000   1.0000   1.0000   1.0000   1.0000
     1.0000   1.0000   1.0000   1.0000   1.0000   1.0000   1.0000   1.0000
     1.0000   1.0000   1.0000   1.0000   1.0000   1.0000   1.0000   1.0000
     1.0000   1.0000   1.0000   1.0000   1.0000   1.0000   1.0000   1.0000
     1.0000   1.0000   1.0000   1.0000   1.0000   1.0000   1.0000   1.0000
     1.0000   1.0000   1.0000   1.0000   1.0000   1.0000   1.0000   1.0000
     1.0000   1.0000   1.0000   1.0000   1.0000   1.0000   1.0000   1.0000
     1.0000   1.0000   1.0000   1.0000   1.0000   1.0000   1.0000   1.0000
     1.0000   1.0000   1.0000   1.0000   1.0000   1.0000   1.0000   1.0000
     1.0000   1.0000   1.0000   1.0000   1.0000   1.0000   1.0000   1.0000
     1.0000   1.0000   1.0000   1.0000   1.0000   1.0000   1.0000   1.0000
     1.0000   1.0000   1.0000   1.0000   1.0000   1.0000   1.0000   1.0000
     1.0000   1.0000   1.0000   1.0000   1.0000   1.0000   1.0000   1.0000
     1.0000   1.0000   1.0000   1.0000   1.0000   1.0000   1.0000   1.0000
     1.0000   1.0000   1.0000   1.0000   1.0000   1.0000   1.0000   1.0000
     1.0000   1.0000   1.0000   1.0000   1.0000   1.0000   1.0000   1.0000
     1.0000   1.0000   1.0000   1.0000   1.0000   1.0000   1.0000   1.0000
     1.0000   1.0000   1.0000   1.0000   0.9999   0.9999   0.9999   0.9998
     0.9998   0.9997   0.9996   0.9996   0.9993   0.9988   0.9987   0.9985
     0.9984   0.9981   0.9975   0.9972   0.9968   0.9961   0.9955   0.9949
     0.9928   0.9918   0.9903   0.9882   0.9853   0.9828   0.9813   0.9795
     0.9778   0.9704   0.9540   0.9431   0.9402   0.9249   0.9147   0.9057
     0.9029   0.8867   0.8744   0.8474   0.8345   0.8279   0.7834   0.7540
     0.7387   0.7257   0.7167   0.7073   0.7037   0.6999   0.6907   0.6798
     0.6785   0.6676   0.6650   0.6601   0.6501   0.6437   0.6397   0.6275
     0.6216   0.6189   0.5985   0.5889   0.5536   0.3350   0.3133   0.2071
     0.0758   0.0500   0.0202   0.0058   0.0050   0.0003   0.0001   0.0001
     0.0000   0.0000   0.0000   0.0000   0.0000   0.0000   0.0000   0.0000
     0.0000   0.0000   0.0000   0.0000   0.0000   0.0000   0.0000   0.0000
     0.0000   0.0000   0.0000   0.0000   0.0000   0.0000   0.0000   0.0000

          k = 0.0000-0.5000 0.0000 ( 65180 PWs)   bands (ev):

   -92.7096 -92.6541 -92.5631 -92.5129 -92.4571 -92.4159 -92.3983 -92.2757
   -56.0630 -56.0406 -55.9206 -55.9102 -55.8999 -55.8970 -55.8587 -55.8324
   -55.8168 -55.8154 -55.8053 -55.7648 -55.7463 -55.7081 -55.6894 -55.6572
   -55.6463 -55.6041 -55.6021 -55.6011 -55.5927 -55.5504 -55.5287 -55.4426
   -31.2859 -31.2664 -31.1650 -31.1250 -31.0377 -31.0007 -30.9405 -30.6435
   -29.8572 -29.8137 -29.7897 -29.6803 -15.0190 -14.9709 -14.9163 -14.7940
   -14.7046 -14.5711 -14.4139 -14.2991 -14.1659 -14.1006 -14.0568 -14.0471
   -13.9988 -13.9806 -13.9310 -13.9160 -13.8860 -13.8544 -13.8310 -13.7779
   -13.5919 -13.5351 -13.5214 -13.4651 -13.4223 -13.3677 -13.3376 -13.2971
   -13.2915 -13.2259 -13.1388 -13.1163 -13.0893 -13.0196 -12.9745 -12.9619
   -12.9367 -12.9138 -12.8907 -12.8685 -12.8491 -12.7265 -12.7139 -12.7044
   -12.6601 -12.5964 -12.5227 -12.4443 -12.3363 -12.3312 -12.1780 -12.1352
   -11.7912 -11.7885 -11.7610 -11.7231 -11.6891 -11.6781 -11.6362 -11.6321
   -11.5880 -11.5245 -11.5109 -11.4970  -2.6014  -2.5422  -2.3907  -2.3188
    -2.0384  -1.9537  -1.8262  -1.6891  -1.6535  -1.6321  -1.5541  -1.5241
    -1.4400  -1.4056  -1.3286  -1.2880  -1.2495  -1.2227  -1.1644  -1.1277
    -1.0827  -1.0467  -1.0114  -0.9790  -0.8676  -0.8231  -0.7893  -0.7875
    -0.7017  -0.6699  -0.6472  -0.5981  -0.5139  -0.4395  -0.3609  -0.3338
    -0.2196  -0.1794  -0.0386  -0.0105   0.0250   0.0745   0.1986   0.2560
     0.3829   0.4495   0.4568   0.5860   0.6303   0.7293   0.8662   0.9717
     1.0021   1.0409   1.0457   1.0827   1.1019   1.1381   1.1541   1.1662
     1.2768   1.3377   1.3616   1.3850   1.6487   1.6830   1.7048   1.8021
     1.8215   1.8581   1.8735   1.9019   1.9180   1.9227   1.9565   1.9896
     2.0180   2.0459   2.0578   2.0877   2.1419   2.2229   2.2563   2.4340
     2.5931   2.6013   2.6198   2.6404   2.6584   2.6694   2.7152   2.7361
     2.7902   2.8108   2.8242   2.8885   2.9014   2.9686   2.9906   3.0004
     3.0016   3.0218   3.0282   3.0328   3.0363   3.0446   3.0594   3.0693
     3.0719   3.1355   3.1413   3.1568   3.2102   4.1141   4.1702   4.1800
     4.2406   4.7245   4.8948   5.0218   5.1404   5.4081   5.4586   5.5841
     5.6942   5.9763   6.0354   6.0408   6.7306   6.8511   6.9522   7.2172
     7.3093   7.3320   7.4280   7.4722   7.7019   7.7454   7.7925   7.9034
     8.1151   8.2625   8.4257   8.5057   8.6619   8.7393   8.8076   8.8143

     occupation numbers 
     1.0000   1.0000   1.0000   1.0000   1.0000   1.0000   1.0000   1.0000
     1.0000   1.0000   1.0000   1.0000   1.0000   1.0000   1.0000   1.0000
     1.0000   1.0000   1.0000   1.0000   1.0000   1.0000   1.0000   1.0000
     1.0000   1.0000   1.0000   1.0000   1.0000   1.0000   1.0000   1.0000
     1.0000   1.0000   1.0000   1.0000   1.0000   1.0000   1.0000   1.0000
     1.0000   1.0000   1.0000   1.0000   1.0000   1.0000   1.0000   1.0000
     1.0000   1.0000   1.0000   1.0000   1.0000   1.0000   1.0000   1.0000
     1.0000   1.0000   1.0000   1.0000   1.0000   1.0000   1.0000   1.0000
     1.0000   1.0000   1.0000   1.0000   1.0000   1.0000   1.0000   1.0000
     1.0000   1.0000   1.0000   1.0000   1.0000   1.0000   1.0000   1.0000
     1.0000   1.0000   1.0000   1.0000   1.0000   1.0000   1.0000   1.0000
     1.0000   1.0000   1.0000   1.0000   1.0000   1.0000   1.0000   1.0000
     1.0000   1.0000   1.0000   1.0000   1.0000   1.0000   1.0000   1.0000
     1.0000   1.0000   1.0000   1.0000   1.0000   1.0000   1.0000   1.0000
     1.0000   1.0000   1.0000   1.0000   1.0000   1.0000   1.0000   1.0000
     1.0000   1.0000   1.0000   1.0000   1.0000   1.0000   1.0000   1.0000
     1.0000   1.0000   1.0000   1.0000   1.0000   1.0000   1.0000   1.0000
     1.0000   1.0000   1.0000   1.0000   1.0000   1.0000   1.0000   1.0000
     1.0000   1.0000   1.0000   1.0000   1.0000   1.0000   1.0000   1.0000
     1.0000   1.0000   1.0000   1.0000   1.0000   0.9999   0.9999   0.9998
     0.9997   0.9996   0.9996   0.9995   0.9995   0.9994   0.9993   0.9993
     0.9988   0.9984   0.9982   0.9980   0.9934   0.9924   0.9917   0.9878
     0.9869   0.9849   0.9840   0.9823   0.9812   0.9809   0.9784   0.9757
     0.9732   0.9706   0.9694   0.9662   0.9597   0.9481   0.9426   0.9054
     0.8592   0.8565   0.8502   0.8429   0.8364   0.8323   0.8147   0.8063
     0.7835   0.7744   0.7684   0.7383   0.7321   0.6982   0.6867   0.6815
     0.6809   0.6701   0.6667   0.6642   0.6623   0.6578   0.6496   0.6442
     0.6428   0.6069   0.6037   0.5948   0.5637   0.1187   0.1029   0.1003
     0.0854   0.0184   0.0096   0.0057   0.0034   0.0010   0.0007   0.0004
     0.0002   0.0000   0.0000   0.0000   0.0000   0.0000   0.0000   0.0000
     0.0000   0.0000   0.0000   0.0000   0.0000   0.0000   0.0000   0.0000
     0.0000   0.0000   0.0000   0.0000   0.0000   0.0000   0.0000   0.0000

          k = 0.2500 0.2500 0.0000 ( 65198 PWs)   bands (ev):

   -92.7096 -92.6541 -92.5631 -92.5129 -92.4571 -92.4159 -92.3983 -92.2757
   -56.0630 -56.0406 -55.9206 -55.9102 -55.8999 -55.8970 -55.8587 -55.8324
   -55.8168 -55.8154 -55.8053 -55.7648 -55.7463 -55.7081 -55.6894 -55.6572
   -55.6463 -55.6041 -55.6021 -55.6011 -55.5927 -55.5504 -55.5287 -55.4426
   -31.2844 -31.2682 -31.1651 -31.1245 -31.0379 -31.0004 -30.9407 -30.6434
   -29.8568 -29.8150 -29.7887 -29.6804 -15.0248 -14.9871 -14.9140 -14.7970
   -14.6804 -14.5542 -14.4806 -14.2782 -14.1185 -14.1062 -14.0715 -14.0419
   -14.0189 -13.9904 -13.9647 -13.9386 -13.8515 -13.8358 -13.6730 -13.6604
   -13.6303 -13.6098 -13.5711 -13.5200 -13.4620 -13.4352 -13.3256 -13.2961
   -13.2380 -13.1531 -13.1169 -13.0991 -13.0548 -13.0282 -12.9938 -12.9649
   -12.9544 -12.9306 -12.8966 -12.8544 -12.8392 -12.8036 -12.7519 -12.7219
   -12.7000 -12.6009 -12.5219 -12.4603 -12.3924 -12.2853 -12.1124 -12.0813
   -11.8092 -11.7774 -11.7666 -11.7596 -11.6970 -11.6617 -11.6552 -11.6201
   -11.6125 -11.5195 -11.4789 -11.4615  -2.6780  -2.4684  -2.3508  -2.2570
    -2.1355  -2.0702  -1.8738  -1.7280  -1.7084  -1.6804  -1.5850  -1.5513
    -1.4575  -1.4294  -1.3798  -1.2482  -1.2000  -1.1286  -1.0832  -1.0387
    -1.0151  -0.9901  -0.9479  -0.9324  -0.8423  -0.7922  -0.7286  -0.6785
    -0.6477  -0.5972  -0.5845  -0.5211  -0.4723  -0.4193  -0.3803  -0.2979
    -0.2420  -0.2151  -0.1747  -0.1201  -0.0429  -0.0081   0.0138   0.0908
     0.1237   0.3974   0.5444   0.5817   0.6364   0.6803   0.7332   0.7901
     0.8509   0.8881   1.1598   1.2288   1.3027   1.3295   1.3743   1.4083
     1.4432   1.4808   1.4982   1.5261   1.5701   1.5767   1.5929   1.6345
     1.6754   1.7159   1.7755   1.8125   1.8186   1.8568   1.8904   1.9415
     1.9705   2.0886   2.1640   2.2000   2.2254   2.2852   2.3578   2.3852
     2.4211   2.4429   2.4572   2.5687   2.6052   2.6938   2.8206   2.8677
     2.8852   2.8908   2.9071   2.9232   2.9358   2.9470   2.9568   2.9656
     2.9777   2.9901   3.0090   3.0148   3.0268   3.0471   3.0614   3.0705
     3.1008   3.4024   3.4988   3.5352   3.6030   3.6665   3.8425   3.9455
     4.2918   4.5149   4.7055   4.9680   5.1667   5.6346   5.6784   5.7373
     5.8290   5.8861   5.9740   6.1675   6.2102   6.7865   6.8962   7.0419
     7.1161   7.5484   7.5982   7.7057   7.7919   7.8653   7.9550   8.0755
     8.1659   8.1962   8.2455   8.3192   8.4363   8.4656   8.6618   8.8277

     occupation numbers 
     1.0000   1.0000   1.0000   1.0000   1.0000   1.0000   1.0000   1.0000
     1.0000   1.0000   1.0000   1.0000   1.0000   1.0000   1.0000   1.0000
     1.0000   1.0000   1.0000   1.0000   1.0000   1.0000   1.0000   1.0000
     1.0000   1.0000   1.0000   1.0000   1.0000   1.0000   1.0000   1.0000
     1.0000   1.0000   1.0000   1.0000   1.0000   1.0000   1.0000   1.0000
     1.0000   1.0000   1.0000   1.0000   1.0000   1.0000   1.0000   1.0000
     1.0000   1.0000   1.0000   1.0000   1.0000   1.0000   1.0000   1.0000
     1.0000   1.0000   1.0000   1.0000   1.0000   1.0000   1.0000   1.0000
     1.0000   1.0000   1.0000   1.0000   1.0000   1.0000   1.0000   1.0000
     1.0000   1.0000   1.0000   1.0000   1.0000   1.0000   1.0000   1.0000
     1.0000   1.0000   1.0000   1.0000   1.0000   1.0000   1.0000   1.0000
     1.0000   1.0000   1.0000   1.0000   1.0000   1.0000   1.0000   1.0000
     1.0000   1.0000   1.0000   1.0000   1.0000   1.0000   1.0000   1.0000
     1.0000   1.0000   1.0000   1.0000   1.0000   1.0000   1.0000   1.0000
     1.0000   1.0000   1.0000   1.0000   1.0000   1.0000   1.0000   1.0000
     1.0000   1.0000   1.0000   1.0000   1.0000   1.0000   1.0000   1.0000
     1.0000   1.0000   1.0000   1.0000   1.0000   1.0000   1.0000   1.0000
     1.0000   1.0000   1.0000   1.0000   1.0000   1.0000   1.0000   1.0000
     1.0000   1.0000   1.0000   1.0000   1.0000   1.0000   1.0000   1.0000
     1.0000   1.0000   1.0000   1.0000   1.0000   1.0000   0.9999   0.9999
     0.9999   0.9998   0.9993   0.9990   0.9986   0.9984   0.9981   0.9977
     0.9973   0.9968   0.9966   0.9961   0.9953   0.9951   0.9948   0.9938
     0.9926   0.9913   0.9890   0.9873   0.9870   0.9850   0.9830   0.9795
     0.9773   0.9661   0.9567   0.9516   0.9477   0.9375   0.9231   0.9170
     0.9086   0.9032   0.8995   0.8672   0.8552   0.8231   0.7700   0.7482
     0.7399   0.7372   0.7292   0.7213   0.7150   0.7093   0.7042   0.6998
     0.6934   0.6870   0.6770   0.6739   0.6674   0.6564   0.6486   0.6435
     0.6266   0.4503   0.3943   0.3737   0.3362   0.3025   0.2182   0.1758
     0.0742   0.0378   0.0197   0.0071   0.0030   0.0003   0.0002   0.0002
     0.0001   0.0001   0.0000   0.0000   0.0000   0.0000   0.0000   0.0000
     0.0000   0.0000   0.0000   0.0000   0.0000   0.0000   0.0000   0.0000
     0.0000   0.0000   0.0000   0.0000   0.0000   0.0000   0.0000   0.0000

          k = 0.2500-0.5000 0.0000 ( 65138 PWs)   bands (ev):

   -92.7096 -92.6541 -92.5631 -92.5129 -92.4571 -92.4159 -92.3983 -92.2757
   -56.0630 -56.0406 -55.9206 -55.9102 -55.8999 -55.8970 -55.8587 -55.8324
   -55.8168 -55.8154 -55.8053 -55.7648 -55.7463 -55.7081 -55.6894 -55.6572
   -55.6463 -55.6041 -55.6021 -55.6011 -55.5927 -55.5504 -55.5287 -55.4426
   -31.2842 -31.2680 -31.1649 -31.1247 -31.0380 -31.0006 -30.9406 -30.6436
   -29.8562 -29.8147 -29.7893 -29.6807 -14.9883 -14.9439 -14.8731 -14.7638
   -14.7282 -14.6107 -14.5185 -14.3945 -14.0826 -14.0331 -14.0054 -13.9824
   -13.9677 -13.9519 -13.9162 -13.9039 -13.8697 -13.8293 -13.8156 -13.7700
   -13.6747 -13.6264 -13.5878 -13.5468 -13.4820 -13.4712 -13.3795 -13.3546
   -13.2152 -13.1505 -13.1368 -13.0833 -13.0393 -13.0025 -12.9900 -12.9650
   -12.9499 -12.9201 -12.9073 -12.8527 -12.8491 -12.7594 -12.7446 -12.6645
   -12.6336 -12.5989 -12.5294 -12.4117 -12.3289 -12.3004 -12.1700 -12.1425
   -11.7849 -11.7728 -11.7616 -11.7345 -11.7033 -11.6744 -11.6340 -11.6055
   -11.5840 -11.5376 -11.5122 -11.5012  -2.4598  -2.3940  -2.2646  -2.1876
    -2.0589  -1.9740  -1.8507  -1.7008  -1.6475  -1.6249  -1.5624  -1.5492
    -1.4507  -1.3854  -1.2998  -1.2505  -1.2412  -1.1776  -1.1351  -1.1006
    -1.0538  -1.0170  -0.9818  -0.9412  -0.9294  -0.8852  -0.8562  -0.8151
    -0.7837  -0.7165  -0.6166  -0.5747  -0.4973  -0.4324  -0.3851  -0.3404
    -0.3192  -0.2671  -0.1036  -0.0939   0.0020   0.0453   0.0510   0.0959
     0.1292   0.1680   0.1969   0.2659   0.5348   0.6299   0.6953   0.7555
     1.0210   1.0452   1.1323   1.1603   1.3258   1.3580   1.4023   1.4252
     1.4411   1.4612   1.5222   1.5671   1.6037   1.6817   1.7759   1.8179
     1.8346   1.8425   1.8824   1.8959   1.9024   1.9467   1.9569   1.9774
     2.0015   2.0256   2.0495   2.0809   2.1404   2.1780   2.2577   2.3977
     2.5458   2.5609   2.5785   2.6068   2.6309   2.6481   2.6825   2.6893
     2.7100   2.8161   2.8503   2.8654   2.8864   2.8957   2.9065   2.9254
     2.9389   2.9569   2.9652   2.9954   3.0080   3.0230   3.0314   3.0396
     3.0514   3.5771   3.5914   3.7342   3.7851   4.1325   4.1747   4.2046
     4.3026   4.7441   4.9170   5.0561   5.1172   5.2971   5.4257   5.5894
     5.6182   5.7573   5.7863   6.0971   6.3925   6.4833   6.6296   6.9685
     7.4660   7.5061   7.6977   7.7843   7.8081   7.8731   8.0331   8.1402
     8.2989   8.3961   8.4413   8.5188   8.5293   8.6113   8.7097   8.7651

     occupation numbers 
     1.0000   1.0000   1.0000   1.0000   1.0000   1.0000   1.0000   1.0000
     1.0000   1.0000   1.0000   1.0000   1.0000   1.0000   1.0000   1.0000
     1.0000   1.0000   1.0000   1.0000   1.0000   1.0000   1.0000   1.0000
     1.0000   1.0000   1.0000   1.0000   1.0000   1.0000   1.0000   1.0000
     1.0000   1.0000   1.0000   1.0000   1.0000   1.0000   1.0000   1.0000
     1.0000   1.0000   1.0000   1.0000   1.0000   1.0000   1.0000   1.0000
     1.0000   1.0000   1.0000   1.0000   1.0000   1.0000   1.0000   1.0000
     1.0000   1.0000   1.0000   1.0000   1.0000   1.0000   1.0000   1.0000
     1.0000   1.0000   1.0000   1.0000   1.0000   1.0000   1.0000   1.0000
     1.0000   1.0000   1.0000   1.0000   1.0000   1.0000   1.0000   1.0000
     1.0000   1.0000   1.0000   1.0000   1.0000   1.0000   1.0000   1.0000
     1.0000   1.0000   1.0000   1.0000   1.0000   1.0000   1.0000   1.0000
     1.0000   1.0000   1.0000   1.0000   1.0000   1.0000   1.0000   1.0000
     1.0000   1.0000   1.0000   1.0000   1.0000   1.0000   1.0000   1.0000
     1.0000   1.0000   1.0000   1.0000   1.0000   1.0000   1.0000   1.0000
     1.0000   1.0000   1.0000   1.0000   1.0000   1.0000   1.0000   1.0000
     1.0000   1.0000   1.0000   1.0000   1.0000   1.0000   1.0000   1.0000
     1.0000   1.0000   1.0000   1.0000   1.0000   1.0000   1.0000   1.0000
     1.0000   1.0000   1.0000   1.0000   1.0000   1.0000   1.0000   1.0000
     1.0000   1.0000   1.0000   1.0000   1.0000   1.0000   1.0000   0.9999
     0.9997   0.9996   0.9994   0.9993   0.9985   0.9982   0.9978   0.9975
     0.9973   0.9971   0.9962   0.9953   0.9946   0.9925   0.9890   0.9871
     0.9862   0.9858   0.9835   0.9827   0.9822   0.9792   0.9784   0.9768
     0.9747   0.9725   0.9702   0.9669   0.9598   0.9548   0.9424   0.9142
     0.8743   0.8696   0.8640   0.8546   0.8463   0.8402   0.8274   0.8248
     0.8168   0.7721   0.7564   0.7493   0.7393   0.7348   0.7296   0.7202
     0.7134   0.7042   0.6999   0.6842   0.6775   0.6695   0.6649   0.6605
     0.6540   0.3504   0.3425   0.2684   0.2441   0.1133   0.1017   0.0941
     0.0719   0.0171   0.0088   0.0049   0.0038   0.0016   0.0009   0.0004
     0.0003   0.0001   0.0001   0.0000   0.0000   0.0000   0.0000   0.0000
     0.0000   0.0000   0.0000   0.0000   0.0000   0.0000   0.0000   0.0000
     0.0000   0.0000   0.0000   0.0000   0.0000   0.0000   0.0000   0.0000

          k =-0.5000-0.5000 0.0000 ( 65132 PWs)   bands (ev):

   -92.7096 -92.6541 -92.5631 -92.5129 -92.4571 -92.4159 -92.3983 -92.2757
   -56.0630 -56.0406 -55.9206 -55.9102 -55.8999 -55.8970 -55.8587 -55.8324
   -55.8168 -55.8154 -55.8053 -55.7648 -55.7463 -55.7081 -55.6894 -55.6572
   -55.6463 -55.6041 -55.6021 -55.6011 -55.5927 -55.5504 -55.5287 -55.4426
   -31.2821 -31.2702 -31.1648 -31.1243 -31.0384 -31.0005 -30.9407 -30.6437
   -29.8552 -29.8157 -29.7889 -29.6811 -14.9413 -14.9165 -14.8000 -14.7858
   -14.6932 -14.6565 -14.6264 -14.4931 -13.9951 -13.9834 -13.9481 -13.9310
   -13.9110 -13.8982 -13.8703 -13.8601 -13.8439 -13.8399 -13.8240 -13.7436
   -13.7355 -13.7117 -13.6795 -13.6725 -13.5678 -13.5481 -13.4136 -13.4070
   -13.1665 -13.1337 -13.0582 -13.0548 -13.0336 -13.0005 -12.9923 -12.9830
   -12.9648 -12.9364 -12.8827 -12.8520 -12.8311 -12.8121 -12.7769 -12.6200
   -12.6092 -12.5970 -12.5458 -12.3831 -12.3253 -12.2654 -12.1589 -12.1553
   -11.7809 -11.7692 -11.7515 -11.7342 -11.6999 -11.6818 -11.6467 -11.5853
   -11.5661 -11.5601 -11.5102 -11.5071  -2.2363  -2.1601  -2.1489  -2.0778
    -2.0389  -1.9605  -1.8925  -1.7679  -1.6508  -1.6204  -1.5825  -1.5241
    -1.4530  -1.4375  -1.3674  -1.3247  -1.2083  -1.1791  -1.1322  -1.1010
    -1.0369  -0.9913  -0.9727  -0.9606  -0.9083  -0.8617  -0.8485  -0.7347
    -0.6773  -0.6291  -0.5804  -0.5557  -0.5452  -0.5073  -0.4641  -0.4313
    -0.4191  -0.3329  -0.2655  -0.2192  -0.1946  -0.1206  -0.0659  -0.0463
     0.0063   0.0227   0.0406   0.0511   0.5031   0.5528   0.6419   0.6674
     1.0537   1.0651   1.0977   1.1356   1.4098   1.4289   1.4368   1.4732
     1.6071   1.7018   1.7291   1.7650   1.7847   1.8074   1.8172   1.8482
     1.8601   1.8789   1.8844   1.9342   1.9401   1.9656   1.9930   1.9986
     2.0180   2.0547   2.0813   2.0890   2.1238   2.1485   2.2222   2.2881
     2.5537   2.5884   2.6073   2.6229   2.6291   2.6649   2.6701   2.6866
     2.7021   2.7186   2.7396   2.7537   2.8161   2.8196   2.8379   2.8447
     2.8666   2.8734   2.8882   2.9012   2.9123   3.0030   3.0088   3.0353
     3.0454   3.9867   4.0205   4.0618   4.1099   4.3098   4.3815   4.4099
     4.6507   4.7722   4.8555   4.9851   5.0726   5.0790   5.1958   5.3019
     5.3665   5.8516   5.8811   5.9639   6.0270   6.3375   6.5197   6.5556
     7.7848   7.8526   7.8724   7.8973   7.9435   7.9709   8.0136   8.0781
     8.2563   8.3304   8.5323   8.5768   8.6076   8.6176   8.6417   8.6613

     occupation numbers 
     1.0000   1.0000   1.0000   1.0000   1.0000   1.0000   1.0000   1.0000
     1.0000   1.0000   1.0000   1.0000   1.0000   1.0000   1.0000   1.0000
     1.0000   1.0000   1.0000   1.0000   1.0000   1.0000   1.0000   1.0000
     1.0000   1.0000   1.0000   1.0000   1.0000   1.0000   1.0000   1.0000
     1.0000   1.0000   1.0000   1.0000   1.0000   1.0000   1.0000   1.0000
     1.0000   1.0000   1.0000   1.0000   1.0000   1.0000   1.0000   1.0000
     1.0000   1.0000   1.0000   1.0000   1.0000   1.0000   1.0000   1.0000
     1.0000   1.0000   1.0000   1.0000   1.0000   1.0000   1.0000   1.0000
     1.0000   1.0000   1.0000   1.0000   1.0000   1.0000   1.0000   1.0000
     1.0000   1.0000   1.0000   1.0000   1.0000   1.0000   1.0000   1.0000
     1.0000   1.0000   1.0000   1.0000   1.0000   1.0000   1.0000   1.0000
     1.0000   1.0000   1.0000   1.0000   1.0000   1.0000   1.0000   1.0000
     1.0000   1.0000   1.0000   1.0000   1.0000   1.0000   1.0000   1.0000
     1.0000   1.0000   1.0000   1.0000   1.0000   1.0000   1.0000   1.0000
     1.0000   1.0000   1.0000   1.0000   1.0000   1.0000   1.0000   1.0000
     1.0000   1.0000   1.0000   1.0000   1.0000   1.0000   1.0000   1.0000
     1.0000   1.0000   1.0000   1.0000   1.0000   1.0000   1.0000   1.0000
     1.0000   1.0000   1.0000   1.0000   1.0000   1.0000   1.0000   1.0000
     1.0000   1.0000   1.0000   1.0000   1.0000   1.0000   1.0000   1.0000
     1.0000   1.0000   1.0000   1.0000   1.0000   1.0000   1.0000   1.0000
     0.9996   0.9996   0.9995   0.9994   0.9977   0.9975   0.9974   0.9969
     0.9945   0.9918   0.9909   0.9895   0.9886   0.9876   0.9871   0.9855
     0.9848   0.9837   0.9834   0.9801   0.9796   0.9777   0.9755   0.9750
     0.9732   0.9697   0.9669   0.9660   0.9619   0.9588   0.9482   0.9369
     0.8719   0.8608   0.8545   0.8491   0.8469   0.8340   0.8321   0.8259
     0.8199   0.8134   0.8049   0.7991   0.7720   0.7705   0.7621   0.7590
     0.7488   0.7456   0.7384   0.7321   0.7267   0.6801   0.6771   0.6628
     0.6573   0.1605   0.1485   0.1348   0.1199   0.0705   0.0572   0.0525
     0.0239   0.0154   0.0112   0.0067   0.0046   0.0045   0.0027   0.0016
     0.0012   0.0001   0.0001   0.0000   0.0000   0.0000   0.0000   0.0000
     0.0000   0.0000   0.0000   0.0000   0.0000   0.0000   0.0000   0.0000
     0.0000   0.0000   0.0000   0.0000   0.0000   0.0000   0.0000   0.0000

          k = 0.2500 0.0000 0.0000 ( 65257 PWs)   bands (ev):

   -92.7096 -92.6541 -92.5631 -92.5129 -92.4571 -92.4159 -92.3983 -92.2757
   -56.0630 -56.0406 -55.9206 -55.9102 -55.8999 -55.8970 -55.8587 -55.8324
   -55.8168 -55.8154 -55.8053 -55.7648 -55.7463 -55.7081 -55.6894 -55.6572
   -55.6463 -55.6041 -55.6021 -55.6011 -55.5927 -55.5504 -55.5287 -55.4426
   -31.2846 -31.2683 -31.1653 -31.1243 -31.0378 -31.0002 -30.9408 -30.6433
   -29.8574 -29.8153 -29.7881 -29.6800 -15.0569 -15.0180 -14.9477 -14.7997
   -14.6974 -14.5008 -14.3665 -14.1899 -14.1695 -14.1404 -14.1094 -14.0854
   -14.0506 -14.0353 -14.0197 -13.9807 -13.8513 -13.8208 -13.6682 -13.6062
   -13.5955 -13.5353 -13.5018 -13.4911 -13.4378 -13.3552 -13.3210 -13.2510
   -13.1944 -13.1681 -13.1396 -13.0689 -13.0530 -13.0366 -13.0195 -12.9890
   -12.9694 -12.9437 -12.9270 -12.8988 -12.8508 -12.8279 -12.7792 -12.7264
   -12.6963 -12.6022 -12.5644 -12.5233 -12.4140 -12.2572 -12.0862 -12.0301
   -11.8362 -11.7843 -11.7673 -11.7533 -11.7267 -11.6761 -11.6531 -11.6448
   -11.5946 -11.5045 -11.4490 -11.4430  -2.8157  -2.5933  -2.4635  -2.2911
    -2.2273  -2.0566  -1.8502  -1.7724  -1.7278  -1.6942  -1.5929  -1.5792
    -1.5440  -1.5251  -1.4562  -1.2755  -1.1683  -1.1261  -1.0302  -1.0205
    -0.9385  -0.9123  -0.8629  -0.8211  -0.7691  -0.7416  -0.6915  -0.6640
    -0.6450  -0.5906  -0.5765  -0.4847  -0.4756  -0.4139  -0.3187  -0.2685
    -0.1424  -0.1265  -0.0736  -0.0246   0.0318   0.0542   0.0952   0.1567
     0.2029   0.4829   0.6173   0.6463   0.7325   0.7620   0.7951   0.8152
     0.8982   1.0078   1.0542   1.0777   1.1199   1.2632   1.2985   1.3320
     1.3385   1.3817   1.4267   1.4681   1.5054   1.5548   1.6031   1.6175
[...]
     0.7443   0.7281   0.7189   0.7150   0.7049   0.6989   0.6917   0.6806
     0.6767   0.6646   0.6574   0.6538   0.6469   0.6342   0.6219   0.6191
     0.6142   0.6108   0.6051   0.6000   0.5196   0.3526   0.3227   0.2048
     0.0800   0.0445   0.0219   0.0058   0.0049   0.0003   0.0001   0.0001
     0.0000   0.0000   0.0000   0.0000   0.0000   0.0000   0.0000   0.0000
     0.0000   0.0000   0.0000   0.0000   0.0000   0.0000   0.0000   0.0000
     0.0000   0.0000   0.0000   0.0000   0.0000   0.0000   0.0000   0.0000

          k =-0.5000 0.0000 0.0000 ( 65180 PWs)   bands (ev):

   -92.7096 -92.6541 -92.5631 -92.5129 -92.4571 -92.4159 -92.3983 -92.2757
   -56.0630 -56.0406 -55.9206 -55.9102 -55.8999 -55.8970 -55.8587 -55.8324
   -55.8168 -55.8154 -55.8053 -55.7648 -55.7463 -55.7081 -55.6894 -55.6572
   -55.6463 -55.6041 -55.6021 -55.6011 -55.5927 -55.5504 -55.5287 -55.4426
   -31.2824 -31.2704 -31.1651 -31.1239 -31.0381 -31.0001 -30.9410 -30.6434
   -29.8564 -29.8163 -29.7877 -29.6805 -15.0238 -14.9726 -14.9113 -14.8057
   -14.6975 -14.5551 -14.4088 -14.2739 -14.1426 -14.1359 -14.1168 -14.0624
   -14.0008 -13.9681 -13.9224 -13.9179 -13.9002 -13.8479 -13.8389 -13.7332
   -13.5632 -13.5461 -13.5040 -13.4965 -13.4429 -13.3732 -13.3337 -13.2761
   -13.2526 -13.2520 -13.1295 -13.0626 -13.0501 -13.0281 -13.0179 -13.0158
   -12.9542 -12.9349 -12.9259 -12.9019 -12.8419 -12.6921 -12.6726 -12.6485
   -12.6394 -12.5959 -12.5488 -12.4668 -12.3577 -12.3352 -12.1707 -12.1303
   -11.7885 -11.7670 -11.7601 -11.7449 -11.7270 -11.6859 -11.6227 -11.6054
   -11.5731 -11.5270 -11.5180 -11.5023  -2.5914  -2.5529  -2.3884  -2.3496
    -2.0365  -1.9623  -1.8120  -1.6954  -1.6563  -1.6117  -1.5624  -1.5373
    -1.4145  -1.3698  -1.3553  -1.2723  -1.2373  -1.2228  -1.1900  -1.1330
    -1.0645  -1.0345  -1.0068  -0.9122  -0.8639  -0.8154  -0.7824  -0.7609
    -0.7326  -0.6830  -0.6588  -0.6187  -0.5255  -0.4500  -0.3884  -0.3250
    -0.1559  -0.1259  -0.0649  -0.0389   0.0345   0.0428   0.1809   0.2115
     0.2516   0.4316   0.5302   0.5771   0.6499   0.7305   0.8476   0.8601
     0.9978   1.0207   1.0731   1.0975   1.1371   1.1537   1.1950   1.2215
     1.2882   1.3346   1.3825   1.3888   1.6886   1.6952   1.7154   1.7336
     1.8465   1.8595   1.8715   1.8823   1.9098   1.9202   1.9583   1.9868
     2.0104   2.0685   2.0787   2.1317   2.1482   2.2106   2.3124   2.4160
     2.4923   2.5067   2.5777   2.6179   2.6439   2.7116   2.7203   2.7294
     2.7576   2.8096   2.8471   2.8731   2.9181   2.9540   2.9905   2.9949
     2.9958   3.0098   3.0217   3.0337   3.0490   3.0542   3.0779   3.0884
     3.1004   3.1206   3.1267   3.2556   3.2725   4.0488   4.1133   4.1763
     4.3488   4.7830   4.8577   5.0191   5.0476   5.4810   5.5110   5.5800
     5.6475   5.9432   6.0256   6.0546   6.6806   6.7991   7.0009   7.2787
     7.3031   7.3206   7.3855   7.4962   7.7289   7.7715   7.8491   7.8834
     8.1394   8.2589   8.4359   8.5303   8.6208   8.7062   8.7558   8.8385

     occupation numbers 
     1.0000   1.0000   1.0000   1.0000   1.0000   1.0000   1.0000   1.0000
     1.0000   1.0000   1.0000   1.0000   1.0000   1.0000   1.0000   1.0000
     1.0000   1.0000   1.0000   1.0000   1.0000   1.0000   1.0000   1.0000
     1.0000   1.0000   1.0000   1.0000   1.0000   1.0000   1.0000   1.0000
     1.0000   1.0000   1.0000   1.0000   1.0000   1.0000   1.0000   1.0000
     1.0000   1.0000   1.0000   1.0000   1.0000   1.0000   1.0000   1.0000
     1.0000   1.0000   1.0000   1.0000   1.0000   1.0000   1.0000   1.0000
     1.0000   1.0000   1.0000   1.0000   1.0000   1.0000   1.0000   1.0000
     1.0000   1.0000   1.0000   1.0000   1.0000   1.0000   1.0000   1.0000
     1.0000   1.0000   1.0000   1.0000   1.0000   1.0000   1.0000   1.0000
     1.0000   1.0000   1.0000   1.0000   1.0000   1.0000   1.0000   1.0000
     1.0000   1.0000   1.0000   1.0000   1.0000   1.0000   1.0000   1.0000
     1.0000   1.0000   1.0000   1.0000   1.0000   1.0000   1.0000   1.0000
     1.0000   1.0000   1.0000   1.0000   1.0000   1.0000   1.0000   1.0000
     1.0000   1.0000   1.0000   1.0000   1.0000   1.0000   1.0000   1.0000
     1.0000   1.0000   1.0000   1.0000   1.0000   1.0000   1.0000   1.0000
     1.0000   1.0000   1.0000   1.0000   1.0000   1.0000   1.0000   1.0000
     1.0000   1.0000   1.0000   1.0000   1.0000   1.0000   1.0000   1.0000
     1.0000   1.0000   1.0000   1.0000   1.0000   1.0000   1.0000   1.0000
     1.0000   1.0000   1.0000   1.0000   1.0000   0.9999   0.9999   0.9999
     0.9997   0.9997   0.9996   0.9995   0.9994   0.9993   0.9992   0.9991
     0.9987   0.9984   0.9980   0.9979   0.9922   0.9920   0.9913   0.9907
     0.9856   0.9849   0.9842   0.9835   0.9818   0.9810   0.9783   0.9760
     0.9739   0.9683   0.9672   0.9610   0.9588   0.9500   0.9324   0.9098
     0.8900   0.8859   0.8642   0.8508   0.8417   0.8162   0.8127   0.8091
     0.7975   0.7750   0.7579   0.7457   0.7238   0.7057   0.6868   0.6845
     0.6840   0.6765   0.6702   0.6637   0.6553   0.6525   0.6394   0.6335
     0.6269   0.6154   0.6119   0.5370   0.5271   0.1390   0.1189   0.1013
     0.0630   0.0148   0.0111   0.0058   0.0051   0.0007   0.0006   0.0004
     0.0003   0.0000   0.0000   0.0000   0.0000   0.0000   0.0000   0.0000
     0.0000   0.0000   0.0000   0.0000   0.0000   0.0000   0.0000   0.0000
     0.0000   0.0000   0.0000   0.0000   0.0000   0.0000   0.0000   0.0000

          k =-0.2500 0.2500 0.0000 ( 65198 PWs)   bands (ev):

   -92.7096 -92.6541 -92.5631 -92.5129 -92.4571 -92.4159 -92.3983 -92.2757
   -56.0630 -56.0406 -55.9206 -55.9102 -55.8999 -55.8970 -55.8587 -55.8324
   -55.8168 -55.8154 -55.8053 -55.7648 -55.7463 -55.7081 -55.6894 -55.6572
   -55.6463 -55.6041 -55.6021 -55.6011 -55.5927 -55.5504 -55.5287 -55.4426
   -31.2844 -31.2682 -31.1651 -31.1245 -31.0379 -31.0004 -30.9407 -30.6434
   -29.8568 -29.8150 -29.7887 -29.6804 -15.0261 -14.9859 -14.9128 -14.7948
   -14.6867 -14.5593 -14.4722 -14.2689 -14.1260 -14.0959 -14.0840 -14.0368
   -14.0117 -13.9926 -13.9808 -13.9411 -13.8474 -13.8364 -13.6814 -13.6567
   -13.6289 -13.6065 -13.5721 -13.5061 -13.4539 -13.4440 -13.3290 -13.3037
   -13.2320 -13.1561 -13.1178 -13.0880 -13.0484 -13.0182 -12.9966 -12.9626
   -12.9531 -12.9343 -12.9252 -12.8711 -12.8502 -12.7924 -12.7784 -12.7003
   -12.6730 -12.5979 -12.4842 -12.4501 -12.4403 -12.2911 -12.1241 -12.0663
   -11.8084 -11.7870 -11.7594 -11.7474 -11.7066 -11.6714 -11.6488 -11.6272
   -11.6047 -11.5193 -11.4742 -11.4649  -2.6763  -2.4673  -2.3467  -2.2588
    -2.1397  -2.0729  -1.8714  -1.7247  -1.7061  -1.6784  -1.5855  -1.5502
    -1.4570  -1.4235  -1.3970  -1.2538  -1.1987  -1.1311  -1.1019  -1.0426
    -1.0206  -0.9804  -0.9513  -0.9112  -0.8489  -0.8011  -0.7401  -0.6699
    -0.6438  -0.5918  -0.5639  -0.5184  -0.4627  -0.4215  -0.3757  -0.2783
    -0.2436  -0.2329  -0.1883  -0.1217  -0.0453  -0.0057   0.0210   0.0927
     0.1223   0.3794   0.5453   0.5899   0.6274   0.6863   0.7339   0.7922
     0.8581   0.8857   1.1675   1.2796   1.3192   1.3517   1.3576   1.4016
     1.4191   1.4624   1.4934   1.5088   1.5347   1.5772   1.5925   1.6352
     1.6509   1.6965   1.7882   1.8023   1.8192   1.8595   1.8867   1.9240
     1.9786   2.0815   2.1927   2.2223   2.2667   2.2875   2.3521   2.3989
     2.4227   2.4450   2.4691   2.5692   2.6048   2.6947   2.8159   2.8738
     2.8851   2.8982   2.9066   2.9177   2.9339   2.9365   2.9547   2.9669
     2.9789   2.9883   3.0011   3.0105   3.0170   3.0489   3.0604   3.0691
     3.1028   3.3955   3.4786   3.5392   3.6214   3.6611   3.8273   3.9540
     4.2916   4.5130   4.7071   4.9773   5.1668   5.6379   5.6714   5.7375
     5.8261   5.8875   5.9878   6.1648   6.2094   6.7416   6.8934   7.0484
     7.1767   7.5616   7.6050   7.6635   7.7527   7.8771   7.9215   8.1162
     8.1504   8.2118   8.3050   8.3936   8.4385   8.4548   8.5242   8.8182

     occupation numbers 
     1.0000   1.0000   1.0000   1.0000   1.0000   1.0000   1.0000   1.0000
     1.0000   1.0000   1.0000   1.0000   1.0000   1.0000   1.0000   1.0000
     1.0000   1.0000   1.0000   1.0000   1.0000   1.0000   1.0000   1.0000
     1.0000   1.0000   1.0000   1.0000   1.0000   1.0000   1.0000   1.0000
     1.0000   1.0000   1.0000   1.0000   1.0000   1.0000   1.0000   1.0000
     1.0000   1.0000   1.0000   1.0000   1.0000   1.0000   1.0000   1.0000
     1.0000   1.0000   1.0000   1.0000   1.0000   1.0000   1.0000   1.0000
     1.0000   1.0000   1.0000   1.0000   1.0000   1.0000   1.0000   1.0000
     1.0000   1.0000   1.0000   1.0000   1.0000   1.0000   1.0000   1.0000
     1.0000   1.0000   1.0000   1.0000   1.0000   1.0000   1.0000   1.0000
     1.0000   1.0000   1.0000   1.0000   1.0000   1.0000   1.0000   1.0000
     1.0000   1.0000   1.0000   1.0000   1.0000   1.0000   1.0000   1.0000
     1.0000   1.0000   1.0000   1.0000   1.0000   1.0000   1.0000   1.0000
     1.0000   1.0000   1.0000   1.0000   1.0000   1.0000   1.0000   1.0000
     1.0000   1.0000   1.0000   1.0000   1.0000   1.0000   1.0000   1.0000
     1.0000   1.0000   1.0000   1.0000   1.0000   1.0000   1.0000   1.0000
     1.0000   1.0000   1.0000   1.0000   1.0000   1.0000   1.0000   1.0000
     1.0000   1.0000   1.0000   1.0000   1.0000   1.0000   1.0000   1.0000
     1.0000   1.0000   1.0000   1.0000   1.0000   1.0000   1.0000   1.0000
     1.0000   1.0000   1.0000   1.0000   1.0000   1.0000   0.9999   0.9999
     0.9999   0.9998   0.9993   0.9988   0.9985   0.9983   0.9982   0.9978
     0.9976   0.9971   0.9966   0.9964   0.9960   0.9951   0.9948   0.9938
     0.9934   0.9920   0.9885   0.9878   0.9870   0.9849   0.9832   0.9808
     0.9767   0.9669   0.9527   0.9482   0.9408   0.9371   0.9243   0.9139
     0.9082   0.9026   0.8963   0.8670   0.8553   0.8228   0.7722   0.7454
     0.7399   0.7336   0.7295   0.7240   0.7159   0.7146   0.7053   0.6991
     0.6928   0.6879   0.6812   0.6762   0.6727   0.6554   0.6491   0.6443
     0.6255   0.4543   0.4059   0.3714   0.3263   0.3053   0.2249   0.1726
     0.0742   0.0380   0.0196   0.0069   0.0030   0.0003   0.0002   0.0002
     0.0001   0.0001   0.0000   0.0000   0.0000   0.0000   0.0000   0.0000
     0.0000   0.0000   0.0000   0.0000   0.0000   0.0000   0.0000   0.0000
     0.0000   0.0000   0.0000   0.0000   0.0000   0.0000   0.0000   0.0000

          k =-0.5000 0.2500 0.0000 ( 65138 PWs)   bands (ev):

   -92.7096 -92.6541 -92.5631 -92.5129 -92.4571 -92.4159 -92.3983 -92.2757
   -56.0630 -56.0406 -55.9206 -55.9102 -55.8999 -55.8970 -55.8587 -55.8324
   -55.8168 -55.8154 -55.8053 -55.7648 -55.7463 -55.7081 -55.6894 -55.6572
   -55.6463 -55.6041 -55.6021 -55.6011 -55.5927 -55.5504 -55.5287 -55.4426
   -31.2823 -31.2703 -31.1650 -31.1241 -31.0383 -31.0003 -30.9409 -30.6435
   -29.8558 -29.8160 -29.7883 -29.6808 -14.9910 -14.9462 -14.8681 -14.7715
   -14.7271 -14.6017 -14.5143 -14.3888 -14.0766 -14.0466 -14.0345 -13.9879
   -13.9701 -13.9409 -13.9093 -13.9038 -13.8774 -13.8409 -13.8283 -13.7249
   -13.6461 -13.6044 -13.5965 -13.5853 -13.4963 -13.4773 -13.3752 -13.3326
   -13.2085 -13.1740 -13.0957 -13.0694 -13.0348 -13.0240 -12.9965 -12.9664
   -12.9582 -12.9481 -12.9267 -12.8641 -12.8511 -12.7427 -12.7253 -12.6312
   -12.6246 -12.5972 -12.5471 -12.4207 -12.3307 -12.3103 -12.1657 -12.1398
   -11.7811 -11.7682 -11.7543 -11.7425 -11.7208 -11.6907 -11.6101 -11.6010
   -11.5784 -11.5415 -11.5138 -11.5048  -2.4492  -2.4072  -2.2581  -2.2162
    -2.0557  -1.9810  -1.8364  -1.7017  -1.6454  -1.6183  -1.5786  -1.5396
    -1.4594  -1.3443  -1.2871  -1.2640  -1.2393  -1.1625  -1.1336  -1.0957
    -1.0776  -1.0169  -0.9885  -0.9492  -0.9138  -0.8849  -0.8274  -0.8005
    -0.7586  -0.7245  -0.6210  -0.5923  -0.5086  -0.4437  -0.4123  -0.3583
    -0.2702  -0.2361  -0.1373  -0.0956  -0.0420   0.0109   0.0300   0.1098
     0.1343   0.1659   0.2223   0.2605   0.5654   0.6324   0.6929   0.7142
     1.0059   1.0571   1.1346   1.1592   1.3380   1.3758   1.4124   1.4254
     1.4435   1.4613   1.5312   1.5725   1.6153   1.6396   1.7684   1.8002
     1.8307   1.8415   1.8847   1.9076   1.9197   1.9347   1.9557   1.9779
     2.0248   2.0422   2.0739   2.0967   2.1254   2.1879   2.3052   2.4054
     2.4369   2.5059   2.5445   2.5940   2.6425   2.6485   2.6850   2.7196
     2.7425   2.8123   2.8457   2.8691   2.8867   2.8948   2.9132   2.9320
     2.9457   2.9607   2.9745   2.9930   3.0051   3.0162   3.0239   3.0337
     3.0452   3.5706   3.6423   3.7644   3.7919   4.0574   4.1355   4.1873
     4.4183   4.7774   4.8738   5.0222   5.0723   5.3925   5.4243   5.5921
     5.6103   5.7435   5.7654   6.0888   6.3916   6.4922   6.6083   6.9718
     7.4497   7.5301   7.7116   7.7909   7.8206   7.8857   8.0177   8.1491
     8.3239   8.3812   8.4326   8.5277   8.5546   8.6101   8.6605   8.7467

     occupation numbers 
     1.0000   1.0000   1.0000   1.0000   1.0000   1.0000   1.0000   1.0000
     1.0000   1.0000   1.0000   1.0000   1.0000   1.0000   1.0000   1.0000
     1.0000   1.0000   1.0000   1.0000   1.0000   1.0000   1.0000   1.0000
     1.0000   1.0000   1.0000   1.0000   1.0000   1.0000   1.0000   1.0000
     1.0000   1.0000   1.0000   1.0000   1.0000   1.0000   1.0000   1.0000
     1.0000   1.0000   1.0000   1.0000   1.0000   1.0000   1.0000   1.0000
     1.0000   1.0000   1.0000   1.0000   1.0000   1.0000   1.0000   1.0000
     1.0000   1.0000   1.0000   1.0000   1.0000   1.0000   1.0000   1.0000
     1.0000   1.0000   1.0000   1.0000   1.0000   1.0000   1.0000   1.0000
     1.0000   1.0000   1.0000   1.0000   1.0000   1.0000   1.0000   1.0000
     1.0000   1.0000   1.0000   1.0000   1.0000   1.0000   1.0000   1.0000
     1.0000   1.0000   1.0000   1.0000   1.0000   1.0000   1.0000   1.0000
     1.0000   1.0000   1.0000   1.0000   1.0000   1.0000   1.0000   1.0000
     1.0000   1.0000   1.0000   1.0000   1.0000   1.0000   1.0000   1.0000
     1.0000   1.0000   1.0000   1.0000   1.0000   1.0000   1.0000   1.0000
     1.0000   1.0000   1.0000   1.0000   1.0000   1.0000   1.0000   1.0000
     1.0000   1.0000   1.0000   1.0000   1.0000   1.0000   1.0000   1.0000
     1.0000   1.0000   1.0000   1.0000   1.0000   1.0000   1.0000   1.0000
     1.0000   1.0000   1.0000   1.0000   1.0000   1.0000   1.0000   1.0000
     1.0000   1.0000   1.0000   1.0000   1.0000   1.0000   1.0000   0.9999
     0.9997   0.9996   0.9994   0.9993   0.9984   0.9980   0.9977   0.9975
     0.9973   0.9971   0.9960   0.9952   0.9943   0.9937   0.9893   0.9879
     0.9864   0.9858   0.9834   0.9819   0.9811   0.9800   0.9785   0.9767
     0.9726   0.9709   0.9677   0.9652   0.9617   0.9534   0.9337   0.9124
     0.9047   0.8861   0.8747   0.8589   0.8422   0.8400   0.8265   0.8130
     0.8037   0.7737   0.7585   0.7476   0.7392   0.7353   0.7262   0.7169
     0.7099   0.7023   0.6951   0.6855   0.6790   0.6731   0.6690   0.6637
     0.6574   0.3540   0.3152   0.2538   0.2409   0.1362   0.1125   0.0984
     0.0512   0.0151   0.0104   0.0057   0.0046   0.0010   0.0009   0.0004
     0.0003   0.0002   0.0001   0.0000   0.0000   0.0000   0.0000   0.0000
     0.0000   0.0000   0.0000   0.0000   0.0000   0.0000   0.0000   0.0000
     0.0000   0.0000   0.0000   0.0000   0.0000   0.0000   0.0000   0.0000

     the Fermi energy is     3.3183 ev

!    total energy              =   -4399.91449620 Ry
     estimated scf accuracy    <          8.3E-09 Ry
     smearing contrib. (-TS)   =      -1.14565108 Ry
     internal energy E=F+TS    =   -4398.76884512 Ry

     The total energy is F=E-TS. E is the sum of the following terms:
     one-electron contribution =  -21253.22740695 Ry
     hartree contribution      =   10754.59356003 Ry
     xc contribution           =    -686.72887527 Ry
     ewald contribution        =    7053.23917587 Ry
     one-center paw contrib.   =    -266.64529880 Ry
      -> PAW hartree energy AE =      25.15711252 Ry
      -> PAW hartree energy PS =     -25.04109244 Ry
      -> PAW xc energy AE      =     -16.51663001 Ry
      -> PAW xc energy PS      =       6.87606564 Ry
      -> total E_H with PAW    =   10754.70958010 Ry
      -> total E_XC with PAW   =    -696.36943965 Ry

     convergence has been achieved in  47 iterations

     Writing all to output data dir /bsuhome/zayahcortright/scratch/pwscf.save/
 
     init_run     :      7.74s CPU      8.23s WALL (       1 calls)
     electrons    :    672.00s CPU    683.71s WALL (       1 calls)

     Called by init_run:
     wfcinit      :      5.73s CPU      5.85s WALL (       1 calls)
     wfcinit:atom :      0.05s CPU      0.06s WALL (       5 calls)
     wfcinit:wfcr :      5.40s CPU      5.47s WALL (       5 calls)
     potinit      :      0.18s CPU      0.20s WALL (       1 calls)
     hinit0       :      0.46s CPU      0.73s WALL (       1 calls)

     Called by electrons:
     c_bands      :    531.01s CPU    535.61s WALL (      47 calls)
     sum_band     :    105.75s CPU    109.89s WALL (      47 calls)
     v_of_rho     :      5.25s CPU      5.50s WALL (      48 calls)
     v_h          :      0.43s CPU      0.43s WALL (      48 calls)
     v_xc         :      4.83s CPU      5.06s WALL (      48 calls)
     newd         :     16.12s CPU     18.46s WALL (      48 calls)
     PAW_pot      :      1.52s CPU      1.55s WALL (      48 calls)
     mix_rho      :     12.06s CPU     12.31s WALL (      47 calls)

     Called by c_bands:
     init_us_2    :      6.58s CPU      6.63s WALL (     475 calls)
     init_us_2:cp :      6.57s CPU      6.63s WALL (     475 calls)
     cegterg      :    503.52s CPU    507.88s WALL (     235 calls)

     Called by sum_band:
     sum_band:wei :      0.33s CPU      0.33s WALL (      47 calls)
     sum_band:loo :     87.06s CPU     87.66s WALL (      47 calls)
     sum_band:buf :      1.40s CPU      1.41s WALL (     235 calls)
     sum_band:ini :      3.06s CPU      3.07s WALL (     235 calls)
     sum_band:cal :     17.82s CPU     17.87s WALL (     235 calls)
     sum_band:bec :      0.54s CPU      0.54s WALL (     235 calls)
     addusdens    :     17.61s CPU     21.12s WALL (      47 calls)
                                        0.00s GPU  (      47 calls)
     addusd:skk   :      0.33s CPU      0.66s WALL (     188 calls)
                                        0.00s GPU  (     188 calls)

     Called by *egterg:
     cdiaghg      :     52.65s CPU     52.86s WALL (    1294 calls)
     cegterg:over :     37.35s CPU     37.49s WALL (    1059 calls)
     cegterg:upda :     26.80s CPU     27.13s WALL (    1059 calls)
     cegterg:last :     55.62s CPU     55.79s WALL (     433 calls)
     cdiaghg:chol :      3.00s CPU      3.02s WALL (    1294 calls)
     cdiaghg:inve :      3.13s CPU      3.15s WALL (    1294 calls)
     cdiaghg:para :      6.77s CPU      6.80s WALL (    2588 calls)
     h_psi        :    279.58s CPU    282.10s WALL (    1299 calls)
     s_psi        :     36.56s CPU     36.66s WALL (    1299 calls)
     g_psi        :      1.04s CPU      1.05s WALL (    1059 calls)

     Called by h_psi:
     h_psi:calbec :     41.25s CPU     41.39s WALL (    1299 calls)
     vloc_psi     :    198.83s CPU    200.73s WALL (    1299 calls)
     add_vuspsi   :     36.48s CPU     36.60s WALL (    1299 calls)

     General routines
     calbec       :     59.06s CPU     59.25s WALL (    1534 calls)
     fft          :      3.40s CPU      3.44s WALL (     622 calls)
     ffts         :      4.49s CPU      4.52s WALL (    4995 calls)
     fftw         :    169.98s CPU    171.41s WALL (  315142 calls)
     interpolate  :      0.40s CPU      0.40s WALL (      48 calls)
 
     Parallel routines

     PAW routines
     PAW_pot      :      1.52s CPU      1.55s WALL (      48 calls)
 
     PWSCF        :  11m21.27s CPU  11m36.51s WALL

 
   This run was terminated on:  17:13: 8  21Jun2024            

=------------------------------------------------------------------------------=
   JOB DONE.
=------------------------------------------------------------------------------=
