
     Program PWSCF v.7.2 starts on 21Jun2024 at 20:38:26 

     This program is part of the open-source Quantum ESPRESSO suite
     for quantum simulation of materials; please cite
         "P. Giannozzi et al., J. Phys.:Condens. Matter 21 395502 (2009);
         "P. Giannozzi et al., J. Phys.:Condens. Matter 29 465901 (2017);
         "P. Giannozzi et al., J. Chem. Phys. 152 154105 (2020);
          URL http://www.quantum-espresso.org", 
     in publications or presentations arising from this work. More details at
     http://www.quantum-espresso.org/quote

     Parallel version (MPI & OpenMP), running on      48 processor cores
     Number of MPI processes:                48
     Threads/MPI process:                     1

     MPI processes distributed on     1 nodes
     180150 MiB available memory on the printing compute node when the environment starts
 
     Reading input from espresso.pwi
Warning: card &CELL ignored
Warning: card / ignored
Warning: card &FCP ignored
Warning: card / ignored
Warning: card &RISM ignored
Warning: card / ignored

     Current dimensions of program PWSCF are:
     Max number of different atomic species (ntypx) = 10
     Max number of k-points (npk) =  40000
     Max angular momentum in pseudopotentials (lmaxx) =  4
     file O.pbe-n-kjpaw_psl.0.1.UPF: wavefunction(s)  2P renormalized
     signal trapping enabled: kill the code with -SIGUSR1 to stop cleanly the simulation 
 
     K-points division:     npool     =       2
     R & G space division:  proc/nbgrp/npool/nimage =      24
     Subspace diagonalization in iterative solution of the eigenvalue problem:
     one sub-group per band group will be used
     scalapack distributed-memory algorithm (size of sub-group:  3*  3 procs)

 
     Parallelization info
     --------------------
     sticks:   dense  smooth     PW     G-vecs:    dense   smooth      PW
     Min         350     175     47                61430    21716    3036
     Max         351     177     48                61449    21727    3041
     Sum        8421    4205   1137              1474595   521381   72913
 
     Using Slab Decomposition
 


     bravais-lattice index     =            0
     lattice parameter (alat)  =      14.8599  a.u.
     unit-cell volume          =    8305.1283 (a.u.)^3
     number of atoms/cell      =           49
     number of atomic types    =            4
     number of electrons       =       425.00
     number of Kohn-Sham states=          256
     kinetic-energy cutoff     =      60.0000  Ry
     charge density cutoff     =     480.0000  Ry
     scf convergence threshold =      1.0E-08
     mixing beta               =       0.1500
     number of iterations used =            8  local-TF  mixing
     Exchange-correlation= PBE
                           (   1   4   3   4   0   0   0)

     celldm(1)=  14.859904  celldm(2)=   0.000000  celldm(3)=   0.000000
     celldm(4)=   0.000000  celldm(5)=   0.000000  celldm(6)=   0.000000

     crystal axes: (cart. coord. in units of alat)
               a(1) = (   1.000000   0.000000   0.000000 )  
               a(2) = (   0.000000   1.000000   0.000000 )  
               a(3) = (   0.000000   0.000000   2.531036 )  

     reciprocal axes: (cart. coord. in units 2 pi/alat)
               b(1) = (  1.000000  0.000000  0.000000 )  
               b(2) = (  0.000000  1.000000  0.000000 )  
               b(3) = (  0.000000  0.000000  0.395095 )  


     PseudoPot. # 1 for Sr read from file:
     /bsuhome/zayahcortright/q-e/pseudo/Sr_pbe_v1.uspp.F.UPF
     MD5 check sum: 6b418c05fbe9db5448babca5e47b7a5b
     Pseudo is Ultrasoft + core correction, Zval = 10.0
     Generated by new atomic code, or converted to UPF format
     Using radial grid of  883 points,  6 beta functions with: 
                l(1) =   0
                l(2) =   0
                l(3) =   1
                l(4) =   1
                l(5) =   2
                l(6) =   2
     Q(r) pseudized with  6 coefficients,  rinner =    1.400   1.400   1.400
                                                       1.400   1.400

     PseudoPot. # 2 for O  read from file:
     /bsuhome/zayahcortright/q-e/pseudo/O.pbe-n-kjpaw_psl.0.1.UPF
     MD5 check sum: 0234752ac141de4415c5fc33072bef88
     Pseudo is Projector augmented-wave + core cor, Zval =  6.0
     Generated using "atomic" code by A. Dal Corso  v.5.0.99 svn rev. 10869
     Shape of augmentation charge: BESSEL
     Using radial grid of 1095 points,  4 beta functions with: 
                l(1) =   0
                l(2) =   0
                l(3) =   1
                l(4) =   1
     Q(r) pseudized with 0 coefficients 


     PseudoPot. # 3 for Co read from file:
     /bsuhome/zayahcortright/q-e/pseudo/Co_pbe_v1.2.uspp.F.UPF
     MD5 check sum: 5f91765df6ddd3222702df6e7b74a16d
     Pseudo is Ultrasoft + core correction, Zval = 17.0
     Generated by new atomic code, or converted to UPF format
     Using radial grid of  863 points,  6 beta functions with: 
                l(1) =   0
                l(2) =   0
                l(3) =   1
                l(4) =   1
                l(5) =   2
                l(6) =   2
     Q(r) pseudized with  8 coefficients,  rinner =    1.200   1.200   1.200
                                                       1.200   1.200

     PseudoPot. # 4 for H  read from file:
     /bsuhome/zayahcortright/q-e/pseudo/H.pbe-rrkjus_psl.1.0.0.UPF
     MD5 check sum: f52b6d4d1c606e5624b1dc7b2218f220
     Pseudo is Ultrasoft, Zval =  1.0
     Generated using "atomic" code by A. Dal Corso  v.5.1
     Using radial grid of  929 points,  2 beta functions with: 
                l(1) =   0
                l(2) =   0
     Q(r) pseudized with 0 coefficients 


     atomic species   valence    mass     pseudopotential
        Sr            10.00    87.62000     Sr( 1.00)
        O              6.00    15.99900     O ( 1.00)
        Co            17.00    58.93319     Co( 1.00)
        H              1.00     1.00800     H ( 1.00)

     No symmetry found


                                    s                        frac. trans.

      isym =  1     identity                                     

 cryst.   s( 1) = (     1          0          0      )
                  (     0          1          0      )
                  (     0          0          1      )

 cart.    s( 1) = (  1.0000000  0.0000000  0.0000000 )
                  (  0.0000000  1.0000000  0.0000000 )
                  (  0.0000000  0.0000000  1.0000000 )


   Cartesian axes

     site n.     atom                  positions (alat units)
         1           Sr  tau(   1) = (   0.2508693   0.7491307   1.7574407  )
         2           O   tau(   2) = (   0.4985141   0.5014859   1.7715967  )
         3           Sr  tau(   3) = (   0.7482398   0.7454518   1.7648669  )
         4           Sr  tau(   4) = (   0.7441748   0.2558252   1.7667843  )
         5           Sr  tau(   5) = (   0.2508693   0.7491307   1.2696799  )
         6           Sr  tau(   6) = (   0.2508693   0.7491307   0.7632319  )
         7           Co  tau(   7) = (   0.4998914   0.5001086   1.0164559  )
         8           Co  tau(   8) = (   0.4936915   0.5063085   1.5135603  )
         9           O   tau(   9) = (   0.4988895   0.7610401   1.0164559  )
        10           O   tau(  10) = (   0.2389599   0.5011105   1.0164559  )
        11           O   tau(  11) = (   0.0070918   0.7374880   1.0164559  )
        12           O   tau(  12) = (   0.0088340   0.7405089   1.5135603  )
        13           O   tau(  13) = (   0.5066944   0.7415376   1.5135603  )
        14           O   tau(  14) = (   0.2584624   0.4933056   1.5135603  )
        15           O   tau(  15) = (   0.4985141   0.5014859   0.7773880  )
        16           O   tau(  16) = (   0.4985141   0.5014859   1.2555238  )
        17           Sr  tau(  17) = (   0.7482398   0.7454518   0.7706582  )
        18           Sr  tau(  18) = (   0.7482398   0.7454518   1.2622536  )
        19           Sr  tau(  19) = (   0.7441748   0.2558252   0.7725755  )
        20           Sr  tau(  20) = (   0.7441748   0.2558252   1.2603363  )
        21           O   tau(  21) = (   0.7322655   0.0078049   1.5135603  )
        22           O   tau(  22) = (   0.7558175   0.4996027   1.5135603  )
        23           O   tau(  23) = (   0.5003973   0.2441825   1.5135603  )
        24           O   tau(  24) = (   0.7527966   0.4978604   1.0164559  )
        25           O   tau(  25) = (   0.5021396   0.2472034   1.0164559  )
        26           O   tau(  26) = (   0.7517679   0.0000000   1.0164559  )
        27           O   tau(  27) = (   0.0114961   0.4948124   1.7455321  )
        28           O   tau(  28) = (   0.0048226   0.0077944   1.7715967  )
        29           Sr  tau(  29) = (   0.2545482   0.2517602   1.7648669  )
        30           O   tau(  30) = (   0.5048017   0.0015068   1.7786929  )
        31           Co  tau(  31) = (   0.0056869   0.5006215   1.0164559  )
        32           Co  tau(  32) = (   0.0065315   0.4997770   1.5135603  )
        33           Co  tau(  33) = (   0.0061999   0.0064171   1.0164559  )
        34           Co  tau(  34) = (   0.0000000   0.0126169   1.5135603  )
        35           O   tau(  35) = (   0.0114961   0.4948124   1.2815885  )
        36           O   tau(  36) = (   0.0114961   0.4948124   0.7513233  )
        37           O   tau(  37) = (   0.0051979   0.2673486   1.0164559  )
        38           O   tau(  38) = (   0.0130029   0.2478461   1.5135603  )
        39           O   tau(  39) = (   0.0048226   0.0077944   0.7773880  )
        40           O   tau(  40) = (   0.0048226   0.0077944   1.2555238  )
        41           Sr  tau(  41) = (   0.2545482   0.2517602   0.7706582  )
        42           Sr  tau(  42) = (   0.2545482   0.2517602   1.2622536  )
        43           Co  tau(  43) = (   0.4989925   0.0073160   1.5135603  )
        44           Co  tau(  44) = (   0.4998370   0.0064714   1.0164559  )
        45           O   tau(  45) = (   0.5048017   0.0015068   0.7844841  )
        46           O   tau(  46) = (   0.5048017   0.0015068   1.2484277  )
        47           O   tau(  47) = (   0.2621260   0.0059111   1.5135603  )
        48           O   tau(  48) = (   0.2591051   0.0041689   1.0164559  )
        49           H   tau(  49) = (   0.7108228   0.4264937   2.1602013  )

   Crystallographic axes

     site n.     atom                  positions (cryst. coord.)
         1           Sr  tau(   1) = (  0.2508693  0.7491307  0.6943562  )
         2           O   tau(   2) = (  0.4985141  0.5014859  0.6999492  )
         3           Sr  tau(   3) = (  0.7482398  0.7454518  0.6972903  )
         4           Sr  tau(   4) = (  0.7441748  0.2558252  0.6980478  )
         5           Sr  tau(   5) = (  0.2508693  0.7491307  0.5016443  )
         6           Sr  tau(   6) = (  0.2508693  0.7491307  0.3015492  )
         7           Co  tau(   7) = (  0.4998914  0.5001086  0.4015968  )
         8           Co  tau(   8) = (  0.4936915  0.5063085  0.5980003  )
         9           O   tau(   9) = (  0.4988895  0.7610401  0.4015968  )
        10           O   tau(  10) = (  0.2389599  0.5011105  0.4015968  )
        11           O   tau(  11) = (  0.0070918  0.7374880  0.4015968  )
        12           O   tau(  12) = (  0.0088340  0.7405089  0.5980003  )
        13           O   tau(  13) = (  0.5066944  0.7415376  0.5980003  )
        14           O   tau(  14) = (  0.2584624  0.4933056  0.5980003  )
        15           O   tau(  15) = (  0.4985141  0.5014859  0.3071422  )
        16           O   tau(  16) = (  0.4985141  0.5014859  0.4960513  )
        17           Sr  tau(  17) = (  0.7482398  0.7454518  0.3044833  )
        18           Sr  tau(  18) = (  0.7482398  0.7454518  0.4987103  )
        19           Sr  tau(  19) = (  0.7441748  0.2558252  0.3052408  )
        20           Sr  tau(  20) = (  0.7441748  0.2558252  0.4979527  )
        21           O   tau(  21) = (  0.7322655  0.0078049  0.5980003  )
        22           O   tau(  22) = (  0.7558175  0.4996027  0.5980003  )
        23           O   tau(  23) = (  0.5003973  0.2441825  0.5980003  )
        24           O   tau(  24) = (  0.7527966  0.4978604  0.4015968  )
        25           O   tau(  25) = (  0.5021396  0.2472034  0.4015968  )
        26           O   tau(  26) = (  0.7517679  0.0000000  0.4015968  )
        27           O   tau(  27) = (  0.0114961  0.4948124  0.6896512  )
        28           O   tau(  28) = (  0.0048226  0.0077944  0.6999492  )
        29           Sr  tau(  29) = (  0.2545482  0.2517602  0.6972903  )
        30           O   tau(  30) = (  0.5048017  0.0015068  0.7027529  )
        31           Co  tau(  31) = (  0.0056869  0.5006215  0.4015968  )
        32           Co  tau(  32) = (  0.0065315  0.4997770  0.5980003  )
        33           Co  tau(  33) = (  0.0061999  0.0064171  0.4015968  )
        34           Co  tau(  34) = (  0.0000000  0.0126169  0.5980003  )
        35           O   tau(  35) = (  0.0114961  0.4948124  0.5063494  )
        36           O   tau(  36) = (  0.0114961  0.4948124  0.2968442  )
        37           O   tau(  37) = (  0.0051979  0.2673486  0.4015968  )
        38           O   tau(  38) = (  0.0130029  0.2478461  0.5980003  )
        39           O   tau(  39) = (  0.0048226  0.0077944  0.3071422  )
        40           O   tau(  40) = (  0.0048226  0.0077944  0.4960513  )
        41           Sr  tau(  41) = (  0.2545482  0.2517602  0.3044833  )
        42           Sr  tau(  42) = (  0.2545482  0.2517602  0.4987103  )
        43           Co  tau(  43) = (  0.4989925  0.0073160  0.5980003  )
        44           Co  tau(  44) = (  0.4998370  0.0064714  0.4015968  )
        45           O   tau(  45) = (  0.5048017  0.0015068  0.3099459  )
        46           O   tau(  46) = (  0.5048017  0.0015068  0.4932477  )
        47           O   tau(  47) = (  0.2621260  0.0059111  0.5980003  )
        48           O   tau(  48) = (  0.2591051  0.0041689  0.4015968  )
        49           H   tau(  49) = (  0.7108228  0.4264937  0.8534850  )

     number of k points=    10  Gaussian smearing, width (Ry)=  0.0700
                       cart. coord. in units 2pi/alat
        k(    1) = (   0.0000000   0.0000000   0.0000000), wk =   0.1250000
        k(    2) = (   0.0000000   0.2500000   0.0000000), wk =   0.2500000
        k(    3) = (   0.0000000  -0.5000000   0.0000000), wk =   0.1250000
        k(    4) = (   0.2500000   0.2500000   0.0000000), wk =   0.2500000
        k(    5) = (   0.2500000  -0.5000000   0.0000000), wk =   0.2500000
        k(    6) = (  -0.5000000  -0.5000000   0.0000000), wk =   0.1250000
        k(    7) = (   0.2500000   0.0000000   0.0000000), wk =   0.2500000
        k(    8) = (  -0.5000000   0.0000000   0.0000000), wk =   0.1250000
        k(    9) = (  -0.2500000   0.2500000   0.0000000), wk =   0.2500000
        k(   10) = (  -0.5000000   0.2500000   0.0000000), wk =   0.2500000

                       cryst. coord.
        k(    1) = (   0.0000000   0.0000000   0.0000000), wk =   0.1250000
        k(    2) = (   0.0000000   0.2500000   0.0000000), wk =   0.2500000
        k(    3) = (   0.0000000  -0.5000000   0.0000000), wk =   0.1250000
        k(    4) = (   0.2500000   0.2500000   0.0000000), wk =   0.2500000
        k(    5) = (   0.2500000  -0.5000000   0.0000000), wk =   0.2500000
        k(    6) = (  -0.5000000  -0.5000000   0.0000000), wk =   0.1250000
        k(    7) = (   0.2500000   0.0000000   0.0000000), wk =   0.2500000
        k(    8) = (  -0.5000000   0.0000000   0.0000000), wk =   0.1250000
        k(    9) = (  -0.2500000   0.2500000   0.0000000), wk =   0.2500000
        k(   10) = (  -0.5000000   0.2500000   0.0000000), wk =   0.2500000

     Dense  grid:  1474595 G-vectors     FFT dimensions: ( 108, 108, 270)

     Smooth grid:   521381 G-vectors     FFT dimensions: (  75,  75, 192)

     Dynamical RAM for                 wfc:      10.61 MB

     Dynamical RAM for     wfc (w. buffer):      63.63 MB

     Dynamical RAM for           str. fact:       3.75 MB

     Dynamical RAM for           local pot:       0.00 MB

     Dynamical RAM for          nlocal pot:      24.28 MB

     Dynamical RAM for                qrad:       7.03 MB

     Dynamical RAM for          rho,v,vnew:       6.02 MB

     Dynamical RAM for               rhoin:       2.01 MB

     Dynamical RAM for            rho*nmix:      15.00 MB

     Dynamical RAM for           G-vectors:       3.68 MB

     Dynamical RAM for          h,s,v(r/c):       1.32 MB

     Dynamical RAM for          <psi|beta>:       2.29 MB

     Dynamical RAM for                 psi:      21.21 MB

     Dynamical RAM for                hpsi:      21.21 MB

     Dynamical RAM for                spsi:      21.21 MB

     Dynamical RAM for      wfcinit/wfcrot:      34.09 MB

     Dynamical RAM for           addusdens:     100.79 MB

     Estimated static dynamical RAM per process >     120.42 MB

     Estimated max dynamical RAM per process >     236.21 MB

     Estimated total dynamical RAM >      10.72 GB

     Check: negative core charge=   -0.000004

     Initial potential from superposition of free atoms

     starting charge     416.5961, renormalised to     425.0000

     negative rho (up, down):  7.827E-01 0.000E+00
     Starting wfcs are  373 randomized atomic wfcs
     Checking if some PAW data can be deallocated... 
       PAW data deallocated on   20 nodes for type:  2

     total cpu time spent up to now is        8.6 secs

     Self-consistent Calculation

     iteration #  1     ecut=    60.00 Ry     beta= 0.15
     Davidson diagonalization with overlap

---- Real-time Memory Report at c_bands before calling an iterative solver
             0 MiB given to the printing process from OS
             0 MiB allocation reported by mallinfo(arena+hblkhd)
        170487 MiB available memory on the node where the printing process lives
------------------
     ethr =  1.00E-02,  avg # of iterations =  2.0

     negative rho (up, down):  7.716E-01 0.000E+00

     total cpu time spent up to now is       22.9 secs

     total energy              =   -4404.71265335 Ry
     estimated scf accuracy    <      42.21326478 Ry

     iteration #  2     ecut=    60.00 Ry     beta= 0.15
     Davidson diagonalization with overlap

---- Real-time Memory Report at c_bands before calling an iterative solver
             0 MiB given to the printing process from OS
             0 MiB allocation reported by mallinfo(arena+hblkhd)
        170715 MiB available memory on the node where the printing process lives
------------------
     ethr =  9.93E-03,  avg # of iterations =  1.0

     negative rho (up, down):  7.532E-01 0.000E+00

     total cpu time spent up to now is       34.8 secs

     total energy              =   -4400.05241257 Ry
     estimated scf accuracy    <      26.51733998 Ry

     iteration #  3     ecut=    60.00 Ry     beta= 0.15
     Davidson diagonalization with overlap

---- Real-time Memory Report at c_bands before calling an iterative solver
             0 MiB given to the printing process from OS
             0 MiB allocation reported by mallinfo(arena+hblkhd)
        169966 MiB available memory on the node where the printing process lives
------------------
     ethr =  6.24E-03,  avg # of iterations =  2.0

     negative rho (up, down):  7.544E-01 0.000E+00

     total cpu time spent up to now is       48.2 secs

     total energy              =   -4402.37916336 Ry
     estimated scf accuracy    <      48.79697572 Ry

     iteration #  4     ecut=    60.00 Ry     beta= 0.15
     Davidson diagonalization with overlap

---- Real-time Memory Report at c_bands before calling an iterative solver
             0 MiB given to the printing process from OS
             0 MiB allocation reported by mallinfo(arena+hblkhd)
        169838 MiB available memory on the node where the printing process lives
------------------
     ethr =  6.24E-03,  avg # of iterations =  1.0

     negative rho (up, down):  7.411E-01 0.000E+00

     total cpu time spent up to now is       60.3 secs

     total energy              =   -4401.63168883 Ry
     estimated scf accuracy    <      29.13692941 Ry

     iteration #  5     ecut=    60.00 Ry     beta= 0.15
     Davidson diagonalization with overlap

---- Real-time Memory Report at c_bands before calling an iterative solver
             0 MiB given to the printing process from OS
             0 MiB allocation reported by mallinfo(arena+hblkhd)
        169817 MiB available memory on the node where the printing process lives
------------------
     ethr =  6.24E-03,  avg # of iterations =  1.0

     negative rho (up, down):  7.473E-01 0.000E+00

     total cpu time spent up to now is       72.3 secs

     total energy              =   -4399.76223813 Ry
     estimated scf accuracy    <      43.87578067 Ry

     iteration #  6     ecut=    60.00 Ry     beta= 0.15
     Davidson diagonalization with overlap

---- Real-time Memory Report at c_bands before calling an iterative solver
             0 MiB given to the printing process from OS
             0 MiB allocation reported by mallinfo(arena+hblkhd)
        169797 MiB available memory on the node where the printing process lives
------------------
     ethr =  6.24E-03,  avg # of iterations =  1.0

     negative rho (up, down):  7.422E-01 0.000E+00

     total cpu time spent up to now is       84.2 secs

     total energy              =   -4400.63400941 Ry
     estimated scf accuracy    <      12.15735027 Ry

     iteration #  7     ecut=    60.00 Ry     beta= 0.15
     Davidson diagonalization with overlap

---- Real-time Memory Report at c_bands before calling an iterative solver
             0 MiB given to the printing process from OS
             0 MiB allocation reported by mallinfo(arena+hblkhd)
        169772 MiB available memory on the node where the printing process lives
------------------
     ethr =  2.86E-03,  avg # of iterations =  1.1

     negative rho (up, down):  7.445E-01 0.000E+00

     total cpu time spent up to now is       96.5 secs

     total energy              =   -4400.82086206 Ry
     estimated scf accuracy    <       4.03018567 Ry

     iteration #  8     ecut=    60.00 Ry     beta= 0.15
     Davidson diagonalization with overlap

---- Real-time Memory Report at c_bands before calling an iterative solver
             0 MiB given to the printing process from OS
             0 MiB allocation reported by mallinfo(arena+hblkhd)
        169753 MiB available memory on the node where the printing process lives
------------------
     ethr =  9.48E-04,  avg # of iterations =  1.5

     negative rho (up, down):  7.545E-01 0.000E+00

     total cpu time spent up to now is      109.0 secs

     total energy              =   -4400.30153245 Ry
     estimated scf accuracy    <       3.32209903 Ry

     iteration #  9     ecut=    60.00 Ry     beta= 0.15
     Davidson diagonalization with overlap

---- Real-time Memory Report at c_bands before calling an iterative solver
             0 MiB given to the printing process from OS
             0 MiB allocation reported by mallinfo(arena+hblkhd)
        169738 MiB available memory on the node where the printing process lives
------------------
     ethr =  7.82E-04,  avg # of iterations =  5.8

     negative rho (up, down):  7.754E-01 0.000E+00

     total cpu time spent up to now is      124.8 secs

     total energy              =   -4399.77102134 Ry
     estimated scf accuracy    <      45.78879062 Ry

     iteration # 10     ecut=    60.00 Ry     beta= 0.15
     Davidson diagonalization with overlap

---- Real-time Memory Report at c_bands before calling an iterative solver
             0 MiB given to the printing process from OS
             0 MiB allocation reported by mallinfo(arena+hblkhd)
        169588 MiB available memory on the node where the printing process lives
------------------
     ethr =  7.82E-04,  avg # of iterations =  9.6

     negative rho (up, down):  7.781E-01 0.000E+00

     total cpu time spent up to now is      142.3 secs

     total energy              =   -4399.83953427 Ry
     estimated scf accuracy    <      11.39309120 Ry

     iteration # 11     ecut=    60.00 Ry     beta= 0.15
     Davidson diagonalization with overlap

---- Real-time Memory Report at c_bands before calling an iterative solver
             0 MiB given to the printing process from OS
             0 MiB allocation reported by mallinfo(arena+hblkhd)
        169233 MiB available memory on the node where the printing process lives
------------------
     ethr =  7.82E-04,  avg # of iterations =  1.0

     negative rho (up, down):  7.812E-01 0.000E+00

     total cpu time spent up to now is      154.1 secs

     total energy              =   -4400.12084394 Ry
     estimated scf accuracy    <       1.34736162 Ry

     iteration # 12     ecut=    60.00 Ry     beta= 0.15
     Davidson diagonalization with overlap

---- Real-time Memory Report at c_bands before calling an iterative solver
             0 MiB given to the printing process from OS
             0 MiB allocation reported by mallinfo(arena+hblkhd)
        169222 MiB available memory on the node where the printing process lives
------------------
     ethr =  3.17E-04,  avg # of iterations =  2.5

     negative rho (up, down):  7.902E-01 0.000E+00

     total cpu time spent up to now is      167.3 secs

     total energy              =   -4400.10153162 Ry
     estimated scf accuracy    <       0.75601863 Ry

     iteration # 13     ecut=    60.00 Ry     beta= 0.15
     Davidson diagonalization with overlap

---- Real-time Memory Report at c_bands before calling an iterative solver
             0 MiB given to the printing process from OS
             0 MiB allocation reported by mallinfo(arena+hblkhd)
        169229 MiB available memory on the node where the printing process lives
------------------
     ethr =  1.78E-04,  avg # of iterations =  5.0

     negative rho (up, down):  7.986E-01 0.000E+00

     total cpu time spent up to now is      182.1 secs

     total energy              =   -4400.10691595 Ry
     estimated scf accuracy    <       1.90094270 Ry

     iteration # 14     ecut=    60.00 Ry     beta= 0.15
     Davidson diagonalization with overlap

---- Real-time Memory Report at c_bands before calling an iterative solver
             0 MiB given to the printing process from OS
             0 MiB allocation reported by mallinfo(arena+hblkhd)
        169216 MiB available memory on the node where the printing process lives
------------------
     ethr =  1.78E-04,  avg # of iterations =  4.0

     negative rho (up, down):  8.053E-01 0.000E+00

     total cpu time spent up to now is      196.2 secs

     total energy              =   -4400.02092569 Ry
     estimated scf accuracy    <       1.67223546 Ry

     iteration # 15     ecut=    60.00 Ry     beta= 0.15
     Davidson diagonalization with overlap

---- Real-time Memory Report at c_bands before calling an iterative solver
             0 MiB given to the printing process from OS
             0 MiB allocation reported by mallinfo(arena+hblkhd)
        169212 MiB available memory on the node where the printing process lives
------------------
     ethr =  1.78E-04,  avg # of iterations =  6.2

     negative rho (up, down):  8.086E-01 0.000E+00

     total cpu time spent up to now is      211.1 secs

     total energy              =   -4400.05356065 Ry
     estimated scf accuracy    <       0.36792971 Ry

     iteration # 16     ecut=    60.00 Ry     beta= 0.15
     Davidson diagonalization with overlap

---- Real-time Memory Report at c_bands before calling an iterative solver
             0 MiB given to the printing process from OS
             0 MiB allocation reported by mallinfo(arena+hblkhd)
        169208 MiB available memory on the node where the printing process lives
------------------
     ethr =  8.66E-05,  avg # of iterations =  7.1

     negative rho (up, down):  8.133E-01 0.000E+00

     total cpu time spent up to now is      226.6 secs

     total energy              =   -4400.02364495 Ry
     estimated scf accuracy    <       0.31384707 Ry

     iteration # 17     ecut=    60.00 Ry     beta= 0.15
     Davidson diagonalization with overlap

---- Real-time Memory Report at c_bands before calling an iterative solver
             0 MiB given to the printing process from OS
             0 MiB allocation reported by mallinfo(arena+hblkhd)
        169200 MiB available memory on the node where the printing process lives
------------------
     ethr =  7.38E-05,  avg # of iterations =  6.7

     negative rho (up, down):  8.206E-01 0.000E+00

     total cpu time spent up to now is      242.6 secs

     total energy              =   -4399.95709224 Ry
     estimated scf accuracy    <       0.25012741 Ry

     iteration # 18     ecut=    60.00 Ry     beta= 0.15
     Davidson diagonalization with overlap

---- Real-time Memory Report at c_bands before calling an iterative solver
             0 MiB given to the printing process from OS
             0 MiB allocation reported by mallinfo(arena+hblkhd)
        169201 MiB available memory on the node where the printing process lives
------------------
     ethr =  5.89E-05,  avg # of iterations = 11.7

     negative rho (up, down):  8.197E-01 0.000E+00

     total cpu time spent up to now is      260.7 secs

     total energy              =   -4399.95733693 Ry
     estimated scf accuracy    <       0.13882044 Ry

     iteration # 19     ecut=    60.00 Ry     beta= 0.15
     Davidson diagonalization with overlap

---- Real-time Memory Report at c_bands before calling an iterative solver
             0 MiB given to the printing process from OS
             0 MiB allocation reported by mallinfo(arena+hblkhd)
        169173 MiB available memory on the node where the printing process lives
------------------
     c_bands:  1 eigenvalues not converged
     ethr =  3.27E-05,  avg # of iterations =  5.2

     negative rho (up, down):  8.172E-01 0.000E+00

     total cpu time spent up to now is      275.3 secs

     total energy              =   -4399.94912704 Ry
     estimated scf accuracy    <       0.10869350 Ry

     iteration # 20     ecut=    60.00 Ry     beta= 0.15
     Davidson diagonalization with overlap

---- Real-time Memory Report at c_bands before calling an iterative solver
             0 MiB given to the printing process from OS
             0 MiB allocation reported by mallinfo(arena+hblkhd)
        169148 MiB available memory on the node where the printing process lives
------------------
     ethr =  2.56E-05,  avg # of iterations =  5.8

     negative rho (up, down):  8.190E-01 0.000E+00

     total cpu time spent up to now is      290.0 secs

     total energy              =   -4399.93618228 Ry
     estimated scf accuracy    <       0.08439082 Ry

     iteration # 21     ecut=    60.00 Ry     beta= 0.15
     Davidson diagonalization with overlap

---- Real-time Memory Report at c_bands before calling an iterative solver
             0 MiB given to the printing process from OS
             0 MiB allocation reported by mallinfo(arena+hblkhd)
        169149 MiB available memory on the node where the printing process lives
------------------
     ethr =  1.99E-05,  avg # of iterations = 11.0

     negative rho (up, down):  8.201E-01 0.000E+00

     total cpu time spent up to now is      307.3 secs

     total energy              =   -4399.93186228 Ry
     estimated scf accuracy    <       0.05405086 Ry

     iteration # 22     ecut=    60.00 Ry     beta= 0.15
     Davidson diagonalization with overlap

---- Real-time Memory Report at c_bands before calling an iterative solver
             0 MiB given to the printing process from OS
             0 MiB allocation reported by mallinfo(arena+hblkhd)
        169127 MiB available memory on the node where the printing process lives
------------------
     ethr =  1.27E-05,  avg # of iterations = 10.7

     negative rho (up, down):  8.013E-01 0.000E+00

     total cpu time spent up to now is      324.7 secs

     total energy              =   -4399.92862611 Ry
     estimated scf accuracy    <       0.03553917 Ry

     iteration # 23     ecut=    60.00 Ry     beta= 0.15
     Davidson diagonalization with overlap

---- Real-time Memory Report at c_bands before calling an iterative solver
             0 MiB given to the printing process from OS
             0 MiB allocation reported by mallinfo(arena+hblkhd)
        169090 MiB available memory on the node where the printing process lives
------------------
     ethr =  8.36E-06,  avg # of iterations =  4.4

     negative rho (up, down):  7.941E-01 0.000E+00

     total cpu time spent up to now is      339.2 secs

     total energy              =   -4399.92526795 Ry
     estimated scf accuracy    <       0.02276581 Ry

     iteration # 24     ecut=    60.00 Ry     beta= 0.15
     Davidson diagonalization with overlap

---- Real-time Memory Report at c_bands before calling an iterative solver
             0 MiB given to the printing process from OS
             0 MiB allocation reported by mallinfo(arena+hblkhd)
        169096 MiB available memory on the node where the printing process lives
------------------
     ethr =  5.36E-06,  avg # of iterations = 11.5

     negative rho (up, down):  7.967E-01 0.000E+00

     total cpu time spent up to now is      357.5 secs

     total energy              =   -4399.92577141 Ry
     estimated scf accuracy    <       0.01155652 Ry

     iteration # 25     ecut=    60.00 Ry     beta= 0.15
     Davidson diagonalization with overlap

---- Real-time Memory Report at c_bands before calling an iterative solver
             0 MiB given to the printing process from OS
             0 MiB allocation reported by mallinfo(arena+hblkhd)
        169072 MiB available memory on the node where the printing process lives
------------------
     ethr =  2.72E-06,  avg # of iterations =  6.5

     negative rho (up, down):  7.970E-01 0.000E+00

     total cpu time spent up to now is      372.8 secs

     total energy              =   -4399.92542056 Ry
     estimated scf accuracy    <       0.00880784 Ry

     iteration # 26     ecut=    60.00 Ry     beta= 0.15
     Davidson diagonalization with overlap

---- Real-time Memory Report at c_bands before calling an iterative solver
             0 MiB given to the printing process from OS
             0 MiB allocation reported by mallinfo(arena+hblkhd)
        169048 MiB available memory on the node where the printing process lives
------------------
     c_bands:  1 eigenvalues not converged
     ethr =  2.07E-06,  avg # of iterations =  9.5

     negative rho (up, down):  7.935E-01 0.000E+00

     total cpu time spent up to now is      389.5 secs

     total energy              =   -4399.92469351 Ry
     estimated scf accuracy    <       0.00649350 Ry

     iteration # 27     ecut=    60.00 Ry     beta= 0.15
     Davidson diagonalization with overlap

---- Real-time Memory Report at c_bands before calling an iterative solver
             0 MiB given to the printing process from OS
             0 MiB allocation reported by mallinfo(arena+hblkhd)
        169068 MiB available memory on the node where the printing process lives
------------------
     ethr =  1.53E-06,  avg # of iterations =  5.9

     negative rho (up, down):  7.939E-01 0.000E+00

     total cpu time spent up to now is      405.2 secs

     total energy              =   -4399.92465417 Ry
     estimated scf accuracy    <       0.00365334 Ry

     iteration # 28     ecut=    60.00 Ry     beta= 0.15
     Davidson diagonalization with overlap

---- Real-time Memory Report at c_bands before calling an iterative solver
             0 MiB given to the printing process from OS
             0 MiB allocation reported by mallinfo(arena+hblkhd)
        169049 MiB available memory on the node where the printing process lives
------------------
     c_bands:  1 eigenvalues not converged
     ethr =  8.60E-07,  avg # of iterations =  8.8

     negative rho (up, down):  7.938E-01 0.000E+00

     total cpu time spent up to now is      422.6 secs

     total energy              =   -4399.92455341 Ry
     estimated scf accuracy    <       0.00154117 Ry

     iteration # 29     ecut=    60.00 Ry     beta= 0.15
     Davidson diagonalization with overlap

---- Real-time Memory Report at c_bands before calling an iterative solver
             0 MiB given to the printing process from OS
             0 MiB allocation reported by mallinfo(arena+hblkhd)
        168981 MiB available memory on the node where the printing process lives
------------------
     c_bands:  1 eigenvalues not converged
     ethr =  3.63E-07,  avg # of iterations =  9.2

     negative rho (up, down):  7.940E-01 0.000E+00

     total cpu time spent up to now is      439.4 secs

     total energy              =   -4399.92447186 Ry
     estimated scf accuracy    <       0.00071143 Ry

     iteration # 30     ecut=    60.00 Ry     beta= 0.15
     Davidson diagonalization with overlap

---- Real-time Memory Report at c_bands before calling an iterative solver
             0 MiB given to the printing process from OS
             0 MiB allocation reported by mallinfo(arena+hblkhd)
        168969 MiB available memory on the node where the printing process lives
------------------
     c_bands:  1 eigenvalues not converged
     ethr =  1.67E-07,  avg # of iterations =  8.4

     negative rho (up, down):  7.947E-01 0.000E+00

     total cpu time spent up to now is      455.7 secs

     total energy              =   -4399.92444722 Ry
     estimated scf accuracy    <       0.00041734 Ry

     iteration # 31     ecut=    60.00 Ry     beta= 0.15
     Davidson diagonalization with overlap

---- Real-time Memory Report at c_bands before calling an iterative solver
             0 MiB given to the printing process from OS
             0 MiB allocation reported by mallinfo(arena+hblkhd)
        168948 MiB available memory on the node where the printing process lives
------------------
     ethr =  9.82E-08,  avg # of iterations =  5.3

     negative rho (up, down):  7.943E-01 0.000E+00

     total cpu time spent up to now is      470.6 secs

     total energy              =   -4399.92441787 Ry
     estimated scf accuracy    <       0.00024045 Ry

     iteration # 32     ecut=    60.00 Ry     beta= 0.15
     Davidson diagonalization with overlap

---- Real-time Memory Report at c_bands before calling an iterative solver
             0 MiB given to the printing process from OS
             0 MiB allocation reported by mallinfo(arena+hblkhd)
        169030 MiB available memory on the node where the printing process lives
------------------
     ethr =  5.66E-08,  avg # of iterations =  2.1

     negative rho (up, down):  7.938E-01 0.000E+00

     total cpu time spent up to now is      484.4 secs

     total energy              =   -4399.92441405 Ry
     estimated scf accuracy    <       0.00011840 Ry

     iteration # 33     ecut=    60.00 Ry     beta= 0.15
     Davidson diagonalization with overlap

---- Real-time Memory Report at c_bands before calling an iterative solver
             0 MiB given to the printing process from OS
             0 MiB allocation reported by mallinfo(arena+hblkhd)
        169073 MiB available memory on the node where the printing process lives
------------------
     ethr =  2.79E-08,  avg # of iterations =  2.0

     negative rho (up, down):  7.933E-01 0.000E+00

     total cpu time spent up to now is      497.7 secs

     total energy              =   -4399.92440737 Ry
     estimated scf accuracy    <       0.00007433 Ry

     iteration # 34     ecut=    60.00 Ry     beta= 0.15
     Davidson diagonalization with overlap

---- Real-time Memory Report at c_bands before calling an iterative solver
             0 MiB given to the printing process from OS
             0 MiB allocation reported by mallinfo(arena+hblkhd)
        169068 MiB available memory on the node where the printing process lives
------------------
     ethr =  1.75E-08,  avg # of iterations =  2.1

     negative rho (up, down):  7.932E-01 0.000E+00

     total cpu time spent up to now is      511.2 secs

     total energy              =   -4399.92441005 Ry
     estimated scf accuracy    <       0.00002123 Ry

     iteration # 35     ecut=    60.00 Ry     beta= 0.15
     Davidson diagonalization with overlap

---- Real-time Memory Report at c_bands before calling an iterative solver
             0 MiB given to the printing process from OS
             0 MiB allocation reported by mallinfo(arena+hblkhd)
        169079 MiB available memory on the node where the printing process lives
------------------
     ethr =  5.00E-09,  avg # of iterations =  2.6

     negative rho (up, down):  7.928E-01 0.000E+00

     total cpu time spent up to now is      526.3 secs

     total energy              =   -4399.92441292 Ry
     estimated scf accuracy    <       0.00001643 Ry

     iteration # 36     ecut=    60.00 Ry     beta= 0.15
     Davidson diagonalization with overlap

---- Real-time Memory Report at c_bands before calling an iterative solver
             0 MiB given to the printing process from OS
             0 MiB allocation reported by mallinfo(arena+hblkhd)
        169061 MiB available memory on the node where the printing process lives
------------------
     ethr =  3.87E-09,  avg # of iterations =  2.0

     negative rho (up, down):  7.925E-01 0.000E+00

     total cpu time spent up to now is      539.6 secs

     total energy              =   -4399.92441662 Ry
     estimated scf accuracy    <       0.00001168 Ry

     iteration # 37     ecut=    60.00 Ry     beta= 0.15
     Davidson diagonalization with overlap

---- Real-time Memory Report at c_bands before calling an iterative solver
             0 MiB given to the printing process from OS
             0 MiB allocation reported by mallinfo(arena+hblkhd)
        169076 MiB available memory on the node where the printing process lives
------------------
     ethr =  2.75E-09,  avg # of iterations =  2.3

     negative rho (up, down):  7.923E-01 0.000E+00

     total cpu time spent up to now is      553.0 secs

     total energy              =   -4399.92442059 Ry
     estimated scf accuracy    <       0.00000779 Ry

     iteration # 38     ecut=    60.00 Ry     beta= 0.15
     Davidson diagonalization with overlap

---- Real-time Memory Report at c_bands before calling an iterative solver
             0 MiB given to the printing process from OS
             0 MiB allocation reported by mallinfo(arena+hblkhd)
        169093 MiB available memory on the node where the printing process lives
------------------
     ethr =  1.83E-09,  avg # of iterations =  3.1

     negative rho (up, down):  7.922E-01 0.000E+00

     total cpu time spent up to now is      566.9 secs

     total energy              =   -4399.92441997 Ry
     estimated scf accuracy    <       0.00000473 Ry

     iteration # 39     ecut=    60.00 Ry     beta= 0.15
     Davidson diagonalization with overlap

---- Real-time Memory Report at c_bands before calling an iterative solver
             0 MiB given to the printing process from OS
             0 MiB allocation reported by mallinfo(arena+hblkhd)
        169094 MiB available memory on the node where the printing process lives
------------------
     ethr =  1.11E-09,  avg # of iterations =  3.7

     negative rho (up, down):  7.922E-01 0.000E+00

     total cpu time spent up to now is      581.3 secs

     total energy              =   -4399.92441614 Ry
     estimated scf accuracy    <       0.00000345 Ry

     iteration # 40     ecut=    60.00 Ry     beta= 0.15
     Davidson diagonalization with overlap

---- Real-time Memory Report at c_bands before calling an iterative solver
             0 MiB given to the printing process from OS
             0 MiB allocation reported by mallinfo(arena+hblkhd)
        169090 MiB available memory on the node where the printing process lives
------------------
     ethr =  8.12E-10,  avg # of iterations =  3.5

     negative rho (up, down):  7.924E-01 0.000E+00

     total cpu time spent up to now is      595.2 secs

     total energy              =   -4399.92441706 Ry
     estimated scf accuracy    <       0.00000238 Ry

     iteration # 41     ecut=    60.00 Ry     beta= 0.15
     Davidson diagonalization with overlap

---- Real-time Memory Report at c_bands before calling an iterative solver
             0 MiB given to the printing process from OS
             0 MiB allocation reported by mallinfo(arena+hblkhd)
        169094 MiB available memory on the node where the printing process lives
------------------
     ethr =  5.60E-10,  avg # of iterations =  2.2

     negative rho (up, down):  7.925E-01 0.000E+00

     total cpu time spent up to now is      608.7 secs

     total energy              =   -4399.92441949 Ry
     estimated scf accuracy    <       0.00000137 Ry

     iteration # 42     ecut=    60.00 Ry     beta= 0.15
     Davidson diagonalization with overlap

---- Real-time Memory Report at c_bands before calling an iterative solver
             0 MiB given to the printing process from OS
             0 MiB allocation reported by mallinfo(arena+hblkhd)
        169094 MiB available memory on the node where the printing process lives
------------------
     ethr =  3.23E-10,  avg # of iterations =  3.8

     negative rho (up, down):  7.925E-01 0.000E+00

     total cpu time spent up to now is      622.9 secs

     total energy              =   -4399.92441999 Ry
     estimated scf accuracy    <       0.00000059 Ry

     iteration # 43     ecut=    60.00 Ry     beta= 0.15
     Davidson diagonalization with overlap

---- Real-time Memory Report at c_bands before calling an iterative solver
             0 MiB given to the printing process from OS
             0 MiB allocation reported by mallinfo(arena+hblkhd)
        169090 MiB available memory on the node where the printing process lives
------------------
     ethr =  1.40E-10,  avg # of iterations =  2.8

     negative rho (up, down):  7.925E-01 0.000E+00

     total cpu time spent up to now is      636.6 secs

     total energy              =   -4399.92442061 Ry
     estimated scf accuracy    <       0.00000030 Ry

     iteration # 44     ecut=    60.00 Ry     beta= 0.15
     Davidson diagonalization with overlap

---- Real-time Memory Report at c_bands before calling an iterative solver
             0 MiB given to the printing process from OS
             0 MiB allocation reported by mallinfo(arena+hblkhd)
        169088 MiB available memory on the node where the printing process lives
------------------
     ethr =  7.05E-11,  avg # of iterations =  3.9

     negative rho (up, down):  7.925E-01 0.000E+00

     total cpu time spent up to now is      651.3 secs

     total energy              =   -4399.92442074 Ry
     estimated scf accuracy    <       0.00000021 Ry

     iteration # 45     ecut=    60.00 Ry     beta= 0.15
     Davidson diagonalization with overlap

---- Real-time Memory Report at c_bands before calling an iterative solver
             0 MiB given to the printing process from OS
             0 MiB allocation reported by mallinfo(arena+hblkhd)
        169050 MiB available memory on the node where the printing process lives
------------------
     ethr =  4.90E-11,  avg # of iterations =  2.4

     negative rho (up, down):  7.925E-01 0.000E+00

     total cpu time spent up to now is      664.6 secs

     total energy              =   -4399.92442086 Ry
     estimated scf accuracy    <       0.00000013 Ry

     iteration # 46     ecut=    60.00 Ry     beta= 0.15
     Davidson diagonalization with overlap

---- Real-time Memory Report at c_bands before calling an iterative solver
             0 MiB given to the printing process from OS
             0 MiB allocation reported by mallinfo(arena+hblkhd)
        169056 MiB available memory on the node where the printing process lives
------------------
     ethr =  3.15E-11,  avg # of iterations =  4.7

     negative rho (up, down):  7.925E-01 0.000E+00

     total cpu time spent up to now is      679.8 secs

     total energy              =   -4399.92442086 Ry
     estimated scf accuracy    <       0.00000003 Ry

     iteration # 47     ecut=    60.00 Ry     beta= 0.15
     Davidson diagonalization with overlap

---- Real-time Memory Report at c_bands before calling an iterative solver
             0 MiB given to the printing process from OS
             0 MiB allocation reported by mallinfo(arena+hblkhd)
        169041 MiB available memory on the node where the printing process lives
------------------
     ethr =  7.58E-12,  avg # of iterations =  3.2

     negative rho (up, down):  7.925E-01 0.000E+00

     total cpu time spent up to now is      693.7 secs

     total energy              =   -4399.92442085 Ry
     estimated scf accuracy    <       0.00000001 Ry

     iteration # 48     ecut=    60.00 Ry     beta= 0.15
     Davidson diagonalization with overlap

---- Real-time Memory Report at c_bands before calling an iterative solver
             0 MiB given to the printing process from OS
             0 MiB allocation reported by mallinfo(arena+hblkhd)
        169048 MiB available memory on the node where the printing process lives
------------------
     ethr =  3.01E-12,  avg # of iterations =  3.0

     negative rho (up, down):  7.925E-01 0.000E+00

     total cpu time spent up to now is      707.4 secs

     End of self-consistent calculation

          k = 0.0000 0.0000 0.0000 ( 65197 PWs)   bands (ev):

   -92.7435 -92.6921 -92.5977 -92.5505 -92.4911 -92.4505 -92.4324 -92.3098
   -56.0969 -56.0789 -55.9549 -55.9442 -55.9376 -55.9310 -55.8947 -55.8669
   -55.8509 -55.8503 -55.8438 -55.7986 -55.7818 -55.7427 -55.7243 -55.6901
   -55.6860 -55.6382 -55.6370 -55.6356 -55.6271 -55.5844 -55.5629 -55.4759
   -31.3188 -31.2998 -31.1572 -31.0782 -31.0710 -30.9906 -30.8567 -30.8143
   -29.8906 -29.8483 -29.8213 -29.7135 -15.1238 -15.0821 -14.9988 -14.8692
   -14.6756 -14.5546 -14.2607 -14.2422 -14.2127 -14.1656 -14.1206 -14.1086
   -14.0997 -14.0792 -14.0639 -14.0101 -13.9733 -13.8207 -13.6407 -13.6081
   -13.5780 -13.5444 -13.5301 -13.4731 -13.4399 -13.3631 -13.2917 -13.1678
   -13.1515 -13.1412 -13.1163 -13.0979 -13.0842 -13.0488 -13.0382 -13.0304
   -12.9934 -12.9642 -12.9434 -12.9046 -12.8895 -12.8763 -12.8138 -12.8009
   -12.7962 -12.7142 -12.6994 -12.6844 -12.3836 -12.2378 -12.0739 -11.9984
   -11.9043 -11.8302 -11.8188 -11.7967 -11.7790 -11.7152 -11.6976 -11.6634
   -11.6335 -11.5224 -11.4426 -11.4390  -2.9843  -2.7520  -2.5223  -2.3755
    -2.3125  -2.1704  -1.8630  -1.8485  -1.8292  -1.7443  -1.7255  -1.6571
    -1.6409  -1.5990  -1.5566  -1.3744  -1.1501  -1.1186  -0.9733  -0.9588
    -0.9135  -0.8924  -0.8479  -0.8326  -0.7770  -0.7493  -0.6755  -0.6664
    -0.5893  -0.4573  -0.4448  -0.4156  -0.3347  -0.3096  -0.3023  -0.2445
    -0.1710  -0.1217  -0.0746  -0.0495   0.0191   0.0842   0.1378   0.1569
     0.1704   0.4283   0.4442   0.6159   0.6816   0.7466   0.7888   0.8817
     0.8930   0.9084   0.9801   1.0072   1.0408   1.0994   1.2311   1.2876
     1.3093   1.3307   1.3464   1.4082   1.4788   1.5867   1.5996   1.6599
     1.6726   1.7165   1.7331   1.7429   1.7990   1.8536   1.8653   1.8987
     1.9240   1.9841   2.1143   2.2040   2.2436   2.2554   2.4073   2.4211
     2.4697   2.4731   2.5755   2.6144   2.6359   2.6579   2.6755   2.7330
     2.7638   2.8646   2.8992   2.9105   2.9150   2.9824   2.9899   3.0122
     3.0184   3.0277   3.0374   3.0468   3.0599   3.0682   3.0782   3.0860
     3.0951   3.1142   3.1355   3.1403   3.1527   3.1814   3.2945   3.3938
     4.0685   4.3842   4.7281   4.8482   5.0022   5.8908   5.9210   5.9586
     5.9611   6.2728   6.3187   6.4610   6.4703   6.7503   6.9827   7.0749
     7.1918   7.2775   7.5129   7.5996   7.6241   7.6437   7.6667   7.9048
     8.0137   8.0861   8.1174   8.2020   8.4193   8.6000   8.8036   8.8628

     occupation numbers 
     1.0000   1.0000   1.0000   1.0000   1.0000   1.0000   1.0000   1.0000
     1.0000   1.0000   1.0000   1.0000   1.0000   1.0000   1.0000   1.0000
     1.0000   1.0000   1.0000   1.0000   1.0000   1.0000   1.0000   1.0000
     1.0000   1.0000   1.0000   1.0000   1.0000   1.0000   1.0000   1.0000
     1.0000   1.0000   1.0000   1.0000   1.0000   1.0000   1.0000   1.0000
     1.0000   1.0000   1.0000   1.0000   1.0000   1.0000   1.0000   1.0000
     1.0000   1.0000   1.0000   1.0000   1.0000   1.0000   1.0000   1.0000
     1.0000   1.0000   1.0000   1.0000   1.0000   1.0000   1.0000   1.0000
     1.0000   1.0000   1.0000   1.0000   1.0000   1.0000   1.0000   1.0000
     1.0000   1.0000   1.0000   1.0000   1.0000   1.0000   1.0000   1.0000
     1.0000   1.0000   1.0000   1.0000   1.0000   1.0000   1.0000   1.0000
     1.0000   1.0000   1.0000   1.0000   1.0000   1.0000   1.0000   1.0000
     1.0000   1.0000   1.0000   1.0000   1.0000   1.0000   1.0000   1.0000
     1.0000   1.0000   1.0000   1.0000   1.0000   1.0000   1.0000   1.0000
     1.0000   1.0000   1.0000   1.0000   1.0000   1.0000   1.0000   1.0000
     1.0000   1.0000   1.0000   1.0000   1.0000   1.0000   1.0000   1.0000
     1.0000   1.0000   1.0000   1.0000   1.0000   1.0000   1.0000   1.0000
     1.0000   1.0000   1.0000   1.0000   1.0000   1.0000   1.0000   1.0000
     1.0000   1.0000   1.0000   1.0000   1.0000   1.0000   1.0000   1.0000
     1.0000   1.0000   1.0000   1.0000   0.9999   0.9999   0.9999   0.9998
     0.9998   0.9998   0.9997   0.9996   0.9996   0.9994   0.9989   0.9985
     0.9983   0.9981   0.9980   0.9973   0.9963   0.9941   0.9938   0.9921
     0.9916   0.9900   0.9894   0.9889   0.9863   0.9832   0.9824   0.9802
     0.9783   0.9732   0.9588   0.9456   0.9388   0.9367   0.9036   0.9000
     0.8867   0.8858   0.8537   0.8400   0.8321   0.8238   0.8170   0.7934
     0.7801   0.7333   0.7162   0.7105   0.7082   0.6730   0.6689   0.6568
     0.6534   0.6483   0.6429   0.6377   0.6304   0.6258   0.6201   0.6157
     0.6105   0.5996   0.5874   0.5845   0.5774   0.5606   0.4938   0.4353
     0.1221   0.0512   0.0160   0.0101   0.0054   0.0001   0.0000   0.0000
     0.0000   0.0000   0.0000   0.0000   0.0000   0.0000   0.0000   0.0000
     0.0000   0.0000   0.0000   0.0000   0.0000   0.0000   0.0000   0.0000
     0.0000   0.0000   0.0000   0.0000   0.0000   0.0000   0.0000   0.0000

          k = 0.0000 0.2500 0.0000 ( 65257 PWs)   bands (ev):

   -92.7435 -92.6921 -92.5977 -92.5505 -92.4911 -92.4505 -92.4324 -92.3098
   -56.0969 -56.0789 -55.9549 -55.9442 -55.9376 -55.9310 -55.8947 -55.8669
   -55.8509 -55.8503 -55.8438 -55.7986 -55.7818 -55.7427 -55.7243 -55.6901
   -55.6860 -55.6382 -55.6370 -55.6356 -55.6271 -55.5844 -55.5629 -55.4759
   -31.3186 -31.2996 -31.1574 -31.0781 -31.0712 -30.9904 -30.8569 -30.8144
   -29.8900 -29.8480 -29.8220 -29.7138 -15.0870 -15.0560 -14.9738 -14.8397
   -14.7177 -14.5433 -14.4072 -14.2270 -14.1930 -14.1716 -14.1407 -14.0860
   -14.0743 -14.0636 -14.0447 -13.9846 -13.8924 -13.8522 -13.6892 -13.6643
   -13.6198 -13.5832 -13.5359 -13.4932 -13.4408 -13.3843 -13.3486 -13.2779
   -13.2173 -13.1887 -13.1499 -13.1334 -13.0743 -13.0255 -13.0018 -12.9749
   -12.9448 -12.9234 -12.9085 -12.8985 -12.8764 -12.8391 -12.7993 -12.7286
   -12.6993 -12.6894 -12.6537 -12.5645 -12.4449 -12.2890 -12.1296 -12.0635
   -11.8698 -11.8271 -11.7988 -11.7708 -11.7544 -11.7071 -11.6956 -11.6728
   -11.6391 -11.5366 -11.4842 -11.4737  -2.8489  -2.6277  -2.4900  -2.3079
    -2.2644  -2.1007  -1.8808  -1.7968  -1.7837  -1.7251  -1.6222  -1.6075
    -1.5747  -1.5468  -1.5032  -1.3055  -1.1759  -1.1649  -1.0884  -1.0788
    -0.9744  -0.9440  -0.8851  -0.8597  -0.8203  -0.7566  -0.7299  -0.6972
    -0.6658  -0.6493  -0.6163  -0.5424  -0.4919  -0.4236  -0.3101  -0.2904
    -0.2501  -0.1307  -0.0926  -0.0397   0.0168   0.0653   0.0865   0.1177
     0.1766   0.4756   0.5641   0.6003   0.6811   0.7260   0.7474   0.8647
     0.8838   0.9825   1.0064   1.0338   1.1472   1.2414   1.2649   1.2900
     1.3064   1.3311   1.3923   1.4194   1.4487   1.4947   1.5295   1.5607
     1.6484   1.6793   1.7105   1.7656   1.8211   1.8620   1.8847   1.9072
     1.9286   2.0201   2.1564   2.2245   2.2398   2.3171   2.3624   2.4045
     2.4103   2.4723   2.5121   2.5932   2.6296   2.6515   2.7418   2.8227
     2.8503   2.8793   2.9020   2.9162   2.9249   2.9324   2.9402   2.9707
     2.9730   2.9907   2.9966   3.0054   3.0267   3.0357   3.0465   3.0659
     3.0769   3.0817   3.1169   3.1331   3.1934   3.5674   3.6050   3.8364
     4.2571   4.3778   4.6741   5.0054   5.0231   5.6106   5.7656   5.9346
     5.9964   6.0570   6.0685   6.1508   6.5765   6.8710   6.9306   7.0871
     7.3036   7.4506   7.4688   7.6028   7.6230   7.7733   7.7978   8.0126
     8.0802   8.1202   8.1683   8.2641   8.3771   8.5742   8.7545   8.9178

     occupation numbers 
     1.0000   1.0000   1.0000   1.0000   1.0000   1.0000   1.0000   1.0000
     1.0000   1.0000   1.0000   1.0000   1.0000   1.0000   1.0000   1.0000
     1.0000   1.0000   1.0000   1.0000   1.0000   1.0000   1.0000   1.0000
     1.0000   1.0000   1.0000   1.0000   1.0000   1.0000   1.0000   1.0000
     1.0000   1.0000   1.0000   1.0000   1.0000   1.0000   1.0000   1.0000
     1.0000   1.0000   1.0000   1.0000   1.0000   1.0000   1.0000   1.0000
     1.0000   1.0000   1.0000   1.0000   1.0000   1.0000   1.0000   1.0000
     1.0000   1.0000   1.0000   1.0000   1.0000   1.0000   1.0000   1.0000
     1.0000   1.0000   1.0000   1.0000   1.0000   1.0000   1.0000   1.0000
     1.0000   1.0000   1.0000   1.0000   1.0000   1.0000   1.0000   1.0000
     1.0000   1.0000   1.0000   1.0000   1.0000   1.0000   1.0000   1.0000
     1.0000   1.0000   1.0000   1.0000   1.0000   1.0000   1.0000   1.0000
     1.0000   1.0000   1.0000   1.0000   1.0000   1.0000   1.0000   1.0000
     1.0000   1.0000   1.0000   1.0000   1.0000   1.0000   1.0000   1.0000
     1.0000   1.0000   1.0000   1.0000   1.0000   1.0000   1.0000   1.0000
     1.0000   1.0000   1.0000   1.0000   1.0000   1.0000   1.0000   1.0000
     1.0000   1.0000   1.0000   1.0000   1.0000   1.0000   1.0000   1.0000
     1.0000   1.0000   1.0000   1.0000   1.0000   1.0000   1.0000   1.0000
     1.0000   1.0000   1.0000   1.0000   1.0000   1.0000   1.0000   1.0000
     1.0000   1.0000   1.0000   1.0000   0.9999   0.9999   0.9999   0.9998
     0.9998   0.9997   0.9996   0.9996   0.9992   0.9988   0.9986   0.9985
     0.9983   0.9981   0.9975   0.9972   0.9968   0.9961   0.9954   0.9948
     0.9924   0.9914   0.9903   0.9879   0.9851   0.9826   0.9812   0.9796
     0.9779   0.9697   0.9530   0.9422   0.9395   0.9245   0.9145   0.9043
     0.9028   0.8860   0.8742   0.8476   0.8345   0.8262   0.7897   0.7534
     0.7403   0.7261   0.7148   0.7076   0.7031   0.6993   0.6952   0.6792
     0.6780   0.6685   0.6653   0.6606   0.6489   0.6439   0.6379   0.6271
     0.6208   0.6182   0.5981   0.5887   0.5536   0.3370   0.3169   0.2061
     0.0743   0.0522   0.0195   0.0053   0.0049   0.0003   0.0001   0.0000
     0.0000   0.0000   0.0000   0.0000   0.0000   0.0000   0.0000   0.0000
     0.0000   0.0000   0.0000   0.0000   0.0000   0.0000   0.0000   0.0000
     0.0000   0.0000   0.0000   0.0000   0.0000   0.0000   0.0000   0.0000

          k = 0.0000-0.5000 0.0000 ( 65180 PWs)   bands (ev):

   -92.7435 -92.6921 -92.5977 -92.5505 -92.4911 -92.4505 -92.4324 -92.3098
   -56.0969 -56.0789 -55.9549 -55.9442 -55.9376 -55.9310 -55.8947 -55.8669
   -55.8509 -55.8503 -55.8438 -55.7986 -55.7818 -55.7427 -55.7243 -55.6901
   -55.6860 -55.6382 -55.6370 -55.6356 -55.6271 -55.5844 -55.5629 -55.4759
   -31.3184 -31.2995 -31.1576 -31.0780 -31.0713 -30.9901 -30.8572 -30.8145
   -29.8893 -29.8477 -29.8226 -29.7142 -15.0526 -15.0046 -14.9503 -14.8228
   -14.7364 -14.6026 -14.4430 -14.3281 -14.1995 -14.1236 -14.0829 -14.0773
   -14.0279 -14.0129 -13.9626 -13.9406 -13.9188 -13.8853 -13.8443 -13.7982
   -13.6250 -13.5667 -13.5408 -13.4987 -13.4202 -13.4004 -13.3579 -13.3243
   -13.3133 -13.2586 -13.1509 -13.1345 -13.0649 -13.0106 -12.9976 -12.9698
   -12.9625 -12.9233 -12.9018 -12.8724 -12.7916 -12.7470 -12.7206 -12.6994
   -12.6929 -12.6905 -12.5558 -12.5048 -12.3641 -12.3572 -12.2280 -12.1793
   -11.8241 -11.8213 -11.7938 -11.7565 -11.7220 -11.7108 -11.6692 -11.6651
   -11.6211 -11.5580 -11.5447 -11.5308  -2.6338  -2.5756  -2.4247  -2.3526
    -2.0698  -1.9878  -1.8592  -1.7229  -1.6834  -1.6655  -1.5880  -1.5560
    -1.4735  -1.4386  -1.3600  -1.3212  -1.2833  -1.2560  -1.1980  -1.1598
    -1.1142  -1.0772  -1.0442  -1.0118  -0.9001  -0.8563  -0.8205  -0.8169
    -0.7319  -0.7021  -0.6789  -0.6321  -0.5441  -0.4714  -0.3835  -0.3553
    -0.2440  -0.2171  -0.0725  -0.0324  -0.0005   0.0379   0.1591   0.2314
     0.3494   0.4184   0.4285   0.5541   0.6110   0.6909   0.8346   0.9366
     0.9699   1.0112   1.0200   1.0505   1.0712   1.1065   1.1229   1.1388
     1.2459   1.3050   1.3344   1.3571   1.6299   1.6524   1.6794   1.7646
     1.7869   1.8299   1.8449   1.8695   1.8852   1.8969   1.9172   1.9608
     1.9868   2.0135   2.0250   2.0539   2.1081   2.1949   2.2347   2.3952
     2.5563   2.5633   2.5853   2.6248   2.6275   2.6397   2.6891   2.7015
     2.7564   2.7607   2.7776   2.8546   2.8704   2.9408   2.9424   2.9702
     2.9723   2.9873   2.9900   2.9947   3.0015   3.0074   3.0206   3.0352
     3.0450   3.1039   3.1058   3.1226   3.1826   4.0787   4.0952   4.1604
     4.2221   4.6880   4.8726   4.9915   5.1333   5.3876   5.4340   5.5504
     5.6970   5.9841   6.0045   6.1053   6.6868   6.8270   6.9344   7.1947
     7.3017   7.3878   7.4425   7.6166   7.7163   7.8280   7.8723   7.9573
     8.1583   8.2498   8.3513   8.4625   8.6325   8.7479   8.7826   8.8215

     occupation numbers 
     1.0000   1.0000   1.0000   1.0000   1.0000   1.0000   1.0000   1.0000
     1.0000   1.0000   1.0000   1.0000   1.0000   1.0000   1.0000   1.0000
     1.0000   1.0000   1.0000   1.0000   1.0000   1.0000   1.0000   1.0000
     1.0000   1.0000   1.0000   1.0000   1.0000   1.0000   1.0000   1.0000
     1.0000   1.0000   1.0000   1.0000   1.0000   1.0000   1.0000   1.0000
     1.0000   1.0000   1.0000   1.0000   1.0000   1.0000   1.0000   1.0000
     1.0000   1.0000   1.0000   1.0000   1.0000   1.0000   1.0000   1.0000
     1.0000   1.0000   1.0000   1.0000   1.0000   1.0000   1.0000   1.0000
     1.0000   1.0000   1.0000   1.0000   1.0000   1.0000   1.0000   1.0000
     1.0000   1.0000   1.0000   1.0000   1.0000   1.0000   1.0000   1.0000
     1.0000   1.0000   1.0000   1.0000   1.0000   1.0000   1.0000   1.0000
     1.0000   1.0000   1.0000   1.0000   1.0000   1.0000   1.0000   1.0000
     1.0000   1.0000   1.0000   1.0000   1.0000   1.0000   1.0000   1.0000
     1.0000   1.0000   1.0000   1.0000   1.0000   1.0000   1.0000   1.0000
     1.0000   1.0000   1.0000   1.0000   1.0000   1.0000   1.0000   1.0000
     1.0000   1.0000   1.0000   1.0000   1.0000   1.0000   1.0000   1.0000
     1.0000   1.0000   1.0000   1.0000   1.0000   1.0000   1.0000   1.0000
     1.0000   1.0000   1.0000   1.0000   1.0000   1.0000   1.0000   1.0000
     1.0000   1.0000   1.0000   1.0000   1.0000   1.0000   1.0000   1.0000
     1.0000   1.0000   1.0000   1.0000   1.0000   0.9999   0.9999   0.9998
     0.9997   0.9996   0.9996   0.9995   0.9995   0.9994   0.9993   0.9993
     0.9988   0.9984   0.9981   0.9979   0.9930   0.9923   0.9914   0.9880
     0.9869   0.9846   0.9837   0.9822   0.9811   0.9803   0.9788   0.9753
     0.9730   0.9704   0.9692   0.9661   0.9596   0.9471   0.9404   0.9066
     0.8601   0.8578   0.8503   0.8362   0.8352   0.8307   0.8115   0.8065
     0.7834   0.7815   0.7740   0.7382   0.7305   0.6949   0.6941   0.6794
     0.6783   0.6703   0.6689   0.6663   0.6627   0.6595   0.6522   0.6442
     0.6388   0.6055   0.6044   0.5948   0.5599   0.1190   0.1142   0.0966
     0.0818   0.0186   0.0092   0.0056   0.0030   0.0009   0.0007   0.0004
     0.0002   0.0000   0.0000   0.0000   0.0000   0.0000   0.0000   0.0000
     0.0000   0.0000   0.0000   0.0000   0.0000   0.0000   0.0000   0.0000
     0.0000   0.0000   0.0000   0.0000   0.0000   0.0000   0.0000   0.0000

          k = 0.2500 0.2500 0.0000 ( 65198 PWs)   bands (ev):

   -92.7435 -92.6921 -92.5977 -92.5505 -92.4911 -92.4505 -92.4324 -92.3098
   -56.0969 -56.0789 -55.9549 -55.9442 -55.9376 -55.9310 -55.8947 -55.8669
   -55.8509 -55.8503 -55.8438 -55.7986 -55.7818 -55.7427 -55.7243 -55.6901
   -55.6860 -55.6382 -55.6370 -55.6356 -55.6271 -55.5844 -55.5629 -55.4759
   -31.3169 -31.3014 -31.1570 -31.0778 -31.0716 -30.9907 -30.8562 -30.8152
   -29.8890 -29.8490 -29.8216 -29.7143 -15.0585 -15.0215 -14.9457 -14.8292
   -14.7091 -14.5851 -14.5121 -14.3047 -14.1501 -14.1375 -14.1004 -14.0729
   -14.0475 -14.0239 -13.9899 -13.9466 -13.8820 -13.8656 -13.7038 -13.6901
   -13.6603 -13.6417 -13.5862 -13.5517 -13.4694 -13.4617 -13.3446 -13.3075
   -13.2695 -13.1835 -13.1425 -13.0914 -13.0602 -13.0347 -13.0109 -12.9880
   -12.9581 -12.9311 -12.8870 -12.8530 -12.8011 -12.7831 -12.7627 -12.7550
   -12.7403 -12.7062 -12.5371 -12.4934 -12.4532 -12.3181 -12.1670 -12.1075
   -11.8420 -11.8107 -11.7995 -11.7920 -11.7304 -11.6949 -11.6887 -11.6532
   -11.6446 -11.5534 -11.5125 -11.4951  -2.7106  -2.5020  -2.3838  -2.2896
    -2.1689  -2.1042  -1.9056  -1.7616  -1.7423  -1.7122  -1.6170  -1.5849
    -1.4901  -1.4630  -1.4121  -1.2813  -1.2334  -1.1597  -1.1153  -1.0703
    -1.0471  -1.0229  -0.9796  -0.9653  -0.8745  -0.8242  -0.7570  -0.7096
    -0.6795  -0.6301  -0.6169  -0.5535  -0.5032  -0.4438  -0.4128  -0.3246
    -0.2719  -0.2448  -0.2053  -0.1505  -0.0687  -0.0400  -0.0160   0.0601
     0.0913   0.3676   0.5175   0.5503   0.6094   0.6509   0.7002   0.7512
     0.8240   0.8589   1.1312   1.1979   1.2709   1.2970   1.3465   1.3756
     1.4121   1.4503   1.4668   1.4951   1.5412   1.5483   1.5634   1.6063
     1.6431   1.6861   1.7479   1.7808   1.7927   1.8251   1.8586   1.9114
     1.9338   2.0605   2.1337   2.1705   2.1918   2.2561   2.3219   2.3531
     2.3895   2.4180   2.4239   2.5367   2.5734   2.6646   2.7458   2.8350
     2.8528   2.8580   2.8754   2.8918   2.9016   2.9147   2.9202   2.9318
     2.9460   2.9585   2.9747   2.9826   2.9930   3.0156   3.0270   3.0370
     3.0676   3.3685   3.4611   3.5068   3.5740   3.6070   3.8185   3.9117
     4.2663   4.4659   4.6775   4.9420   5.1510   5.6112   5.6648   5.7227
     5.7958   5.8556   6.0755   6.1495   6.1897   6.8260   6.8772   7.0756
     7.2635   7.5228   7.5724   7.6782   7.7980   7.8420   7.9600   8.0989
     8.2085   8.2584   8.2799   8.3198   8.4082   8.4352   8.6776   8.8402

     occupation numbers 
     1.0000   1.0000   1.0000   1.0000   1.0000   1.0000   1.0000   1.0000
     1.0000   1.0000   1.0000   1.0000   1.0000   1.0000   1.0000   1.0000
     1.0000   1.0000   1.0000   1.0000   1.0000   1.0000   1.0000   1.0000
     1.0000   1.0000   1.0000   1.0000   1.0000   1.0000   1.0000   1.0000
     1.0000   1.0000   1.0000   1.0000   1.0000   1.0000   1.0000   1.0000
     1.0000   1.0000   1.0000   1.0000   1.0000   1.0000   1.0000   1.0000
     1.0000   1.0000   1.0000   1.0000   1.0000   1.0000   1.0000   1.0000
     1.0000   1.0000   1.0000   1.0000   1.0000   1.0000   1.0000   1.0000
     1.0000   1.0000   1.0000   1.0000   1.0000   1.0000   1.0000   1.0000
     1.0000   1.0000   1.0000   1.0000   1.0000   1.0000   1.0000   1.0000
     1.0000   1.0000   1.0000   1.0000   1.0000   1.0000   1.0000   1.0000
     1.0000   1.0000   1.0000   1.0000   1.0000   1.0000   1.0000   1.0000
     1.0000   1.0000   1.0000   1.0000   1.0000   1.0000   1.0000   1.0000
     1.0000   1.0000   1.0000   1.0000   1.0000   1.0000   1.0000   1.0000
     1.0000   1.0000   1.0000   1.0000   1.0000   1.0000   1.0000   1.0000
     1.0000   1.0000   1.0000   1.0000   1.0000   1.0000   1.0000   1.0000
     1.0000   1.0000   1.0000   1.0000   1.0000   1.0000   1.0000   1.0000
     1.0000   1.0000   1.0000   1.0000   1.0000   1.0000   1.0000   1.0000
     1.0000   1.0000   1.0000   1.0000   1.0000   1.0000   1.0000   1.0000
     1.0000   1.0000   1.0000   1.0000   1.0000   1.0000   0.9999   0.9999
     0.9999   0.9998   0.9993   0.9990   0.9986   0.9984   0.9980   0.9977
     0.9973   0.9968   0.9965   0.9961   0.9952   0.9950   0.9947   0.9936
     0.9926   0.9912   0.9887   0.9872   0.9866   0.9849   0.9829   0.9792
     0.9775   0.9654   0.9562   0.9509   0.9476   0.9366   0.9235   0.9166
     0.9080   0.9008   0.8993   0.8665   0.8544   0.8212   0.7880   0.7476
     0.7391   0.7366   0.7281   0.7199   0.7150   0.7084   0.7056   0.6996
     0.6922   0.6856   0.6771   0.6728   0.6672   0.6550   0.6487   0.6432
     0.6261   0.4502   0.3964   0.3705   0.3335   0.3158   0.2137   0.1757
     0.0724   0.0397   0.0193   0.0069   0.0028   0.0003   0.0002   0.0001
     0.0001   0.0001   0.0000   0.0000   0.0000   0.0000   0.0000   0.0000
     0.0000   0.0000   0.0000   0.0000   0.0000   0.0000   0.0000   0.0000
     0.0000   0.0000   0.0000   0.0000   0.0000   0.0000   0.0000   0.0000

          k = 0.2500-0.5000 0.0000 ( 65138 PWs)   bands (ev):

   -92.7435 -92.6921 -92.5977 -92.5505 -92.4911 -92.4505 -92.4324 -92.3098
   -56.0969 -56.0789 -55.9549 -55.9442 -55.9376 -55.9310 -55.8947 -55.8669
   -55.8509 -55.8503 -55.8438 -55.7986 -55.7818 -55.7427 -55.7243 -55.6901
   -55.6860 -55.6382 -55.6370 -55.6356 -55.6271 -55.5844 -55.5629 -55.4759
   -31.3167 -31.3012 -31.1572 -31.0777 -31.0717 -30.9905 -30.8564 -30.8153
   -29.8883 -29.8487 -29.8222 -29.7146 -15.0223 -14.9778 -14.9076 -14.7934
   -14.7586 -14.6427 -14.5465 -14.4230 -14.1146 -14.0603 -14.0358 -14.0113
   -13.9970 -13.9846 -13.9465 -13.9288 -13.9001 -13.8615 -13.8370 -13.7850
   -13.7075 -13.6592 -13.6011 -13.5802 -13.5101 -13.4681 -13.3977 -13.3672
   -13.2483 -13.1831 -13.1619 -13.0759 -13.0313 -13.0210 -13.0142 -12.9849
   -12.9534 -12.9269 -12.9114 -12.8506 -12.8026 -12.7493 -12.7302 -12.7139
   -12.6967 -12.6645 -12.5624 -12.4649 -12.3615 -12.3159 -12.2202 -12.1881
   -11.8177 -11.8057 -11.7947 -11.7672 -11.7362 -11.7072 -11.6667 -11.6393
   -11.6172 -11.5713 -11.5456 -11.5350  -2.4917  -2.4275  -2.2985  -2.2213
    -2.0903  -2.0078  -1.8837  -1.7341  -1.6791  -1.6576  -1.5956  -1.5824
    -1.4840  -1.4181  -1.3331  -1.2825  -1.2735  -1.2110  -1.1684  -1.1338
    -1.0857  -1.0487  -1.0137  -0.9745  -0.9608  -0.9176  -0.8886  -0.8450
    -0.8152  -0.7481  -0.6453  -0.6085  -0.5282  -0.4620  -0.4112  -0.3714
    -0.3522  -0.2902  -0.1354  -0.1240  -0.0204   0.0091   0.0192   0.0624
     0.1017   0.1327   0.1675   0.2336   0.5165   0.6083   0.6581   0.7166
     0.9984   1.0132   1.1032   1.1307   1.2954   1.3298   1.3700   1.3958
     1.4079   1.4297   1.4922   1.5419   1.5757   1.6473   1.7536   1.7843
     1.8037   1.8116   1.8497   1.8630   1.8742   1.9144   1.9245   1.9456
     1.9711   1.9913   2.0177   2.0481   2.1077   2.1509   2.2298   2.3632
     2.5115   2.5281   2.5460   2.5706   2.5970   2.6276   2.6493   2.6630
     2.6820   2.7620   2.7836   2.8351   2.8555   2.8581   2.8730   2.8920
     2.9050   2.9247   2.9309   2.9699   2.9755   2.9917   2.9977   3.0064
     3.0175   3.5294   3.5659   3.7002   3.7589   4.0825   4.1398   4.1613
     4.2795   4.7087   4.8923   5.0249   5.1018   5.2632   5.4022   5.5734
     5.6143   5.7287   5.7565   6.2182   6.3716   6.4666   6.6240   7.1127
     7.4659   7.5477   7.6715   7.7761   7.8397   7.8912   8.0067   8.2726
     8.3062   8.3963   8.4342   8.5041   8.5301   8.6082   8.6845   8.7392

     occupation numbers 
     1.0000   1.0000   1.0000   1.0000   1.0000   1.0000   1.0000   1.0000
     1.0000   1.0000   1.0000   1.0000   1.0000   1.0000   1.0000   1.0000
     1.0000   1.0000   1.0000   1.0000   1.0000   1.0000   1.0000   1.0000
     1.0000   1.0000   1.0000   1.0000   1.0000   1.0000   1.0000   1.0000
     1.0000   1.0000   1.0000   1.0000   1.0000   1.0000   1.0000   1.0000
     1.0000   1.0000   1.0000   1.0000   1.0000   1.0000   1.0000   1.0000
     1.0000   1.0000   1.0000   1.0000   1.0000   1.0000   1.0000   1.0000
     1.0000   1.0000   1.0000   1.0000   1.0000   1.0000   1.0000   1.0000
     1.0000   1.0000   1.0000   1.0000   1.0000   1.0000   1.0000   1.0000
     1.0000   1.0000   1.0000   1.0000   1.0000   1.0000   1.0000   1.0000
     1.0000   1.0000   1.0000   1.0000   1.0000   1.0000   1.0000   1.0000
     1.0000   1.0000   1.0000   1.0000   1.0000   1.0000   1.0000   1.0000
     1.0000   1.0000   1.0000   1.0000   1.0000   1.0000   1.0000   1.0000
     1.0000   1.0000   1.0000   1.0000   1.0000   1.0000   1.0000   1.0000
     1.0000   1.0000   1.0000   1.0000   1.0000   1.0000   1.0000   1.0000
     1.0000   1.0000   1.0000   1.0000   1.0000   1.0000   1.0000   1.0000
     1.0000   1.0000   1.0000   1.0000   1.0000   1.0000   1.0000   1.0000
     1.0000   1.0000   1.0000   1.0000   1.0000   1.0000   1.0000   1.0000
     1.0000   1.0000   1.0000   1.0000   1.0000   1.0000   1.0000   1.0000
     1.0000   1.0000   1.0000   1.0000   1.0000   1.0000   1.0000   0.9999
     0.9997   0.9996   0.9994   0.9993   0.9984   0.9981   0.9978   0.9975
     0.9973   0.9971   0.9961   0.9952   0.9944   0.9925   0.9885   0.9870
     0.9860   0.9856   0.9834   0.9826   0.9819   0.9790   0.9783   0.9766
     0.9744   0.9726   0.9700   0.9668   0.9597   0.9538   0.9413   0.9143
     0.8744   0.8692   0.8635   0.8553   0.8462   0.8352   0.8271   0.8218
     0.8144   0.7809   0.7714   0.7476   0.7378   0.7365   0.7292   0.7198
     0.7133   0.7032   0.7001   0.6796   0.6766   0.6680   0.6647   0.6600
     0.6539   0.3579   0.3379   0.2684   0.2404   0.1179   0.1019   0.0964
     0.0697   0.0172   0.0085   0.0049   0.0035   0.0016   0.0008   0.0003
     0.0003   0.0001   0.0001   0.0000   0.0000   0.0000   0.0000   0.0000
     0.0000   0.0000   0.0000   0.0000   0.0000   0.0000   0.0000   0.0000
     0.0000   0.0000   0.0000   0.0000   0.0000   0.0000   0.0000   0.0000

          k =-0.5000-0.5000 0.0000 ( 65132 PWs)   bands (ev):

   -92.7435 -92.6921 -92.5977 -92.5505 -92.4911 -92.4505 -92.4324 -92.3098
   -56.0969 -56.0789 -55.9549 -55.9442 -55.9376 -55.9310 -55.8947 -55.8669
   -55.8509 -55.8503 -55.8438 -55.7986 -55.7818 -55.7427 -55.7243 -55.6901
   -55.6860 -55.6382 -55.6370 -55.6356 -55.6271 -55.5844 -55.5629 -55.4759
   -31.3145 -31.3035 -31.1568 -31.0773 -31.0721 -30.9908 -30.8556 -30.8161
   -29.8873 -29.8498 -29.8218 -29.7150 -14.9766 -14.9503 -14.8332 -14.8201
   -14.7205 -14.6908 -14.6507 -14.5208 -14.0265 -14.0134 -13.9818 -13.9603
   -13.9443 -13.9253 -13.9031 -13.8926 -13.8697 -13.8681 -13.8499 -13.7737
   -13.7687 -13.7262 -13.7042 -13.6946 -13.5997 -13.5305 -13.4354 -13.4123
   -13.2000 -13.1584 -13.0900 -13.0664 -13.0303 -13.0258 -13.0160 -12.9973
   -12.9806 -12.9317 -12.8512 -12.8471 -12.8159 -12.7944 -12.7561 -12.7302
   -12.6459 -12.6386 -12.5786 -12.4327 -12.3579 -12.2711 -12.2161 -12.2004
   -11.8144 -11.8016 -11.7838 -11.7671 -11.7321 -11.7156 -11.6790 -11.6197
   -11.5992 -11.5939 -11.5435 -11.5408  -2.2668  -2.1919  -2.1834  -2.1115
    -2.0725  -1.9938  -1.9258  -1.7999  -1.6843  -1.6547  -1.6141  -1.5580
    -1.4856  -1.4705  -1.4003  -1.3578  -1.2403  -1.2114  -1.1626  -1.1348
    -1.0703  -1.0238  -1.0053  -0.9935  -0.9391  -0.8952  -0.8776  -0.7665
    -0.7107  -0.6639  -0.6128  -0.5856  -0.5720  -0.5377  -0.4968  -0.4598
    -0.4495  -0.3654  -0.2948  -0.2527  -0.2253  -0.1526  -0.0895  -0.0857
    -0.0227   0.0033   0.0097   0.0184   0.4853   0.5363   0.6072   0.6222
     1.0250   1.0388   1.0723   1.1065   1.3804   1.3996   1.4063   1.4445
     1.5755   1.6681   1.6967   1.7326   1.7630   1.7751   1.7862   1.8180
     1.8326   1.8499   1.8540   1.9020   1.9093   1.9354   1.9525   1.9686
     1.9813   2.0235   2.0471   2.0601   2.0937   2.1210   2.1899   2.2564
     2.5260   2.5539   2.5734   2.5933   2.6038   2.6241   2.6366   2.6592
     2.6680   2.6852   2.7067   2.7169   2.7606   2.7875   2.7920   2.8106
     2.8224   2.8451   2.8590   2.8597   2.8802   2.9717   2.9810   3.0021
     3.0140   3.9522   3.9938   4.0087   4.0745   4.2760   4.3482   4.3758
     4.6166   4.7387   4.8213   4.9510   5.0406   5.0569   5.1659   5.2627
     5.3796   5.8415   5.8615   5.9326   6.0177   6.4831   6.5907   6.6216
     7.7610   7.8888   7.9046   7.9350   7.9462   7.9776   7.9952   8.0549
     8.2362   8.4450   8.5061   8.5574   8.5819   8.6159   8.6373   8.6539

     occupation numbers 
     1.0000   1.0000   1.0000   1.0000   1.0000   1.0000   1.0000   1.0000
     1.0000   1.0000   1.0000   1.0000   1.0000   1.0000   1.0000   1.0000
     1.0000   1.0000   1.0000   1.0000   1.0000   1.0000   1.0000   1.0000
     1.0000   1.0000   1.0000   1.0000   1.0000   1.0000   1.0000   1.0000
     1.0000   1.0000   1.0000   1.0000   1.0000   1.0000   1.0000   1.0000
     1.0000   1.0000   1.0000   1.0000   1.0000   1.0000   1.0000   1.0000
     1.0000   1.0000   1.0000   1.0000   1.0000   1.0000   1.0000   1.0000
     1.0000   1.0000   1.0000   1.0000   1.0000   1.0000   1.0000   1.0000
     1.0000   1.0000   1.0000   1.0000   1.0000   1.0000   1.0000   1.0000
     1.0000   1.0000   1.0000   1.0000   1.0000   1.0000   1.0000   1.0000
     1.0000   1.0000   1.0000   1.0000   1.0000   1.0000   1.0000   1.0000
     1.0000   1.0000   1.0000   1.0000   1.0000   1.0000   1.0000   1.0000
     1.0000   1.0000   1.0000   1.0000   1.0000   1.0000   1.0000   1.0000
     1.0000   1.0000   1.0000   1.0000   1.0000   1.0000   1.0000   1.0000
     1.0000   1.0000   1.0000   1.0000   1.0000   1.0000   1.0000   1.0000
     1.0000   1.0000   1.0000   1.0000   1.0000   1.0000   1.0000   1.0000
     1.0000   1.0000   1.0000   1.0000   1.0000   1.0000   1.0000   1.0000
     1.0000   1.0000   1.0000   1.0000   1.0000   1.0000   1.0000   1.0000
     1.0000   1.0000   1.0000   1.0000   1.0000   1.0000   1.0000   1.0000
     1.0000   1.0000   1.0000   1.0000   1.0000   1.0000   1.0000   1.0000
     0.9996   0.9996   0.9995   0.9994   0.9976   0.9974   0.9974   0.9968
     0.9944   0.9918   0.9908   0.9894   0.9881   0.9875   0.9869   0.9853
     0.9844   0.9834   0.9831   0.9799   0.9794   0.9774   0.9760   0.9746
     0.9735   0.9694   0.9669   0.9654   0.9614   0.9579   0.9479   0.9365
     0.8699   0.8609   0.8544   0.8475   0.8438   0.8365   0.8319   0.8233
     0.8199   0.8131   0.8044   0.8002   0.7816   0.7696   0.7676   0.7590
     0.7536   0.7428   0.7361   0.7357   0.7257   0.6787   0.6737   0.6623
     0.6558   0.1606   0.1460   0.1410   0.1203   0.0704   0.0570   0.0525
     0.0239   0.0154   0.0112   0.0067   0.0046   0.0042   0.0026   0.0017
     0.0009   0.0001   0.0001   0.0000   0.0000   0.0000   0.0000   0.0000
     0.0000   0.0000   0.0000   0.0000   0.0000   0.0000   0.0000   0.0000
     0.0000   0.0000   0.0000   0.0000   0.0000   0.0000   0.0000   0.0000

          k = 0.2500 0.0000 0.0000 ( 65257 PWs)   bands (ev):

   -92.7435 -92.6921 -92.5977 -92.5505 -92.4911 -92.4505 -92.4324 -92.3098
   -56.0969 -56.0789 -55.9549 -55.9442 -55.9376 -55.9310 -55.8947 -55.8669
   -55.8509 -55.8503 -55.8438 -55.7986 -55.7818 -55.7427 -55.7243 -55.6901
   -55.6860 -55.6382 -55.6370 -55.6356 -55.6271 -55.5844 -55.5629 -55.4759
   -31.3171 -31.3015 -31.1568 -31.0779 -31.0714 -30.9909 -30.8559 -30.8151
   -29.8896 -29.8493 -29.8209 -29.7139 -15.0907 -15.0521 -14.9791 -14.8326
   -14.7248 -14.5347 -14.3957 -14.2186 -14.2008 -14.1700 -14.1382 -14.1154
   -14.0822 -14.0637 -14.0440 -13.9923 -13.8812 -13.8497 -13.7010 -13.6311
   -13.6219 -13.5584 -13.5338 -13.5215 -13.4528 -13.3866 -13.3536 -13.2710
   -13.2078 -13.1988 -13.1016 -13.0869 -13.0762 -13.0654 -13.0463 -13.0115
   -12.9757 -12.9373 -12.8614 -12.8559 -12.8295 -12.8130 -12.7961 -12.7883
[...]
     0.7451   0.7304   0.7153   0.7149   0.7034   0.6988   0.6915   0.6799
     0.6770   0.6633   0.6569   0.6537   0.6463   0.6344   0.6218   0.6193
     0.6147   0.6108   0.6053   0.5995   0.5248   0.3574   0.3196   0.2025
     0.0776   0.0464   0.0220   0.0055   0.0046   0.0003   0.0001   0.0000
     0.0000   0.0000   0.0000   0.0000   0.0000   0.0000   0.0000   0.0000
     0.0000   0.0000   0.0000   0.0000   0.0000   0.0000   0.0000   0.0000
     0.0000   0.0000   0.0000   0.0000   0.0000   0.0000   0.0000   0.0000

          k =-0.5000 0.0000 0.0000 ( 65180 PWs)   bands (ev):

   -92.7435 -92.6921 -92.5977 -92.5505 -92.4911 -92.4505 -92.4324 -92.3098
   -56.0969 -56.0789 -55.9549 -55.9442 -55.9376 -55.9310 -55.8947 -55.8669
   -55.8509 -55.8503 -55.8438 -55.7986 -55.7818 -55.7427 -55.7243 -55.6901
   -55.6860 -55.6382 -55.6370 -55.6356 -55.6271 -55.5844 -55.5629 -55.4759
   -31.3148 -31.3038 -31.1564 -31.0775 -31.0718 -30.9913 -30.8551 -30.8159
   -29.8885 -29.8504 -29.8205 -29.7144 -15.0576 -15.0075 -14.9452 -14.8304
   -14.7319 -14.5867 -14.4466 -14.2880 -14.1747 -14.1621 -14.1503 -14.0924
   -14.0338 -14.0028 -13.9540 -13.9388 -13.9248 -13.8785 -13.8481 -13.7563
   -13.5972 -13.5670 -13.5368 -13.5289 -13.4429 -13.4063 -13.3663 -13.3086
   -13.2854 -13.2703 -13.0953 -13.0842 -13.0611 -13.0539 -13.0294 -13.0107
   -12.9830 -12.9613 -12.8492 -12.8181 -12.7905 -12.7814 -12.7695 -12.7086
   -12.6814 -12.6722 -12.5821 -12.4625 -12.3680 -12.3070 -12.2395 -12.2085
   -11.8207 -11.7997 -11.7926 -11.7791 -11.7608 -11.7194 -11.6558 -11.6374
   -11.6043 -11.5614 -11.5523 -11.5363  -2.6242  -2.5855  -2.4223  -2.3827
    -2.0692  -1.9938  -1.8472  -1.7283  -1.6891  -1.6435  -1.5962  -1.5709
    -1.4474  -1.4033  -1.3881  -1.3060  -1.2698  -1.2555  -1.2232  -1.1637
    -1.0967  -1.0683  -1.0362  -0.9414  -0.8967  -0.8481  -0.8147  -0.7942
    -0.7626  -0.7145  -0.6902  -0.6505  -0.5510  -0.4845  -0.4125  -0.3530
    -0.1874  -0.1567  -0.0984  -0.0591   0.0059   0.0118   0.1529   0.1832
     0.2184   0.3981   0.4974   0.5467   0.6231   0.6954   0.8138   0.8290
     0.9644   0.9896   1.0425   1.0705   1.1059   1.1214   1.1671   1.1888
     1.2591   1.3046   1.3496   1.3632   1.6572   1.6686   1.6897   1.7097
     1.8183   1.8284   1.8437   1.8487   1.8800   1.8909   1.9266   1.9525
     1.9756   2.0351   2.0477   2.1019   2.1197   2.1789   2.2808   2.3895
     2.4600   2.4761   2.5486   2.5839   2.6086   2.6806   2.6866   2.6965
     2.7260   2.7456   2.7939   2.8433   2.8990   2.9162   2.9572   2.9624
     2.9671   2.9759   2.9897   3.0012   3.0157   3.0186   3.0437   3.0481
     3.0675   3.0868   3.0928   3.2229   3.2264   4.0137   4.0853   4.1642
     4.2832   4.7501   4.8292   5.0039   5.0212   5.4582   5.4840   5.5608
     5.6216   5.9873   5.9979   6.0904   6.7758   6.8434   6.9811   7.2567
     7.2983   7.3322   7.4338   7.5792   7.6776   7.7407   7.8521   7.9066
     8.1564   8.2504   8.3635   8.4813   8.5853   8.7276   8.8104   8.9098

     occupation numbers 
     1.0000   1.0000   1.0000   1.0000   1.0000   1.0000   1.0000   1.0000
     1.0000   1.0000   1.0000   1.0000   1.0000   1.0000   1.0000   1.0000
     1.0000   1.0000   1.0000   1.0000   1.0000   1.0000   1.0000   1.0000
     1.0000   1.0000   1.0000   1.0000   1.0000   1.0000   1.0000   1.0000
     1.0000   1.0000   1.0000   1.0000   1.0000   1.0000   1.0000   1.0000
     1.0000   1.0000   1.0000   1.0000   1.0000   1.0000   1.0000   1.0000
     1.0000   1.0000   1.0000   1.0000   1.0000   1.0000   1.0000   1.0000
     1.0000   1.0000   1.0000   1.0000   1.0000   1.0000   1.0000   1.0000
     1.0000   1.0000   1.0000   1.0000   1.0000   1.0000   1.0000   1.0000
     1.0000   1.0000   1.0000   1.0000   1.0000   1.0000   1.0000   1.0000
     1.0000   1.0000   1.0000   1.0000   1.0000   1.0000   1.0000   1.0000
     1.0000   1.0000   1.0000   1.0000   1.0000   1.0000   1.0000   1.0000
     1.0000   1.0000   1.0000   1.0000   1.0000   1.0000   1.0000   1.0000
     1.0000   1.0000   1.0000   1.0000   1.0000   1.0000   1.0000   1.0000
     1.0000   1.0000   1.0000   1.0000   1.0000   1.0000   1.0000   1.0000
     1.0000   1.0000   1.0000   1.0000   1.0000   1.0000   1.0000   1.0000
     1.0000   1.0000   1.0000   1.0000   1.0000   1.0000   1.0000   1.0000
     1.0000   1.0000   1.0000   1.0000   1.0000   1.0000   1.0000   1.0000
     1.0000   1.0000   1.0000   1.0000   1.0000   1.0000   1.0000   1.0000
     1.0000   1.0000   1.0000   1.0000   1.0000   0.9999   0.9999   0.9999
     0.9997   0.9997   0.9996   0.9995   0.9994   0.9993   0.9992   0.9991
     0.9987   0.9984   0.9980   0.9978   0.9922   0.9918   0.9910   0.9903
     0.9852   0.9847   0.9838   0.9835   0.9815   0.9807   0.9781   0.9760
     0.9740   0.9682   0.9668   0.9604   0.9581   0.9496   0.9319   0.9080
     0.8895   0.8849   0.8626   0.8508   0.8421   0.8149   0.8125   0.8086
     0.7964   0.7880   0.7667   0.7436   0.7163   0.7076   0.6863   0.6836
     0.6811   0.6764   0.6690   0.6628   0.6549   0.6533   0.6395   0.6370
     0.6262   0.6152   0.6119   0.5362   0.5342   0.1393   0.1171   0.0956
     0.0690   0.0148   0.0109   0.0053   0.0049   0.0006   0.0005   0.0004
     0.0003   0.0000   0.0000   0.0000   0.0000   0.0000   0.0000   0.0000
     0.0000   0.0000   0.0000   0.0000   0.0000   0.0000   0.0000   0.0000
     0.0000   0.0000   0.0000   0.0000   0.0000   0.0000   0.0000   0.0000

          k =-0.2500 0.2500 0.0000 ( 65198 PWs)   bands (ev):

   -92.7435 -92.6921 -92.5977 -92.5505 -92.4911 -92.4505 -92.4324 -92.3098
   -56.0969 -56.0789 -55.9549 -55.9442 -55.9376 -55.9310 -55.8947 -55.8669
   -55.8509 -55.8503 -55.8438 -55.7986 -55.7818 -55.7427 -55.7243 -55.6901
   -55.6860 -55.6382 -55.6370 -55.6356 -55.6271 -55.5844 -55.5629 -55.4759
   -31.3169 -31.3014 -31.1570 -31.0778 -31.0716 -30.9907 -30.8562 -30.8152
   -29.8890 -29.8490 -29.8216 -29.7143 -15.0599 -15.0202 -14.9445 -14.8275
   -14.7150 -14.5902 -14.5038 -14.2958 -14.1567 -14.1286 -14.1140 -14.0677
   -14.0429 -14.0210 -14.0052 -13.9518 -13.8775 -13.8660 -13.7136 -13.6861
   -13.6576 -13.6372 -13.5887 -13.5386 -13.4771 -13.4604 -13.3458 -13.3034
   -13.2638 -13.1878 -13.1441 -13.0817 -13.0519 -13.0294 -13.0206 -12.9863
   -12.9679 -12.9372 -12.8843 -12.8528 -12.8135 -12.7985 -12.7644 -12.7490
   -12.7330 -12.7009 -12.5547 -12.4832 -12.4316 -12.3238 -12.1590 -12.1180
   -11.8412 -11.8197 -11.7928 -11.7802 -11.7398 -11.7047 -11.6821 -11.6596
   -11.6375 -11.5532 -11.5080 -11.4983  -2.7089  -2.5009  -2.3796  -2.2914
    -2.1731  -2.1069  -1.9032  -1.7585  -1.7399  -1.7103  -1.6176  -1.5838
    -1.4898  -1.4559  -1.4298  -1.2871  -1.2310  -1.1629  -1.1350  -1.0737
    -1.0527  -1.0125  -0.9839  -0.9437  -0.8810  -0.8325  -0.7684  -0.7010
    -0.6756  -0.6253  -0.5973  -0.5507  -0.4929  -0.4464  -0.4076  -0.3043
    -0.2749  -0.2628  -0.2174  -0.1523  -0.0715  -0.0397  -0.0068   0.0641
     0.0889   0.3480   0.5193   0.5590   0.5994   0.6577   0.6989   0.7563
     0.8281   0.8580   1.1392   1.2481   1.2883   1.3229   1.3268   1.3697
     1.3863   1.4311   1.4640   1.4769   1.5028   1.5493   1.5635   1.6034
     1.6229   1.6686   1.7631   1.7696   1.7932   1.8238   1.8575   1.8955
     1.9397   2.0496   2.1678   2.1906   2.2362   2.2554   2.3197   2.3644
     2.3919   2.4175   2.4364   2.5365   2.5729   2.6654   2.7441   2.8412
     2.8499   2.8669   2.8731   2.8841   2.8984   2.9062   2.9237   2.9340
     2.9452   2.9547   2.9671   2.9758   2.9850   3.0170   3.0270   3.0363
     3.0694   3.3617   3.4428   3.5089   3.5760   3.6174   3.8040   3.9205
     4.2648   4.4644   4.6777   4.9526   5.1510   5.6117   5.6623   5.7303
     5.7916   5.8568   6.0806   6.1615   6.1745   6.7802   6.8761   7.0848
     7.3025   7.5359   7.5801   7.6399   7.8315   7.8554   7.9591   8.1115
     8.1724   8.2071   8.3014   8.3888   8.4021   8.4285   8.6214   8.8330

     occupation numbers 
     1.0000   1.0000   1.0000   1.0000   1.0000   1.0000   1.0000   1.0000
     1.0000   1.0000   1.0000   1.0000   1.0000   1.0000   1.0000   1.0000
     1.0000   1.0000   1.0000   1.0000   1.0000   1.0000   1.0000   1.0000
     1.0000   1.0000   1.0000   1.0000   1.0000   1.0000   1.0000   1.0000
     1.0000   1.0000   1.0000   1.0000   1.0000   1.0000   1.0000   1.0000
     1.0000   1.0000   1.0000   1.0000   1.0000   1.0000   1.0000   1.0000
     1.0000   1.0000   1.0000   1.0000   1.0000   1.0000   1.0000   1.0000
     1.0000   1.0000   1.0000   1.0000   1.0000   1.0000   1.0000   1.0000
     1.0000   1.0000   1.0000   1.0000   1.0000   1.0000   1.0000   1.0000
     1.0000   1.0000   1.0000   1.0000   1.0000   1.0000   1.0000   1.0000
     1.0000   1.0000   1.0000   1.0000   1.0000   1.0000   1.0000   1.0000
     1.0000   1.0000   1.0000   1.0000   1.0000   1.0000   1.0000   1.0000
     1.0000   1.0000   1.0000   1.0000   1.0000   1.0000   1.0000   1.0000
     1.0000   1.0000   1.0000   1.0000   1.0000   1.0000   1.0000   1.0000
     1.0000   1.0000   1.0000   1.0000   1.0000   1.0000   1.0000   1.0000
     1.0000   1.0000   1.0000   1.0000   1.0000   1.0000   1.0000   1.0000
     1.0000   1.0000   1.0000   1.0000   1.0000   1.0000   1.0000   1.0000
     1.0000   1.0000   1.0000   1.0000   1.0000   1.0000   1.0000   1.0000
     1.0000   1.0000   1.0000   1.0000   1.0000   1.0000   1.0000   1.0000
     1.0000   1.0000   1.0000   1.0000   1.0000   1.0000   0.9999   0.9999
     0.9999   0.9998   0.9993   0.9987   0.9985   0.9982   0.9982   0.9978
     0.9976   0.9970   0.9966   0.9964   0.9959   0.9950   0.9947   0.9937
     0.9932   0.9918   0.9880   0.9877   0.9866   0.9849   0.9829   0.9804
     0.9771   0.9666   0.9513   0.9478   0.9402   0.9367   0.9239   0.9140
     0.9074   0.9009   0.8960   0.8665   0.8545   0.8209   0.7887   0.7447
     0.7405   0.7323   0.7292   0.7237   0.7166   0.7127   0.7038   0.6984
     0.6926   0.6877   0.6811   0.6765   0.6715   0.6542   0.6487   0.6436
     0.6251   0.4542   0.4069   0.3693   0.3324   0.3103   0.2201   0.1724
     0.0727   0.0398   0.0193   0.0066   0.0028   0.0003   0.0002   0.0001
     0.0001   0.0001   0.0000   0.0000   0.0000   0.0000   0.0000   0.0000
     0.0000   0.0000   0.0000   0.0000   0.0000   0.0000   0.0000   0.0000
     0.0000   0.0000   0.0000   0.0000   0.0000   0.0000   0.0000   0.0000

          k =-0.5000 0.2500 0.0000 ( 65138 PWs)   bands (ev):

   -92.7435 -92.6921 -92.5977 -92.5505 -92.4911 -92.4505 -92.4324 -92.3098
   -56.0969 -56.0789 -55.9549 -55.9442 -55.9376 -55.9310 -55.8947 -55.8669
   -55.8509 -55.8503 -55.8438 -55.7986 -55.7818 -55.7427 -55.7243 -55.6901
   -55.6860 -55.6382 -55.6370 -55.6356 -55.6271 -55.5844 -55.5629 -55.4759
   -31.3146 -31.3036 -31.1566 -31.0774 -31.0720 -30.9911 -30.8554 -30.8160
   -29.8879 -29.8501 -29.8212 -29.7147 -15.0251 -14.9808 -14.9024 -14.7986
   -14.7577 -14.6342 -14.5485 -14.4106 -14.1076 -14.0777 -14.0660 -14.0222
   -13.9987 -13.9741 -13.9395 -13.9236 -13.9052 -13.8646 -13.8480 -13.7478
   -13.6792 -13.6299 -13.6258 -13.6125 -13.5105 -13.4877 -13.4014 -13.3416
   -13.2419 -13.2051 -13.1078 -13.0691 -13.0571 -13.0310 -13.0035 -12.9845
   -12.9798 -12.9681 -12.8602 -12.8293 -12.7994 -12.7852 -12.7713 -12.7114
   -12.6629 -12.6558 -12.5801 -12.4473 -12.3633 -12.2893 -12.2281 -12.2044
   -11.8136 -11.8013 -11.7873 -11.7748 -11.7544 -11.7241 -11.6422 -11.6346
   -11.6106 -11.5757 -11.5478 -11.5385  -2.4816  -2.4399  -2.2919  -2.2494
    -2.0885  -2.0126  -1.8713  -1.7342  -1.6779  -1.6507  -1.6124  -1.5734
    -1.4928  -1.3772  -1.3203  -1.2968  -1.2712  -1.1956  -1.1656  -1.1276
    -1.1101  -1.0499  -1.0189  -0.9815  -0.9468  -0.9178  -0.8596  -0.8315
    -0.7895  -0.7551  -0.6514  -0.6242  -0.5335  -0.4754  -0.4442  -0.3854
    -0.3032  -0.2674  -0.1683  -0.1258  -0.0714  -0.0182   0.0072   0.0801
     0.1017   0.1342   0.1888   0.2294   0.5424   0.6128   0.6593   0.6706
     0.9757   1.0313   1.1078   1.1313   1.3083   1.3438   1.3816   1.3926
     1.4111   1.4291   1.4981   1.5446   1.5857   1.6129   1.7398   1.7779
     1.8006   1.8115   1.8478   1.8776   1.8929   1.9014   1.9230   1.9480
     1.9887   2.0090   2.0418   2.0673   2.0967   2.1545   2.2748   2.3760
     2.4079   2.4751   2.5104   2.5681   2.6048   2.6147   2.6550   2.6837
     2.7060   2.7545   2.7933   2.8405   2.8515   2.8653   2.8804   2.8989
     2.9114   2.9261   2.9428   2.9623   2.9732   2.9837   2.9908   3.0004
     3.0125   3.5408   3.5935   3.7308   3.7535   4.0224   4.1074   4.1671
     4.3649   4.7440   4.8469   4.9983   5.0461   5.3650   5.3932   5.5602
     5.6152   5.7103   5.7503   6.1969   6.3712   6.4764   6.7072   7.0830
     7.4624   7.5545   7.6873   7.7641   7.8095   7.8558   7.9908   8.2520
     8.3244   8.3887   8.4262   8.5162   8.5453   8.5931   8.6382   8.7199

     occupation numbers 
     1.0000   1.0000   1.0000   1.0000   1.0000   1.0000   1.0000   1.0000
     1.0000   1.0000   1.0000   1.0000   1.0000   1.0000   1.0000   1.0000
     1.0000   1.0000   1.0000   1.0000   1.0000   1.0000   1.0000   1.0000
     1.0000   1.0000   1.0000   1.0000   1.0000   1.0000   1.0000   1.0000
     1.0000   1.0000   1.0000   1.0000   1.0000   1.0000   1.0000   1.0000
     1.0000   1.0000   1.0000   1.0000   1.0000   1.0000   1.0000   1.0000
     1.0000   1.0000   1.0000   1.0000   1.0000   1.0000   1.0000   1.0000
     1.0000   1.0000   1.0000   1.0000   1.0000   1.0000   1.0000   1.0000
     1.0000   1.0000   1.0000   1.0000   1.0000   1.0000   1.0000   1.0000
     1.0000   1.0000   1.0000   1.0000   1.0000   1.0000   1.0000   1.0000
     1.0000   1.0000   1.0000   1.0000   1.0000   1.0000   1.0000   1.0000
     1.0000   1.0000   1.0000   1.0000   1.0000   1.0000   1.0000   1.0000
     1.0000   1.0000   1.0000   1.0000   1.0000   1.0000   1.0000   1.0000
     1.0000   1.0000   1.0000   1.0000   1.0000   1.0000   1.0000   1.0000
     1.0000   1.0000   1.0000   1.0000   1.0000   1.0000   1.0000   1.0000
     1.0000   1.0000   1.0000   1.0000   1.0000   1.0000   1.0000   1.0000
     1.0000   1.0000   1.0000   1.0000   1.0000   1.0000   1.0000   1.0000
     1.0000   1.0000   1.0000   1.0000   1.0000   1.0000   1.0000   1.0000
     1.0000   1.0000   1.0000   1.0000   1.0000   1.0000   1.0000   1.0000
     1.0000   1.0000   1.0000   1.0000   1.0000   1.0000   1.0000   0.9999
     0.9997   0.9996   0.9994   0.9993   0.9983   0.9980   0.9976   0.9975
     0.9973   0.9971   0.9960   0.9951   0.9942   0.9935   0.9891   0.9873
     0.9862   0.9856   0.9835   0.9816   0.9806   0.9800   0.9784   0.9764
     0.9728   0.9709   0.9675   0.9646   0.9611   0.9533   0.9330   0.9112
     0.9034   0.8852   0.8747   0.8562   0.8435   0.8399   0.8249   0.8137
     0.8047   0.7842   0.7669   0.7450   0.7397   0.7330   0.7256   0.7164
     0.7100   0.7025   0.6939   0.6837   0.6779   0.6722   0.6685   0.6632
     0.6567   0.3516   0.3230   0.2536   0.2429   0.1365   0.1108   0.0949
     0.0543   0.0151   0.0102   0.0055   0.0044   0.0010   0.0009   0.0004
     0.0003   0.0002   0.0001   0.0000   0.0000   0.0000   0.0000   0.0000
     0.0000   0.0000   0.0000   0.0000   0.0000   0.0000   0.0000   0.0000
     0.0000   0.0000   0.0000   0.0000   0.0000   0.0000   0.0000   0.0000

     the Fermi energy is     3.2842 ev

!    total energy              =   -4399.92442088 Ry
     estimated scf accuracy    <          9.0E-09 Ry
     smearing contrib. (-TS)   =      -1.14655752 Ry
     internal energy E=F+TS    =   -4398.77786336 Ry

     The total energy is F=E-TS. E is the sum of the following terms:
     one-electron contribution =  -21252.20247235 Ry
     hartree contribution      =   10753.61412099 Ry
     xc contribution           =    -686.72859619 Ry
     ewald contribution        =    7053.18430651 Ry
     one-center paw contrib.   =    -266.64522232 Ry
      -> PAW hartree energy AE =      25.11062449 Ry
      -> PAW hartree energy PS =     -24.99517155 Ry
      -> PAW xc energy AE      =     -16.50999598 Ry
      -> PAW xc energy PS      =       6.86910840 Ry
      -> total E_H with PAW    =   10753.72957393 Ry
      -> total E_XC with PAW   =    -696.36948377 Ry

     convergence has been achieved in  48 iterations

     Writing all to output data dir /bsuhome/zayahcortright/scratch/pwscf.save/
 
     init_run     :      7.42s CPU      7.99s WALL (       1 calls)
     electrons    :    687.00s CPU    699.16s WALL (       1 calls)

     Called by init_run:
     wfcinit      :      5.98s CPU      6.11s WALL (       1 calls)
     wfcinit:atom :      0.04s CPU      0.06s WALL (       5 calls)
     wfcinit:wfcr :      5.66s CPU      5.73s WALL (       5 calls)
     potinit      :      0.18s CPU      0.20s WALL (       1 calls)
     hinit0       :      0.38s CPU      0.74s WALL (       1 calls)

     Called by electrons:
     c_bands      :    544.84s CPU    549.65s WALL (      48 calls)
     sum_band     :    106.23s CPU    110.49s WALL (      48 calls)
     v_of_rho     :      5.33s CPU      5.57s WALL (      49 calls)
     v_h          :      0.47s CPU      0.48s WALL (      49 calls)
     v_xc         :      4.85s CPU      5.09s WALL (      49 calls)
     newd         :     16.38s CPU     18.87s WALL (      49 calls)
     PAW_pot      :      1.56s CPU      1.58s WALL (      49 calls)
     mix_rho      :     12.11s CPU     12.36s WALL (      48 calls)

     Called by c_bands:
     init_us_2    :      6.78s CPU      6.82s WALL (     485 calls)
     init_us_2:cp :      6.78s CPU      6.82s WALL (     485 calls)
     cegterg      :    514.78s CPU    519.39s WALL (     240 calls)

     Called by sum_band:
     sum_band:wei :      0.34s CPU      0.34s WALL (      48 calls)
     sum_band:loo :     87.21s CPU     87.88s WALL (      48 calls)
     sum_band:buf :      1.60s CPU      1.61s WALL (     240 calls)
     sum_band:ini :      3.25s CPU      3.27s WALL (     240 calls)
     sum_band:cal :     18.26s CPU     18.32s WALL (     240 calls)
     sum_band:bec :      0.63s CPU      0.63s WALL (     240 calls)
     addusdens    :     17.85s CPU     21.41s WALL (      48 calls)
                                        0.00s GPU  (      48 calls)
     addusd:skk   :      0.32s CPU      0.66s WALL (     192 calls)
                                        0.00s GPU  (     192 calls)

     Called by *egterg:
     cdiaghg      :     57.25s CPU     57.48s WALL (    1396 calls)
     cegterg:over :     36.99s CPU     37.12s WALL (    1156 calls)
     cegterg:upda :     27.74s CPU     28.09s WALL (    1156 calls)
     cegterg:last :     57.31s CPU     57.50s WALL (     442 calls)
     cdiaghg:chol :      3.31s CPU      3.33s WALL (    1396 calls)
     cdiaghg:inve :      3.59s CPU      3.60s WALL (    1396 calls)
     cdiaghg:para :      7.15s CPU      7.18s WALL (    2792 calls)
     h_psi        :    281.99s CPU    284.67s WALL (    1401 calls)
     s_psi        :     38.94s CPU     39.05s WALL (    1401 calls)
     g_psi        :      1.14s CPU      1.14s WALL (    1156 calls)

     Called by h_psi:
     h_psi:calbec :     42.30s CPU     42.44s WALL (    1401 calls)
     vloc_psi     :    197.64s CPU    199.62s WALL (    1401 calls)
     add_vuspsi   :     38.83s CPU     38.97s WALL (    1401 calls)

     General routines
     calbec       :     60.56s CPU     60.75s WALL (    1641 calls)
     fft          :      3.51s CPU      3.55s WALL (     635 calls)
     ffts         :      4.50s CPU      4.53s WALL (    5080 calls)
     fftw         :    169.04s CPU    170.51s WALL (  322508 calls)
     interpolate  :      0.39s CPU      0.40s WALL (      49 calls)
 
     Parallel routines

     PAW routines
     PAW_pot      :      1.56s CPU      1.58s WALL (      49 calls)
 
     PWSCF        :  11m36.41s CPU  11m51.84s WALL

 
   This run was terminated on:  20:50:18  21Jun2024            

=------------------------------------------------------------------------------=
   JOB DONE.
=------------------------------------------------------------------------------=
