
     Program PWSCF v.7.2 starts on 21Jun2024 at 14:35: 2 

     This program is part of the open-source Quantum ESPRESSO suite
     for quantum simulation of materials; please cite
         "P. Giannozzi et al., J. Phys.:Condens. Matter 21 395502 (2009);
         "P. Giannozzi et al., J. Phys.:Condens. Matter 29 465901 (2017);
         "P. Giannozzi et al., J. Chem. Phys. 152 154105 (2020);
          URL http://www.quantum-espresso.org", 
     in publications or presentations arising from this work. More details at
     http://www.quantum-espresso.org/quote

     Parallel version (MPI & OpenMP), running on      48 processor cores
     Number of MPI processes:                48
     Threads/MPI process:                     1

     MPI processes distributed on     1 nodes
     180161 MiB available memory on the printing compute node when the environment starts
 
     Reading input from espresso.pwi
Warning: card &CELL ignored
Warning: card / ignored
Warning: card &FCP ignored
Warning: card / ignored
Warning: card &RISM ignored
Warning: card / ignored

     Current dimensions of program PWSCF are:
     Max number of different atomic species (ntypx) = 10
     Max number of k-points (npk) =  40000
     Max angular momentum in pseudopotentials (lmaxx) =  4
     file O.pbe-n-kjpaw_psl.0.1.UPF: wavefunction(s)  2P renormalized
     signal trapping enabled: kill the code with -SIGUSR1 to stop cleanly the simulation 
 
     K-points division:     npool     =       2
     R & G space division:  proc/nbgrp/npool/nimage =      24
     Subspace diagonalization in iterative solution of the eigenvalue problem:
     one sub-group per band group will be used
     scalapack distributed-memory algorithm (size of sub-group:  3*  3 procs)

 
     Parallelization info
     --------------------
     sticks:   dense  smooth     PW     G-vecs:    dense   smooth      PW
     Min         350     175     47                61430    21716    3036
     Max         351     177     48                61449    21727    3041
     Sum        8421    4205   1137              1474595   521381   72913
 
     Using Slab Decomposition
 


     bravais-lattice index     =            0
     lattice parameter (alat)  =      14.8599  a.u.
     unit-cell volume          =    8305.1283 (a.u.)^3
     number of atoms/cell      =           49
     number of atomic types    =            4
     number of electrons       =       425.00
     number of Kohn-Sham states=          256
     kinetic-energy cutoff     =      60.0000  Ry
     charge density cutoff     =     480.0000  Ry
     scf convergence threshold =      1.0E-08
     mixing beta               =       0.1500
     number of iterations used =            8  local-TF  mixing
     Exchange-correlation= PBE
                           (   1   4   3   4   0   0   0)

     celldm(1)=  14.859904  celldm(2)=   0.000000  celldm(3)=   0.000000
     celldm(4)=   0.000000  celldm(5)=   0.000000  celldm(6)=   0.000000

     crystal axes: (cart. coord. in units of alat)
               a(1) = (   1.000000   0.000000   0.000000 )  
               a(2) = (   0.000000   1.000000   0.000000 )  
               a(3) = (   0.000000   0.000000   2.531036 )  

     reciprocal axes: (cart. coord. in units 2 pi/alat)
               b(1) = (  1.000000  0.000000  0.000000 )  
               b(2) = (  0.000000  1.000000  0.000000 )  
               b(3) = (  0.000000  0.000000  0.395095 )  


     PseudoPot. # 1 for Sr read from file:
     /bsuhome/zayahcortright/q-e/pseudo/Sr_pbe_v1.uspp.F.UPF
     MD5 check sum: 6b418c05fbe9db5448babca5e47b7a5b
     Pseudo is Ultrasoft + core correction, Zval = 10.0
     Generated by new atomic code, or converted to UPF format
     Using radial grid of  883 points,  6 beta functions with: 
                l(1) =   0
                l(2) =   0
                l(3) =   1
                l(4) =   1
                l(5) =   2
                l(6) =   2
     Q(r) pseudized with  6 coefficients,  rinner =    1.400   1.400   1.400
                                                       1.400   1.400

     PseudoPot. # 2 for O  read from file:
     /bsuhome/zayahcortright/q-e/pseudo/O.pbe-n-kjpaw_psl.0.1.UPF
     MD5 check sum: 0234752ac141de4415c5fc33072bef88
     Pseudo is Projector augmented-wave + core cor, Zval =  6.0
     Generated using "atomic" code by A. Dal Corso  v.5.0.99 svn rev. 10869
     Shape of augmentation charge: BESSEL
     Using radial grid of 1095 points,  4 beta functions with: 
                l(1) =   0
                l(2) =   0
                l(3) =   1
                l(4) =   1
     Q(r) pseudized with 0 coefficients 


     PseudoPot. # 3 for Co read from file:
     /bsuhome/zayahcortright/q-e/pseudo/Co_pbe_v1.2.uspp.F.UPF
     MD5 check sum: 5f91765df6ddd3222702df6e7b74a16d
     Pseudo is Ultrasoft + core correction, Zval = 17.0
     Generated by new atomic code, or converted to UPF format
     Using radial grid of  863 points,  6 beta functions with: 
                l(1) =   0
                l(2) =   0
                l(3) =   1
                l(4) =   1
                l(5) =   2
                l(6) =   2
     Q(r) pseudized with  8 coefficients,  rinner =    1.200   1.200   1.200
                                                       1.200   1.200

     PseudoPot. # 4 for H  read from file:
     /bsuhome/zayahcortright/q-e/pseudo/H.pbe-rrkjus_psl.1.0.0.UPF
     MD5 check sum: f52b6d4d1c606e5624b1dc7b2218f220
     Pseudo is Ultrasoft, Zval =  1.0
     Generated using "atomic" code by A. Dal Corso  v.5.1
     Using radial grid of  929 points,  2 beta functions with: 
                l(1) =   0
                l(2) =   0
     Q(r) pseudized with 0 coefficients 


     atomic species   valence    mass     pseudopotential
        Sr            10.00    87.62000     Sr( 1.00)
        O              6.00    15.99900     O ( 1.00)
        Co            17.00    58.93319     Co( 1.00)
        H              1.00     1.00800     H ( 1.00)

     No symmetry found


                                    s                        frac. trans.

      isym =  1     identity                                     

 cryst.   s( 1) = (     1          0          0      )
                  (     0          1          0      )
                  (     0          0          1      )

 cart.    s( 1) = (  1.0000000  0.0000000  0.0000000 )
                  (  0.0000000  1.0000000  0.0000000 )
                  (  0.0000000  0.0000000  1.0000000 )


   Cartesian axes

     site n.     atom                  positions (alat units)
         1           Sr  tau(   1) = (   0.2508693   0.7491307   1.7574407  )
         2           O   tau(   2) = (   0.4985141   0.5014859   1.7715967  )
         3           Sr  tau(   3) = (   0.7482398   0.7454518   1.7648669  )
         4           Sr  tau(   4) = (   0.7441748   0.2558252   1.7667843  )
         5           Sr  tau(   5) = (   0.2508693   0.7491307   1.2696799  )
         6           Sr  tau(   6) = (   0.2508693   0.7491307   0.7632319  )
         7           Co  tau(   7) = (   0.4998914   0.5001086   1.0164559  )
         8           Co  tau(   8) = (   0.4936915   0.5063085   1.5135603  )
         9           O   tau(   9) = (   0.4988895   0.7610401   1.0164559  )
        10           O   tau(  10) = (   0.2389599   0.5011105   1.0164559  )
        11           O   tau(  11) = (   0.0070918   0.7374880   1.0164559  )
        12           O   tau(  12) = (   0.0088340   0.7405089   1.5135603  )
        13           O   tau(  13) = (   0.5066944   0.7415376   1.5135603  )
        14           O   tau(  14) = (   0.2584624   0.4933056   1.5135603  )
        15           O   tau(  15) = (   0.4985141   0.5014859   0.7773880  )
        16           O   tau(  16) = (   0.4985141   0.5014859   1.2555238  )
        17           Sr  tau(  17) = (   0.7482398   0.7454518   0.7706582  )
        18           Sr  tau(  18) = (   0.7482398   0.7454518   1.2622536  )
        19           Sr  tau(  19) = (   0.7441748   0.2558252   0.7725755  )
        20           Sr  tau(  20) = (   0.7441748   0.2558252   1.2603363  )
        21           O   tau(  21) = (   0.7322655   0.0078049   1.5135603  )
        22           O   tau(  22) = (   0.7558175   0.4996027   1.5135603  )
        23           O   tau(  23) = (   0.5003973   0.2441825   1.5135603  )
        24           O   tau(  24) = (   0.7527966   0.4978604   1.0164559  )
        25           O   tau(  25) = (   0.5021396   0.2472034   1.0164559  )
        26           O   tau(  26) = (   0.7517679   0.0000000   1.0164559  )
        27           O   tau(  27) = (   0.0114961   0.4948124   1.7455321  )
        28           O   tau(  28) = (   0.0048226   0.0077944   1.7715967  )
        29           Sr  tau(  29) = (   0.2545482   0.2517602   1.7648669  )
        30           O   tau(  30) = (   0.5048017   0.0015068   1.7786929  )
        31           Co  tau(  31) = (   0.0056869   0.5006215   1.0164559  )
        32           Co  tau(  32) = (   0.0065315   0.4997770   1.5135603  )
        33           Co  tau(  33) = (   0.0061999   0.0064171   1.0164559  )
        34           Co  tau(  34) = (   0.0000000   0.0126169   1.5135603  )
        35           O   tau(  35) = (   0.0114961   0.4948124   1.2815885  )
        36           O   tau(  36) = (   0.0114961   0.4948124   0.7513233  )
        37           O   tau(  37) = (   0.0051979   0.2673486   1.0164559  )
        38           O   tau(  38) = (   0.0130029   0.2478461   1.5135603  )
        39           O   tau(  39) = (   0.0048226   0.0077944   0.7773880  )
        40           O   tau(  40) = (   0.0048226   0.0077944   1.2555238  )
        41           Sr  tau(  41) = (   0.2545482   0.2517602   0.7706582  )
        42           Sr  tau(  42) = (   0.2545482   0.2517602   1.2622536  )
        43           Co  tau(  43) = (   0.4989925   0.0073160   1.5135603  )
        44           Co  tau(  44) = (   0.4998370   0.0064714   1.0164559  )
        45           O   tau(  45) = (   0.5048017   0.0015068   0.7844841  )
        46           O   tau(  46) = (   0.5048017   0.0015068   1.2484277  )
        47           O   tau(  47) = (   0.2621260   0.0059111   1.5135603  )
        48           O   tau(  48) = (   0.2591051   0.0041689   1.0164559  )
        49           H   tau(  49) = (   0.1421646   0.7108228   2.1602013  )

   Crystallographic axes

     site n.     atom                  positions (cryst. coord.)
         1           Sr  tau(   1) = (  0.2508693  0.7491307  0.6943562  )
         2           O   tau(   2) = (  0.4985141  0.5014859  0.6999492  )
         3           Sr  tau(   3) = (  0.7482398  0.7454518  0.6972903  )
         4           Sr  tau(   4) = (  0.7441748  0.2558252  0.6980478  )
         5           Sr  tau(   5) = (  0.2508693  0.7491307  0.5016443  )
         6           Sr  tau(   6) = (  0.2508693  0.7491307  0.3015492  )
         7           Co  tau(   7) = (  0.4998914  0.5001086  0.4015968  )
         8           Co  tau(   8) = (  0.4936915  0.5063085  0.5980003  )
         9           O   tau(   9) = (  0.4988895  0.7610401  0.4015968  )
        10           O   tau(  10) = (  0.2389599  0.5011105  0.4015968  )
        11           O   tau(  11) = (  0.0070918  0.7374880  0.4015968  )
        12           O   tau(  12) = (  0.0088340  0.7405089  0.5980003  )
        13           O   tau(  13) = (  0.5066944  0.7415376  0.5980003  )
        14           O   tau(  14) = (  0.2584624  0.4933056  0.5980003  )
        15           O   tau(  15) = (  0.4985141  0.5014859  0.3071422  )
        16           O   tau(  16) = (  0.4985141  0.5014859  0.4960513  )
        17           Sr  tau(  17) = (  0.7482398  0.7454518  0.3044833  )
        18           Sr  tau(  18) = (  0.7482398  0.7454518  0.4987103  )
        19           Sr  tau(  19) = (  0.7441748  0.2558252  0.3052408  )
        20           Sr  tau(  20) = (  0.7441748  0.2558252  0.4979527  )
        21           O   tau(  21) = (  0.7322655  0.0078049  0.5980003  )
        22           O   tau(  22) = (  0.7558175  0.4996027  0.5980003  )
        23           O   tau(  23) = (  0.5003973  0.2441825  0.5980003  )
        24           O   tau(  24) = (  0.7527966  0.4978604  0.4015968  )
        25           O   tau(  25) = (  0.5021396  0.2472034  0.4015968  )
        26           O   tau(  26) = (  0.7517679  0.0000000  0.4015968  )
        27           O   tau(  27) = (  0.0114961  0.4948124  0.6896512  )
        28           O   tau(  28) = (  0.0048226  0.0077944  0.6999492  )
        29           Sr  tau(  29) = (  0.2545482  0.2517602  0.6972903  )
        30           O   tau(  30) = (  0.5048017  0.0015068  0.7027529  )
        31           Co  tau(  31) = (  0.0056869  0.5006215  0.4015968  )
        32           Co  tau(  32) = (  0.0065315  0.4997770  0.5980003  )
        33           Co  tau(  33) = (  0.0061999  0.0064171  0.4015968  )
        34           Co  tau(  34) = (  0.0000000  0.0126169  0.5980003  )
        35           O   tau(  35) = (  0.0114961  0.4948124  0.5063494  )
        36           O   tau(  36) = (  0.0114961  0.4948124  0.2968442  )
        37           O   tau(  37) = (  0.0051979  0.2673486  0.4015968  )
        38           O   tau(  38) = (  0.0130029  0.2478461  0.5980003  )
        39           O   tau(  39) = (  0.0048226  0.0077944  0.3071422  )
        40           O   tau(  40) = (  0.0048226  0.0077944  0.4960513  )
        41           Sr  tau(  41) = (  0.2545482  0.2517602  0.3044833  )
        42           Sr  tau(  42) = (  0.2545482  0.2517602  0.4987103  )
        43           Co  tau(  43) = (  0.4989925  0.0073160  0.5980003  )
        44           Co  tau(  44) = (  0.4998370  0.0064714  0.4015968  )
        45           O   tau(  45) = (  0.5048017  0.0015068  0.3099459  )
        46           O   tau(  46) = (  0.5048017  0.0015068  0.4932477  )
        47           O   tau(  47) = (  0.2621260  0.0059111  0.5980003  )
        48           O   tau(  48) = (  0.2591051  0.0041689  0.4015968  )
        49           H   tau(  49) = (  0.1421646  0.7108228  0.8534850  )

     number of k points=    10  Gaussian smearing, width (Ry)=  0.0700
                       cart. coord. in units 2pi/alat
        k(    1) = (   0.0000000   0.0000000   0.0000000), wk =   0.1250000
        k(    2) = (   0.0000000   0.2500000   0.0000000), wk =   0.2500000
        k(    3) = (   0.0000000  -0.5000000   0.0000000), wk =   0.1250000
        k(    4) = (   0.2500000   0.2500000   0.0000000), wk =   0.2500000
        k(    5) = (   0.2500000  -0.5000000   0.0000000), wk =   0.2500000
        k(    6) = (  -0.5000000  -0.5000000   0.0000000), wk =   0.1250000
        k(    7) = (   0.2500000   0.0000000   0.0000000), wk =   0.2500000
        k(    8) = (  -0.5000000   0.0000000   0.0000000), wk =   0.1250000
        k(    9) = (  -0.2500000   0.2500000   0.0000000), wk =   0.2500000
        k(   10) = (  -0.5000000   0.2500000   0.0000000), wk =   0.2500000

                       cryst. coord.
        k(    1) = (   0.0000000   0.0000000   0.0000000), wk =   0.1250000
        k(    2) = (   0.0000000   0.2500000   0.0000000), wk =   0.2500000
        k(    3) = (   0.0000000  -0.5000000   0.0000000), wk =   0.1250000
        k(    4) = (   0.2500000   0.2500000   0.0000000), wk =   0.2500000
        k(    5) = (   0.2500000  -0.5000000   0.0000000), wk =   0.2500000
        k(    6) = (  -0.5000000  -0.5000000   0.0000000), wk =   0.1250000
        k(    7) = (   0.2500000   0.0000000   0.0000000), wk =   0.2500000
        k(    8) = (  -0.5000000   0.0000000   0.0000000), wk =   0.1250000
        k(    9) = (  -0.2500000   0.2500000   0.0000000), wk =   0.2500000
        k(   10) = (  -0.5000000   0.2500000   0.0000000), wk =   0.2500000

     Dense  grid:  1474595 G-vectors     FFT dimensions: ( 108, 108, 270)

     Smooth grid:   521381 G-vectors     FFT dimensions: (  75,  75, 192)

     Dynamical RAM for                 wfc:      10.61 MB

     Dynamical RAM for     wfc (w. buffer):      63.63 MB

     Dynamical RAM for           str. fact:       3.75 MB

     Dynamical RAM for           local pot:       0.00 MB

     Dynamical RAM for          nlocal pot:      24.28 MB

     Dynamical RAM for                qrad:       7.03 MB

     Dynamical RAM for          rho,v,vnew:       6.02 MB

     Dynamical RAM for               rhoin:       2.01 MB

     Dynamical RAM for            rho*nmix:      15.00 MB

     Dynamical RAM for           G-vectors:       3.68 MB

     Dynamical RAM for          h,s,v(r/c):       1.32 MB

     Dynamical RAM for          <psi|beta>:       2.29 MB

     Dynamical RAM for                 psi:      21.21 MB

     Dynamical RAM for                hpsi:      21.21 MB

     Dynamical RAM for                spsi:      21.21 MB

     Dynamical RAM for      wfcinit/wfcrot:      34.09 MB

     Dynamical RAM for           addusdens:     100.79 MB

     Estimated static dynamical RAM per process >     120.42 MB

     Estimated max dynamical RAM per process >     236.21 MB

     Estimated total dynamical RAM >      10.72 GB

     Check: negative core charge=   -0.000004

     Initial potential from superposition of free atoms

     starting charge     416.5961, renormalised to     425.0000

     negative rho (up, down):  7.826E-01 0.000E+00
     Starting wfcs are  373 randomized atomic wfcs
     Checking if some PAW data can be deallocated... 
       PAW data deallocated on   20 nodes for type:  2

     total cpu time spent up to now is        8.8 secs

     Self-consistent Calculation

     iteration #  1     ecut=    60.00 Ry     beta= 0.15
     Davidson diagonalization with overlap

---- Real-time Memory Report at c_bands before calling an iterative solver
             0 MiB given to the printing process from OS
             0 MiB allocation reported by mallinfo(arena+hblkhd)
        170491 MiB available memory on the node where the printing process lives
------------------
     ethr =  1.00E-02,  avg # of iterations =  2.0

     negative rho (up, down):  7.718E-01 0.000E+00

     total cpu time spent up to now is       23.1 secs

     total energy              =   -4404.76663682 Ry
     estimated scf accuracy    <      42.20954869 Ry

     iteration #  2     ecut=    60.00 Ry     beta= 0.15
     Davidson diagonalization with overlap

---- Real-time Memory Report at c_bands before calling an iterative solver
             0 MiB given to the printing process from OS
             0 MiB allocation reported by mallinfo(arena+hblkhd)
        170719 MiB available memory on the node where the printing process lives
------------------
     ethr =  9.93E-03,  avg # of iterations =  1.0

     negative rho (up, down):  7.532E-01 0.000E+00

     total cpu time spent up to now is       35.1 secs

     total energy              =   -4400.02373503 Ry
     estimated scf accuracy    <      26.71055232 Ry

     iteration #  3     ecut=    60.00 Ry     beta= 0.15
     Davidson diagonalization with overlap

---- Real-time Memory Report at c_bands before calling an iterative solver
             0 MiB given to the printing process from OS
             0 MiB allocation reported by mallinfo(arena+hblkhd)
        169979 MiB available memory on the node where the printing process lives
------------------
     ethr =  6.28E-03,  avg # of iterations =  2.0

     negative rho (up, down):  7.545E-01 0.000E+00

     total cpu time spent up to now is       48.6 secs

     total energy              =   -4402.38292893 Ry
     estimated scf accuracy    <      49.25402166 Ry

     iteration #  4     ecut=    60.00 Ry     beta= 0.15
     Davidson diagonalization with overlap

---- Real-time Memory Report at c_bands before calling an iterative solver
             0 MiB given to the printing process from OS
             0 MiB allocation reported by mallinfo(arena+hblkhd)
        169836 MiB available memory on the node where the printing process lives
------------------
     ethr =  6.28E-03,  avg # of iterations =  1.0

     negative rho (up, down):  7.411E-01 0.000E+00

     total cpu time spent up to now is       60.8 secs

     total energy              =   -4401.64072302 Ry
     estimated scf accuracy    <      29.28349900 Ry

     iteration #  5     ecut=    60.00 Ry     beta= 0.15
     Davidson diagonalization with overlap

---- Real-time Memory Report at c_bands before calling an iterative solver
             0 MiB given to the printing process from OS
             0 MiB allocation reported by mallinfo(arena+hblkhd)
        169817 MiB available memory on the node where the printing process lives
------------------
     ethr =  6.28E-03,  avg # of iterations =  1.0

     negative rho (up, down):  7.473E-01 0.000E+00

     total cpu time spent up to now is       72.8 secs

     total energy              =   -4399.75840509 Ry
     estimated scf accuracy    <      43.83738087 Ry

     iteration #  6     ecut=    60.00 Ry     beta= 0.15
     Davidson diagonalization with overlap

---- Real-time Memory Report at c_bands before calling an iterative solver
             0 MiB given to the printing process from OS
             0 MiB allocation reported by mallinfo(arena+hblkhd)
        169801 MiB available memory on the node where the printing process lives
------------------
     ethr =  6.28E-03,  avg # of iterations =  1.0

     negative rho (up, down):  7.422E-01 0.000E+00

     total cpu time spent up to now is       84.8 secs

     total energy              =   -4400.65097634 Ry
     estimated scf accuracy    <      12.27006967 Ry

     iteration #  7     ecut=    60.00 Ry     beta= 0.15
     Davidson diagonalization with overlap

---- Real-time Memory Report at c_bands before calling an iterative solver
             0 MiB given to the printing process from OS
             0 MiB allocation reported by mallinfo(arena+hblkhd)
        169781 MiB available memory on the node where the printing process lives
------------------
     ethr =  2.89E-03,  avg # of iterations =  1.1

     negative rho (up, down):  7.444E-01 0.000E+00

     total cpu time spent up to now is       96.9 secs

     total energy              =   -4400.82738569 Ry
     estimated scf accuracy    <       3.99427120 Ry

     iteration #  8     ecut=    60.00 Ry     beta= 0.15
     Davidson diagonalization with overlap

---- Real-time Memory Report at c_bands before calling an iterative solver
             0 MiB given to the printing process from OS
             0 MiB allocation reported by mallinfo(arena+hblkhd)
        169766 MiB available memory on the node where the printing process lives
------------------
     ethr =  9.40E-04,  avg # of iterations =  1.5

     negative rho (up, down):  7.538E-01 0.000E+00

     total cpu time spent up to now is      109.3 secs

     total energy              =   -4400.27919451 Ry
     estimated scf accuracy    <       3.22310288 Ry

     iteration #  9     ecut=    60.00 Ry     beta= 0.15
     Davidson diagonalization with overlap

---- Real-time Memory Report at c_bands before calling an iterative solver
             0 MiB given to the printing process from OS
             0 MiB allocation reported by mallinfo(arena+hblkhd)
        169744 MiB available memory on the node where the printing process lives
------------------
     ethr =  7.58E-04,  avg # of iterations =  5.7

     negative rho (up, down):  7.754E-01 0.000E+00

     total cpu time spent up to now is      125.3 secs

     total energy              =   -4399.73019295 Ry
     estimated scf accuracy    <      44.43842067 Ry

     iteration # 10     ecut=    60.00 Ry     beta= 0.15
     Davidson diagonalization with overlap

---- Real-time Memory Report at c_bands before calling an iterative solver
             0 MiB given to the printing process from OS
             0 MiB allocation reported by mallinfo(arena+hblkhd)
        169572 MiB available memory on the node where the printing process lives
------------------
     ethr =  7.58E-04,  avg # of iterations =  9.5

     negative rho (up, down):  7.774E-01 0.000E+00

     total cpu time spent up to now is      143.3 secs

     total energy              =   -4399.88522582 Ry
     estimated scf accuracy    <      11.57801930 Ry

     iteration # 11     ecut=    60.00 Ry     beta= 0.15
     Davidson diagonalization with overlap

---- Real-time Memory Report at c_bands before calling an iterative solver
             0 MiB given to the printing process from OS
             0 MiB allocation reported by mallinfo(arena+hblkhd)
        169253 MiB available memory on the node where the printing process lives
------------------
     ethr =  7.58E-04,  avg # of iterations =  1.3

     negative rho (up, down):  7.809E-01 0.000E+00

     total cpu time spent up to now is      155.5 secs

     total energy              =   -4400.12448851 Ry
     estimated scf accuracy    <       1.65327887 Ry

     iteration # 12     ecut=    60.00 Ry     beta= 0.15
     Davidson diagonalization with overlap

---- Real-time Memory Report at c_bands before calling an iterative solver
             0 MiB given to the printing process from OS
             0 MiB allocation reported by mallinfo(arena+hblkhd)
        169236 MiB available memory on the node where the printing process lives
------------------
     ethr =  3.89E-04,  avg # of iterations =  1.1

     negative rho (up, down):  7.877E-01 0.000E+00

     total cpu time spent up to now is      167.5 secs

     total energy              =   -4400.11443305 Ry
     estimated scf accuracy    <       0.76997265 Ry

     iteration # 13     ecut=    60.00 Ry     beta= 0.15
     Davidson diagonalization with overlap

---- Real-time Memory Report at c_bands before calling an iterative solver
             0 MiB given to the printing process from OS
             0 MiB allocation reported by mallinfo(arena+hblkhd)
        169245 MiB available memory on the node where the printing process lives
------------------
     ethr =  1.81E-04,  avg # of iterations =  6.2

     negative rho (up, down):  7.997E-01 0.000E+00

     total cpu time spent up to now is      182.8 secs

     total energy              =   -4400.11526588 Ry
     estimated scf accuracy    <       1.41086158 Ry

     iteration # 14     ecut=    60.00 Ry     beta= 0.15
     Davidson diagonalization with overlap

---- Real-time Memory Report at c_bands before calling an iterative solver
             0 MiB given to the printing process from OS
             0 MiB allocation reported by mallinfo(arena+hblkhd)
        169245 MiB available memory on the node where the printing process lives
------------------
     ethr =  1.81E-04,  avg # of iterations =  3.3

     negative rho (up, down):  8.041E-01 0.000E+00

     total cpu time spent up to now is      196.3 secs

     total energy              =   -4400.01696873 Ry
     estimated scf accuracy    <       2.10364264 Ry

     iteration # 15     ecut=    60.00 Ry     beta= 0.15
     Davidson diagonalization with overlap

---- Real-time Memory Report at c_bands before calling an iterative solver
             0 MiB given to the printing process from OS
             0 MiB allocation reported by mallinfo(arena+hblkhd)
        169246 MiB available memory on the node where the printing process lives
------------------
     ethr =  1.81E-04,  avg # of iterations =  4.5

     negative rho (up, down):  8.080E-01 0.000E+00

     total cpu time spent up to now is      210.4 secs

     total energy              =   -4400.05750659 Ry
     estimated scf accuracy    <       0.39581428 Ry

     iteration # 16     ecut=    60.00 Ry     beta= 0.15
     Davidson diagonalization with overlap

---- Real-time Memory Report at c_bands before calling an iterative solver
             0 MiB given to the printing process from OS
             0 MiB allocation reported by mallinfo(arena+hblkhd)
        169239 MiB available memory on the node where the printing process lives
------------------
     c_bands:  2 eigenvalues not converged
     ethr =  9.31E-05,  avg # of iterations =  9.9

     negative rho (up, down):  8.106E-01 0.000E+00

     total cpu time spent up to now is      226.7 secs

     total energy              =   -4400.03883985 Ry
     estimated scf accuracy    <       0.32059293 Ry

     iteration # 17     ecut=    60.00 Ry     beta= 0.15
     Davidson diagonalization with overlap

---- Real-time Memory Report at c_bands before calling an iterative solver
             0 MiB given to the printing process from OS
             0 MiB allocation reported by mallinfo(arena+hblkhd)
        169230 MiB available memory on the node where the printing process lives
------------------
     ethr =  7.54E-05,  avg # of iterations =  4.9

     negative rho (up, down):  8.211E-01 0.000E+00

     total cpu time spent up to now is      241.4 secs

     total energy              =   -4399.95653117 Ry
     estimated scf accuracy    <       0.26857857 Ry

     iteration # 18     ecut=    60.00 Ry     beta= 0.15
     Davidson diagonalization with overlap

---- Real-time Memory Report at c_bands before calling an iterative solver
             0 MiB given to the printing process from OS
             0 MiB allocation reported by mallinfo(arena+hblkhd)
        169225 MiB available memory on the node where the printing process lives
------------------
     ethr =  6.32E-05,  avg # of iterations = 11.1

     negative rho (up, down):  8.261E-01 0.000E+00

     total cpu time spent up to now is      259.9 secs

     total energy              =   -4399.94955489 Ry
     estimated scf accuracy    <       0.28955953 Ry

     iteration # 19     ecut=    60.00 Ry     beta= 0.15
     Davidson diagonalization with overlap

---- Real-time Memory Report at c_bands before calling an iterative solver
             0 MiB given to the printing process from OS
             0 MiB allocation reported by mallinfo(arena+hblkhd)
        169155 MiB available memory on the node where the printing process lives
------------------
     ethr =  6.32E-05,  avg # of iterations =  1.3

     negative rho (up, down):  8.237E-01 0.000E+00

     total cpu time spent up to now is      272.4 secs

     total energy              =   -4399.95195230 Ry
     estimated scf accuracy    <       0.11236412 Ry

     iteration # 20     ecut=    60.00 Ry     beta= 0.15
     Davidson diagonalization with overlap

---- Real-time Memory Report at c_bands before calling an iterative solver
             0 MiB given to the printing process from OS
             0 MiB allocation reported by mallinfo(arena+hblkhd)
        169168 MiB available memory on the node where the printing process lives
------------------
     ethr =  2.64E-05,  avg # of iterations =  3.9

     negative rho (up, down):  8.165E-01 0.000E+00

     total cpu time spent up to now is      286.3 secs

     total energy              =   -4399.93876012 Ry
     estimated scf accuracy    <       0.09307244 Ry

     iteration # 21     ecut=    60.00 Ry     beta= 0.15
     Davidson diagonalization with overlap

---- Real-time Memory Report at c_bands before calling an iterative solver
             0 MiB given to the printing process from OS
             0 MiB allocation reported by mallinfo(arena+hblkhd)
        169162 MiB available memory on the node where the printing process lives
------------------
     ethr =  2.19E-05,  avg # of iterations =  9.3

     negative rho (up, down):  8.116E-01 0.000E+00

     total cpu time spent up to now is      303.4 secs

     total energy              =   -4399.92580941 Ry
     estimated scf accuracy    <       0.06159042 Ry

     iteration # 22     ecut=    60.00 Ry     beta= 0.15
     Davidson diagonalization with overlap

---- Real-time Memory Report at c_bands before calling an iterative solver
             0 MiB given to the printing process from OS
             0 MiB allocation reported by mallinfo(arena+hblkhd)
        169178 MiB available memory on the node where the printing process lives
------------------
     ethr =  1.45E-05,  avg # of iterations = 11.4

     negative rho (up, down):  8.116E-01 0.000E+00

     total cpu time spent up to now is      321.8 secs

     total energy              =   -4399.92605055 Ry
     estimated scf accuracy    <       0.02798831 Ry

     iteration # 23     ecut=    60.00 Ry     beta= 0.15
     Davidson diagonalization with overlap

---- Real-time Memory Report at c_bands before calling an iterative solver
             0 MiB given to the printing process from OS
             0 MiB allocation reported by mallinfo(arena+hblkhd)
        169105 MiB available memory on the node where the printing process lives
------------------
     ethr =  6.59E-06,  avg # of iterations =  7.0

     negative rho (up, down):  8.018E-01 0.000E+00

     total cpu time spent up to now is      337.0 secs

     total energy              =   -4399.92404752 Ry
     estimated scf accuracy    <       0.02036134 Ry

     iteration # 24     ecut=    60.00 Ry     beta= 0.15
     Davidson diagonalization with overlap

---- Real-time Memory Report at c_bands before calling an iterative solver
             0 MiB given to the printing process from OS
             0 MiB allocation reported by mallinfo(arena+hblkhd)
        169135 MiB available memory on the node where the printing process lives
------------------
     c_bands:  1 eigenvalues not converged
     ethr =  4.79E-06,  avg # of iterations =  8.0

     negative rho (up, down):  7.947E-01 0.000E+00

     total cpu time spent up to now is      353.4 secs

     total energy              =   -4399.92378526 Ry
     estimated scf accuracy    <       0.01186607 Ry

     iteration # 25     ecut=    60.00 Ry     beta= 0.15
     Davidson diagonalization with overlap

---- Real-time Memory Report at c_bands before calling an iterative solver
             0 MiB given to the printing process from OS
             0 MiB allocation reported by mallinfo(arena+hblkhd)
        169139 MiB available memory on the node where the printing process lives
------------------
     ethr =  2.79E-06,  avg # of iterations =  2.7

     negative rho (up, down):  7.935E-01 0.000E+00

     total cpu time spent up to now is      367.1 secs

     total energy              =   -4399.92326675 Ry
     estimated scf accuracy    <       0.00873576 Ry

     iteration # 26     ecut=    60.00 Ry     beta= 0.15
     Davidson diagonalization with overlap

---- Real-time Memory Report at c_bands before calling an iterative solver
             0 MiB given to the printing process from OS
             0 MiB allocation reported by mallinfo(arena+hblkhd)
        169150 MiB available memory on the node where the printing process lives
------------------
     ethr =  2.06E-06,  avg # of iterations =  9.1

     negative rho (up, down):  7.918E-01 0.000E+00

     total cpu time spent up to now is      383.6 secs

     total energy              =   -4399.92280190 Ry
     estimated scf accuracy    <       0.00499856 Ry

     iteration # 27     ecut=    60.00 Ry     beta= 0.15
     Davidson diagonalization with overlap

---- Real-time Memory Report at c_bands before calling an iterative solver
             0 MiB given to the printing process from OS
             0 MiB allocation reported by mallinfo(arena+hblkhd)
        169133 MiB available memory on the node where the printing process lives
------------------
     c_bands:  1 eigenvalues not converged
     ethr =  1.18E-06,  avg # of iterations =  7.7

     negative rho (up, down):  7.963E-01 0.000E+00

     total cpu time spent up to now is      400.0 secs

     total energy              =   -4399.92303482 Ry
     estimated scf accuracy    <       0.00253570 Ry

     iteration # 28     ecut=    60.00 Ry     beta= 0.15
     Davidson diagonalization with overlap

---- Real-time Memory Report at c_bands before calling an iterative solver
             0 MiB given to the printing process from OS
             0 MiB allocation reported by mallinfo(arena+hblkhd)
        169073 MiB available memory on the node where the printing process lives
------------------
     ethr =  5.97E-07,  avg # of iterations =  4.4

     negative rho (up, down):  7.962E-01 0.000E+00

     total cpu time spent up to now is      414.7 secs

     total energy              =   -4399.92280149 Ry
     estimated scf accuracy    <       0.00148608 Ry

     iteration # 29     ecut=    60.00 Ry     beta= 0.15
     Davidson diagonalization with overlap

---- Real-time Memory Report at c_bands before calling an iterative solver
             0 MiB given to the printing process from OS
             0 MiB allocation reported by mallinfo(arena+hblkhd)
        169084 MiB available memory on the node where the printing process lives
------------------
     c_bands:  1 eigenvalues not converged
     ethr =  3.50E-07,  avg # of iterations =  9.4

     negative rho (up, down):  7.965E-01 0.000E+00

     total cpu time spent up to now is      431.6 secs

     total energy              =   -4399.92264964 Ry
     estimated scf accuracy    <       0.00057230 Ry

     iteration # 30     ecut=    60.00 Ry     beta= 0.15
     Davidson diagonalization with overlap

---- Real-time Memory Report at c_bands before calling an iterative solver
             0 MiB given to the printing process from OS
             0 MiB allocation reported by mallinfo(arena+hblkhd)
        169019 MiB available memory on the node where the printing process lives
------------------
     c_bands:  1 eigenvalues not converged
     ethr =  1.35E-07,  avg # of iterations =  7.9

     negative rho (up, down):  7.961E-01 0.000E+00

     total cpu time spent up to now is      449.9 secs

     total energy              =   -4399.92271381 Ry
     estimated scf accuracy    <       0.00016262 Ry

     iteration # 31     ecut=    60.00 Ry     beta= 0.15
     Davidson diagonalization with overlap

---- Real-time Memory Report at c_bands before calling an iterative solver
             0 MiB given to the printing process from OS
             0 MiB allocation reported by mallinfo(arena+hblkhd)
        168925 MiB available memory on the node where the printing process lives
------------------
     ethr =  3.83E-08,  avg # of iterations =  1.9

     negative rho (up, down):  7.947E-01 0.000E+00

     total cpu time spent up to now is      463.5 secs

     total energy              =   -4399.92269876 Ry
     estimated scf accuracy    <       0.00009891 Ry

     iteration # 32     ecut=    60.00 Ry     beta= 0.15
     Davidson diagonalization with overlap

---- Real-time Memory Report at c_bands before calling an iterative solver
             0 MiB given to the printing process from OS
             0 MiB allocation reported by mallinfo(arena+hblkhd)
        168975 MiB available memory on the node where the printing process lives
------------------
     ethr =  2.33E-08,  avg # of iterations =  2.2

     negative rho (up, down):  7.935E-01 0.000E+00

     total cpu time spent up to now is      476.9 secs

     total energy              =   -4399.92269867 Ry
     estimated scf accuracy    <       0.00007182 Ry

     iteration # 33     ecut=    60.00 Ry     beta= 0.15
     Davidson diagonalization with overlap

---- Real-time Memory Report at c_bands before calling an iterative solver
             0 MiB given to the printing process from OS
             0 MiB allocation reported by mallinfo(arena+hblkhd)
        168977 MiB available memory on the node where the printing process lives
------------------
     c_bands:  1 eigenvalues not converged
     ethr =  1.69E-08,  avg # of iterations =  4.0

     negative rho (up, down):  7.929E-01 0.000E+00

     total cpu time spent up to now is      491.1 secs

     total energy              =   -4399.92270851 Ry
     estimated scf accuracy    <       0.00003489 Ry

     iteration # 34     ecut=    60.00 Ry     beta= 0.15
     Davidson diagonalization with overlap

---- Real-time Memory Report at c_bands before calling an iterative solver
             0 MiB given to the printing process from OS
             0 MiB allocation reported by mallinfo(arena+hblkhd)
        169011 MiB available memory on the node where the printing process lives
------------------
     ethr =  8.21E-09,  avg # of iterations =  3.2

     negative rho (up, down):  7.927E-01 0.000E+00

     total cpu time spent up to now is      505.1 secs

     total energy              =   -4399.92271300 Ry
     estimated scf accuracy    <       0.00001464 Ry

     iteration # 35     ecut=    60.00 Ry     beta= 0.15
     Davidson diagonalization with overlap

---- Real-time Memory Report at c_bands before calling an iterative solver
             0 MiB given to the printing process from OS
             0 MiB allocation reported by mallinfo(arena+hblkhd)
        169024 MiB available memory on the node where the printing process lives
------------------
     ethr =  3.45E-09,  avg # of iterations =  2.2

     negative rho (up, down):  7.926E-01 0.000E+00

     total cpu time spent up to now is      518.5 secs

     total energy              =   -4399.92271494 Ry
     estimated scf accuracy    <       0.00001295 Ry

     iteration # 36     ecut=    60.00 Ry     beta= 0.15
     Davidson diagonalization with overlap

---- Real-time Memory Report at c_bands before calling an iterative solver
             0 MiB given to the printing process from OS
             0 MiB allocation reported by mallinfo(arena+hblkhd)
        169036 MiB available memory on the node where the printing process lives
------------------
     ethr =  3.05E-09,  avg # of iterations =  2.0

     negative rho (up, down):  7.925E-01 0.000E+00

     total cpu time spent up to now is      531.9 secs

     total energy              =   -4399.92271639 Ry
     estimated scf accuracy    <       0.00000937 Ry

     iteration # 37     ecut=    60.00 Ry     beta= 0.15
     Davidson diagonalization with overlap

---- Real-time Memory Report at c_bands before calling an iterative solver
             0 MiB given to the printing process from OS
             0 MiB allocation reported by mallinfo(arena+hblkhd)
        169031 MiB available memory on the node where the printing process lives
------------------
     ethr =  2.20E-09,  avg # of iterations =  2.1

     negative rho (up, down):  7.925E-01 0.000E+00

     total cpu time spent up to now is      545.5 secs

     total energy              =   -4399.92271705 Ry
     estimated scf accuracy    <       0.00000768 Ry

     iteration # 38     ecut=    60.00 Ry     beta= 0.15
     Davidson diagonalization with overlap

---- Real-time Memory Report at c_bands before calling an iterative solver
             0 MiB given to the printing process from OS
             0 MiB allocation reported by mallinfo(arena+hblkhd)
        169030 MiB available memory on the node where the printing process lives
------------------
     ethr =  1.81E-09,  avg # of iterations =  1.1

     negative rho (up, down):  7.925E-01 0.000E+00

     total cpu time spent up to now is      557.8 secs

     total energy              =   -4399.92271705 Ry
     estimated scf accuracy    <       0.00000712 Ry

     iteration # 39     ecut=    60.00 Ry     beta= 0.15
     Davidson diagonalization with overlap

---- Real-time Memory Report at c_bands before calling an iterative solver
             0 MiB given to the printing process from OS
             0 MiB allocation reported by mallinfo(arena+hblkhd)
        169047 MiB available memory on the node where the printing process lives
------------------
     ethr =  1.68E-09,  avg # of iterations =  1.1

     negative rho (up, down):  7.925E-01 0.000E+00

     total cpu time spent up to now is      569.9 secs

     total energy              =   -4399.92271715 Ry
     estimated scf accuracy    <       0.00000695 Ry

     iteration # 40     ecut=    60.00 Ry     beta= 0.15
     Davidson diagonalization with overlap

---- Real-time Memory Report at c_bands before calling an iterative solver
             0 MiB given to the printing process from OS
             0 MiB allocation reported by mallinfo(arena+hblkhd)
        169047 MiB available memory on the node where the printing process lives
------------------
     ethr =  1.63E-09,  avg # of iterations =  1.0

     negative rho (up, down):  7.925E-01 0.000E+00

     total cpu time spent up to now is      581.8 secs

     total energy              =   -4399.92271684 Ry
     estimated scf accuracy    <       0.00000653 Ry

     iteration # 41     ecut=    60.00 Ry     beta= 0.15
     Davidson diagonalization with overlap

---- Real-time Memory Report at c_bands before calling an iterative solver
             0 MiB given to the printing process from OS
             0 MiB allocation reported by mallinfo(arena+hblkhd)
        169049 MiB available memory on the node where the printing process lives
------------------
     ethr =  1.54E-09,  avg # of iterations =  2.0

     negative rho (up, down):  7.924E-01 0.000E+00

     total cpu time spent up to now is      595.3 secs

     total energy              =   -4399.92271681 Ry
     estimated scf accuracy    <       0.00000392 Ry

     iteration # 42     ecut=    60.00 Ry     beta= 0.15
     Davidson diagonalization with overlap

---- Real-time Memory Report at c_bands before calling an iterative solver
             0 MiB given to the printing process from OS
             0 MiB allocation reported by mallinfo(arena+hblkhd)
        169051 MiB available memory on the node where the printing process lives
------------------
     ethr =  9.22E-10,  avg # of iterations =  2.2

     negative rho (up, down):  7.924E-01 0.000E+00

     total cpu time spent up to now is      608.7 secs

     total energy              =   -4399.92271648 Ry
     estimated scf accuracy    <       0.00000214 Ry

     iteration # 43     ecut=    60.00 Ry     beta= 0.15
     Davidson diagonalization with overlap

---- Real-time Memory Report at c_bands before calling an iterative solver
             0 MiB given to the printing process from OS
             0 MiB allocation reported by mallinfo(arena+hblkhd)
        169056 MiB available memory on the node where the printing process lives
------------------
     ethr =  5.03E-10,  avg # of iterations =  2.5

     negative rho (up, down):  7.924E-01 0.000E+00

     total cpu time spent up to now is      622.2 secs

     total energy              =   -4399.92271579 Ry
     estimated scf accuracy    <       0.00000114 Ry

     iteration # 44     ecut=    60.00 Ry     beta= 0.15
     Davidson diagonalization with overlap

---- Real-time Memory Report at c_bands before calling an iterative solver
             0 MiB given to the printing process from OS
             0 MiB allocation reported by mallinfo(arena+hblkhd)
        169057 MiB available memory on the node where the printing process lives
------------------
     ethr =  2.69E-10,  avg # of iterations =  3.0

     negative rho (up, down):  7.924E-01 0.000E+00

     total cpu time spent up to now is      636.6 secs

     total energy              =   -4399.92271591 Ry
     estimated scf accuracy    <       0.00000048 Ry

     iteration # 45     ecut=    60.00 Ry     beta= 0.15
     Davidson diagonalization with overlap

---- Real-time Memory Report at c_bands before calling an iterative solver
             0 MiB given to the printing process from OS
             0 MiB allocation reported by mallinfo(arena+hblkhd)
        169059 MiB available memory on the node where the printing process lives
------------------
     ethr =  1.13E-10,  avg # of iterations =  1.4

     negative rho (up, down):  7.924E-01 0.000E+00

     total cpu time spent up to now is      649.4 secs

     total energy              =   -4399.92271644 Ry
     estimated scf accuracy    <       0.00000035 Ry

     iteration # 46     ecut=    60.00 Ry     beta= 0.15
     Davidson diagonalization with overlap

---- Real-time Memory Report at c_bands before calling an iterative solver
             0 MiB given to the printing process from OS
             0 MiB allocation reported by mallinfo(arena+hblkhd)
        169056 MiB available memory on the node where the printing process lives
------------------
     ethr =  8.12E-11,  avg # of iterations =  3.0

     negative rho (up, down):  7.925E-01 0.000E+00

     total cpu time spent up to now is      663.6 secs

     total energy              =   -4399.92271690 Ry
     estimated scf accuracy    <       0.00000020 Ry

     iteration # 47     ecut=    60.00 Ry     beta= 0.15
     Davidson diagonalization with overlap

---- Real-time Memory Report at c_bands before calling an iterative solver
             0 MiB given to the printing process from OS
             0 MiB allocation reported by mallinfo(arena+hblkhd)
        169065 MiB available memory on the node where the printing process lives
------------------
     ethr =  4.76E-11,  avg # of iterations =  4.5

     negative rho (up, down):  7.925E-01 0.000E+00

     total cpu time spent up to now is      678.1 secs

     total energy              =   -4399.92271697 Ry
     estimated scf accuracy    <       0.00000009 Ry

     iteration # 48     ecut=    60.00 Ry     beta= 0.15
     Davidson diagonalization with overlap

---- Real-time Memory Report at c_bands before calling an iterative solver
             0 MiB given to the printing process from OS
             0 MiB allocation reported by mallinfo(arena+hblkhd)
        169059 MiB available memory on the node where the printing process lives
------------------
     ethr =  2.23E-11,  avg # of iterations =  2.8

     negative rho (up, down):  7.925E-01 0.000E+00

     total cpu time spent up to now is      691.8 secs

     total energy              =   -4399.92271698 Ry
     estimated scf accuracy    <       0.00000007 Ry

     iteration # 49     ecut=    60.00 Ry     beta= 0.15
     Davidson diagonalization with overlap

---- Real-time Memory Report at c_bands before calling an iterative solver
             0 MiB given to the printing process from OS
             0 MiB allocation reported by mallinfo(arena+hblkhd)
        169062 MiB available memory on the node where the printing process lives
------------------
     ethr =  1.66E-11,  avg # of iterations =  4.0

     negative rho (up, down):  7.925E-01 0.000E+00

     total cpu time spent up to now is      706.2 secs

     total energy              =   -4399.92271696 Ry
     estimated scf accuracy    <       0.00000004 Ry

     iteration # 50     ecut=    60.00 Ry     beta= 0.15
     Davidson diagonalization with overlap

---- Real-time Memory Report at c_bands before calling an iterative solver
             0 MiB given to the printing process from OS
             0 MiB allocation reported by mallinfo(arena+hblkhd)
        169059 MiB available memory on the node where the printing process lives
------------------
     ethr =  8.44E-12,  avg # of iterations =  3.0

     negative rho (up, down):  7.925E-01 0.000E+00

     total cpu time spent up to now is      720.0 secs

     total energy              =   -4399.92271696 Ry
     estimated scf accuracy    <       0.00000002 Ry

     iteration # 51     ecut=    60.00 Ry     beta= 0.15
     Davidson diagonalization with overlap

---- Real-time Memory Report at c_bands before calling an iterative solver
             0 MiB given to the printing process from OS
             0 MiB allocation reported by mallinfo(arena+hblkhd)
        169056 MiB available memory on the node where the printing process lives
------------------
     ethr =  5.83E-12,  avg # of iterations =  2.2

     negative rho (up, down):  7.925E-01 0.000E+00

     total cpu time spent up to now is      733.5 secs

     total energy              =   -4399.92271697 Ry
     estimated scf accuracy    <       0.00000002 Ry

     iteration # 52     ecut=    60.00 Ry     beta= 0.15
     Davidson diagonalization with overlap

---- Real-time Memory Report at c_bands before calling an iterative solver
             0 MiB given to the printing process from OS
             0 MiB allocation reported by mallinfo(arena+hblkhd)
        169051 MiB available memory on the node where the printing process lives
------------------
     ethr =  4.16E-12,  avg # of iterations =  2.4

     negative rho (up, down):  7.925E-01 0.000E+00

     total cpu time spent up to now is      746.8 secs

     End of self-consistent calculation

          k = 0.0000 0.0000 0.0000 ( 65197 PWs)   bands (ev):

   -92.7409 -92.6897 -92.5953 -92.5469 -92.4903 -92.4475 -92.4302 -92.3079
   -56.0944 -56.0761 -55.9524 -55.9417 -55.9348 -55.9285 -55.8944 -55.8644
   -55.8488 -55.8470 -55.8396 -55.7975 -55.7774 -55.7417 -55.7219 -55.6900
   -55.6824 -55.6358 -55.6340 -55.6327 -55.6243 -55.5827 -55.5605 -55.4742
   -31.3162 -31.2963 -31.1559 -31.1269 -31.1041 -31.0685 -30.8428 -30.6674
   -29.8877 -29.8440 -29.8202 -29.7106 -15.1211 -15.0760 -14.9968 -14.8668
   -14.6730 -14.5505 -14.2576 -14.2403 -14.2084 -14.1654 -14.1222 -14.1102
   -14.0959 -14.0782 -14.0487 -14.0276 -13.9696 -13.8194 -13.6396 -13.6072
   -13.5762 -13.5436 -13.5272 -13.4767 -13.4424 -13.3604 -13.2892 -13.1834
   -13.1518 -13.1487 -13.1292 -13.1135 -13.0964 -13.0613 -13.0426 -13.0261
   -12.9991 -12.9659 -12.9620 -12.9485 -12.9396 -12.9301 -12.8312 -12.8069
   -12.7988 -12.6221 -12.6065 -12.5773 -12.3813 -12.2353 -12.0587 -11.9851
   -11.9010 -11.8267 -11.8164 -11.7930 -11.7758 -11.7119 -11.6951 -11.6595
   -11.6314 -11.5197 -11.4398 -11.4361  -2.9815  -2.7493  -2.5199  -2.3722
    -2.3099  -2.1677  -1.8601  -1.8459  -1.8265  -1.7407  -1.7224  -1.6547
    -1.6385  -1.5972  -1.5529  -1.3714  -1.1460  -1.1165  -0.9708  -0.9564
    -0.9084  -0.8922  -0.8464  -0.8294  -0.7736  -0.7472  -0.6745  -0.6629
    -0.5868  -0.4552  -0.4422  -0.4135  -0.3319  -0.3113  -0.2911  -0.2402
    -0.1672  -0.1287  -0.0706  -0.0468   0.0147   0.0924   0.1399   0.1625
     0.1717   0.4299   0.4470   0.6182   0.6837   0.7477   0.7941   0.8828
     0.8965   0.9128   0.9824   1.0093   1.0449   1.1014   1.2337   1.2909
     1.3131   1.3351   1.3454   1.4098   1.4812   1.5874   1.6023   1.6610
     1.6733   1.7162   1.7367   1.7460   1.8004   1.8558   1.8630   1.8998
     1.9341   1.9862   2.1166   2.2013   2.2449   2.2628   2.4094   2.4240
     2.4711   2.4730   2.5828   2.6172   2.6438   2.6632   2.6744   2.7275
     2.7860   2.8667   2.9006   2.9113   2.9182   2.9850   2.9919   3.0129
     3.0212   3.0303   3.0425   3.0489   3.0624   3.0687   3.0797   3.0889
     3.0971   3.1169   3.1378   3.1428   3.1549   3.1793   3.2955   3.3972
     4.0696   4.3853   4.7303   4.8495   4.9974   5.8569   5.9125   5.9419
     5.9690   6.2743   6.3213   6.4614   6.4709   6.7456   6.9842   7.0751
     7.1936   7.2813   7.5249   7.5997   7.6315   7.6541   7.6838   7.8509
     7.9494   8.0866   8.1132   8.2208   8.3361   8.5787   8.8286   8.8732

     occupation numbers 
     1.0000   1.0000   1.0000   1.0000   1.0000   1.0000   1.0000   1.0000
     1.0000   1.0000   1.0000   1.0000   1.0000   1.0000   1.0000   1.0000
     1.0000   1.0000   1.0000   1.0000   1.0000   1.0000   1.0000   1.0000
     1.0000   1.0000   1.0000   1.0000   1.0000   1.0000   1.0000   1.0000
     1.0000   1.0000   1.0000   1.0000   1.0000   1.0000   1.0000   1.0000
     1.0000   1.0000   1.0000   1.0000   1.0000   1.0000   1.0000   1.0000
     1.0000   1.0000   1.0000   1.0000   1.0000   1.0000   1.0000   1.0000
     1.0000   1.0000   1.0000   1.0000   1.0000   1.0000   1.0000   1.0000
     1.0000   1.0000   1.0000   1.0000   1.0000   1.0000   1.0000   1.0000
     1.0000   1.0000   1.0000   1.0000   1.0000   1.0000   1.0000   1.0000
     1.0000   1.0000   1.0000   1.0000   1.0000   1.0000   1.0000   1.0000
     1.0000   1.0000   1.0000   1.0000   1.0000   1.0000   1.0000   1.0000
     1.0000   1.0000   1.0000   1.0000   1.0000   1.0000   1.0000   1.0000
     1.0000   1.0000   1.0000   1.0000   1.0000   1.0000   1.0000   1.0000
     1.0000   1.0000   1.0000   1.0000   1.0000   1.0000   1.0000   1.0000
     1.0000   1.0000   1.0000   1.0000   1.0000   1.0000   1.0000   1.0000
     1.0000   1.0000   1.0000   1.0000   1.0000   1.0000   1.0000   1.0000
     1.0000   1.0000   1.0000   1.0000   1.0000   1.0000   1.0000   1.0000
     1.0000   1.0000   1.0000   1.0000   1.0000   1.0000   1.0000   1.0000
     1.0000   1.0000   1.0000   1.0000   0.9999   0.9999   0.9999   0.9998
     0.9998   0.9998   0.9997   0.9996   0.9996   0.9994   0.9989   0.9985
     0.9983   0.9981   0.9980   0.9973   0.9963   0.9942   0.9938   0.9921
     0.9917   0.9901   0.9893   0.9889   0.9863   0.9832   0.9827   0.9803
     0.9777   0.9733   0.9589   0.9465   0.9391   0.9358   0.9037   0.8999
     0.8871   0.8865   0.8521   0.8399   0.8301   0.8227   0.8184   0.7969
     0.7714   0.7336   0.7168   0.7114   0.7079   0.6729   0.6693   0.6578
     0.6533   0.6483   0.6416   0.6380   0.6305   0.6270   0.6207   0.6155
     0.6109   0.5996   0.5875   0.5846   0.5776   0.5634   0.4948   0.4348
     0.1225   0.0514   0.0160   0.0102   0.0055   0.0001   0.0000   0.0000
     0.0000   0.0000   0.0000   0.0000   0.0000   0.0000   0.0000   0.0000
     0.0000   0.0000   0.0000   0.0000   0.0000   0.0000   0.0000   0.0000
     0.0000   0.0000   0.0000   0.0000   0.0000   0.0000   0.0000   0.0000

          k = 0.0000 0.2500 0.0000 ( 65257 PWs)   bands (ev):

   -92.7409 -92.6897 -92.5953 -92.5469 -92.4903 -92.4475 -92.4302 -92.3079
   -56.0944 -56.0761 -55.9524 -55.9417 -55.9348 -55.9285 -55.8944 -55.8644
   -55.8488 -55.8470 -55.8396 -55.7975 -55.7774 -55.7417 -55.7219 -55.6900
   -55.6824 -55.6358 -55.6340 -55.6327 -55.6243 -55.5827 -55.5605 -55.4742
   -31.3160 -31.2962 -31.1561 -31.1255 -31.1055 -31.0686 -30.8427 -30.6676
   -29.8870 -29.8437 -29.8208 -29.7109 -15.0845 -15.0498 -14.9718 -14.8373
   -14.7135 -14.5411 -14.4045 -14.2249 -14.1882 -14.1699 -14.1416 -14.0823
   -14.0757 -14.0606 -14.0390 -13.9973 -13.8887 -13.8486 -13.6870 -13.6638
   -13.6176 -13.5819 -13.5330 -13.4944 -13.4554 -13.3819 -13.3464 -13.2979
   -13.2255 -13.1862 -13.1478 -13.1364 -13.1118 -13.0372 -13.0151 -12.9851
   -12.9704 -12.9402 -12.9054 -12.8838 -12.8636 -12.8376 -12.8263 -12.7973
   -12.7716 -12.5877 -12.5357 -12.4796 -12.4426 -12.2865 -12.1161 -12.0525
   -11.8665 -11.8235 -11.7960 -11.7683 -11.7517 -11.7036 -11.6927 -11.6703
   -11.6350 -11.5342 -11.4815 -11.4708  -2.8462  -2.6250  -2.4872  -2.3049
    -2.2617  -2.0983  -1.8780  -1.7943  -1.7813  -1.7214  -1.6209  -1.6044
    -1.5712  -1.5444  -1.5002  -1.3028  -1.1735  -1.1617  -1.0848  -1.0746
    -0.9709  -0.9415  -0.8848  -0.8583  -0.8180  -0.7529  -0.7264  -0.6944
    -0.6642  -0.6471  -0.6129  -0.5409  -0.4889  -0.4178  -0.3106  -0.2849
    -0.2469  -0.1325  -0.0965  -0.0327   0.0141   0.0765   0.0908   0.1188
     0.1772   0.4779   0.5660   0.5982   0.6859   0.7302   0.7498   0.8699
     0.8877   0.9816   1.0094   1.0362   1.1507   1.2451   1.2660   1.2915
     1.3105   1.3346   1.3944   1.4223   1.4493   1.4973   1.5317   1.5621
     1.6461   1.6827   1.7131   1.7679   1.8206   1.8565   1.8878   1.9165
     1.9326   2.0250   2.1544   2.2260   2.2469   2.3198   2.3645   2.4048
     2.4112   2.4758   2.5145   2.5988   2.6378   2.6521   2.7510   2.8300
     2.8516   2.8795   2.9041   2.9181   2.9268   2.9341   2.9431   2.9740
     2.9767   2.9932   3.0035   3.0078   3.0264   3.0391   3.0460   3.0675
     3.0787   3.0850   3.1194   3.1355   3.1948   3.5607   3.6078   3.8423
     4.2578   4.3811   4.6725   4.9997   5.0273   5.6093   5.7681   5.9256
     5.9560   6.0538   6.0807   6.1503   6.5778   6.8898   6.9401   7.0910
     7.3043   7.4531   7.4675   7.5160   7.6146   7.7592   7.8094   8.0033
     8.0375   8.1132   8.2042   8.2434   8.3781   8.5771   8.7206   8.9218

     occupation numbers 
     1.0000   1.0000   1.0000   1.0000   1.0000   1.0000   1.0000   1.0000
     1.0000   1.0000   1.0000   1.0000   1.0000   1.0000   1.0000   1.0000
     1.0000   1.0000   1.0000   1.0000   1.0000   1.0000   1.0000   1.0000
     1.0000   1.0000   1.0000   1.0000   1.0000   1.0000   1.0000   1.0000
     1.0000   1.0000   1.0000   1.0000   1.0000   1.0000   1.0000   1.0000
     1.0000   1.0000   1.0000   1.0000   1.0000   1.0000   1.0000   1.0000
     1.0000   1.0000   1.0000   1.0000   1.0000   1.0000   1.0000   1.0000
     1.0000   1.0000   1.0000   1.0000   1.0000   1.0000   1.0000   1.0000
     1.0000   1.0000   1.0000   1.0000   1.0000   1.0000   1.0000   1.0000
     1.0000   1.0000   1.0000   1.0000   1.0000   1.0000   1.0000   1.0000
     1.0000   1.0000   1.0000   1.0000   1.0000   1.0000   1.0000   1.0000
     1.0000   1.0000   1.0000   1.0000   1.0000   1.0000   1.0000   1.0000
     1.0000   1.0000   1.0000   1.0000   1.0000   1.0000   1.0000   1.0000
     1.0000   1.0000   1.0000   1.0000   1.0000   1.0000   1.0000   1.0000
     1.0000   1.0000   1.0000   1.0000   1.0000   1.0000   1.0000   1.0000
     1.0000   1.0000   1.0000   1.0000   1.0000   1.0000   1.0000   1.0000
     1.0000   1.0000   1.0000   1.0000   1.0000   1.0000   1.0000   1.0000
     1.0000   1.0000   1.0000   1.0000   1.0000   1.0000   1.0000   1.0000
     1.0000   1.0000   1.0000   1.0000   1.0000   1.0000   1.0000   1.0000
     1.0000   1.0000   1.0000   1.0000   0.9999   0.9999   0.9999   0.9998
     0.9998   0.9997   0.9996   0.9996   0.9992   0.9988   0.9987   0.9985
     0.9983   0.9981   0.9975   0.9972   0.9968   0.9961   0.9954   0.9948
     0.9926   0.9914   0.9903   0.9879   0.9853   0.9832   0.9811   0.9791
     0.9778   0.9695   0.9537   0.9424   0.9387   0.9245   0.9146   0.9048
     0.9032   0.8857   0.8742   0.8465   0.8324   0.8270   0.7868   0.7512
     0.7409   0.7273   0.7150   0.7079   0.7035   0.6997   0.6951   0.6788
     0.6773   0.6685   0.6630   0.6606   0.6504   0.6434   0.6396   0.6276
     0.6213   0.6177   0.5981   0.5888   0.5543   0.3421   0.3168   0.2047
     0.0747   0.0521   0.0198   0.0055   0.0049   0.0003   0.0001   0.0000
     0.0000   0.0000   0.0000   0.0000   0.0000   0.0000   0.0000   0.0000
     0.0000   0.0000   0.0000   0.0000   0.0000   0.0000   0.0000   0.0000
     0.0000   0.0000   0.0000   0.0000   0.0000   0.0000   0.0000   0.0000

          k = 0.0000-0.5000 0.0000 ( 65180 PWs)   bands (ev):

   -92.7409 -92.6897 -92.5953 -92.5469 -92.4903 -92.4475 -92.4302 -92.3079
   -56.0944 -56.0761 -55.9524 -55.9417 -55.9348 -55.9285 -55.8944 -55.8644
   -55.8488 -55.8470 -55.8396 -55.7975 -55.7774 -55.7417 -55.7219 -55.6900
   -55.6824 -55.6358 -55.6340 -55.6327 -55.6243 -55.5827 -55.5605 -55.4742
   -31.3159 -31.2960 -31.1563 -31.1239 -31.1071 -31.0688 -30.8425 -30.6678
   -29.8864 -29.8434 -29.8215 -29.7112 -15.0489 -15.0001 -14.9487 -14.8161
   -14.7370 -14.5954 -14.4498 -14.3154 -14.1970 -14.1298 -14.0818 -14.0772
   -14.0251 -14.0098 -13.9650 -13.9387 -13.9180 -13.8782 -13.8323 -13.8104
   -13.6233 -13.5645 -13.5389 -13.4961 -13.4587 -13.3974 -13.3696 -13.3212
   -13.3066 -13.2564 -13.1486 -13.1361 -13.0811 -13.0677 -13.0077 -12.9917
   -12.9678 -12.9209 -12.8681 -12.8554 -12.8261 -12.7835 -12.7523 -12.7439
   -12.6907 -12.5855 -12.5535 -12.4024 -12.3614 -12.2739 -12.2195 -12.2036
   -11.8204 -11.8182 -11.7911 -11.7548 -11.7200 -11.7090 -11.6650 -11.6612
   -11.6158 -11.5564 -11.5424 -11.5280  -2.6313  -2.5724  -2.4218  -2.3497
    -2.0670  -1.9849  -1.8577  -1.7201  -1.6805  -1.6633  -1.5850  -1.5520
    -1.4722  -1.4360  -1.3580  -1.3187  -1.2799  -1.2525  -1.1943  -1.1590
    -1.1079  -1.0742  -1.0430  -1.0064  -0.8987  -0.8536  -0.8180  -0.8166
    -0.7299  -0.6977  -0.6756  -0.6283  -0.5397  -0.4713  -0.3818  -0.3501
    -0.2508  -0.2142  -0.0695  -0.0224  -0.0042   0.0477   0.1653   0.2240
     0.3519   0.4217   0.4287   0.5567   0.6103   0.7019   0.8360   0.9403
     0.9734   1.0125   1.0208   1.0574   1.0725   1.1084   1.1252   1.1350
     1.2466   1.3059   1.3394   1.3660   1.6302   1.6536   1.6753   1.7682
     1.7929   1.8279   1.8439   1.8713   1.8869   1.8924   1.9223   1.9662
     1.9907   2.0217   2.0282   2.0586   2.1124   2.1988   2.2283   2.4013
     2.5629   2.5684   2.5906   2.6285   2.6339   2.6430   2.6854   2.7037
     2.7543   2.7584   2.7805   2.8676   2.8802   2.9415   2.9450   2.9701
     2.9754   2.9906   2.9935   2.9980   3.0044   3.0114   3.0236   3.0373
     3.0439   3.1037   3.1096   3.1251   3.1802   4.0857   4.0961   4.1427
     4.2295   4.6987   4.8628   4.9952   5.1341   5.3916   5.4311   5.5549
     5.6958   5.9868   6.0058   6.0685   6.7055   6.8322   6.9303   7.1981
     7.3037   7.3539   7.4536   7.5835   7.7180   7.7959   7.8670   7.8777
     8.1379   8.2589   8.3853   8.4608   8.6263   8.7774   8.7923   8.8401

     occupation numbers 
     1.0000   1.0000   1.0000   1.0000   1.0000   1.0000   1.0000   1.0000
     1.0000   1.0000   1.0000   1.0000   1.0000   1.0000   1.0000   1.0000
     1.0000   1.0000   1.0000   1.0000   1.0000   1.0000   1.0000   1.0000
     1.0000   1.0000   1.0000   1.0000   1.0000   1.0000   1.0000   1.0000
     1.0000   1.0000   1.0000   1.0000   1.0000   1.0000   1.0000   1.0000
     1.0000   1.0000   1.0000   1.0000   1.0000   1.0000   1.0000   1.0000
     1.0000   1.0000   1.0000   1.0000   1.0000   1.0000   1.0000   1.0000
     1.0000   1.0000   1.0000   1.0000   1.0000   1.0000   1.0000   1.0000
     1.0000   1.0000   1.0000   1.0000   1.0000   1.0000   1.0000   1.0000
     1.0000   1.0000   1.0000   1.0000   1.0000   1.0000   1.0000   1.0000
     1.0000   1.0000   1.0000   1.0000   1.0000   1.0000   1.0000   1.0000
     1.0000   1.0000   1.0000   1.0000   1.0000   1.0000   1.0000   1.0000
     1.0000   1.0000   1.0000   1.0000   1.0000   1.0000   1.0000   1.0000
     1.0000   1.0000   1.0000   1.0000   1.0000   1.0000   1.0000   1.0000
     1.0000   1.0000   1.0000   1.0000   1.0000   1.0000   1.0000   1.0000
     1.0000   1.0000   1.0000   1.0000   1.0000   1.0000   1.0000   1.0000
     1.0000   1.0000   1.0000   1.0000   1.0000   1.0000   1.0000   1.0000
     1.0000   1.0000   1.0000   1.0000   1.0000   1.0000   1.0000   1.0000
     1.0000   1.0000   1.0000   1.0000   1.0000   1.0000   1.0000   1.0000
     1.0000   1.0000   1.0000   1.0000   1.0000   0.9999   0.9999   0.9998
     0.9997   0.9996   0.9996   0.9995   0.9995   0.9994   0.9993   0.9993
     0.9988   0.9984   0.9981   0.9978   0.9930   0.9923   0.9916   0.9879
     0.9867   0.9849   0.9839   0.9822   0.9812   0.9808   0.9786   0.9751
     0.9728   0.9698   0.9692   0.9659   0.9594   0.9469   0.9420   0.9057
     0.8588   0.8569   0.8494   0.8358   0.8338   0.8304   0.8140   0.8067
     0.7854   0.7836   0.7739   0.7331   0.7270   0.6959   0.6940   0.6809
     0.6781   0.6699   0.6683   0.6659   0.6625   0.6587   0.6520   0.6444
     0.6408   0.6071   0.6037   0.5948   0.5628   0.1177   0.1147   0.1018
     0.0808   0.0180   0.0096   0.0056   0.0030   0.0009   0.0007   0.0004
     0.0002   0.0000   0.0000   0.0000   0.0000   0.0000   0.0000   0.0000
     0.0000   0.0000   0.0000   0.0000   0.0000   0.0000   0.0000   0.0000
     0.0000   0.0000   0.0000   0.0000   0.0000   0.0000   0.0000   0.0000

          k = 0.2500 0.2500 0.0000 ( 65198 PWs)   bands (ev):

   -92.7409 -92.6897 -92.5953 -92.5469 -92.4903 -92.4475 -92.4302 -92.3079
   -56.0944 -56.0761 -55.9524 -55.9417 -55.9348 -55.9285 -55.8944 -55.8644
   -55.8488 -55.8470 -55.8396 -55.7975 -55.7774 -55.7417 -55.7219 -55.6900
   -55.6824 -55.6358 -55.6340 -55.6327 -55.6243 -55.5827 -55.5605 -55.4742
   -31.3144 -31.2978 -31.1557 -31.1254 -31.1054 -31.0690 -30.8428 -30.6677
   -29.8861 -29.8447 -29.8205 -29.7113 -15.0558 -15.0145 -14.9441 -14.8267
   -14.7065 -14.5820 -14.5101 -14.3022 -14.1482 -14.1349 -14.0987 -14.0692
   -14.0462 -14.0197 -13.9843 -13.9618 -13.8804 -13.8623 -13.7034 -13.6879
   -13.6596 -13.6390 -13.5795 -13.5499 -13.4883 -13.4653 -13.3501 -13.3133
   -13.2685 -13.1804 -13.1409 -13.0958 -13.0870 -13.0578 -13.0321 -12.9904
   -12.9851 -12.9573 -12.9215 -12.8892 -12.8106 -12.7821 -12.7631 -12.7526
   -12.6937 -12.5862 -12.4911 -12.4815 -12.4380 -12.3155 -12.1538 -12.0859
   -11.8388 -11.8072 -11.7963 -11.7895 -11.7264 -11.6928 -11.6856 -11.6496
   -11.6426 -11.5506 -11.5098 -11.4921  -2.7078  -2.4992  -2.3815  -2.2865
    -2.1663  -2.1014  -1.9027  -1.7589  -1.7398  -1.7086  -1.6154  -1.5815
    -1.4873  -1.4598  -1.4095  -1.2788  -1.2301  -1.1564  -1.1119  -1.0679
    -1.0444  -1.0205  -0.9783  -0.9622  -0.8715  -0.8218  -0.7545  -0.7068
    -0.6777  -0.6283  -0.6141  -0.5510  -0.5001  -0.4394  -0.4100  -0.3205
    -0.2707  -0.2409  -0.2038  -0.1484  -0.0760  -0.0380  -0.0101   0.0613
     0.0988   0.3695   0.5183   0.5521   0.6117   0.6505   0.7068   0.7591
     0.8252   0.8606   1.1346   1.2011   1.2740   1.2983   1.3499   1.3789
     1.4159   1.4521   1.4690   1.4969   1.5404   1.5499   1.5653   1.6114
     1.6493   1.6871   1.7420   1.7818   1.7955   1.8221   1.8595   1.9148
     1.9391   2.0670   2.1346   2.1704   2.1950   2.2629   2.3256   2.3549
     2.3911   2.4165   2.4270   2.5421   2.5790   2.6632   2.7607   2.8366
     2.8561   2.8593   2.8782   2.8903   2.9042   2.9182   2.9234   2.9346
     2.9488   2.9649   2.9782   2.9848   2.9960   3.0186   3.0295   3.0391
     3.0702   3.3710   3.4635   3.5117   3.5747   3.5964   3.8258   3.9141
     4.2627   4.4704   4.6810   4.9364   5.1515   5.6094   5.6660   5.7288
     5.7956   5.8574   6.0331   6.1447   6.1946   6.8013   6.8758   7.0674
     7.2179   7.5247   7.5742   7.6804   7.8362   7.8727   7.9669   8.0999
     8.1792   8.2057   8.2873   8.3462   8.4098   8.4293   8.6285   8.8168

     occupation numbers 
     1.0000   1.0000   1.0000   1.0000   1.0000   1.0000   1.0000   1.0000
     1.0000   1.0000   1.0000   1.0000   1.0000   1.0000   1.0000   1.0000
     1.0000   1.0000   1.0000   1.0000   1.0000   1.0000   1.0000   1.0000
     1.0000   1.0000   1.0000   1.0000   1.0000   1.0000   1.0000   1.0000
     1.0000   1.0000   1.0000   1.0000   1.0000   1.0000   1.0000   1.0000
     1.0000   1.0000   1.0000   1.0000   1.0000   1.0000   1.0000   1.0000
     1.0000   1.0000   1.0000   1.0000   1.0000   1.0000   1.0000   1.0000
     1.0000   1.0000   1.0000   1.0000   1.0000   1.0000   1.0000   1.0000
     1.0000   1.0000   1.0000   1.0000   1.0000   1.0000   1.0000   1.0000
     1.0000   1.0000   1.0000   1.0000   1.0000   1.0000   1.0000   1.0000
     1.0000   1.0000   1.0000   1.0000   1.0000   1.0000   1.0000   1.0000
     1.0000   1.0000   1.0000   1.0000   1.0000   1.0000   1.0000   1.0000
     1.0000   1.0000   1.0000   1.0000   1.0000   1.0000   1.0000   1.0000
     1.0000   1.0000   1.0000   1.0000   1.0000   1.0000   1.0000   1.0000
     1.0000   1.0000   1.0000   1.0000   1.0000   1.0000   1.0000   1.0000
     1.0000   1.0000   1.0000   1.0000   1.0000   1.0000   1.0000   1.0000
     1.0000   1.0000   1.0000   1.0000   1.0000   1.0000   1.0000   1.0000
     1.0000   1.0000   1.0000   1.0000   1.0000   1.0000   1.0000   1.0000
     1.0000   1.0000   1.0000   1.0000   1.0000   1.0000   1.0000   1.0000
     1.0000   1.0000   1.0000   1.0000   1.0000   1.0000   0.9999   0.9999
     0.9999   0.9998   0.9993   0.9990   0.9986   0.9984   0.9980   0.9977
     0.9973   0.9968   0.9965   0.9961   0.9952   0.9950   0.9947   0.9936
     0.9925   0.9912   0.9891   0.9873   0.9866   0.9852   0.9830   0.9792
     0.9773   0.9649   0.9564   0.9513   0.9475   0.9358   0.9232   0.9168
     0.9082   0.9019   0.8991   0.8656   0.8534   0.8227   0.7826   0.7480
     0.7387   0.7372   0.7279   0.7219   0.7150   0.7079   0.7052   0.6995
     0.6921   0.6836   0.6766   0.6730   0.6670   0.6547   0.6487   0.6434
     0.6261   0.4502   0.3965   0.3691   0.3344   0.3228   0.2117   0.1758
     0.0736   0.0394   0.0192   0.0071   0.0028   0.0003   0.0002   0.0001
     0.0001   0.0001   0.0000   0.0000   0.0000   0.0000   0.0000   0.0000
     0.0000   0.0000   0.0000   0.0000   0.0000   0.0000   0.0000   0.0000
     0.0000   0.0000   0.0000   0.0000   0.0000   0.0000   0.0000   0.0000

          k = 0.2500-0.5000 0.0000 ( 65138 PWs)   bands (ev):

   -92.7409 -92.6897 -92.5953 -92.5469 -92.4903 -92.4475 -92.4302 -92.3079
   -56.0944 -56.0761 -55.9524 -55.9417 -55.9348 -55.9285 -55.8944 -55.8644
   -55.8488 -55.8470 -55.8396 -55.7975 -55.7774 -55.7417 -55.7219 -55.6900
   -55.6824 -55.6358 -55.6340 -55.6327 -55.6243 -55.5827 -55.5605 -55.4742
   -31.3142 -31.2977 -31.1559 -31.1238 -31.1070 -31.0692 -30.8426 -30.6678
   -29.8854 -29.8444 -29.8211 -29.7116 -15.0183 -14.9731 -14.9053 -14.7860
   -14.7599 -14.6372 -14.5514 -14.4151 -14.1132 -14.0608 -14.0326 -14.0114
   -13.9958 -13.9826 -13.9487 -13.9274 -13.8943 -13.8580 -13.8276 -13.7955
   -13.7056 -13.6565 -13.5968 -13.5778 -13.5130 -13.5008 -13.4082 -13.3649
   -13.2449 -13.1809 -13.1596 -13.0764 -13.0645 -13.0401 -13.0259 -13.0076
   -12.9819 -12.9509 -12.8791 -12.8606 -12.8121 -12.7743 -12.7665 -12.6944
   -12.6631 -12.5892 -12.5593 -12.3927 -12.3588 -12.2656 -12.2070 -12.1948
   -11.8144 -11.8024 -11.7918 -11.7651 -11.7327 -11.7055 -11.6626 -11.6363
   -11.6132 -11.5691 -11.5435 -11.5318  -2.4892  -2.4244  -2.2956  -2.2185
    -2.0875  -2.0049  -1.8821  -1.7311  -1.6765  -1.6545  -1.5920  -1.5794
    -1.4832  -1.4146  -1.3302  -1.2800  -1.2706  -1.2081  -1.1648  -1.1311
    -1.0833  -1.0452  -1.0109  -0.9717  -0.9607  -0.9143  -0.8850  -0.8425
    -0.8122  -0.7449  -0.6420  -0.6052  -0.5250  -0.4593  -0.4089  -0.3694
    -0.3492  -0.2923  -0.1351  -0.1265  -0.0117   0.0149   0.0226   0.0680
     0.1009   0.1364   0.1667   0.2359   0.5108   0.6086   0.6671   0.7255
     0.9974   1.0166   1.1080   1.1308   1.2983   1.3341   1.3726   1.3953
     1.4107   1.4325   1.4952   1.5445   1.5787   1.6534   1.7484   1.7832
     1.8051   1.8128   1.8506   1.8664   1.8697   1.9149   1.9270   1.9467
     1.9821   1.9957   2.0194   2.0528   2.1118   2.1530   2.2311   2.3665
     2.5149   2.5327   2.5505   2.5799   2.6018   2.6290   2.6511   2.6645
     2.6817   2.7538   2.7880   2.8441   2.8548   2.8662   2.8790   2.8930
     2.9070   2.9260   2.9396   2.9684   2.9812   2.9923   3.0010   3.0105
     3.0205   3.5383   3.5609   3.7028   3.7546   4.0873   4.1446   4.1480
     4.2832   4.7184   4.8842   5.0291   5.1012   5.2661   5.4028   5.5817
     5.6170   5.7320   5.7519   6.1713   6.3774   6.4669   6.6104   7.0698
     7.4535   7.5514   7.6750   7.7808   7.8440   7.9057   8.0077   8.1831
     8.3422   8.3761   8.4408   8.5157   8.5362   8.5977   8.6796   8.7411

     occupation numbers 
     1.0000   1.0000   1.0000   1.0000   1.0000   1.0000   1.0000   1.0000
     1.0000   1.0000   1.0000   1.0000   1.0000   1.0000   1.0000   1.0000
     1.0000   1.0000   1.0000   1.0000   1.0000   1.0000   1.0000   1.0000
     1.0000   1.0000   1.0000   1.0000   1.0000   1.0000   1.0000   1.0000
     1.0000   1.0000   1.0000   1.0000   1.0000   1.0000   1.0000   1.0000
     1.0000   1.0000   1.0000   1.0000   1.0000   1.0000   1.0000   1.0000
     1.0000   1.0000   1.0000   1.0000   1.0000   1.0000   1.0000   1.0000
     1.0000   1.0000   1.0000   1.0000   1.0000   1.0000   1.0000   1.0000
     1.0000   1.0000   1.0000   1.0000   1.0000   1.0000   1.0000   1.0000
     1.0000   1.0000   1.0000   1.0000   1.0000   1.0000   1.0000   1.0000
     1.0000   1.0000   1.0000   1.0000   1.0000   1.0000   1.0000   1.0000
     1.0000   1.0000   1.0000   1.0000   1.0000   1.0000   1.0000   1.0000
     1.0000   1.0000   1.0000   1.0000   1.0000   1.0000   1.0000   1.0000
     1.0000   1.0000   1.0000   1.0000   1.0000   1.0000   1.0000   1.0000
     1.0000   1.0000   1.0000   1.0000   1.0000   1.0000   1.0000   1.0000
     1.0000   1.0000   1.0000   1.0000   1.0000   1.0000   1.0000   1.0000
     1.0000   1.0000   1.0000   1.0000   1.0000   1.0000   1.0000   1.0000
     1.0000   1.0000   1.0000   1.0000   1.0000   1.0000   1.0000   1.0000
     1.0000   1.0000   1.0000   1.0000   1.0000   1.0000   1.0000   1.0000
     1.0000   1.0000   1.0000   1.0000   1.0000   1.0000   0.9999   0.9999
     0.9997   0.9996   0.9994   0.9993   0.9984   0.9981   0.9978   0.9975
     0.9973   0.9971   0.9961   0.9952   0.9944   0.9924   0.9888   0.9872
     0.9861   0.9857   0.9835   0.9825   0.9823   0.9792   0.9783   0.9767
     0.9736   0.9724   0.9701   0.9665   0.9595   0.9539   0.9415   0.9141
     0.8741   0.8686   0.8628   0.8530   0.8454   0.8356   0.8274   0.8223
     0.8155   0.7856   0.7705   0.7445   0.7393   0.7338   0.7276   0.7206
     0.7136   0.7039   0.6969   0.6818   0.6749   0.6690   0.6643   0.6591
     0.6537   0.3543   0.3420   0.2683   0.2436   0.1172   0.1014   0.1005
     0.0695   0.0168   0.0088   0.0048   0.0035   0.0016   0.0008   0.0003
     0.0003   0.0001   0.0001   0.0000   0.0000   0.0000   0.0000   0.0000
     0.0000   0.0000   0.0000   0.0000   0.0000   0.0000   0.0000   0.0000
     0.0000   0.0000   0.0000   0.0000   0.0000   0.0000   0.0000   0.0000

          k =-0.5000-0.5000 0.0000 ( 65132 PWs)   bands (ev):

   -92.7409 -92.6897 -92.5953 -92.5469 -92.4903 -92.4475 -92.4302 -92.3079
   -56.0944 -56.0761 -55.9524 -55.9417 -55.9348 -55.9285 -55.8944 -55.8644
   -55.8488 -55.8470 -55.8396 -55.7975 -55.7774 -55.7417 -55.7219 -55.6900
   -55.6824 -55.6358 -55.6340 -55.6327 -55.6243 -55.5827 -55.5605 -55.4742
   -31.3122 -31.2998 -31.1555 -31.1237 -31.1069 -31.0695 -30.8427 -30.6679
   -29.8844 -29.8454 -29.8207 -29.7120 -14.9712 -14.9462 -14.8278 -14.8169
   -14.7243 -14.6848 -14.6513 -14.5166 -14.0230 -14.0112 -13.9772 -13.9604
   -13.9419 -13.9270 -13.8970 -13.8882 -13.8773 -13.8620 -13.8494 -13.7738
   -13.7647 -13.7365 -13.7012 -13.6805 -13.5963 -13.5666 -13.4505 -13.4117
   -13.1943 -13.1578 -13.0913 -13.0645 -13.0503 -13.0306 -13.0228 -13.0134
   -13.0086 -12.9929 -12.8829 -12.8632 -12.8127 -12.7817 -12.7544 -12.6450
   -12.6365 -12.5989 -12.5742 -12.3828 -12.3551 -12.2560 -12.1936 -12.1871
   -11.8112 -11.7988 -11.7807 -11.7644 -11.7287 -11.7103 -11.6784 -11.6170
   -11.5966 -11.5909 -11.5410 -11.5372  -2.2643  -2.1893  -2.1809  -2.1082
    -2.0692  -1.9911  -1.9234  -1.7969  -1.6817  -1.6515  -1.6101  -1.5551
    -1.4829  -1.4692  -1.3975  -1.3555  -1.2382  -1.2085  -1.1596  -1.1323
    -1.0678  -1.0214  -1.0027  -0.9905  -0.9356  -0.8926  -0.8761  -0.7632
    -0.7042  -0.6603  -0.6107  -0.5821  -0.5684  -0.5366  -0.4954  -0.4568
    -0.4496  -0.3618  -0.2946  -0.2503  -0.2240  -0.1504  -0.0925  -0.0843
    -0.0238   0.0089   0.0150   0.0268   0.4836   0.5274   0.6143   0.6370
     1.0251   1.0403   1.0727   1.1121   1.3838   1.4028   1.4079   1.4510
     1.5770   1.6735   1.6997   1.7363   1.7594   1.7792   1.7870   1.8194
     1.8289   1.8440   1.8541   1.9071   1.9103   1.9391   1.9517   1.9730
     1.9872   2.0246   2.0511   2.0631   2.0956   2.1278   2.1921   2.2599
     2.5257   2.5597   2.5761   2.5979   2.6074   2.6365   2.6400   2.6602
     2.6676   2.6885   2.7052   2.7201   2.7616   2.7895   2.7919   2.8126
     2.8312   2.8390   2.8618   2.8664   2.8886   2.9784   2.9808   3.0051
     3.0185   3.9649   4.0022   4.0202   4.0324   4.2789   4.3545   4.3787
     4.6186   4.7412   4.8240   4.9537   5.0420   5.0539   5.1676   5.2639
     5.3906   5.8336   5.8773   5.9275   6.0151   6.4009   6.5655   6.6127
     7.7871   7.8548   7.9205   7.9236   7.9449   7.9873   8.0460   8.0625
     8.2368   8.3344   8.5517   8.5626   8.5846   8.6241   8.6292   8.6650

     occupation numbers 
     1.0000   1.0000   1.0000   1.0000   1.0000   1.0000   1.0000   1.0000
     1.0000   1.0000   1.0000   1.0000   1.0000   1.0000   1.0000   1.0000
     1.0000   1.0000   1.0000   1.0000   1.0000   1.0000   1.0000   1.0000
     1.0000   1.0000   1.0000   1.0000   1.0000   1.0000   1.0000   1.0000
     1.0000   1.0000   1.0000   1.0000   1.0000   1.0000   1.0000   1.0000
     1.0000   1.0000   1.0000   1.0000   1.0000   1.0000   1.0000   1.0000
     1.0000   1.0000   1.0000   1.0000   1.0000   1.0000   1.0000   1.0000
     1.0000   1.0000   1.0000   1.0000   1.0000   1.0000   1.0000   1.0000
[...]
     0.7436   0.7307   0.7170   0.7148   0.7036   0.6987   0.6913   0.6790
     0.6774   0.6634   0.6570   0.6535   0.6465   0.6354   0.6217   0.6192
     0.6150   0.6100   0.6053   0.5997   0.5273   0.3550   0.3206   0.2040
     0.0791   0.0463   0.0219   0.0055   0.0048   0.0003   0.0001   0.0000
     0.0000   0.0000   0.0000   0.0000   0.0000   0.0000   0.0000   0.0000
     0.0000   0.0000   0.0000   0.0000   0.0000   0.0000   0.0000   0.0000
     0.0000   0.0000   0.0000   0.0000   0.0000   0.0000   0.0000   0.0000

          k =-0.5000 0.0000 0.0000 ( 65180 PWs)   bands (ev):

   -92.7409 -92.6897 -92.5953 -92.5469 -92.4903 -92.4475 -92.4302 -92.3079
   -56.0944 -56.0761 -55.9524 -55.9417 -55.9348 -55.9285 -55.8944 -55.8644
   -55.8488 -55.8470 -55.8396 -55.7975 -55.7774 -55.7417 -55.7219 -55.6900
   -55.6824 -55.6358 -55.6340 -55.6327 -55.6243 -55.5827 -55.5605 -55.4742
   -31.3125 -31.3000 -31.1551 -31.1267 -31.1039 -31.0693 -30.8431 -30.6675
   -29.8857 -29.8461 -29.8194 -29.7114 -15.0544 -15.0010 -14.9396 -14.8339
   -14.7279 -14.5849 -14.4353 -14.3003 -14.1714 -14.1616 -14.1478 -14.0790
   -14.0309 -13.9977 -13.9483 -13.9428 -13.9268 -13.8774 -13.8652 -13.7537
   -13.5946 -13.5589 -13.5331 -13.5266 -13.4671 -13.4034 -13.3496 -13.3065
   -13.2827 -13.2781 -13.1362 -13.0932 -13.0827 -13.0610 -13.0493 -13.0123
   -12.9874 -12.9690 -12.9563 -12.9410 -12.7989 -12.6795 -12.6705 -12.6413
   -12.6209 -12.5838 -12.5790 -12.5082 -12.3916 -12.3653 -12.1949 -12.1450
   -11.8181 -11.7962 -11.7898 -11.7749 -11.7567 -11.7149 -11.6538 -11.6366
   -11.6040 -11.5575 -11.5483 -11.5331  -2.6214  -2.5831  -2.4194  -2.3805
    -2.0664  -1.9906  -1.8431  -1.7260  -1.6864  -1.6402  -1.5926  -1.5685
    -1.4452  -1.4010  -1.3844  -1.3026  -1.2681  -1.2506  -1.2208  -1.1624
    -1.0935  -1.0652  -1.0361  -0.9412  -0.8937  -0.8431  -0.8119  -0.7910
    -0.7592  -0.7132  -0.6883  -0.6491  -0.5477  -0.4809  -0.4087  -0.3496
    -0.1914  -0.1499  -0.0965  -0.0581  -0.0017   0.0168   0.1531   0.1878
     0.2288   0.4002   0.4994   0.5468   0.6332   0.6955   0.8183   0.8293
     0.9632   0.9908   1.0459   1.0750   1.1139   1.1226   1.1687   1.1934
     1.2619   1.3074   1.3555   1.3633   1.6625   1.6699   1.6882   1.7087
     1.8174   1.8297   1.8399   1.8496   1.8822   1.8929   1.9309   1.9569
     1.9761   2.0377   2.0500   2.1036   2.1230   2.1817   2.2917   2.3868
     2.4616   2.4757   2.5589   2.5866   2.6077   2.6695   2.6916   2.6975
     2.7292   2.7741   2.8037   2.8470   2.8933   2.9157   2.9612   2.9647
     2.9676   2.9770   2.9924   3.0073   3.0190   3.0277   3.0424   3.0471
     3.0692   3.0894   3.0943   3.2218   3.2321   4.0311   4.0952   4.1472
     4.2731   4.7533   4.8256   5.0125   5.0185   5.4643   5.4797   5.5755
     5.6081   5.9894   5.9946   6.0500   6.7424   6.7742   6.9857   7.2539
     7.2920   7.3712   7.3946   7.5261   7.7407   7.7550   7.8548   8.0112
     8.1248   8.3100   8.3699   8.4788   8.5980   8.7244   8.7311   8.8483

     occupation numbers 
     1.0000   1.0000   1.0000   1.0000   1.0000   1.0000   1.0000   1.0000
     1.0000   1.0000   1.0000   1.0000   1.0000   1.0000   1.0000   1.0000
     1.0000   1.0000   1.0000   1.0000   1.0000   1.0000   1.0000   1.0000
     1.0000   1.0000   1.0000   1.0000   1.0000   1.0000   1.0000   1.0000
     1.0000   1.0000   1.0000   1.0000   1.0000   1.0000   1.0000   1.0000
     1.0000   1.0000   1.0000   1.0000   1.0000   1.0000   1.0000   1.0000
     1.0000   1.0000   1.0000   1.0000   1.0000   1.0000   1.0000   1.0000
     1.0000   1.0000   1.0000   1.0000   1.0000   1.0000   1.0000   1.0000
     1.0000   1.0000   1.0000   1.0000   1.0000   1.0000   1.0000   1.0000
     1.0000   1.0000   1.0000   1.0000   1.0000   1.0000   1.0000   1.0000
     1.0000   1.0000   1.0000   1.0000   1.0000   1.0000   1.0000   1.0000
     1.0000   1.0000   1.0000   1.0000   1.0000   1.0000   1.0000   1.0000
     1.0000   1.0000   1.0000   1.0000   1.0000   1.0000   1.0000   1.0000
     1.0000   1.0000   1.0000   1.0000   1.0000   1.0000   1.0000   1.0000
     1.0000   1.0000   1.0000   1.0000   1.0000   1.0000   1.0000   1.0000
     1.0000   1.0000   1.0000   1.0000   1.0000   1.0000   1.0000   1.0000
     1.0000   1.0000   1.0000   1.0000   1.0000   1.0000   1.0000   1.0000
     1.0000   1.0000   1.0000   1.0000   1.0000   1.0000   1.0000   1.0000
     1.0000   1.0000   1.0000   1.0000   1.0000   1.0000   1.0000   1.0000
     1.0000   1.0000   1.0000   1.0000   1.0000   0.9999   0.9999   0.9999
     0.9997   0.9997   0.9996   0.9995   0.9994   0.9993   0.9992   0.9991
     0.9987   0.9984   0.9979   0.9979   0.9921   0.9918   0.9912   0.9904
     0.9854   0.9847   0.9842   0.9836   0.9815   0.9808   0.9780   0.9758
     0.9742   0.9682   0.9668   0.9605   0.9580   0.9496   0.9302   0.9093
     0.8898   0.8857   0.8601   0.8507   0.8433   0.8203   0.8116   0.8092
     0.7961   0.7767   0.7634   0.7431   0.7204   0.7092   0.6856   0.6837
     0.6822   0.6772   0.6689   0.6609   0.6545   0.6498   0.6416   0.6390
     0.6266   0.6152   0.6125   0.5384   0.5323   0.1345   0.1150   0.1007
     0.0715   0.0147   0.0112   0.0052   0.0051   0.0006   0.0006   0.0003
     0.0003   0.0000   0.0000   0.0000   0.0000   0.0000   0.0000   0.0000
     0.0000   0.0000   0.0000   0.0000   0.0000   0.0000   0.0000   0.0000
     0.0000   0.0000   0.0000   0.0000   0.0000   0.0000   0.0000   0.0000

          k =-0.2500 0.2500 0.0000 ( 65198 PWs)   bands (ev):

   -92.7409 -92.6897 -92.5953 -92.5469 -92.4903 -92.4475 -92.4302 -92.3079
   -56.0944 -56.0761 -55.9524 -55.9417 -55.9348 -55.9285 -55.8944 -55.8644
   -55.8488 -55.8470 -55.8396 -55.7975 -55.7774 -55.7417 -55.7219 -55.6900
   -55.6824 -55.6358 -55.6340 -55.6327 -55.6243 -55.5827 -55.5605 -55.4742
   -31.3144 -31.2978 -31.1557 -31.1254 -31.1054 -31.0690 -30.8428 -30.6677
   -29.8861 -29.8447 -29.8205 -29.7113 -15.0571 -15.0136 -14.9423 -14.8254
   -14.7129 -14.5855 -14.5025 -14.2939 -14.1547 -14.1247 -14.1139 -14.0636
   -14.0425 -14.0222 -13.9975 -13.9607 -13.8771 -13.8634 -13.7114 -13.6852
   -13.6548 -13.6358 -13.5829 -13.5371 -13.4843 -13.4740 -13.3610 -13.3041
   -13.2621 -13.1845 -13.1428 -13.0919 -13.0788 -13.0519 -13.0301 -13.0044
   -12.9748 -12.9653 -12.9198 -12.8933 -12.8127 -12.8047 -12.7538 -12.7312
   -12.7133 -12.5881 -12.5173 -12.4807 -12.3942 -12.3213 -12.1387 -12.1044
   -11.8379 -11.8165 -11.7897 -11.7775 -11.7360 -11.7026 -11.6782 -11.6578
   -11.6346 -11.5503 -11.5051 -11.4953  -2.7062  -2.4982  -2.3772  -2.2881
    -2.1706  -2.1041  -1.9003  -1.7559  -1.7374  -1.7066  -1.6160  -1.5804
    -1.4870  -1.4529  -1.4271  -1.2844  -1.2283  -1.1598  -1.1319  -1.0706
    -1.0505  -1.0102  -0.9815  -0.9411  -0.8779  -0.8305  -0.7657  -0.6985
    -0.6736  -0.6228  -0.5942  -0.5486  -0.4900  -0.4428  -0.4040  -0.3023
    -0.2711  -0.2595  -0.2158  -0.1507  -0.0789  -0.0367  -0.0019   0.0654
     0.0964   0.3497   0.5216   0.5605   0.5996   0.6582   0.7083   0.7610
     0.8291   0.8606   1.1422   1.2512   1.2906   1.3246   1.3303   1.3736
     1.3883   1.4341   1.4651   1.4790   1.5049   1.5509   1.5642   1.6074
     1.6281   1.6716   1.7575   1.7716   1.7931   1.8254   1.8585   1.8944
     1.9476   2.0552   2.1658   2.1932   2.2409   2.2600   2.3229   2.3671
     2.3937   2.4169   2.4387   2.5416   2.5780   2.6635   2.7608   2.8460
     2.8520   2.8667   2.8755   2.8857   2.9004   2.9105   2.9242   2.9360
     2.9479   2.9579   2.9700   2.9805   2.9860   3.0210   3.0308   3.0382
     3.0722   3.3644   3.4456   3.5125   3.5820   3.6046   3.8093   3.9225
     4.2607   4.4692   4.6810   4.9487   5.1517   5.6103   5.6646   5.7372
     5.7944   5.8586   6.0254   6.1588   6.1758   6.7721   6.8765   7.0803
     7.2589   7.5379   7.5817   7.6423   7.8432   7.8665   7.9541   8.0916
     8.1639   8.2142   8.2959   8.3469   8.4189   8.4360   8.6376   8.8120

     occupation numbers 
     1.0000   1.0000   1.0000   1.0000   1.0000   1.0000   1.0000   1.0000
     1.0000   1.0000   1.0000   1.0000   1.0000   1.0000   1.0000   1.0000
     1.0000   1.0000   1.0000   1.0000   1.0000   1.0000   1.0000   1.0000
     1.0000   1.0000   1.0000   1.0000   1.0000   1.0000   1.0000   1.0000
     1.0000   1.0000   1.0000   1.0000   1.0000   1.0000   1.0000   1.0000
     1.0000   1.0000   1.0000   1.0000   1.0000   1.0000   1.0000   1.0000
     1.0000   1.0000   1.0000   1.0000   1.0000   1.0000   1.0000   1.0000
     1.0000   1.0000   1.0000   1.0000   1.0000   1.0000   1.0000   1.0000
     1.0000   1.0000   1.0000   1.0000   1.0000   1.0000   1.0000   1.0000
     1.0000   1.0000   1.0000   1.0000   1.0000   1.0000   1.0000   1.0000
     1.0000   1.0000   1.0000   1.0000   1.0000   1.0000   1.0000   1.0000
     1.0000   1.0000   1.0000   1.0000   1.0000   1.0000   1.0000   1.0000
     1.0000   1.0000   1.0000   1.0000   1.0000   1.0000   1.0000   1.0000
     1.0000   1.0000   1.0000   1.0000   1.0000   1.0000   1.0000   1.0000
     1.0000   1.0000   1.0000   1.0000   1.0000   1.0000   1.0000   1.0000
     1.0000   1.0000   1.0000   1.0000   1.0000   1.0000   1.0000   1.0000
     1.0000   1.0000   1.0000   1.0000   1.0000   1.0000   1.0000   1.0000
     1.0000   1.0000   1.0000   1.0000   1.0000   1.0000   1.0000   1.0000
     1.0000   1.0000   1.0000   1.0000   1.0000   1.0000   1.0000   1.0000
     1.0000   1.0000   1.0000   1.0000   1.0000   1.0000   0.9999   0.9999
     0.9999   0.9998   0.9993   0.9987   0.9985   0.9982   0.9982   0.9977
     0.9976   0.9970   0.9966   0.9964   0.9959   0.9950   0.9947   0.9937
     0.9931   0.9918   0.9884   0.9878   0.9867   0.9850   0.9830   0.9807
     0.9766   0.9663   0.9520   0.9478   0.9398   0.9363   0.9238   0.9140
     0.9076   0.9018   0.8960   0.8657   0.8537   0.8226   0.7826   0.7436
     0.7407   0.7336   0.7293   0.7243   0.7169   0.7118   0.7048   0.6987
     0.6925   0.6873   0.6809   0.6753   0.6724   0.6534   0.6480   0.6439
     0.6250   0.4541   0.4068   0.3687   0.3305   0.3185   0.2189   0.1726
     0.0741   0.0396   0.0192   0.0068   0.0028   0.0003   0.0002   0.0001
     0.0001   0.0001   0.0000   0.0000   0.0000   0.0000   0.0000   0.0000
     0.0000   0.0000   0.0000   0.0000   0.0000   0.0000   0.0000   0.0000
     0.0000   0.0000   0.0000   0.0000   0.0000   0.0000   0.0000   0.0000

          k =-0.5000 0.2500 0.0000 ( 65138 PWs)   bands (ev):

   -92.7409 -92.6897 -92.5953 -92.5469 -92.4903 -92.4475 -92.4302 -92.3079
   -56.0944 -56.0761 -55.9524 -55.9417 -55.9348 -55.9285 -55.8944 -55.8644
   -55.8488 -55.8470 -55.8396 -55.7975 -55.7774 -55.7417 -55.7219 -55.6900
   -55.6824 -55.6358 -55.6340 -55.6327 -55.6243 -55.5827 -55.5605 -55.4742
   -31.3123 -31.2999 -31.1553 -31.1253 -31.1053 -31.0694 -30.8429 -30.6677
   -29.8851 -29.8457 -29.8201 -29.7117 -15.0214 -14.9750 -14.8966 -14.7992
   -14.7584 -14.6312 -14.5398 -14.4144 -14.1055 -14.0741 -14.0619 -14.0159
   -13.9950 -13.9718 -13.9344 -13.9280 -13.9051 -13.8682 -13.8572 -13.7459
   -13.6771 -13.6280 -13.6222 -13.6030 -13.5188 -13.5065 -13.3957 -13.3544
   -13.2379 -13.2033 -13.1081 -13.0884 -13.0655 -13.0546 -13.0352 -13.0036
   -12.9817 -12.9734 -12.9479 -12.8970 -12.8057 -12.7122 -12.6963 -12.6612
   -12.6544 -12.5897 -12.5759 -12.4346 -12.3606 -12.3220 -12.1937 -12.1598
   -11.8110 -11.7981 -11.7838 -11.7721 -11.7502 -11.7199 -11.6409 -11.6324
   -11.6092 -11.5721 -11.5440 -11.5357  -2.4789  -2.4372  -2.2890  -2.2471
    -2.0859  -2.0092  -1.8673  -1.7322  -1.6743  -1.6480  -1.6087  -1.5711
    -1.4901  -1.3750  -1.3178  -1.2951  -1.2684  -1.1906  -1.1640  -1.1242
    -1.1078  -1.0465  -1.0178  -0.9781  -0.9434  -0.9145  -0.8566  -0.8298
    -0.7889  -0.7533  -0.6481  -0.6224  -0.5302  -0.4744  -0.4391  -0.3807
    -0.2998  -0.2677  -0.1640  -0.1291  -0.0684  -0.0213   0.0123   0.0794
     0.1074   0.1400   0.1920   0.2308   0.5484   0.6038   0.6635   0.6830
     0.9747   1.0359   1.1076   1.1363   1.3111   1.3466   1.3842   1.3971
     1.4145   1.4325   1.5028   1.5458   1.5867   1.6182   1.7333   1.7750
     1.8043   1.8143   1.8495   1.8779   1.8922   1.9055   1.9257   1.9485
     1.9913   2.0117   2.0453   2.0698   2.0995   2.1596   2.2810   2.3784
     2.4072   2.4747   2.5130   2.5747   2.6083   2.6175   2.6545   2.6878
     2.7127   2.7594   2.8052   2.8435   2.8548   2.8601   2.8790   2.9035
     2.9153   2.9342   2.9408   2.9628   2.9774   2.9868   2.9952   3.0035
     3.0162   3.5478   3.5834   3.7368   3.7548   4.0366   4.1070   4.1599
     4.3605   4.7476   4.8423   5.0106   5.0403   5.3713   5.3940   5.5593
     5.6124   5.7106   5.7569   6.1445   6.3686   6.4752   6.6717   7.0246
     7.4837   7.5227   7.6860   7.7658   7.8567   7.9542   7.9968   8.1502
     8.3354   8.4221   8.4511   8.5006   8.5453   8.5965   8.6535   8.7237

     occupation numbers 
     1.0000   1.0000   1.0000   1.0000   1.0000   1.0000   1.0000   1.0000
     1.0000   1.0000   1.0000   1.0000   1.0000   1.0000   1.0000   1.0000
     1.0000   1.0000   1.0000   1.0000   1.0000   1.0000   1.0000   1.0000
     1.0000   1.0000   1.0000   1.0000   1.0000   1.0000   1.0000   1.0000
     1.0000   1.0000   1.0000   1.0000   1.0000   1.0000   1.0000   1.0000
     1.0000   1.0000   1.0000   1.0000   1.0000   1.0000   1.0000   1.0000
     1.0000   1.0000   1.0000   1.0000   1.0000   1.0000   1.0000   1.0000
     1.0000   1.0000   1.0000   1.0000   1.0000   1.0000   1.0000   1.0000
     1.0000   1.0000   1.0000   1.0000   1.0000   1.0000   1.0000   1.0000
     1.0000   1.0000   1.0000   1.0000   1.0000   1.0000   1.0000   1.0000
     1.0000   1.0000   1.0000   1.0000   1.0000   1.0000   1.0000   1.0000
     1.0000   1.0000   1.0000   1.0000   1.0000   1.0000   1.0000   1.0000
     1.0000   1.0000   1.0000   1.0000   1.0000   1.0000   1.0000   1.0000
     1.0000   1.0000   1.0000   1.0000   1.0000   1.0000   1.0000   1.0000
     1.0000   1.0000   1.0000   1.0000   1.0000   1.0000   1.0000   1.0000
     1.0000   1.0000   1.0000   1.0000   1.0000   1.0000   1.0000   1.0000
     1.0000   1.0000   1.0000   1.0000   1.0000   1.0000   1.0000   1.0000
     1.0000   1.0000   1.0000   1.0000   1.0000   1.0000   1.0000   1.0000
     1.0000   1.0000   1.0000   1.0000   1.0000   1.0000   1.0000   1.0000
     1.0000   1.0000   1.0000   1.0000   1.0000   1.0000   1.0000   0.9999
     0.9997   0.9996   0.9994   0.9993   0.9983   0.9980   0.9976   0.9975
     0.9973   0.9971   0.9960   0.9951   0.9942   0.9934   0.9895   0.9876
     0.9861   0.9856   0.9836   0.9818   0.9808   0.9799   0.9784   0.9765
     0.9728   0.9708   0.9674   0.9646   0.9610   0.9529   0.9323   0.9113
     0.9042   0.8861   0.8747   0.8548   0.8431   0.8398   0.8261   0.8131
     0.8030   0.7832   0.7627   0.7448   0.7393   0.7368   0.7275   0.7153
     0.7094   0.6997   0.6963   0.6847   0.6770   0.6720   0.6674   0.6629
     0.6561   0.3491   0.3297   0.2520   0.2435   0.1327   0.1116   0.0974
     0.0554   0.0150   0.0104   0.0052   0.0046   0.0010   0.0009   0.0004
     0.0003   0.0002   0.0001   0.0000   0.0000   0.0000   0.0000   0.0000
     0.0000   0.0000   0.0000   0.0000   0.0000   0.0000   0.0000   0.0000
     0.0000   0.0000   0.0000   0.0000   0.0000   0.0000   0.0000   0.0000

     the Fermi energy is     3.2867 ev

!    total energy              =   -4399.92271699 Ry
     estimated scf accuracy    <          9.7E-09 Ry
     smearing contrib. (-TS)   =      -1.14725937 Ry
     internal energy E=F+TS    =   -4398.77545762 Ry

     The total energy is F=E-TS. E is the sum of the following terms:
     one-electron contribution =  -21252.14968158 Ry
     hartree contribution      =   10753.63138215 Ry
     xc contribution           =    -686.73065765 Ry
     ewald contribution        =    7053.11854902 Ry
     one-center paw contrib.   =    -266.64504956 Ry
      -> PAW hartree energy AE =      25.16272035 Ry
      -> PAW hartree energy PS =     -25.04662438 Ry
      -> PAW xc energy AE      =     -16.51745729 Ry
      -> PAW xc energy PS      =       6.87692259 Ry
      -> total E_H with PAW    =   10753.74747811 Ry
      -> total E_XC with PAW   =    -696.37119235 Ry

     convergence has been achieved in  52 iterations

     Writing all to output data dir /bsuhome/zayahcortright/scratch/pwscf.save/
 
     init_run     :      7.74s CPU      8.35s WALL (       1 calls)
     electrons    :    725.20s CPU    738.20s WALL (       1 calls)

     Called by init_run:
     wfcinit      :      6.10s CPU      6.21s WALL (       1 calls)
     wfcinit:atom :      0.04s CPU      0.05s WALL (       5 calls)
     wfcinit:wfcr :      5.79s CPU      5.86s WALL (       5 calls)
     potinit      :      0.17s CPU      0.18s WALL (       1 calls)
     hinit0       :      0.60s CPU      1.02s WALL (       1 calls)

     Called by electrons:
     c_bands      :    571.57s CPU    576.60s WALL (      52 calls)
     sum_band     :    114.88s CPU    119.51s WALL (      52 calls)
     v_of_rho     :      5.70s CPU      6.00s WALL (      53 calls)
     v_h          :      0.49s CPU      0.50s WALL (      53 calls)
     v_xc         :      5.21s CPU      5.51s WALL (      53 calls)
     newd         :     17.72s CPU     20.37s WALL (      53 calls)
     PAW_pot      :      1.66s CPU      1.68s WALL (      53 calls)
     mix_rho      :     13.33s CPU     13.61s WALL (      52 calls)

     Called by c_bands:
     init_us_2    :      7.57s CPU      7.61s WALL (     525 calls)
     init_us_2:cp :      7.56s CPU      7.61s WALL (     525 calls)
     cegterg      :    539.76s CPU    544.60s WALL (     260 calls)

     Called by sum_band:
     sum_band:wei :      0.36s CPU      0.37s WALL (      52 calls)
     sum_band:loo :     93.92s CPU     94.67s WALL (      52 calls)
     sum_band:buf :      1.44s CPU      1.47s WALL (     260 calls)
     sum_band:ini :      3.68s CPU      3.70s WALL (     260 calls)
     sum_band:cal :     19.59s CPU     19.64s WALL (     260 calls)
     sum_band:bec :      0.56s CPU      0.56s WALL (     260 calls)
     addusdens    :     19.45s CPU     23.29s WALL (      52 calls)
                                        0.00s GPU  (      52 calls)
     addusd:skk   :      0.37s CPU      0.72s WALL (     208 calls)
                                        0.00s GPU  (     208 calls)

     Called by *egterg:
     cdiaghg      :     56.88s CPU     57.13s WALL (    1309 calls)
     cegterg:over :     38.58s CPU     38.71s WALL (    1049 calls)
     cegterg:upda :     28.68s CPU     29.03s WALL (    1049 calls)
     cegterg:last :     57.26s CPU     57.44s WALL (     458 calls)
     cdiaghg:chol :      3.28s CPU      3.30s WALL (    1309 calls)
     cdiaghg:inve :      3.69s CPU      3.71s WALL (    1309 calls)
     cdiaghg:para :      7.41s CPU      7.44s WALL (    2618 calls)
     h_psi        :    301.46s CPU    304.24s WALL (    1314 calls)
     s_psi        :     41.10s CPU     41.22s WALL (    1314 calls)
     g_psi        :      1.19s CPU      1.20s WALL (    1049 calls)

     Called by h_psi:
     h_psi:calbec :     44.41s CPU     44.55s WALL (    1314 calls)
     vloc_psi     :    212.94s CPU    215.04s WALL (    1314 calls)
     add_vuspsi   :     40.58s CPU     40.72s WALL (    1314 calls)

     General routines
     calbec       :     63.99s CPU     64.19s WALL (    1574 calls)
     fft          :      3.73s CPU      3.78s WALL (     687 calls)
     ffts         :      4.99s CPU      5.02s WALL (    5604 calls)
     fftw         :    181.66s CPU    183.23s WALL (  347554 calls)
     interpolate  :      0.42s CPU      0.43s WALL (      53 calls)
 
     Parallel routines

     PAW routines
     PAW_pot      :      1.66s CPU      1.68s WALL (      53 calls)
 
     PWSCF        :  12m14.38s CPU  12m30.62s WALL

 
   This run was terminated on:  14:47:32  21Jun2024            

=------------------------------------------------------------------------------=
   JOB DONE.
=------------------------------------------------------------------------------=
