
     Program PWSCF v.7.2 starts on 21Jun2024 at 17:37: 4 

     This program is part of the open-source Quantum ESPRESSO suite
     for quantum simulation of materials; please cite
         "P. Giannozzi et al., J. Phys.:Condens. Matter 21 395502 (2009);
         "P. Giannozzi et al., J. Phys.:Condens. Matter 29 465901 (2017);
         "P. Giannozzi et al., J. Chem. Phys. 152 154105 (2020);
          URL http://www.quantum-espresso.org", 
     in publications or presentations arising from this work. More details at
     http://www.quantum-espresso.org/quote

     Parallel version (MPI & OpenMP), running on      48 processor cores
     Number of MPI processes:                48
     Threads/MPI process:                     1

     MPI processes distributed on     1 nodes
     180160 MiB available memory on the printing compute node when the environment starts
 
     Reading input from espresso.pwi
Warning: card &CELL ignored
Warning: card / ignored
Warning: card &FCP ignored
Warning: card / ignored
Warning: card &RISM ignored
Warning: card / ignored

     Current dimensions of program PWSCF are:
     Max number of different atomic species (ntypx) = 10
     Max number of k-points (npk) =  40000
     Max angular momentum in pseudopotentials (lmaxx) =  4
     file O.pbe-n-kjpaw_psl.0.1.UPF: wavefunction(s)  2P renormalized
     signal trapping enabled: kill the code with -SIGUSR1 to stop cleanly the simulation 
 
     K-points division:     npool     =       2
     R & G space division:  proc/nbgrp/npool/nimage =      24
     Subspace diagonalization in iterative solution of the eigenvalue problem:
     one sub-group per band group will be used
     scalapack distributed-memory algorithm (size of sub-group:  3*  3 procs)

 
     Parallelization info
     --------------------
     sticks:   dense  smooth     PW     G-vecs:    dense   smooth      PW
     Min         350     175     47                61430    21716    3036
     Max         351     177     48                61449    21727    3041
     Sum        8421    4205   1137              1474595   521381   72913
 
     Using Slab Decomposition
 


     bravais-lattice index     =            0
     lattice parameter (alat)  =      14.8599  a.u.
     unit-cell volume          =    8305.1283 (a.u.)^3
     number of atoms/cell      =           49
     number of atomic types    =            4
     number of electrons       =       425.00
     number of Kohn-Sham states=          256
     kinetic-energy cutoff     =      60.0000  Ry
     charge density cutoff     =     480.0000  Ry
     scf convergence threshold =      1.0E-08
     mixing beta               =       0.1500
     number of iterations used =            8  local-TF  mixing
     Exchange-correlation= PBE
                           (   1   4   3   4   0   0   0)

     celldm(1)=  14.859904  celldm(2)=   0.000000  celldm(3)=   0.000000
     celldm(4)=   0.000000  celldm(5)=   0.000000  celldm(6)=   0.000000

     crystal axes: (cart. coord. in units of alat)
               a(1) = (   1.000000   0.000000   0.000000 )  
               a(2) = (   0.000000   1.000000   0.000000 )  
               a(3) = (   0.000000   0.000000   2.531036 )  

     reciprocal axes: (cart. coord. in units 2 pi/alat)
               b(1) = (  1.000000  0.000000  0.000000 )  
               b(2) = (  0.000000  1.000000  0.000000 )  
               b(3) = (  0.000000  0.000000  0.395095 )  


     PseudoPot. # 1 for Sr read from file:
     /bsuhome/zayahcortright/q-e/pseudo/Sr_pbe_v1.uspp.F.UPF
     MD5 check sum: 6b418c05fbe9db5448babca5e47b7a5b
     Pseudo is Ultrasoft + core correction, Zval = 10.0
     Generated by new atomic code, or converted to UPF format
     Using radial grid of  883 points,  6 beta functions with: 
                l(1) =   0
                l(2) =   0
                l(3) =   1
                l(4) =   1
                l(5) =   2
                l(6) =   2
     Q(r) pseudized with  6 coefficients,  rinner =    1.400   1.400   1.400
                                                       1.400   1.400

     PseudoPot. # 2 for O  read from file:
     /bsuhome/zayahcortright/q-e/pseudo/O.pbe-n-kjpaw_psl.0.1.UPF
     MD5 check sum: 0234752ac141de4415c5fc33072bef88
     Pseudo is Projector augmented-wave + core cor, Zval =  6.0
     Generated using "atomic" code by A. Dal Corso  v.5.0.99 svn rev. 10869
     Shape of augmentation charge: BESSEL
     Using radial grid of 1095 points,  4 beta functions with: 
                l(1) =   0
                l(2) =   0
                l(3) =   1
                l(4) =   1
     Q(r) pseudized with 0 coefficients 


     PseudoPot. # 3 for Co read from file:
     /bsuhome/zayahcortright/q-e/pseudo/Co_pbe_v1.2.uspp.F.UPF
     MD5 check sum: 5f91765df6ddd3222702df6e7b74a16d
     Pseudo is Ultrasoft + core correction, Zval = 17.0
     Generated by new atomic code, or converted to UPF format
     Using radial grid of  863 points,  6 beta functions with: 
                l(1) =   0
                l(2) =   0
                l(3) =   1
                l(4) =   1
                l(5) =   2
                l(6) =   2
     Q(r) pseudized with  8 coefficients,  rinner =    1.200   1.200   1.200
                                                       1.200   1.200

     PseudoPot. # 4 for H  read from file:
     /bsuhome/zayahcortright/q-e/pseudo/H.pbe-rrkjus_psl.1.0.0.UPF
     MD5 check sum: f52b6d4d1c606e5624b1dc7b2218f220
     Pseudo is Ultrasoft, Zval =  1.0
     Generated using "atomic" code by A. Dal Corso  v.5.1
     Using radial grid of  929 points,  2 beta functions with: 
                l(1) =   0
                l(2) =   0
     Q(r) pseudized with 0 coefficients 


     atomic species   valence    mass     pseudopotential
        Sr            10.00    87.62000     Sr( 1.00)
        O              6.00    15.99900     O ( 1.00)
        Co            17.00    58.93319     Co( 1.00)
        H              1.00     1.00800     H ( 1.00)

     No symmetry found


                                    s                        frac. trans.

      isym =  1     identity                                     

 cryst.   s( 1) = (     1          0          0      )
                  (     0          1          0      )
                  (     0          0          1      )

 cart.    s( 1) = (  1.0000000  0.0000000  0.0000000 )
                  (  0.0000000  1.0000000  0.0000000 )
                  (  0.0000000  0.0000000  1.0000000 )


   Cartesian axes

     site n.     atom                  positions (alat units)
         1           Sr  tau(   1) = (   0.2508693   0.7491307   1.7574407  )
         2           O   tau(   2) = (   0.4985141   0.5014859   1.7715967  )
         3           Sr  tau(   3) = (   0.7482398   0.7454518   1.7648669  )
         4           Sr  tau(   4) = (   0.7441748   0.2558252   1.7667843  )
         5           Sr  tau(   5) = (   0.2508693   0.7491307   1.2696799  )
         6           Sr  tau(   6) = (   0.2508693   0.7491307   0.7632319  )
         7           Co  tau(   7) = (   0.4998914   0.5001086   1.0164559  )
         8           Co  tau(   8) = (   0.4936915   0.5063085   1.5135603  )
         9           O   tau(   9) = (   0.4988895   0.7610401   1.0164559  )
        10           O   tau(  10) = (   0.2389599   0.5011105   1.0164559  )
        11           O   tau(  11) = (   0.0070918   0.7374880   1.0164559  )
        12           O   tau(  12) = (   0.0088340   0.7405089   1.5135603  )
        13           O   tau(  13) = (   0.5066944   0.7415376   1.5135603  )
        14           O   tau(  14) = (   0.2584624   0.4933056   1.5135603  )
        15           O   tau(  15) = (   0.4985141   0.5014859   0.7773880  )
        16           O   tau(  16) = (   0.4985141   0.5014859   1.2555238  )
        17           Sr  tau(  17) = (   0.7482398   0.7454518   0.7706582  )
        18           Sr  tau(  18) = (   0.7482398   0.7454518   1.2622536  )
        19           Sr  tau(  19) = (   0.7441748   0.2558252   0.7725755  )
        20           Sr  tau(  20) = (   0.7441748   0.2558252   1.2603363  )
        21           O   tau(  21) = (   0.7322655   0.0078049   1.5135603  )
        22           O   tau(  22) = (   0.7558175   0.4996027   1.5135603  )
        23           O   tau(  23) = (   0.5003973   0.2441825   1.5135603  )
        24           O   tau(  24) = (   0.7527966   0.4978604   1.0164559  )
        25           O   tau(  25) = (   0.5021396   0.2472034   1.0164559  )
        26           O   tau(  26) = (   0.7517679   0.0000000   1.0164559  )
        27           O   tau(  27) = (   0.0114961   0.4948124   1.7455321  )
        28           O   tau(  28) = (   0.0048226   0.0077944   1.7715967  )
        29           Sr  tau(  29) = (   0.2545482   0.2517602   1.7648669  )
        30           O   tau(  30) = (   0.5048017   0.0015068   1.7786929  )
        31           Co  tau(  31) = (   0.0056869   0.5006215   1.0164559  )
        32           Co  tau(  32) = (   0.0065315   0.4997770   1.5135603  )
        33           Co  tau(  33) = (   0.0061999   0.0064171   1.0164559  )
        34           Co  tau(  34) = (   0.0000000   0.0126169   1.5135603  )
        35           O   tau(  35) = (   0.0114961   0.4948124   1.2815885  )
        36           O   tau(  36) = (   0.0114961   0.4948124   0.7513233  )
        37           O   tau(  37) = (   0.0051979   0.2673486   1.0164559  )
        38           O   tau(  38) = (   0.0130029   0.2478461   1.5135603  )
        39           O   tau(  39) = (   0.0048226   0.0077944   0.7773880  )
        40           O   tau(  40) = (   0.0048226   0.0077944   1.2555238  )
        41           Sr  tau(  41) = (   0.2545482   0.2517602   0.7706582  )
        42           Sr  tau(  42) = (   0.2545482   0.2517602   1.2622536  )
        43           Co  tau(  43) = (   0.4989925   0.0073160   1.5135603  )
        44           Co  tau(  44) = (   0.4998370   0.0064714   1.0164559  )
        45           O   tau(  45) = (   0.5048017   0.0015068   0.7844841  )
        46           O   tau(  46) = (   0.5048017   0.0015068   1.2484277  )
        47           O   tau(  47) = (   0.2621260   0.0059111   1.5135603  )
        48           O   tau(  48) = (   0.2591051   0.0041689   1.0164559  )
        49           H   tau(  49) = (   0.4264937   0.5686583   2.1602013  )

   Crystallographic axes

     site n.     atom                  positions (cryst. coord.)
         1           Sr  tau(   1) = (  0.2508693  0.7491307  0.6943562  )
         2           O   tau(   2) = (  0.4985141  0.5014859  0.6999492  )
         3           Sr  tau(   3) = (  0.7482398  0.7454518  0.6972903  )
         4           Sr  tau(   4) = (  0.7441748  0.2558252  0.6980478  )
         5           Sr  tau(   5) = (  0.2508693  0.7491307  0.5016443  )
         6           Sr  tau(   6) = (  0.2508693  0.7491307  0.3015492  )
         7           Co  tau(   7) = (  0.4998914  0.5001086  0.4015968  )
         8           Co  tau(   8) = (  0.4936915  0.5063085  0.5980003  )
         9           O   tau(   9) = (  0.4988895  0.7610401  0.4015968  )
        10           O   tau(  10) = (  0.2389599  0.5011105  0.4015968  )
        11           O   tau(  11) = (  0.0070918  0.7374880  0.4015968  )
        12           O   tau(  12) = (  0.0088340  0.7405089  0.5980003  )
        13           O   tau(  13) = (  0.5066944  0.7415376  0.5980003  )
        14           O   tau(  14) = (  0.2584624  0.4933056  0.5980003  )
        15           O   tau(  15) = (  0.4985141  0.5014859  0.3071422  )
        16           O   tau(  16) = (  0.4985141  0.5014859  0.4960513  )
        17           Sr  tau(  17) = (  0.7482398  0.7454518  0.3044833  )
        18           Sr  tau(  18) = (  0.7482398  0.7454518  0.4987103  )
        19           Sr  tau(  19) = (  0.7441748  0.2558252  0.3052408  )
        20           Sr  tau(  20) = (  0.7441748  0.2558252  0.4979527  )
        21           O   tau(  21) = (  0.7322655  0.0078049  0.5980003  )
        22           O   tau(  22) = (  0.7558175  0.4996027  0.5980003  )
        23           O   tau(  23) = (  0.5003973  0.2441825  0.5980003  )
        24           O   tau(  24) = (  0.7527966  0.4978604  0.4015968  )
        25           O   tau(  25) = (  0.5021396  0.2472034  0.4015968  )
        26           O   tau(  26) = (  0.7517679  0.0000000  0.4015968  )
        27           O   tau(  27) = (  0.0114961  0.4948124  0.6896512  )
        28           O   tau(  28) = (  0.0048226  0.0077944  0.6999492  )
        29           Sr  tau(  29) = (  0.2545482  0.2517602  0.6972903  )
        30           O   tau(  30) = (  0.5048017  0.0015068  0.7027529  )
        31           Co  tau(  31) = (  0.0056869  0.5006215  0.4015968  )
        32           Co  tau(  32) = (  0.0065315  0.4997770  0.5980003  )
        33           Co  tau(  33) = (  0.0061999  0.0064171  0.4015968  )
        34           Co  tau(  34) = (  0.0000000  0.0126169  0.5980003  )
        35           O   tau(  35) = (  0.0114961  0.4948124  0.5063494  )
        36           O   tau(  36) = (  0.0114961  0.4948124  0.2968442  )
        37           O   tau(  37) = (  0.0051979  0.2673486  0.4015968  )
        38           O   tau(  38) = (  0.0130029  0.2478461  0.5980003  )
        39           O   tau(  39) = (  0.0048226  0.0077944  0.3071422  )
        40           O   tau(  40) = (  0.0048226  0.0077944  0.4960513  )
        41           Sr  tau(  41) = (  0.2545482  0.2517602  0.3044833  )
        42           Sr  tau(  42) = (  0.2545482  0.2517602  0.4987103  )
        43           Co  tau(  43) = (  0.4989925  0.0073160  0.5980003  )
        44           Co  tau(  44) = (  0.4998370  0.0064714  0.4015968  )
        45           O   tau(  45) = (  0.5048017  0.0015068  0.3099459  )
        46           O   tau(  46) = (  0.5048017  0.0015068  0.4932477  )
        47           O   tau(  47) = (  0.2621260  0.0059111  0.5980003  )
        48           O   tau(  48) = (  0.2591051  0.0041689  0.4015968  )
        49           H   tau(  49) = (  0.4264937  0.5686583  0.8534850  )

     number of k points=    10  Gaussian smearing, width (Ry)=  0.0700
                       cart. coord. in units 2pi/alat
        k(    1) = (   0.0000000   0.0000000   0.0000000), wk =   0.1250000
        k(    2) = (   0.0000000   0.2500000   0.0000000), wk =   0.2500000
        k(    3) = (   0.0000000  -0.5000000   0.0000000), wk =   0.1250000
        k(    4) = (   0.2500000   0.2500000   0.0000000), wk =   0.2500000
        k(    5) = (   0.2500000  -0.5000000   0.0000000), wk =   0.2500000
        k(    6) = (  -0.5000000  -0.5000000   0.0000000), wk =   0.1250000
        k(    7) = (   0.2500000   0.0000000   0.0000000), wk =   0.2500000
        k(    8) = (  -0.5000000   0.0000000   0.0000000), wk =   0.1250000
        k(    9) = (  -0.2500000   0.2500000   0.0000000), wk =   0.2500000
        k(   10) = (  -0.5000000   0.2500000   0.0000000), wk =   0.2500000

                       cryst. coord.
        k(    1) = (   0.0000000   0.0000000   0.0000000), wk =   0.1250000
        k(    2) = (   0.0000000   0.2500000   0.0000000), wk =   0.2500000
        k(    3) = (   0.0000000  -0.5000000   0.0000000), wk =   0.1250000
        k(    4) = (   0.2500000   0.2500000   0.0000000), wk =   0.2500000
        k(    5) = (   0.2500000  -0.5000000   0.0000000), wk =   0.2500000
        k(    6) = (  -0.5000000  -0.5000000   0.0000000), wk =   0.1250000
        k(    7) = (   0.2500000   0.0000000   0.0000000), wk =   0.2500000
        k(    8) = (  -0.5000000   0.0000000   0.0000000), wk =   0.1250000
        k(    9) = (  -0.2500000   0.2500000   0.0000000), wk =   0.2500000
        k(   10) = (  -0.5000000   0.2500000   0.0000000), wk =   0.2500000

     Dense  grid:  1474595 G-vectors     FFT dimensions: ( 108, 108, 270)

     Smooth grid:   521381 G-vectors     FFT dimensions: (  75,  75, 192)

     Dynamical RAM for                 wfc:      10.61 MB

     Dynamical RAM for     wfc (w. buffer):      63.63 MB

     Dynamical RAM for           str. fact:       3.75 MB

     Dynamical RAM for           local pot:       0.00 MB

     Dynamical RAM for          nlocal pot:      24.28 MB

     Dynamical RAM for                qrad:       7.03 MB

     Dynamical RAM for          rho,v,vnew:       6.02 MB

     Dynamical RAM for               rhoin:       2.01 MB

     Dynamical RAM for            rho*nmix:      15.00 MB

     Dynamical RAM for           G-vectors:       3.68 MB

     Dynamical RAM for          h,s,v(r/c):       1.32 MB

     Dynamical RAM for          <psi|beta>:       2.29 MB

     Dynamical RAM for                 psi:      21.21 MB

     Dynamical RAM for                hpsi:      21.21 MB

     Dynamical RAM for                spsi:      21.21 MB

     Dynamical RAM for      wfcinit/wfcrot:      34.09 MB

     Dynamical RAM for           addusdens:     100.79 MB

     Estimated static dynamical RAM per process >     120.42 MB

     Estimated max dynamical RAM per process >     236.21 MB

     Estimated total dynamical RAM >      10.72 GB

     Check: negative core charge=   -0.000004

     Initial potential from superposition of free atoms

     starting charge     416.5961, renormalised to     425.0000

     negative rho (up, down):  7.827E-01 0.000E+00
     Starting wfcs are  373 randomized atomic wfcs
     Checking if some PAW data can be deallocated... 
       PAW data deallocated on   20 nodes for type:  2

     total cpu time spent up to now is        9.0 secs

     Self-consistent Calculation

     iteration #  1     ecut=    60.00 Ry     beta= 0.15
     Davidson diagonalization with overlap

---- Real-time Memory Report at c_bands before calling an iterative solver
             0 MiB given to the printing process from OS
             0 MiB allocation reported by mallinfo(arena+hblkhd)
        170488 MiB available memory on the node where the printing process lives
------------------
     ethr =  1.00E-02,  avg # of iterations =  2.0

     negative rho (up, down):  7.718E-01 0.000E+00

     total cpu time spent up to now is       23.3 secs

     total energy              =   -4404.76107512 Ry
     estimated scf accuracy    <      42.18518885 Ry

     iteration #  2     ecut=    60.00 Ry     beta= 0.15
     Davidson diagonalization with overlap

---- Real-time Memory Report at c_bands before calling an iterative solver
             0 MiB given to the printing process from OS
             0 MiB allocation reported by mallinfo(arena+hblkhd)
        170698 MiB available memory on the node where the printing process lives
------------------
     ethr =  9.93E-03,  avg # of iterations =  1.0

     negative rho (up, down):  7.532E-01 0.000E+00

     total cpu time spent up to now is       35.4 secs

     total energy              =   -4400.03836487 Ry
     estimated scf accuracy    <      26.63225253 Ry

     iteration #  3     ecut=    60.00 Ry     beta= 0.15
     Davidson diagonalization with overlap

---- Real-time Memory Report at c_bands before calling an iterative solver
             0 MiB given to the printing process from OS
             0 MiB allocation reported by mallinfo(arena+hblkhd)
        169961 MiB available memory on the node where the printing process lives
------------------
     ethr =  6.27E-03,  avg # of iterations =  2.0

     negative rho (up, down):  7.544E-01 0.000E+00

     total cpu time spent up to now is       48.9 secs

     total energy              =   -4402.39391111 Ry
     estimated scf accuracy    <      49.16442639 Ry

     iteration #  4     ecut=    60.00 Ry     beta= 0.15
     Davidson diagonalization with overlap

---- Real-time Memory Report at c_bands before calling an iterative solver
             0 MiB given to the printing process from OS
             0 MiB allocation reported by mallinfo(arena+hblkhd)
        169844 MiB available memory on the node where the printing process lives
------------------
     ethr =  6.27E-03,  avg # of iterations =  1.0

     negative rho (up, down):  7.409E-01 0.000E+00

     total cpu time spent up to now is       61.2 secs

     total energy              =   -4401.66105381 Ry
     estimated scf accuracy    <      29.34146594 Ry

     iteration #  5     ecut=    60.00 Ry     beta= 0.15
     Davidson diagonalization with overlap

---- Real-time Memory Report at c_bands before calling an iterative solver
             0 MiB given to the printing process from OS
             0 MiB allocation reported by mallinfo(arena+hblkhd)
        169817 MiB available memory on the node where the printing process lives
------------------
     ethr =  6.27E-03,  avg # of iterations =  1.0

     negative rho (up, down):  7.468E-01 0.000E+00

     total cpu time spent up to now is       73.4 secs

     total energy              =   -4399.88026050 Ry
     estimated scf accuracy    <      44.40842640 Ry

     iteration #  6     ecut=    60.00 Ry     beta= 0.15
     Davidson diagonalization with overlap

---- Real-time Memory Report at c_bands before calling an iterative solver
             0 MiB given to the printing process from OS
             0 MiB allocation reported by mallinfo(arena+hblkhd)
        169799 MiB available memory on the node where the printing process lives
------------------
     ethr =  6.27E-03,  avg # of iterations =  1.0

     negative rho (up, down):  7.417E-01 0.000E+00

     total cpu time spent up to now is       85.4 secs

     total energy              =   -4400.63578205 Ry
     estimated scf accuracy    <      11.93572533 Ry

     iteration #  7     ecut=    60.00 Ry     beta= 0.15
     Davidson diagonalization with overlap

---- Real-time Memory Report at c_bands before calling an iterative solver
             0 MiB given to the printing process from OS
             0 MiB allocation reported by mallinfo(arena+hblkhd)
        169782 MiB available memory on the node where the printing process lives
------------------
     ethr =  2.81E-03,  avg # of iterations =  1.1

     negative rho (up, down):  7.441E-01 0.000E+00

     total cpu time spent up to now is       97.4 secs

     total energy              =   -4400.79189977 Ry
     estimated scf accuracy    <       4.30122759 Ry

     iteration #  8     ecut=    60.00 Ry     beta= 0.15
     Davidson diagonalization with overlap

---- Real-time Memory Report at c_bands before calling an iterative solver
             0 MiB given to the printing process from OS
             0 MiB allocation reported by mallinfo(arena+hblkhd)
        169759 MiB available memory on the node where the printing process lives
------------------
     ethr =  1.01E-03,  avg # of iterations =  1.5

     negative rho (up, down):  7.542E-01 0.000E+00

     total cpu time spent up to now is      109.8 secs

     total energy              =   -4400.34143459 Ry
     estimated scf accuracy    <       3.87658667 Ry

     iteration #  9     ecut=    60.00 Ry     beta= 0.15
     Davidson diagonalization with overlap

---- Real-time Memory Report at c_bands before calling an iterative solver
             0 MiB given to the printing process from OS
             0 MiB allocation reported by mallinfo(arena+hblkhd)
        169741 MiB available memory on the node where the printing process lives
------------------
     ethr =  9.12E-04,  avg # of iterations =  3.3

     negative rho (up, down):  7.761E-01 0.000E+00

     total cpu time spent up to now is      123.9 secs

     total energy              =   -4399.94110858 Ry
     estimated scf accuracy    <      42.41423835 Ry

     iteration # 10     ecut=    60.00 Ry     beta= 0.15
     Davidson diagonalization with overlap

---- Real-time Memory Report at c_bands before calling an iterative solver
             0 MiB given to the printing process from OS
             0 MiB allocation reported by mallinfo(arena+hblkhd)
        169669 MiB available memory on the node where the printing process lives
------------------
     ethr =  9.12E-04,  avg # of iterations =  9.2

     negative rho (up, down):  7.796E-01 0.000E+00

     total cpu time spent up to now is      141.4 secs

     total energy              =   -4399.72484043 Ry
     estimated scf accuracy    <      12.09647932 Ry

     iteration # 11     ecut=    60.00 Ry     beta= 0.15
     Davidson diagonalization with overlap

---- Real-time Memory Report at c_bands before calling an iterative solver
             0 MiB given to the printing process from OS
             0 MiB allocation reported by mallinfo(arena+hblkhd)
        169251 MiB available memory on the node where the printing process lives
------------------
     ethr =  9.12E-04,  avg # of iterations =  2.0

     negative rho (up, down):  7.815E-01 0.000E+00

     total cpu time spent up to now is      154.2 secs

     total energy              =   -4400.11367455 Ry
     estimated scf accuracy    <       0.88407088 Ry

     iteration # 12     ecut=    60.00 Ry     beta= 0.15
     Davidson diagonalization with overlap

---- Real-time Memory Report at c_bands before calling an iterative solver
             0 MiB given to the printing process from OS
             0 MiB allocation reported by mallinfo(arena+hblkhd)
        169265 MiB available memory on the node where the printing process lives
------------------
     ethr =  2.08E-04,  avg # of iterations =  7.4

     negative rho (up, down):  7.931E-01 0.000E+00

     total cpu time spent up to now is      170.5 secs

     total energy              =   -4400.05995150 Ry
     estimated scf accuracy    <       0.73178098 Ry

     iteration # 13     ecut=    60.00 Ry     beta= 0.15
     Davidson diagonalization with overlap

---- Real-time Memory Report at c_bands before calling an iterative solver
             0 MiB given to the printing process from OS
             0 MiB allocation reported by mallinfo(arena+hblkhd)
        169167 MiB available memory on the node where the printing process lives
------------------
     ethr =  1.72E-04,  avg # of iterations =  2.0

     negative rho (up, down):  7.980E-01 0.000E+00

     total cpu time spent up to now is      184.2 secs

     total energy              =   -4400.06660489 Ry
     estimated scf accuracy    <       1.37277908 Ry

     iteration # 14     ecut=    60.00 Ry     beta= 0.15
     Davidson diagonalization with overlap

---- Real-time Memory Report at c_bands before calling an iterative solver
             0 MiB given to the printing process from OS
             0 MiB allocation reported by mallinfo(arena+hblkhd)
        169165 MiB available memory on the node where the printing process lives
------------------
     ethr =  1.72E-04,  avg # of iterations =  4.8

     negative rho (up, down):  8.082E-01 0.000E+00

     total cpu time spent up to now is      198.5 secs

     total energy              =   -4400.02018272 Ry
     estimated scf accuracy    <       0.93751504 Ry

     iteration # 15     ecut=    60.00 Ry     beta= 0.15
     Davidson diagonalization with overlap

---- Real-time Memory Report at c_bands before calling an iterative solver
             0 MiB given to the printing process from OS
             0 MiB allocation reported by mallinfo(arena+hblkhd)
        169171 MiB available memory on the node where the printing process lives
------------------
     c_bands:  1 eigenvalues not converged
     ethr =  1.72E-04,  avg # of iterations =  8.7

     negative rho (up, down):  8.080E-01 0.000E+00

     total cpu time spent up to now is      214.0 secs

     total energy              =   -4400.04113553 Ry
     estimated scf accuracy    <       0.37673098 Ry

     iteration # 16     ecut=    60.00 Ry     beta= 0.15
     Davidson diagonalization with overlap

---- Real-time Memory Report at c_bands before calling an iterative solver
             0 MiB given to the printing process from OS
             0 MiB allocation reported by mallinfo(arena+hblkhd)
        169171 MiB available memory on the node where the printing process lives
------------------
     ethr =  8.86E-05,  avg # of iterations =  3.5

     negative rho (up, down):  8.120E-01 0.000E+00

     total cpu time spent up to now is      228.0 secs

     total energy              =   -4399.99300116 Ry
     estimated scf accuracy    <       0.30070895 Ry

     iteration # 17     ecut=    60.00 Ry     beta= 0.15
     Davidson diagonalization with overlap

---- Real-time Memory Report at c_bands before calling an iterative solver
             0 MiB given to the printing process from OS
             0 MiB allocation reported by mallinfo(arena+hblkhd)
        169170 MiB available memory on the node where the printing process lives
------------------
     c_bands:  1 eigenvalues not converged
     ethr =  7.08E-05,  avg # of iterations =  9.1

     negative rho (up, down):  8.165E-01 0.000E+00

     total cpu time spent up to now is      244.2 secs

     total energy              =   -4399.95162953 Ry
     estimated scf accuracy    <       0.24165201 Ry

     iteration # 18     ecut=    60.00 Ry     beta= 0.15
     Davidson diagonalization with overlap

---- Real-time Memory Report at c_bands before calling an iterative solver
             0 MiB given to the printing process from OS
             0 MiB allocation reported by mallinfo(arena+hblkhd)
        169207 MiB available memory on the node where the printing process lives
------------------
     ethr =  5.69E-05,  avg # of iterations = 11.4

     negative rho (up, down):  8.189E-01 0.000E+00

     total cpu time spent up to now is      261.7 secs

     total energy              =   -4399.94491781 Ry
     estimated scf accuracy    <       0.14151212 Ry

     iteration # 19     ecut=    60.00 Ry     beta= 0.15
     Davidson diagonalization with overlap

---- Real-time Memory Report at c_bands before calling an iterative solver
             0 MiB given to the printing process from OS
             0 MiB allocation reported by mallinfo(arena+hblkhd)
        169126 MiB available memory on the node where the printing process lives
------------------
     c_bands:  1 eigenvalues not converged
     ethr =  3.33E-05,  avg # of iterations =  6.1

     negative rho (up, down):  8.296E-01 0.000E+00

     total cpu time spent up to now is      277.0 secs

     total energy              =   -4399.93161738 Ry
     estimated scf accuracy    <       0.09873289 Ry

     iteration # 20     ecut=    60.00 Ry     beta= 0.15
     Davidson diagonalization with overlap

---- Real-time Memory Report at c_bands before calling an iterative solver
             0 MiB given to the printing process from OS
             0 MiB allocation reported by mallinfo(arena+hblkhd)
        169135 MiB available memory on the node where the printing process lives
------------------
     ethr =  2.32E-05,  avg # of iterations =  8.6

     negative rho (up, down):  8.228E-01 0.000E+00

     total cpu time spent up to now is      293.3 secs

     total energy              =   -4399.92911856 Ry
     estimated scf accuracy    <       0.06983159 Ry

     iteration # 21     ecut=    60.00 Ry     beta= 0.15
     Davidson diagonalization with overlap

---- Real-time Memory Report at c_bands before calling an iterative solver
             0 MiB given to the printing process from OS
             0 MiB allocation reported by mallinfo(arena+hblkhd)
        169092 MiB available memory on the node where the printing process lives
------------------
     ethr =  1.64E-05,  avg # of iterations =  4.2

     negative rho (up, down):  8.081E-01 0.000E+00

     total cpu time spent up to now is      308.1 secs

     total energy              =   -4399.91813985 Ry
     estimated scf accuracy    <       0.05689935 Ry

     iteration # 22     ecut=    60.00 Ry     beta= 0.15
     Davidson diagonalization with overlap

---- Real-time Memory Report at c_bands before calling an iterative solver
             0 MiB given to the printing process from OS
             0 MiB allocation reported by mallinfo(arena+hblkhd)
        169093 MiB available memory on the node where the printing process lives
------------------
     ethr =  1.34E-05,  avg # of iterations =  9.7

     negative rho (up, down):  8.094E-01 0.000E+00

     total cpu time spent up to now is      325.6 secs

     total energy              =   -4399.91539914 Ry
     estimated scf accuracy    <       0.03026350 Ry

     iteration # 23     ecut=    60.00 Ry     beta= 0.15
     Davidson diagonalization with overlap

---- Real-time Memory Report at c_bands before calling an iterative solver
             0 MiB given to the printing process from OS
             0 MiB allocation reported by mallinfo(arena+hblkhd)
        169042 MiB available memory on the node where the printing process lives
------------------
     ethr =  7.12E-06,  avg # of iterations = 11.0

     negative rho (up, down):  8.049E-01 0.000E+00

     total cpu time spent up to now is      343.3 secs

     total energy              =   -4399.91542711 Ry
     estimated scf accuracy    <       0.01718902 Ry

     iteration # 24     ecut=    60.00 Ry     beta= 0.15
     Davidson diagonalization with overlap

---- Real-time Memory Report at c_bands before calling an iterative solver
             0 MiB given to the printing process from OS
             0 MiB allocation reported by mallinfo(arena+hblkhd)
        168977 MiB available memory on the node where the printing process lives
------------------
     ethr =  4.04E-06,  avg # of iterations =  2.8

     negative rho (up, down):  7.879E-01 0.000E+00

     total cpu time spent up to now is      357.2 secs

     total energy              =   -4399.91392522 Ry
     estimated scf accuracy    <       0.01187745 Ry

     iteration # 25     ecut=    60.00 Ry     beta= 0.15
     Davidson diagonalization with overlap

---- Real-time Memory Report at c_bands before calling an iterative solver
             0 MiB given to the printing process from OS
             0 MiB allocation reported by mallinfo(arena+hblkhd)
        169006 MiB available memory on the node where the printing process lives
------------------
     ethr =  2.79E-06,  avg # of iterations =  7.1

     negative rho (up, down):  7.873E-01 0.000E+00

     total cpu time spent up to now is      373.0 secs

     total energy              =   -4399.91358276 Ry
     estimated scf accuracy    <       0.00674668 Ry

     iteration # 26     ecut=    60.00 Ry     beta= 0.15
     Davidson diagonalization with overlap

---- Real-time Memory Report at c_bands before calling an iterative solver
             0 MiB given to the printing process from OS
             0 MiB allocation reported by mallinfo(arena+hblkhd)
        169022 MiB available memory on the node where the printing process lives
------------------
     ethr =  1.59E-06,  avg # of iterations =  5.1

     negative rho (up, down):  7.977E-01 0.000E+00

     total cpu time spent up to now is      387.9 secs

     total energy              =   -4399.91287741 Ry
     estimated scf accuracy    <       0.00421050 Ry

     iteration # 27     ecut=    60.00 Ry     beta= 0.15
     Davidson diagonalization with overlap

---- Real-time Memory Report at c_bands before calling an iterative solver
             0 MiB given to the printing process from OS
             0 MiB allocation reported by mallinfo(arena+hblkhd)
        169098 MiB available memory on the node where the printing process lives
------------------
     c_bands:  1 eigenvalues not converged
     ethr =  9.91E-07,  avg # of iterations = 12.5

     negative rho (up, down):  8.000E-01 0.000E+00

     total cpu time spent up to now is      407.9 secs

     total energy              =   -4399.91321360 Ry
     estimated scf accuracy    <       0.00079464 Ry

     iteration # 28     ecut=    60.00 Ry     beta= 0.15
     Davidson diagonalization with overlap

---- Real-time Memory Report at c_bands before calling an iterative solver
             0 MiB given to the printing process from OS
             0 MiB allocation reported by mallinfo(arena+hblkhd)
        168930 MiB available memory on the node where the printing process lives
------------------
     c_bands:  1 eigenvalues not converged
     ethr =  1.87E-07,  avg # of iterations =  8.7

     negative rho (up, down):  7.993E-01 0.000E+00

     total cpu time spent up to now is      427.5 secs

     total energy              =   -4399.91330713 Ry
     estimated scf accuracy    <       0.00038818 Ry

     iteration # 29     ecut=    60.00 Ry     beta= 0.15
     Davidson diagonalization with overlap

---- Real-time Memory Report at c_bands before calling an iterative solver
             0 MiB given to the printing process from OS
             0 MiB allocation reported by mallinfo(arena+hblkhd)
        168949 MiB available memory on the node where the printing process lives
------------------
     ethr =  9.13E-08,  avg # of iterations =  1.1

     negative rho (up, down):  7.954E-01 0.000E+00

     total cpu time spent up to now is      439.8 secs

     total energy              =   -4399.91327699 Ry
     estimated scf accuracy    <       0.00028364 Ry

     iteration # 30     ecut=    60.00 Ry     beta= 0.15
     Davidson diagonalization with overlap

---- Real-time Memory Report at c_bands before calling an iterative solver
             0 MiB given to the printing process from OS
             0 MiB allocation reported by mallinfo(arena+hblkhd)
        168957 MiB available memory on the node where the printing process lives
------------------
     ethr =  6.67E-08,  avg # of iterations =  3.4

     negative rho (up, down):  7.938E-01 0.000E+00

     total cpu time spent up to now is      453.8 secs

     total energy              =   -4399.91327752 Ry
     estimated scf accuracy    <       0.00016920 Ry

     iteration # 31     ecut=    60.00 Ry     beta= 0.15
     Davidson diagonalization with overlap

---- Real-time Memory Report at c_bands before calling an iterative solver
             0 MiB given to the printing process from OS
             0 MiB allocation reported by mallinfo(arena+hblkhd)
        168992 MiB available memory on the node where the printing process lives
------------------
     ethr =  3.98E-08,  avg # of iterations =  2.0

     negative rho (up, down):  7.932E-01 0.000E+00

     total cpu time spent up to now is      467.3 secs

     total energy              =   -4399.91328911 Ry
     estimated scf accuracy    <       0.00005739 Ry

     iteration # 32     ecut=    60.00 Ry     beta= 0.15
     Davidson diagonalization with overlap

---- Real-time Memory Report at c_bands before calling an iterative solver
             0 MiB given to the printing process from OS
             0 MiB allocation reported by mallinfo(arena+hblkhd)
        169005 MiB available memory on the node where the printing process lives
------------------
     ethr =  1.35E-08,  avg # of iterations =  2.3

     negative rho (up, down):  7.926E-01 0.000E+00

     total cpu time spent up to now is      480.9 secs

     total energy              =   -4399.91329234 Ry
     estimated scf accuracy    <       0.00004023 Ry

     iteration # 33     ecut=    60.00 Ry     beta= 0.15
     Davidson diagonalization with overlap

---- Real-time Memory Report at c_bands before calling an iterative solver
             0 MiB given to the printing process from OS
             0 MiB allocation reported by mallinfo(arena+hblkhd)
        169021 MiB available memory on the node where the printing process lives
------------------
     ethr =  9.47E-09,  avg # of iterations =  2.5

     negative rho (up, down):  7.923E-01 0.000E+00

     total cpu time spent up to now is      494.6 secs

     total energy              =   -4399.91329476 Ry
     estimated scf accuracy    <       0.00001325 Ry

     iteration # 34     ecut=    60.00 Ry     beta= 0.15
     Davidson diagonalization with overlap

---- Real-time Memory Report at c_bands before calling an iterative solver
             0 MiB given to the printing process from OS
             0 MiB allocation reported by mallinfo(arena+hblkhd)
        169026 MiB available memory on the node where the printing process lives
------------------
     ethr =  3.12E-09,  avg # of iterations =  2.9

     negative rho (up, down):  7.923E-01 0.000E+00

     total cpu time spent up to now is      508.6 secs

     total energy              =   -4399.91329624 Ry
     estimated scf accuracy    <       0.00001005 Ry

     iteration # 35     ecut=    60.00 Ry     beta= 0.15
     Davidson diagonalization with overlap

---- Real-time Memory Report at c_bands before calling an iterative solver
             0 MiB given to the printing process from OS
             0 MiB allocation reported by mallinfo(arena+hblkhd)
        169022 MiB available memory on the node where the printing process lives
------------------
     ethr =  2.37E-09,  avg # of iterations =  2.0

     negative rho (up, down):  7.921E-01 0.000E+00

     total cpu time spent up to now is      522.1 secs

     total energy              =   -4399.91329868 Ry
     estimated scf accuracy    <       0.00000690 Ry

     iteration # 36     ecut=    60.00 Ry     beta= 0.15
     Davidson diagonalization with overlap

---- Real-time Memory Report at c_bands before calling an iterative solver
             0 MiB given to the printing process from OS
             0 MiB allocation reported by mallinfo(arena+hblkhd)
        169047 MiB available memory on the node where the printing process lives
------------------
     ethr =  1.62E-09,  avg # of iterations =  3.8

     negative rho (up, down):  7.922E-01 0.000E+00

     total cpu time spent up to now is      537.1 secs

     total energy              =   -4399.91329874 Ry
     estimated scf accuracy    <       0.00000339 Ry

     iteration # 37     ecut=    60.00 Ry     beta= 0.15
     Davidson diagonalization with overlap

---- Real-time Memory Report at c_bands before calling an iterative solver
             0 MiB given to the printing process from OS
             0 MiB allocation reported by mallinfo(arena+hblkhd)
        169025 MiB available memory on the node where the printing process lives
------------------
     ethr =  7.98E-10,  avg # of iterations =  2.2

     negative rho (up, down):  7.922E-01 0.000E+00

     total cpu time spent up to now is      550.9 secs

     total energy              =   -4399.91329795 Ry
     estimated scf accuracy    <       0.00000291 Ry

     iteration # 38     ecut=    60.00 Ry     beta= 0.15
     Davidson diagonalization with overlap

---- Real-time Memory Report at c_bands before calling an iterative solver
             0 MiB given to the printing process from OS
             0 MiB allocation reported by mallinfo(arena+hblkhd)
        169042 MiB available memory on the node where the printing process lives
------------------
     ethr =  6.85E-10,  avg # of iterations =  2.6

     negative rho (up, down):  7.922E-01 0.000E+00

     total cpu time spent up to now is      565.1 secs

     total energy              =   -4399.91329819 Ry
     estimated scf accuracy    <       0.00000208 Ry

     iteration # 39     ecut=    60.00 Ry     beta= 0.15
     Davidson diagonalization with overlap

---- Real-time Memory Report at c_bands before calling an iterative solver
             0 MiB given to the printing process from OS
             0 MiB allocation reported by mallinfo(arena+hblkhd)
        169036 MiB available memory on the node where the printing process lives
------------------
     ethr =  4.90E-10,  avg # of iterations =  1.8

     negative rho (up, down):  7.923E-01 0.000E+00

     total cpu time spent up to now is      578.7 secs

     total energy              =   -4399.91329847 Ry
     estimated scf accuracy    <       0.00000165 Ry

     iteration # 40     ecut=    60.00 Ry     beta= 0.15
     Davidson diagonalization with overlap

---- Real-time Memory Report at c_bands before calling an iterative solver
             0 MiB given to the printing process from OS
             0 MiB allocation reported by mallinfo(arena+hblkhd)
        169036 MiB available memory on the node where the printing process lives
------------------
     ethr =  3.89E-10,  avg # of iterations =  1.7

     negative rho (up, down):  7.923E-01 0.000E+00

     total cpu time spent up to now is      592.2 secs

     total energy              =   -4399.91329866 Ry
     estimated scf accuracy    <       0.00000134 Ry

     iteration # 41     ecut=    60.00 Ry     beta= 0.15
     Davidson diagonalization with overlap

---- Real-time Memory Report at c_bands before calling an iterative solver
             0 MiB given to the printing process from OS
             0 MiB allocation reported by mallinfo(arena+hblkhd)
        169035 MiB available memory on the node where the printing process lives
------------------
     ethr =  3.16E-10,  avg # of iterations =  1.9

     negative rho (up, down):  7.924E-01 0.000E+00

     total cpu time spent up to now is      605.5 secs

     total energy              =   -4399.91329873 Ry
     estimated scf accuracy    <       0.00000108 Ry

     iteration # 42     ecut=    60.00 Ry     beta= 0.15
     Davidson diagonalization with overlap

---- Real-time Memory Report at c_bands before calling an iterative solver
             0 MiB given to the printing process from OS
             0 MiB allocation reported by mallinfo(arena+hblkhd)
        169036 MiB available memory on the node where the printing process lives
------------------
     ethr =  2.55E-10,  avg # of iterations =  1.7

     negative rho (up, down):  7.924E-01 0.000E+00

     total cpu time spent up to now is      618.6 secs

     total energy              =   -4399.91329890 Ry
     estimated scf accuracy    <       0.00000072 Ry

     iteration # 43     ecut=    60.00 Ry     beta= 0.15
     Davidson diagonalization with overlap

---- Real-time Memory Report at c_bands before calling an iterative solver
             0 MiB given to the printing process from OS
             0 MiB allocation reported by mallinfo(arena+hblkhd)
        169051 MiB available memory on the node where the printing process lives
------------------
     ethr =  1.70E-10,  avg # of iterations =  2.4

     negative rho (up, down):  7.924E-01 0.000E+00

     total cpu time spent up to now is      632.3 secs

     total energy              =   -4399.91329898 Ry
     estimated scf accuracy    <       0.00000044 Ry

     iteration # 44     ecut=    60.00 Ry     beta= 0.15
     Davidson diagonalization with overlap

---- Real-time Memory Report at c_bands before calling an iterative solver
             0 MiB given to the printing process from OS
             0 MiB allocation reported by mallinfo(arena+hblkhd)
        169060 MiB available memory on the node where the printing process lives
------------------
     ethr =  1.05E-10,  avg # of iterations =  2.6

     negative rho (up, down):  7.924E-01 0.000E+00

     total cpu time spent up to now is      646.0 secs

     total energy              =   -4399.91329902 Ry
     estimated scf accuracy    <       0.00000021 Ry

     iteration # 45     ecut=    60.00 Ry     beta= 0.15
     Davidson diagonalization with overlap

---- Real-time Memory Report at c_bands before calling an iterative solver
             0 MiB given to the printing process from OS
             0 MiB allocation reported by mallinfo(arena+hblkhd)
        169061 MiB available memory on the node where the printing process lives
------------------
     ethr =  5.01E-11,  avg # of iterations =  2.8

     negative rho (up, down):  7.924E-01 0.000E+00

     total cpu time spent up to now is      660.2 secs

     total energy              =   -4399.91329902 Ry
     estimated scf accuracy    <       0.00000016 Ry

     iteration # 46     ecut=    60.00 Ry     beta= 0.15
     Davidson diagonalization with overlap

---- Real-time Memory Report at c_bands before calling an iterative solver
             0 MiB given to the printing process from OS
             0 MiB allocation reported by mallinfo(arena+hblkhd)
        169055 MiB available memory on the node where the printing process lives
------------------
     ethr =  3.71E-11,  avg # of iterations =  3.1

     negative rho (up, down):  7.924E-01 0.000E+00

     total cpu time spent up to now is      674.2 secs

     total energy              =   -4399.91329902 Ry
     estimated scf accuracy    <       0.00000008 Ry

     iteration # 47     ecut=    60.00 Ry     beta= 0.15
     Davidson diagonalization with overlap

---- Real-time Memory Report at c_bands before calling an iterative solver
             0 MiB given to the printing process from OS
             0 MiB allocation reported by mallinfo(arena+hblkhd)
        169052 MiB available memory on the node where the printing process lives
------------------
     ethr =  1.97E-11,  avg # of iterations =  2.6

     negative rho (up, down):  7.924E-01 0.000E+00

     total cpu time spent up to now is      688.0 secs

     total energy              =   -4399.91329904 Ry
     estimated scf accuracy    <       0.00000003 Ry

     iteration # 48     ecut=    60.00 Ry     beta= 0.15
     Davidson diagonalization with overlap

---- Real-time Memory Report at c_bands before calling an iterative solver
             0 MiB given to the printing process from OS
             0 MiB allocation reported by mallinfo(arena+hblkhd)
        169049 MiB available memory on the node where the printing process lives
------------------
     ethr =  7.28E-12,  avg # of iterations =  2.8

     negative rho (up, down):  7.924E-01 0.000E+00

     total cpu time spent up to now is      701.8 secs

     total energy              =   -4399.91329904 Ry
     estimated scf accuracy    <       0.00000002 Ry

     iteration # 49     ecut=    60.00 Ry     beta= 0.15
     Davidson diagonalization with overlap

---- Real-time Memory Report at c_bands before calling an iterative solver
             0 MiB given to the printing process from OS
             0 MiB allocation reported by mallinfo(arena+hblkhd)
        169049 MiB available memory on the node where the printing process lives
------------------
     ethr =  3.80E-12,  avg # of iterations =  2.2

     negative rho (up, down):  7.924E-01 0.000E+00

     total cpu time spent up to now is      715.4 secs

     total energy              =   -4399.91329904 Ry
     estimated scf accuracy    <       0.00000001 Ry

     iteration # 50     ecut=    60.00 Ry     beta= 0.15
     Davidson diagonalization with overlap

---- Real-time Memory Report at c_bands before calling an iterative solver
             0 MiB given to the printing process from OS
             0 MiB allocation reported by mallinfo(arena+hblkhd)
        169052 MiB available memory on the node where the printing process lives
------------------
     ethr =  2.70E-12,  avg # of iterations =  2.1

     negative rho (up, down):  7.924E-01 0.000E+00

     total cpu time spent up to now is      728.7 secs

     End of self-consistent calculation

          k = 0.0000 0.0000 0.0000 ( 65197 PWs)   bands (ev):

   -92.7122 -92.6587 -92.5661 -92.5180 -92.4566 -92.4192 -92.4010 -92.2768
   -56.0656 -56.0454 -55.9235 -55.9129 -55.9049 -55.8997 -55.8621 -55.8354
   -55.8194 -55.8189 -55.8104 -55.7654 -55.7495 -55.7099 -55.6925 -55.6537
   -55.6532 -55.6068 -55.6043 -55.6042 -55.5958 -55.5511 -55.5315 -55.4434
   -31.2886 -31.2689 -31.1279 -31.1129 -31.0624 -31.0407 -30.8270 -30.7918
   -29.8607 -29.8170 -29.7921 -29.6831 -15.0930 -15.0531 -14.9703 -14.8391
   -14.6512 -14.5261 -14.2316 -14.2148 -14.1818 -14.1399 -14.0943 -14.0867
   -14.0728 -14.0551 -14.0297 -14.0018 -13.9425 -13.7930 -13.6178 -13.5800
   -13.5495 -13.5220 -13.5020 -13.4494 -13.4145 -13.3330 -13.2618 -13.1628
   -13.1286 -13.1212 -13.1044 -13.0862 -13.0688 -13.0406 -13.0169 -13.0037
   -12.9739 -12.9441 -12.9352 -12.9239 -12.9123 -12.9037 -12.8185 -12.7960
   -12.7829 -12.7156 -12.6701 -12.6503 -12.3532 -12.2077 -12.0636 -11.9875
   -11.8743 -11.7998 -11.7889 -11.7663 -11.7488 -11.6848 -11.6677 -11.6326
   -11.6042 -11.4925 -11.4123 -11.4086  -2.9542  -2.7215  -2.4915  -2.3457
    -2.2819  -2.1394  -1.8325  -1.8183  -1.7982  -1.7151  -1.6959  -1.6270
    -1.6110  -1.5682  -1.5263  -1.3446  -1.1215  -1.0904  -0.9425  -0.9286
    -0.8834  -0.8661  -0.8199  -0.8037  -0.7461  -0.7194  -0.6472  -0.6377
    -0.5589  -0.4274  -0.4144  -0.3869  -0.3054  -0.2898  -0.2788  -0.2158
    -0.1410  -0.0965  -0.0474  -0.0216   0.0437   0.1118   0.1680   0.1846
     0.2010   0.4562   0.4716   0.6412   0.7112   0.7746   0.8151   0.9079
     0.9215   0.9345   1.0088   1.0358   1.0698   1.1289   1.2613   1.3177
     1.3382   1.3570   1.3720   1.4356   1.5099   1.6130   1.6243   1.6864
     1.7021   1.7448   1.7599   1.7705   1.8222   1.8758   1.8903   1.9252
     1.9551   2.0114   2.1430   2.2308   2.2710   2.2800   2.4369   2.4480
     2.4985   2.5013   2.6053   2.6431   2.6685   2.6885   2.7037   2.7667
     2.8090   2.8970   2.9270   2.9408   2.9464   3.0133   3.0193   3.0419
     3.0498   3.0586   3.0680   3.0780   3.0904   3.0988   3.1084   3.1179
     3.1312   3.1453   3.1662   3.1715   3.1838   3.2227   3.3269   3.4279
     4.1010   4.4151   4.7554   4.8661   5.0365   5.8473   5.9489   5.9760
     5.9895   6.3025   6.3499   6.4801   6.4890   6.7336   7.0034   7.0935
     7.1405   7.1945   7.3058   7.5901   7.6217   7.6590   7.6741   7.9228
     8.0186   8.1077   8.1336   8.1575   8.4449   8.6484   8.7341   8.8593

     occupation numbers 
     1.0000   1.0000   1.0000   1.0000   1.0000   1.0000   1.0000   1.0000
     1.0000   1.0000   1.0000   1.0000   1.0000   1.0000   1.0000   1.0000
     1.0000   1.0000   1.0000   1.0000   1.0000   1.0000   1.0000   1.0000
     1.0000   1.0000   1.0000   1.0000   1.0000   1.0000   1.0000   1.0000
     1.0000   1.0000   1.0000   1.0000   1.0000   1.0000   1.0000   1.0000
     1.0000   1.0000   1.0000   1.0000   1.0000   1.0000   1.0000   1.0000
     1.0000   1.0000   1.0000   1.0000   1.0000   1.0000   1.0000   1.0000
     1.0000   1.0000   1.0000   1.0000   1.0000   1.0000   1.0000   1.0000
     1.0000   1.0000   1.0000   1.0000   1.0000   1.0000   1.0000   1.0000
     1.0000   1.0000   1.0000   1.0000   1.0000   1.0000   1.0000   1.0000
     1.0000   1.0000   1.0000   1.0000   1.0000   1.0000   1.0000   1.0000
     1.0000   1.0000   1.0000   1.0000   1.0000   1.0000   1.0000   1.0000
     1.0000   1.0000   1.0000   1.0000   1.0000   1.0000   1.0000   1.0000
     1.0000   1.0000   1.0000   1.0000   1.0000   1.0000   1.0000   1.0000
     1.0000   1.0000   1.0000   1.0000   1.0000   1.0000   1.0000   1.0000
     1.0000   1.0000   1.0000   1.0000   1.0000   1.0000   1.0000   1.0000
     1.0000   1.0000   1.0000   1.0000   1.0000   1.0000   1.0000   1.0000
     1.0000   1.0000   1.0000   1.0000   1.0000   1.0000   1.0000   1.0000
     1.0000   1.0000   1.0000   1.0000   1.0000   1.0000   1.0000   1.0000
     1.0000   1.0000   1.0000   1.0000   0.9999   0.9999   0.9999   0.9998
     0.9998   0.9998   0.9997   0.9996   0.9996   0.9994   0.9989   0.9985
     0.9983   0.9982   0.9980   0.9974   0.9963   0.9943   0.9940   0.9922
     0.9917   0.9902   0.9895   0.9891   0.9867   0.9837   0.9828   0.9805
     0.9783   0.9736   0.9592   0.9464   0.9395   0.9379   0.9040   0.9011
     0.8874   0.8866   0.8542   0.8410   0.8316   0.8241   0.8182   0.7924
     0.7740   0.7328   0.7180   0.7110   0.7081   0.6732   0.6699   0.6577
     0.6534   0.6485   0.6433   0.6378   0.6309   0.6261   0.6208   0.6154
     0.6078   0.5997   0.5877   0.5846   0.5775   0.5548   0.4932   0.4337
     0.1217   0.0513   0.0162   0.0107   0.0053   0.0001   0.0000   0.0000
     0.0000   0.0000   0.0000   0.0000   0.0000   0.0000   0.0000   0.0000
     0.0000   0.0000   0.0000   0.0000   0.0000   0.0000   0.0000   0.0000
     0.0000   0.0000   0.0000   0.0000   0.0000   0.0000   0.0000   0.0000

          k = 0.0000 0.2500 0.0000 ( 65257 PWs)   bands (ev):

   -92.7122 -92.6587 -92.5661 -92.5180 -92.4566 -92.4192 -92.4010 -92.2768
   -56.0656 -56.0454 -55.9235 -55.9129 -55.9049 -55.8997 -55.8621 -55.8354
   -55.8194 -55.8189 -55.8104 -55.7654 -55.7495 -55.7099 -55.6925 -55.6537
   -55.6532 -55.6068 -55.6043 -55.6042 -55.5958 -55.5511 -55.5315 -55.4434
   -31.2884 -31.2688 -31.1281 -31.1123 -31.0630 -31.0408 -30.8261 -30.7928
   -29.8601 -29.8167 -29.7927 -29.6834 -15.0561 -15.0270 -14.9452 -14.8099
   -14.6907 -14.5171 -14.3779 -14.1978 -14.1651 -14.1433 -14.1160 -14.0564
   -14.0506 -14.0363 -14.0179 -13.9760 -13.8621 -13.8231 -13.6595 -13.6415
   -13.5906 -13.5559 -13.5136 -13.4661 -13.4265 -13.3548 -13.3192 -13.2778
   -13.2134 -13.1588 -13.1213 -13.1135 -13.0909 -13.0116 -12.9879 -12.9595
   -12.9436 -12.9139 -12.8785 -12.8633 -12.8582 -12.8114 -12.7990 -12.7937
   -12.7652 -12.7097 -12.5800 -12.5112 -12.4146 -12.2589 -12.1206 -12.0548
   -11.8398 -11.7966 -11.7691 -11.7409 -11.7242 -11.6767 -11.6655 -11.6431
   -11.6085 -11.5069 -11.4539 -11.4433  -2.8189  -2.5971  -2.4594  -2.2776
    -2.2340  -2.0701  -1.8511  -1.7660  -1.7528  -1.6961  -1.5911  -1.5775
    -1.5444  -1.5170  -1.4734  -1.2758  -1.1466  -1.1351  -1.0595  -1.0483
    -0.9441  -0.9136  -0.8576  -0.8323  -0.7902  -0.7271  -0.7006  -0.6681
    -0.6369  -0.6205  -0.5866  -0.5126  -0.4621  -0.3994  -0.2824  -0.2652
    -0.2235  -0.1020  -0.0651  -0.0128   0.0420   0.0893   0.1163   0.1468
     0.2070   0.5028   0.5912   0.6255   0.7082   0.7514   0.7747   0.8936
     0.9124   1.0086   1.0350   1.0631   1.1766   1.2693   1.2937   1.3175
     1.3331   1.3609   1.4221   1.4480   1.4766   1.5242   1.5577   1.5867
     1.6726   1.7043   1.7367   1.7900   1.8471   1.8861   1.9102   1.9355
     1.9580   2.0480   2.1848   2.2515   2.2644   2.3463   2.3929   2.4315
     2.4368   2.4999   2.5425   2.6220   2.6628   2.6798   2.7901   2.8554
     2.8812   2.9109   2.9322   2.9462   2.9550   2.9643   2.9714   3.0019
     3.0054   3.0210   3.0283   3.0358   3.0552   3.0689   3.0775   3.0958
     3.1092   3.1140   3.1476   3.1637   3.2255   3.6023   3.6423   3.8659
     4.2901   4.4080   4.7024   5.0259   5.0539   5.6363   5.7834   5.9344
     5.9888   6.0817   6.0913   6.1794   6.5961   6.7875   6.9129   7.1079
     7.3120   7.3280   7.4776   7.4931   7.6370   7.7653   7.8604   7.9437
     8.0400   8.0964   8.1607   8.2943   8.4015   8.5125   8.7749   8.8946

     occupation numbers 
     1.0000   1.0000   1.0000   1.0000   1.0000   1.0000   1.0000   1.0000
     1.0000   1.0000   1.0000   1.0000   1.0000   1.0000   1.0000   1.0000
     1.0000   1.0000   1.0000   1.0000   1.0000   1.0000   1.0000   1.0000
     1.0000   1.0000   1.0000   1.0000   1.0000   1.0000   1.0000   1.0000
     1.0000   1.0000   1.0000   1.0000   1.0000   1.0000   1.0000   1.0000
     1.0000   1.0000   1.0000   1.0000   1.0000   1.0000   1.0000   1.0000
     1.0000   1.0000   1.0000   1.0000   1.0000   1.0000   1.0000   1.0000
     1.0000   1.0000   1.0000   1.0000   1.0000   1.0000   1.0000   1.0000
     1.0000   1.0000   1.0000   1.0000   1.0000   1.0000   1.0000   1.0000
     1.0000   1.0000   1.0000   1.0000   1.0000   1.0000   1.0000   1.0000
     1.0000   1.0000   1.0000   1.0000   1.0000   1.0000   1.0000   1.0000
     1.0000   1.0000   1.0000   1.0000   1.0000   1.0000   1.0000   1.0000
     1.0000   1.0000   1.0000   1.0000   1.0000   1.0000   1.0000   1.0000
     1.0000   1.0000   1.0000   1.0000   1.0000   1.0000   1.0000   1.0000
     1.0000   1.0000   1.0000   1.0000   1.0000   1.0000   1.0000   1.0000
     1.0000   1.0000   1.0000   1.0000   1.0000   1.0000   1.0000   1.0000
     1.0000   1.0000   1.0000   1.0000   1.0000   1.0000   1.0000   1.0000
     1.0000   1.0000   1.0000   1.0000   1.0000   1.0000   1.0000   1.0000
     1.0000   1.0000   1.0000   1.0000   1.0000   1.0000   1.0000   1.0000
     1.0000   1.0000   1.0000   1.0000   0.9999   0.9999   0.9999   0.9998
     0.9998   0.9997   0.9996   0.9996   0.9993   0.9988   0.9987   0.9985
     0.9984   0.9981   0.9975   0.9972   0.9968   0.9961   0.9955   0.9949
     0.9926   0.9916   0.9905   0.9882   0.9854   0.9831   0.9815   0.9798
     0.9781   0.9701   0.9534   0.9429   0.9407   0.9249   0.9146   0.9053
     0.9040   0.8870   0.8745   0.8484   0.8337   0.8274   0.7823   0.7527
     0.7405   0.7260   0.7154   0.7083   0.7037   0.6990   0.6953   0.6792
     0.6774   0.6690   0.6651   0.6610   0.6504   0.6428   0.6381   0.6278
     0.6203   0.6176   0.5984   0.5891   0.5531   0.3350   0.3137   0.2068
     0.0739   0.0524   0.0197   0.0055   0.0049   0.0003   0.0001   0.0001
     0.0000   0.0000   0.0000   0.0000   0.0000   0.0000   0.0000   0.0000
     0.0000   0.0000   0.0000   0.0000   0.0000   0.0000   0.0000   0.0000
     0.0000   0.0000   0.0000   0.0000   0.0000   0.0000   0.0000   0.0000

          k = 0.0000-0.5000 0.0000 ( 65180 PWs)   bands (ev):

   -92.7122 -92.6587 -92.5661 -92.5180 -92.4566 -92.4192 -92.4010 -92.2768
   -56.0656 -56.0454 -55.9235 -55.9129 -55.9049 -55.8997 -55.8621 -55.8354
   -55.8194 -55.8189 -55.8104 -55.7654 -55.7495 -55.7099 -55.6925 -55.6537
   -55.6532 -55.6068 -55.6043 -55.6042 -55.5958 -55.5511 -55.5315 -55.4434
   -31.2882 -31.2687 -31.1283 -31.1117 -31.0636 -31.0410 -30.8251 -30.7938
   -29.8594 -29.8163 -29.7934 -29.6837 -15.0225 -14.9740 -14.9220 -14.7940
   -14.7088 -14.5708 -14.4224 -14.2963 -14.1687 -14.1059 -14.0571 -14.0497
   -13.9989 -13.9824 -13.9381 -13.9163 -13.8918 -13.8546 -13.8167 -13.7869
   -13.5946 -13.5376 -13.5215 -13.4681 -13.4232 -13.3703 -13.3524 -13.2983
   -13.2938 -13.2287 -13.1218 -13.1115 -13.0621 -13.0501 -12.9796 -12.9649
   -12.9399 -12.8931 -12.8584 -12.8468 -12.8004 -12.7872 -12.7426 -12.7165
   -12.7142 -12.6627 -12.5255 -12.4415 -12.3340 -12.2998 -12.2265 -12.1910
   -11.7935 -11.7913 -11.7642 -11.7268 -11.6924 -11.6815 -11.6384 -11.6344
   -11.5898 -11.5287 -11.5146 -11.5004  -2.6038  -2.5454  -2.3939  -2.3217
    -2.0399  -1.9575  -1.8295  -1.6918  -1.6552  -1.6346  -1.5573  -1.5248
    -1.4445  -1.4086  -1.3310  -1.2910  -1.2518  -1.2249  -1.1686  -1.1310
    -1.0833  -1.0483  -1.0150  -0.9807  -0.8709  -0.8258  -0.7918  -0.7903
    -0.7039  -0.6721  -0.6491  -0.6033  -0.5160  -0.4422  -0.3583  -0.3332
    -0.2145  -0.1877  -0.0419  -0.0093   0.0263   0.0643   0.1850   0.2585
     0.3801   0.4472   0.4553   0.5845   0.6350   0.7131   0.8653   0.9657
     0.9994   1.0385   1.0461   1.0776   1.0994   1.1356   1.1518   1.1642
     1.2761   1.3323   1.3595   1.3831   1.6529   1.6770   1.7056   1.7895
     1.8143   1.8573   1.8743   1.8994   1.9101   1.9239   1.9473   1.9893
     2.0133   2.0402   2.0532   2.0829   2.1390   2.2236   2.2577   2.4233
     2.5840   2.5922   2.6137   2.6566   2.6612   2.6701   2.7172   2.7298
     2.7847   2.8012   2.8180   2.8948   2.8993   2.9697   2.9709   2.9982
     3.0020   3.0180   3.0210   3.0250   3.0317   3.0393   3.0584   3.0661
     3.0787   3.1320   3.1382   3.1536   3.2176   4.1062   4.1213   4.2069
     4.2541   4.7161   4.9065   5.0176   5.1553   5.4150   5.4572   5.5737
     5.7138   6.0083   6.0337   6.0874   6.5668   6.8490   6.9521   7.2176
     7.2997   7.3667   7.4535   7.5171   7.6476   7.7439   7.8837   7.9058
     8.1137   8.2024   8.3767   8.4933   8.6553   8.7425   8.7871   8.8129

     occupation numbers 
     1.0000   1.0000   1.0000   1.0000   1.0000   1.0000   1.0000   1.0000
     1.0000   1.0000   1.0000   1.0000   1.0000   1.0000   1.0000   1.0000
     1.0000   1.0000   1.0000   1.0000   1.0000   1.0000   1.0000   1.0000
     1.0000   1.0000   1.0000   1.0000   1.0000   1.0000   1.0000   1.0000
     1.0000   1.0000   1.0000   1.0000   1.0000   1.0000   1.0000   1.0000
     1.0000   1.0000   1.0000   1.0000   1.0000   1.0000   1.0000   1.0000
     1.0000   1.0000   1.0000   1.0000   1.0000   1.0000   1.0000   1.0000
     1.0000   1.0000   1.0000   1.0000   1.0000   1.0000   1.0000   1.0000
     1.0000   1.0000   1.0000   1.0000   1.0000   1.0000   1.0000   1.0000
     1.0000   1.0000   1.0000   1.0000   1.0000   1.0000   1.0000   1.0000
     1.0000   1.0000   1.0000   1.0000   1.0000   1.0000   1.0000   1.0000
     1.0000   1.0000   1.0000   1.0000   1.0000   1.0000   1.0000   1.0000
     1.0000   1.0000   1.0000   1.0000   1.0000   1.0000   1.0000   1.0000
     1.0000   1.0000   1.0000   1.0000   1.0000   1.0000   1.0000   1.0000
     1.0000   1.0000   1.0000   1.0000   1.0000   1.0000   1.0000   1.0000
     1.0000   1.0000   1.0000   1.0000   1.0000   1.0000   1.0000   1.0000
     1.0000   1.0000   1.0000   1.0000   1.0000   1.0000   1.0000   1.0000
     1.0000   1.0000   1.0000   1.0000   1.0000   1.0000   1.0000   1.0000
     1.0000   1.0000   1.0000   1.0000   1.0000   1.0000   1.0000   1.0000
     1.0000   1.0000   1.0000   1.0000   1.0000   0.9999   0.9999   0.9998
     0.9997   0.9996   0.9996   0.9996   0.9995   0.9994   0.9993   0.9993
     0.9988   0.9984   0.9982   0.9979   0.9932   0.9925   0.9916   0.9883
     0.9871   0.9848   0.9838   0.9822   0.9815   0.9806   0.9789   0.9755
     0.9734   0.9709   0.9696   0.9664   0.9597   0.9475   0.9419   0.9074
     0.8613   0.8586   0.8513   0.8360   0.8343   0.8310   0.8128   0.8077
     0.7847   0.7774   0.7699   0.7339   0.7317   0.6961   0.6955   0.6812
     0.6792   0.6706   0.6690   0.6669   0.6632   0.6591   0.6487   0.6444
     0.6374   0.6073   0.6038   0.5949   0.5578   0.1201   0.1157   0.0928
     0.0817   0.0188   0.0091   0.0057   0.0031   0.0009   0.0007   0.0004
     0.0002   0.0000   0.0000   0.0000   0.0000   0.0000   0.0000   0.0000
     0.0000   0.0000   0.0000   0.0000   0.0000   0.0000   0.0000   0.0000
     0.0000   0.0000   0.0000   0.0000   0.0000   0.0000   0.0000   0.0000

          k = 0.2500 0.2500 0.0000 ( 65198 PWs)   bands (ev):

   -92.7122 -92.6587 -92.5661 -92.5180 -92.4566 -92.4192 -92.4010 -92.2768
   -56.0656 -56.0454 -55.9235 -55.9129 -55.9049 -55.8997 -55.8621 -55.8354
   -55.8194 -55.8189 -55.8104 -55.7654 -55.7495 -55.7099 -55.6925 -55.6537
   -55.6532 -55.6068 -55.6043 -55.6042 -55.5958 -55.5511 -55.5315 -55.4434
   -31.2868 -31.2705 -31.1277 -31.1122 -31.0629 -31.0412 -30.8262 -30.7929
   -29.8591 -29.8176 -29.7923 -29.6838 -15.0278 -14.9914 -14.9174 -14.7994
   -14.6832 -14.5573 -14.4833 -14.2794 -14.1208 -14.1083 -14.0739 -14.0432
   -14.0209 -13.9961 -13.9615 -13.9405 -13.8541 -13.8375 -13.6753 -13.6621
   -13.6330 -13.6122 -13.5676 -13.5223 -13.4574 -13.4376 -13.3341 -13.3037
   -13.2410 -13.1534 -13.1135 -13.0739 -13.0578 -13.0302 -13.0072 -12.9663
   -12.9575 -12.9327 -12.8968 -12.8633 -12.8046 -12.7616 -12.7525 -12.7315
   -12.7249 -12.7003 -12.5279 -12.4630 -12.4298 -12.2880 -12.1523 -12.0995
   -11.8120 -11.7801 -11.7695 -11.7624 -11.6997 -11.6651 -11.6583 -11.6227
   -11.6154 -11.5234 -11.4821 -11.4647  -2.6806  -2.4714  -2.3533  -2.2600
    -2.1384  -2.0733  -1.8760  -1.7310  -1.7113  -1.6828  -1.5858  -1.5545
    -1.4603  -1.4328  -1.3824  -1.2512  -1.2034  -1.1307  -1.0855  -1.0413
    -1.0176  -0.9928  -0.9510  -0.9350  -0.8447  -0.7948  -0.7296  -0.6806
    -0.6504  -0.6007  -0.5879  -0.5245  -0.4739  -0.4187  -0.3831  -0.2979
    -0.2433  -0.2172  -0.1769  -0.1222  -0.0419  -0.0121   0.0106   0.0855
     0.1185   0.3951   0.5442   0.5792   0.6370   0.6776   0.7227   0.7800
     0.8497   0.8853   1.1582   1.2265   1.3000   1.3265   1.3734   1.4053
     1.4414   1.4789   1.4961   1.5244   1.5681   1.5748   1.5910   1.6324
     1.6710   1.7130   1.7761   1.8069   1.8193   1.8480   1.8841   1.9363
     1.9594   2.0882   2.1632   2.1987   2.2227   2.2805   2.3516   2.3818
     2.4188   2.4426   2.4529   2.5643   2.6042   2.6929   2.8045   2.8684
     2.8818   2.8888   2.9081   2.9206   2.9325   2.9461   2.9515   2.9629
     2.9785   2.9883   3.0054   3.0120   3.0240   3.0440   3.0574   3.0674
     3.0990   3.3994   3.4920   3.5356   3.6038   3.6547   3.8472   3.9428
     4.3015   4.4946   4.7032   4.9766   5.1693   5.6365   5.6869   5.7397
     5.8243   5.8850   6.0312   6.1517   6.2190   6.7103   6.8948   7.0631
     7.2118   7.5462   7.5955   7.6534   7.7065   7.8606   7.9487   8.0877
     8.1558   8.1663   8.2883   8.3232   8.4369   8.4740   8.5913   8.8716

     occupation numbers 
     1.0000   1.0000   1.0000   1.0000   1.0000   1.0000   1.0000   1.0000
     1.0000   1.0000   1.0000   1.0000   1.0000   1.0000   1.0000   1.0000
     1.0000   1.0000   1.0000   1.0000   1.0000   1.0000   1.0000   1.0000
     1.0000   1.0000   1.0000   1.0000   1.0000   1.0000   1.0000   1.0000
     1.0000   1.0000   1.0000   1.0000   1.0000   1.0000   1.0000   1.0000
     1.0000   1.0000   1.0000   1.0000   1.0000   1.0000   1.0000   1.0000
     1.0000   1.0000   1.0000   1.0000   1.0000   1.0000   1.0000   1.0000
     1.0000   1.0000   1.0000   1.0000   1.0000   1.0000   1.0000   1.0000
     1.0000   1.0000   1.0000   1.0000   1.0000   1.0000   1.0000   1.0000
     1.0000   1.0000   1.0000   1.0000   1.0000   1.0000   1.0000   1.0000
     1.0000   1.0000   1.0000   1.0000   1.0000   1.0000   1.0000   1.0000
     1.0000   1.0000   1.0000   1.0000   1.0000   1.0000   1.0000   1.0000
     1.0000   1.0000   1.0000   1.0000   1.0000   1.0000   1.0000   1.0000
     1.0000   1.0000   1.0000   1.0000   1.0000   1.0000   1.0000   1.0000
     1.0000   1.0000   1.0000   1.0000   1.0000   1.0000   1.0000   1.0000
     1.0000   1.0000   1.0000   1.0000   1.0000   1.0000   1.0000   1.0000
     1.0000   1.0000   1.0000   1.0000   1.0000   1.0000   1.0000   1.0000
     1.0000   1.0000   1.0000   1.0000   1.0000   1.0000   1.0000   1.0000
     1.0000   1.0000   1.0000   1.0000   1.0000   1.0000   1.0000   1.0000
     1.0000   1.0000   1.0000   1.0000   1.0000   1.0000   0.9999   0.9999
     0.9999   0.9998   0.9993   0.9990   0.9986   0.9984   0.9980   0.9977
     0.9973   0.9968   0.9965   0.9961   0.9953   0.9951   0.9948   0.9938
     0.9927   0.9913   0.9889   0.9875   0.9868   0.9853   0.9832   0.9797
     0.9780   0.9658   0.9564   0.9514   0.9477   0.9378   0.9238   0.9172
     0.9085   0.9025   0.8999   0.8677   0.8545   0.8223   0.7760   0.7466
     0.7402   0.7368   0.7273   0.7212   0.7152   0.7083   0.7055   0.6997
     0.6915   0.6864   0.6774   0.6739   0.6674   0.6565   0.6492   0.6437
     0.6260   0.4504   0.3966   0.3718   0.3342   0.3072   0.2149   0.1758
     0.0716   0.0400   0.0197   0.0068   0.0030   0.0003   0.0002   0.0002
     0.0001   0.0001   0.0000   0.0000   0.0000   0.0000   0.0000   0.0000
     0.0000   0.0000   0.0000   0.0000   0.0000   0.0000   0.0000   0.0000
     0.0000   0.0000   0.0000   0.0000   0.0000   0.0000   0.0000   0.0000

          k = 0.2500-0.5000 0.0000 ( 65138 PWs)   bands (ev):

   -92.7122 -92.6587 -92.5661 -92.5180 -92.4566 -92.4192 -92.4010 -92.2768
   -56.0656 -56.0454 -55.9235 -55.9129 -55.9049 -55.8997 -55.8621 -55.8354
   -55.8194 -55.8189 -55.8104 -55.7654 -55.7495 -55.7099 -55.6925 -55.6537
   -55.6532 -55.6068 -55.6043 -55.6042 -55.5958 -55.5511 -55.5315 -55.4434
   -31.2866 -31.2703 -31.1279 -31.1116 -31.0635 -31.0414 -30.8252 -30.7939
   -29.8585 -29.8173 -29.7930 -29.6842 -14.9921 -14.9470 -14.8788 -14.7632
   -14.7325 -14.6116 -14.5249 -14.3938 -14.0856 -14.0360 -14.0065 -13.9842
   -13.9693 -13.9547 -13.9226 -13.9048 -13.8720 -13.8310 -13.8093 -13.7724
   -13.6773 -13.6287 -13.5850 -13.5499 -13.4819 -13.4684 -13.3918 -13.3629
   -13.2175 -13.1531 -13.1331 -13.0524 -13.0303 -13.0256 -12.9978 -12.9786
   -12.9541 -12.9232 -12.8574 -12.8519 -12.8048 -12.7933 -12.7461 -12.7223
   -12.6663 -12.6349 -12.5321 -12.4242 -12.3314 -12.2786 -12.2159 -12.1920
   -11.7874 -11.7755 -11.7647 -11.7377 -11.7059 -11.6779 -11.6362 -11.6088
   -11.5864 -11.5417 -11.5157 -11.5044  -2.4619  -2.3974  -2.2677  -2.1905
    -2.0604  -1.9777  -1.8540  -1.7034  -1.6501  -1.6268  -1.5645  -1.5517
    -1.4553  -1.3876  -1.3018  -1.2531  -1.2436  -1.1804  -1.1386  -1.1033
    -1.0562  -1.0188  -0.9840  -0.9442  -0.9334  -0.8876  -0.8586  -0.8167
    -0.7858  -0.7186  -0.6177  -0.5798  -0.4995  -0.4335  -0.3852  -0.3437
    -0.3222  -0.2647  -0.1060  -0.0957   0.0030   0.0382   0.0466   0.0910
     0.1287   0.1606   0.1957   0.2640   0.5384   0.6352   0.6793   0.7432
     1.0239   1.0409   1.1313   1.1566   1.3235   1.3568   1.3986   1.4236
     1.4378   1.4590   1.5198   1.5672   1.6028   1.6743   1.7811   1.8110
     1.8306   1.8375   1.8788   1.8909   1.9020   1.9419   1.9515   1.9730
     1.9948   2.0196   2.0455   2.0768   2.1378   2.1783   2.2562   2.3922
     2.5418   2.5583   2.5761   2.6016   2.6217   2.6575   2.6789   2.6928
     2.7135   2.8031   2.8218   2.8807   2.8834   2.8880   2.9056   2.9229
     2.9360   2.9563   2.9657   2.9940   3.0042   3.0219   3.0287   3.0364
     3.0482   3.5587   3.5999   3.7317   3.7933   4.1111   4.1685   4.2026
     4.3126   4.7373   4.9264   5.0527   5.1275   5.2928   5.4264   5.5980
     5.6201   5.7565   5.7783   6.1999   6.3851   6.4530   6.5154   7.0995
     7.4395   7.5373   7.6382   7.6975   7.8062   7.8710   8.0313   8.1977
     8.3076   8.3694   8.4204   8.5198   8.5322   8.5859   8.7068   8.7593

     occupation numbers 
     1.0000   1.0000   1.0000   1.0000   1.0000   1.0000   1.0000   1.0000
     1.0000   1.0000   1.0000   1.0000   1.0000   1.0000   1.0000   1.0000
     1.0000   1.0000   1.0000   1.0000   1.0000   1.0000   1.0000   1.0000
     1.0000   1.0000   1.0000   1.0000   1.0000   1.0000   1.0000   1.0000
     1.0000   1.0000   1.0000   1.0000   1.0000   1.0000   1.0000   1.0000
     1.0000   1.0000   1.0000   1.0000   1.0000   1.0000   1.0000   1.0000
     1.0000   1.0000   1.0000   1.0000   1.0000   1.0000   1.0000   1.0000
     1.0000   1.0000   1.0000   1.0000   1.0000   1.0000   1.0000   1.0000
     1.0000   1.0000   1.0000   1.0000   1.0000   1.0000   1.0000   1.0000
     1.0000   1.0000   1.0000   1.0000   1.0000   1.0000   1.0000   1.0000
     1.0000   1.0000   1.0000   1.0000   1.0000   1.0000   1.0000   1.0000
     1.0000   1.0000   1.0000   1.0000   1.0000   1.0000   1.0000   1.0000
     1.0000   1.0000   1.0000   1.0000   1.0000   1.0000   1.0000   1.0000
     1.0000   1.0000   1.0000   1.0000   1.0000   1.0000   1.0000   1.0000
     1.0000   1.0000   1.0000   1.0000   1.0000   1.0000   1.0000   1.0000
     1.0000   1.0000   1.0000   1.0000   1.0000   1.0000   1.0000   1.0000
     1.0000   1.0000   1.0000   1.0000   1.0000   1.0000   1.0000   1.0000
     1.0000   1.0000   1.0000   1.0000   1.0000   1.0000   1.0000   1.0000
     1.0000   1.0000   1.0000   1.0000   1.0000   1.0000   1.0000   1.0000
     1.0000   1.0000   1.0000   1.0000   1.0000   1.0000   1.0000   0.9999
     0.9997   0.9996   0.9994   0.9993   0.9985   0.9982   0.9978   0.9975
     0.9973   0.9971   0.9962   0.9953   0.9945   0.9926   0.9886   0.9873
     0.9863   0.9859   0.9835   0.9828   0.9821   0.9793   0.9786   0.9769
     0.9751   0.9728   0.9703   0.9671   0.9598   0.9543   0.9421   0.9148
     0.8747   0.8696   0.8639   0.8554   0.8485   0.8357   0.8277   0.8224
     0.8143   0.7766   0.7682   0.7407   0.7394   0.7372   0.7286   0.7200
     0.7134   0.7031   0.6982   0.6834   0.6780   0.6685   0.6648   0.6607
     0.6542   0.3590   0.3364   0.2682   0.2390   0.1187   0.1026   0.0939
     0.0693   0.0174   0.0084   0.0049   0.0036   0.0017   0.0009   0.0004
     0.0003   0.0001   0.0001   0.0000   0.0000   0.0000   0.0000   0.0000
     0.0000   0.0000   0.0000   0.0000   0.0000   0.0000   0.0000   0.0000
     0.0000   0.0000   0.0000   0.0000   0.0000   0.0000   0.0000   0.0000

          k =-0.5000-0.5000 0.0000 ( 65132 PWs)   bands (ev):

   -92.7122 -92.6587 -92.5661 -92.5180 -92.4566 -92.4192 -92.4010 -92.2768
   -56.0656 -56.0454 -55.9235 -55.9129 -55.9049 -55.8997 -55.8621 -55.8354
   -55.8194 -55.8189 -55.8104 -55.7654 -55.7495 -55.7099 -55.6925 -55.6537
   -55.6532 -55.6068 -55.6043 -55.6042 -55.5958 -55.5511 -55.5315 -55.4434
   -31.2845 -31.2725 -31.1275 -31.1115 -31.0634 -31.0417 -30.8253 -30.7940
   -29.8575 -29.8183 -29.7926 -29.6846 -14.9457 -14.9198 -14.8016 -14.7904
   -14.6980 -14.6588 -14.6279 -14.4935 -13.9974 -13.9830 -13.9510 -13.9330
   -13.9146 -13.9035 -13.8713 -13.8625 -13.8497 -13.8385 -13.8238 -13.7463
   -13.7379 -13.7120 -13.6754 -13.6743 -13.5698 -13.5311 -13.4296 -13.4199
   -13.1678 -13.1308 -13.0625 -13.0367 -13.0181 -13.0102 -12.9953 -12.9866
   -12.9784 -12.9644 -12.8616 -12.8419 -12.8088 -12.7924 -12.7568 -12.7363
   -12.6162 -12.6084 -12.5483 -12.4079 -12.3278 -12.2555 -12.2056 -12.1943
   -11.7840 -11.7717 -11.7539 -11.7372 -11.7023 -11.6840 -11.6505 -11.5892
   -11.5691 -11.5637 -11.5133 -11.5102  -2.2380  -2.1612  -2.1533  -2.0818
    -2.0419  -1.9635  -1.8955  -1.7705  -1.6538  -1.6236  -1.5841  -1.5269
    -1.4550  -1.4417  -1.3687  -1.3277  -1.2112  -1.1820  -1.1343  -1.1038
    -1.0397  -0.9938  -0.9751  -0.9628  -0.9107  -0.8644  -0.8499  -0.7371
    -0.6791  -0.6333  -0.5822  -0.5581  -0.5460  -0.5097  -0.4683  -0.4325
    -0.4228  -0.3364  -0.2653  -0.2222  -0.1965  -0.1224  -0.0634  -0.0554
     0.0054   0.0260   0.0365   0.0439   0.5070   0.5610   0.6250   0.6506
     1.0527   1.0660   1.0961   1.1325   1.4080   1.4270   1.4335   1.4708
     1.6042   1.6996   1.7266   1.7630   1.7892   1.8029   1.8144   1.8467
     1.8582   1.8763   1.8815   1.9294   1.9389   1.9625   1.9821   1.9941
     2.0072   2.0490   2.0733   2.0866   2.1224   2.1462   2.2185   2.2858
     2.5514   2.5864   2.6051   2.6221   2.6283   2.6659   2.6675   2.6891
     2.7006   2.7134   2.7331   2.7484   2.8042   2.8174   2.8287   2.8389
     2.8595   2.8746   2.8851   2.8922   2.9260   2.9999   3.0067   3.0345
     3.0431   3.9771   4.0255   4.0403   4.1248   4.3066   4.3787   4.4071
     4.6472   4.7699   4.8525   4.9815   5.0687   5.0954   5.1939   5.2897
     5.3774   5.8618   5.8827   5.9496   6.0256   6.3868   6.4996   6.6144
     7.6615   7.8278   7.8906   7.9147   7.9333   7.9693   8.0026   8.0758
     8.2609   8.3404   8.5080   8.5778   8.6021   8.6179   8.6291   8.6576

     occupation numbers 
     1.0000   1.0000   1.0000   1.0000   1.0000   1.0000   1.0000   1.0000
     1.0000   1.0000   1.0000   1.0000   1.0000   1.0000   1.0000   1.0000
     1.0000   1.0000   1.0000   1.0000   1.0000   1.0000   1.0000   1.0000
     1.0000   1.0000   1.0000   1.0000   1.0000   1.0000   1.0000   1.0000
     1.0000   1.0000   1.0000   1.0000   1.0000   1.0000   1.0000   1.0000
     1.0000   1.0000   1.0000   1.0000   1.0000   1.0000   1.0000   1.0000
     1.0000   1.0000   1.0000   1.0000   1.0000   1.0000   1.0000   1.0000
     1.0000   1.0000   1.0000   1.0000   1.0000   1.0000   1.0000   1.0000
     1.0000   1.0000   1.0000   1.0000   1.0000   1.0000   1.0000   1.0000
     1.0000   1.0000   1.0000   1.0000   1.0000   1.0000   1.0000   1.0000
     1.0000   1.0000   1.0000   1.0000   1.0000   1.0000   1.0000   1.0000
     1.0000   1.0000   1.0000   1.0000   1.0000   1.0000   1.0000   1.0000
     1.0000   1.0000   1.0000   1.0000   1.0000   1.0000   1.0000   1.0000
     1.0000   1.0000   1.0000   1.0000   1.0000   1.0000   1.0000   1.0000
     1.0000   1.0000   1.0000   1.0000   1.0000   1.0000   1.0000   1.0000
     1.0000   1.0000   1.0000   1.0000   1.0000   1.0000   1.0000   1.0000
     1.0000   1.0000   1.0000   1.0000   1.0000   1.0000   1.0000   1.0000
     1.0000   1.0000   1.0000   1.0000   1.0000   1.0000   1.0000   1.0000
     1.0000   1.0000   1.0000   1.0000   1.0000   1.0000   1.0000   1.0000
     1.0000   1.0000   1.0000   1.0000   1.0000   1.0000   1.0000   1.0000
     0.9996   0.9996   0.9995   0.9994   0.9977   0.9975   0.9974   0.9969
     0.9945   0.9918   0.9908   0.9894   0.9883   0.9876   0.9871   0.9854
     0.9848   0.9837   0.9834   0.9802   0.9795   0.9777   0.9761   0.9751
     0.9740   0.9700   0.9674   0.9660   0.9618   0.9587   0.9483   0.9369
     0.8717   0.8605   0.8542   0.8484   0.8462   0.8326   0.8320   0.8238
     0.8193   0.8143   0.8064   0.8001   0.7761   0.7702   0.7651   0.7604
[...]
     0.7449   0.7279   0.7172   0.7148   0.7035   0.6988   0.6911   0.6802
     0.6769   0.6650   0.6571   0.6545   0.6468   0.6333   0.6220   0.6190
     0.6144   0.6111   0.6054   0.5989   0.5202   0.3587   0.3176   0.2021
     0.0767   0.0469   0.0223   0.0058   0.0046   0.0003   0.0001   0.0001
     0.0000   0.0000   0.0000   0.0000   0.0000   0.0000   0.0000   0.0000
     0.0000   0.0000   0.0000   0.0000   0.0000   0.0000   0.0000   0.0000
     0.0000   0.0000   0.0000   0.0000   0.0000   0.0000   0.0000   0.0000

          k =-0.5000 0.0000 0.0000 ( 65180 PWs)   bands (ev):

   -92.7122 -92.6587 -92.5661 -92.5180 -92.4566 -92.4192 -92.4010 -92.2768
   -56.0656 -56.0454 -55.9235 -55.9129 -55.9049 -55.8997 -55.8621 -55.8354
   -55.8194 -55.8189 -55.8104 -55.7654 -55.7495 -55.7099 -55.6925 -55.6537
   -55.6532 -55.6068 -55.6043 -55.6042 -55.5958 -55.5511 -55.5315 -55.4434
   -31.2848 -31.2727 -31.1271 -31.1127 -31.0621 -31.0415 -30.8273 -30.7921
   -29.8587 -29.8190 -29.7913 -29.6839 -15.0269 -14.9765 -14.9146 -14.8088
   -14.7004 -14.5581 -14.4119 -14.2758 -14.1448 -14.1389 -14.1195 -14.0589
   -14.0028 -13.9708 -13.9226 -13.9202 -13.9033 -13.8505 -13.8403 -13.7375
   -13.5662 -13.5432 -13.5060 -13.4991 -13.4326 -13.3756 -13.3418 -13.2789
   -13.2624 -13.2551 -13.1101 -13.0654 -13.0548 -13.0338 -13.0216 -13.0050
   -12.9590 -12.9419 -12.9288 -12.9136 -12.7761 -12.7278 -12.6714 -12.6529
   -12.6514 -12.6420 -12.5515 -12.5064 -12.3703 -12.3378 -12.2069 -12.1623
   -11.7910 -11.7698 -11.7628 -11.7478 -11.7299 -11.6883 -11.6260 -11.6087
   -11.5763 -11.5305 -11.5212 -11.5057  -2.5940  -2.5554  -2.3915  -2.3525
    -2.0393  -1.9643  -1.8154  -1.6982  -1.6588  -1.6139  -1.5647  -1.5399
    -1.4175  -1.3727  -1.3581  -1.2754  -1.2402  -1.2259  -1.1928  -1.1354
    -1.0666  -1.0373  -1.0096  -0.9146  -0.8665  -0.8175  -0.7843  -0.7638
    -0.7346  -0.6855  -0.6613  -0.6207  -0.5251  -0.4562  -0.3872  -0.3269
    -0.1594  -0.1309  -0.0680  -0.0370   0.0351   0.0409   0.1786   0.2095
     0.2447   0.4290   0.5279   0.5748   0.6450   0.7231   0.8407   0.8569
     0.9941   1.0188   1.0712   1.0945   1.1349   1.1509   1.1939   1.2191
     1.2895   1.3311   1.3780   1.3861   1.6837   1.6974   1.7149   1.7346
     1.8469   1.8554   1.8674   1.8760   1.9058   1.9183   1.9542   1.9816
     2.0018   2.0658   2.0752   2.1277   2.1438   2.2075   2.3052   2.4154
     2.4859   2.5065   2.5808   2.6151   2.6428   2.7023   2.7146   2.7255
     2.7557   2.8128   2.8262   2.8745   2.9200   2.9517   2.9877   2.9925
     2.9934   3.0082   3.0200   3.0317   3.0477   3.0532   3.0750   3.0805
     3.1004   3.1176   3.1236   3.2526   3.2685   4.0391   4.1260   4.1935
     4.3156   4.7832   4.8673   5.0199   5.0396   5.4793   5.5087   5.5830
     5.6480   5.9561   6.0246   6.0494   6.7920   6.8086   6.9996   7.2737
     7.3048   7.3357   7.4243   7.4815   7.6424   7.7534   7.7706   7.8791
     8.0698   8.2634   8.3807   8.5189   8.6185   8.7000   8.7535   8.8425

     occupation numbers 
     1.0000   1.0000   1.0000   1.0000   1.0000   1.0000   1.0000   1.0000
     1.0000   1.0000   1.0000   1.0000   1.0000   1.0000   1.0000   1.0000
     1.0000   1.0000   1.0000   1.0000   1.0000   1.0000   1.0000   1.0000
     1.0000   1.0000   1.0000   1.0000   1.0000   1.0000   1.0000   1.0000
     1.0000   1.0000   1.0000   1.0000   1.0000   1.0000   1.0000   1.0000
     1.0000   1.0000   1.0000   1.0000   1.0000   1.0000   1.0000   1.0000
     1.0000   1.0000   1.0000   1.0000   1.0000   1.0000   1.0000   1.0000
     1.0000   1.0000   1.0000   1.0000   1.0000   1.0000   1.0000   1.0000
     1.0000   1.0000   1.0000   1.0000   1.0000   1.0000   1.0000   1.0000
     1.0000   1.0000   1.0000   1.0000   1.0000   1.0000   1.0000   1.0000
     1.0000   1.0000   1.0000   1.0000   1.0000   1.0000   1.0000   1.0000
     1.0000   1.0000   1.0000   1.0000   1.0000   1.0000   1.0000   1.0000
     1.0000   1.0000   1.0000   1.0000   1.0000   1.0000   1.0000   1.0000
     1.0000   1.0000   1.0000   1.0000   1.0000   1.0000   1.0000   1.0000
     1.0000   1.0000   1.0000   1.0000   1.0000   1.0000   1.0000   1.0000
     1.0000   1.0000   1.0000   1.0000   1.0000   1.0000   1.0000   1.0000
     1.0000   1.0000   1.0000   1.0000   1.0000   1.0000   1.0000   1.0000
     1.0000   1.0000   1.0000   1.0000   1.0000   1.0000   1.0000   1.0000
     1.0000   1.0000   1.0000   1.0000   1.0000   1.0000   1.0000   1.0000
     1.0000   1.0000   1.0000   1.0000   1.0000   0.9999   0.9999   0.9999
     0.9997   0.9997   0.9996   0.9995   0.9994   0.9993   0.9992   0.9991
     0.9987   0.9984   0.9980   0.9979   0.9923   0.9919   0.9913   0.9905
     0.9854   0.9849   0.9842   0.9837   0.9818   0.9810   0.9784   0.9762
     0.9744   0.9682   0.9672   0.9611   0.9590   0.9500   0.9332   0.9093
     0.8910   0.8852   0.8623   0.8508   0.8410   0.8187   0.8138   0.8095
     0.7971   0.7723   0.7662   0.7437   0.7215   0.7054   0.6867   0.6842
     0.6837   0.6758   0.6696   0.6632   0.6545   0.6515   0.6395   0.6364
     0.6252   0.6155   0.6121   0.5371   0.5278   0.1413   0.1144   0.0961
     0.0687   0.0146   0.0106   0.0057   0.0052   0.0007   0.0006   0.0004
     0.0003   0.0000   0.0000   0.0000   0.0000   0.0000   0.0000   0.0000
     0.0000   0.0000   0.0000   0.0000   0.0000   0.0000   0.0000   0.0000
     0.0000   0.0000   0.0000   0.0000   0.0000   0.0000   0.0000   0.0000

          k =-0.2500 0.2500 0.0000 ( 65198 PWs)   bands (ev):

   -92.7122 -92.6587 -92.5661 -92.5180 -92.4566 -92.4192 -92.4010 -92.2768
   -56.0656 -56.0454 -55.9235 -55.9129 -55.9049 -55.8997 -55.8621 -55.8354
   -55.8194 -55.8189 -55.8104 -55.7654 -55.7495 -55.7099 -55.6925 -55.6537
   -55.6532 -55.6068 -55.6043 -55.6042 -55.5958 -55.5511 -55.5315 -55.4434
   -31.2868 -31.2705 -31.1277 -31.1122 -31.0629 -31.0412 -30.8262 -30.7929
   -29.8591 -29.8176 -29.7923 -29.6838 -15.0291 -14.9903 -14.9159 -14.7976
   -14.6897 -14.5617 -14.4753 -14.2705 -14.1283 -14.0979 -14.0874 -14.0382
   -14.0151 -13.9968 -13.9807 -13.9378 -13.8507 -13.8382 -13.6834 -13.6587
   -13.6301 -13.6095 -13.5705 -13.5086 -13.4500 -13.4460 -13.3408 -13.3055
   -13.2348 -13.1573 -13.1156 -13.0652 -13.0512 -13.0246 -13.0032 -12.9770
   -12.9474 -12.9385 -12.9108 -12.8698 -12.8046 -12.7815 -12.7595 -12.7299
   -12.7025 -12.6988 -12.5230 -12.4528 -12.4329 -12.2937 -12.1518 -12.1001
   -11.8112 -11.7896 -11.7626 -11.7503 -11.7093 -11.6748 -11.6514 -11.6303
   -11.6076 -11.5231 -11.4776 -11.4679  -2.6790  -2.4703  -2.3490  -2.2618
    -2.1426  -2.0760  -1.8736  -1.7278  -1.7090  -1.6808  -1.5863  -1.5534
    -1.4601  -1.4262  -1.3999  -1.2567  -1.2016  -1.1338  -1.1052  -1.0446
    -1.0232  -0.9829  -0.9538  -0.9138  -0.8512  -0.8037  -0.7413  -0.6721
    -0.6465  -0.5951  -0.5676  -0.5218  -0.4643  -0.4213  -0.3779  -0.2780
    -0.2460  -0.2351  -0.1900  -0.1239  -0.0439  -0.0107   0.0186   0.0887
     0.1159   0.3764   0.5455   0.5884   0.6270   0.6839   0.7235   0.7823
     0.8558   0.8837   1.1655   1.2770   1.3169   1.3511   1.3547   1.3988
     1.4160   1.4598   1.4922   1.5063   1.5323   1.5767   1.5904   1.6311
     1.6490   1.6942   1.7898   1.7977   1.8180   1.8494   1.8826   1.9201
     1.9662   2.0793   2.1927   2.2187   2.2635   2.2838   2.3492   2.3942
     2.4206   2.4450   2.4632   2.5653   2.6028   2.6934   2.8041   2.8743
     2.8810   2.8940   2.9041   2.9140   2.9308   2.9398   2.9545   2.9625
     2.9764   2.9856   2.9989   3.0074   3.0135   3.0462   3.0574   3.0671
     3.1001   3.3925   3.4737   3.5374   3.6035   3.6686   3.8309   3.9521
     4.3003   4.4930   4.7042   4.9868   5.1692   5.6379   5.6843   5.7433
     5.8222   5.8858   6.0240   6.1788   6.1918   6.7319   6.8949   7.0659
     7.1707   7.5589   7.6051   7.6620   7.6834   7.8757   7.9294   8.1173
     8.1421   8.1857   8.2990   8.3562   8.4292   8.4504   8.5567   8.8426

     occupation numbers 
     1.0000   1.0000   1.0000   1.0000   1.0000   1.0000   1.0000   1.0000
     1.0000   1.0000   1.0000   1.0000   1.0000   1.0000   1.0000   1.0000
     1.0000   1.0000   1.0000   1.0000   1.0000   1.0000   1.0000   1.0000
     1.0000   1.0000   1.0000   1.0000   1.0000   1.0000   1.0000   1.0000
     1.0000   1.0000   1.0000   1.0000   1.0000   1.0000   1.0000   1.0000
     1.0000   1.0000   1.0000   1.0000   1.0000   1.0000   1.0000   1.0000
     1.0000   1.0000   1.0000   1.0000   1.0000   1.0000   1.0000   1.0000
     1.0000   1.0000   1.0000   1.0000   1.0000   1.0000   1.0000   1.0000
     1.0000   1.0000   1.0000   1.0000   1.0000   1.0000   1.0000   1.0000
     1.0000   1.0000   1.0000   1.0000   1.0000   1.0000   1.0000   1.0000
     1.0000   1.0000   1.0000   1.0000   1.0000   1.0000   1.0000   1.0000
     1.0000   1.0000   1.0000   1.0000   1.0000   1.0000   1.0000   1.0000
     1.0000   1.0000   1.0000   1.0000   1.0000   1.0000   1.0000   1.0000
     1.0000   1.0000   1.0000   1.0000   1.0000   1.0000   1.0000   1.0000
     1.0000   1.0000   1.0000   1.0000   1.0000   1.0000   1.0000   1.0000
     1.0000   1.0000   1.0000   1.0000   1.0000   1.0000   1.0000   1.0000
     1.0000   1.0000   1.0000   1.0000   1.0000   1.0000   1.0000   1.0000
     1.0000   1.0000   1.0000   1.0000   1.0000   1.0000   1.0000   1.0000
     1.0000   1.0000   1.0000   1.0000   1.0000   1.0000   1.0000   1.0000
     1.0000   1.0000   1.0000   1.0000   1.0000   1.0000   0.9999   0.9999
     0.9999   0.9998   0.9993   0.9988   0.9985   0.9982   0.9982   0.9978
     0.9976   0.9971   0.9966   0.9964   0.9959   0.9951   0.9948   0.9938
     0.9933   0.9920   0.9883   0.9879   0.9869   0.9853   0.9833   0.9809
     0.9774   0.9668   0.9522   0.9483   0.9409   0.9372   0.9243   0.9143
     0.9080   0.9019   0.8971   0.8673   0.8550   0.8221   0.7761   0.7438
     0.7406   0.7343   0.7293   0.7245   0.7160   0.7115   0.7040   0.6999
     0.6927   0.6879   0.6808   0.6763   0.6730   0.6553   0.6492   0.6438
     0.6254   0.4544   0.4071   0.3708   0.3344   0.3000   0.2220   0.1722
     0.0718   0.0402   0.0196   0.0065   0.0030   0.0003   0.0002   0.0002
     0.0001   0.0001   0.0000   0.0000   0.0000   0.0000   0.0000   0.0000
     0.0000   0.0000   0.0000   0.0000   0.0000   0.0000   0.0000   0.0000
     0.0000   0.0000   0.0000   0.0000   0.0000   0.0000   0.0000   0.0000

          k =-0.5000 0.2500 0.0000 ( 65138 PWs)   bands (ev):

   -92.7122 -92.6587 -92.5661 -92.5180 -92.4566 -92.4192 -92.4010 -92.2768
   -56.0656 -56.0454 -55.9235 -55.9129 -55.9049 -55.8997 -55.8621 -55.8354
   -55.8194 -55.8189 -55.8104 -55.7654 -55.7495 -55.7099 -55.6925 -55.6537
   -55.6532 -55.6068 -55.6043 -55.6042 -55.5958 -55.5511 -55.5315 -55.4434
   -31.2846 -31.2726 -31.1273 -31.1121 -31.0627 -31.0416 -30.8263 -30.7930
   -29.8581 -29.8187 -29.7919 -29.6842 -14.9942 -14.9502 -14.8716 -14.7741
   -14.7306 -14.6045 -14.5168 -14.3904 -14.0793 -14.0484 -14.0361 -13.9892
   -13.9709 -13.9445 -13.9091 -13.9060 -13.8806 -13.8424 -13.8304 -13.7283
   -13.6491 -13.6022 -13.5988 -13.5859 -13.4845 -13.4781 -13.3857 -13.3455
   -13.2107 -13.1756 -13.0808 -13.0606 -13.0378 -13.0269 -13.0078 -12.9776
   -12.9565 -12.9476 -12.9310 -12.8721 -12.7818 -12.7603 -12.7189 -12.6962
   -12.6334 -12.6254 -12.5497 -12.4503 -12.3332 -12.3149 -12.2038 -12.1744
   -11.7838 -11.7711 -11.7569 -11.7452 -11.7236 -11.6932 -11.6133 -11.6046
   -11.5815 -11.5451 -11.5168 -11.5082  -2.4517  -2.4097  -2.2612  -2.2193
    -2.0586  -1.9830  -1.8397  -1.7047  -1.6477  -1.6208  -1.5812  -1.5422
    -1.4622  -1.3472  -1.2900  -1.2671  -1.2418  -1.1658  -1.1363  -1.0977
    -1.0802  -1.0194  -0.9912  -0.9513  -0.9163  -0.8874  -0.8298  -0.8029
    -0.7613  -0.7268  -0.6228  -0.5943  -0.5082  -0.4485  -0.4148  -0.3585
    -0.2737  -0.2397  -0.1391  -0.0968  -0.0449   0.0090   0.0317   0.1082
     0.1289   0.1610   0.2194   0.2582   0.5666   0.6375   0.6800   0.6988
     1.0045   1.0559   1.1332   1.1581   1.3352   1.3728   1.4097   1.4226
     1.4409   1.4584   1.5289   1.5701   1.6141   1.6385   1.7688   1.8046
     1.8273   1.8381   1.8739   1.9044   1.9175   1.9293   1.9515   1.9760
     2.0148   2.0392   2.0695   2.0920   2.1208   2.1833   2.3011   2.4056
     2.4334   2.5030   2.5418   2.5986   2.6408   2.6466   2.6839   2.7043
     2.7382   2.8143   2.8278   2.8677   2.8837   2.9003   2.9090   2.9294
     2.9428   2.9628   2.9703   2.9898   3.0024   3.0148   3.0210   3.0320
     3.0424   3.5675   3.6371   3.7612   3.7862   4.0491   4.1532   4.1912
     4.3958   4.7770   4.8831   5.0201   5.0663   5.3930   5.4219   5.5979
     5.6118   5.7380   5.7688   6.0980   6.3906   6.4927   6.6994   6.9805
     7.4461   7.5292   7.6766   7.7146   7.7900   7.8839   8.0159   8.1393
     8.2908   8.3773   8.4288   8.5255   8.5588   8.5804   8.6637   8.7383

     occupation numbers 
     1.0000   1.0000   1.0000   1.0000   1.0000   1.0000   1.0000   1.0000
     1.0000   1.0000   1.0000   1.0000   1.0000   1.0000   1.0000   1.0000
     1.0000   1.0000   1.0000   1.0000   1.0000   1.0000   1.0000   1.0000
     1.0000   1.0000   1.0000   1.0000   1.0000   1.0000   1.0000   1.0000
     1.0000   1.0000   1.0000   1.0000   1.0000   1.0000   1.0000   1.0000
     1.0000   1.0000   1.0000   1.0000   1.0000   1.0000   1.0000   1.0000
     1.0000   1.0000   1.0000   1.0000   1.0000   1.0000   1.0000   1.0000
     1.0000   1.0000   1.0000   1.0000   1.0000   1.0000   1.0000   1.0000
     1.0000   1.0000   1.0000   1.0000   1.0000   1.0000   1.0000   1.0000
     1.0000   1.0000   1.0000   1.0000   1.0000   1.0000   1.0000   1.0000
     1.0000   1.0000   1.0000   1.0000   1.0000   1.0000   1.0000   1.0000
     1.0000   1.0000   1.0000   1.0000   1.0000   1.0000   1.0000   1.0000
     1.0000   1.0000   1.0000   1.0000   1.0000   1.0000   1.0000   1.0000
     1.0000   1.0000   1.0000   1.0000   1.0000   1.0000   1.0000   1.0000
     1.0000   1.0000   1.0000   1.0000   1.0000   1.0000   1.0000   1.0000
     1.0000   1.0000   1.0000   1.0000   1.0000   1.0000   1.0000   1.0000
     1.0000   1.0000   1.0000   1.0000   1.0000   1.0000   1.0000   1.0000
     1.0000   1.0000   1.0000   1.0000   1.0000   1.0000   1.0000   1.0000
     1.0000   1.0000   1.0000   1.0000   1.0000   1.0000   1.0000   1.0000
     1.0000   1.0000   1.0000   1.0000   1.0000   1.0000   1.0000   0.9999
     0.9997   0.9996   0.9994   0.9993   0.9984   0.9980   0.9977   0.9975
     0.9973   0.9971   0.9960   0.9952   0.9942   0.9936   0.9892   0.9876
     0.9864   0.9859   0.9838   0.9819   0.9810   0.9802   0.9786   0.9766
     0.9733   0.9710   0.9679   0.9654   0.9620   0.9536   0.9340   0.9117
     0.9049   0.8862   0.8747   0.8564   0.8418   0.8397   0.8258   0.8179
     0.8043   0.7716   0.7655   0.7469   0.7393   0.7312   0.7269   0.7167
     0.7100   0.6997   0.6958   0.6856   0.6789   0.6723   0.6690   0.6631
     0.6574   0.3541   0.3164   0.2540   0.2423   0.1380   0.1067   0.0967
     0.0543   0.0150   0.0100   0.0057   0.0047   0.0010   0.0009   0.0004
     0.0003   0.0002   0.0001   0.0000   0.0000   0.0000   0.0000   0.0000
     0.0000   0.0000   0.0000   0.0000   0.0000   0.0000   0.0000   0.0000
     0.0000   0.0000   0.0000   0.0000   0.0000   0.0000   0.0000   0.0000

     the Fermi energy is     3.3154 ev

!    total energy              =   -4399.91329903 Ry
     estimated scf accuracy    <          7.3E-09 Ry
     smearing contrib. (-TS)   =      -1.14524544 Ry
     internal energy E=F+TS    =   -4398.76805360 Ry

     The total energy is F=E-TS. E is the sum of the following terms:
     one-electron contribution =  -21253.04439934 Ry
     hartree contribution      =   10754.45042155 Ry
     xc contribution           =    -686.72693023 Ry
     ewald contribution        =    7053.19817714 Ry
     one-center paw contrib.   =    -266.64532272 Ry
      -> PAW hartree energy AE =      25.07580635 Ry
      -> PAW hartree energy PS =     -24.96090613 Ry
      -> PAW xc energy AE      =     -16.50502852 Ry
      -> PAW xc energy PS      =       6.86387867 Ry
      -> total E_H with PAW    =   10754.56532177 Ry
      -> total E_XC with PAW   =    -696.36808009 Ry

     convergence has been achieved in  50 iterations

     Writing all to output data dir /bsuhome/zayahcortright/scratch/pwscf.save/
 
     init_run     :      7.45s CPU      8.13s WALL (       1 calls)
     electrons    :    707.28s CPU    719.91s WALL (       1 calls)

     Called by init_run:
     wfcinit      :      6.08s CPU      6.20s WALL (       1 calls)
     wfcinit:atom :      0.05s CPU      0.06s WALL (       5 calls)
     wfcinit:wfcr :      5.76s CPU      5.83s WALL (       5 calls)
     potinit      :      0.16s CPU      0.18s WALL (       1 calls)
     hinit0       :      0.34s CPU      0.81s WALL (       1 calls)

     Called by electrons:
     c_bands      :    557.26s CPU    562.23s WALL (      50 calls)
     sum_band     :    111.79s CPU    116.18s WALL (      50 calls)
     v_of_rho     :      5.92s CPU      6.19s WALL (      51 calls)
     v_h          :      0.55s CPU      0.56s WALL (      51 calls)
     v_xc         :      5.37s CPU      5.64s WALL (      51 calls)
     newd         :     17.09s CPU     19.66s WALL (      51 calls)
     PAW_pot      :      1.84s CPU      1.87s WALL (      51 calls)
     mix_rho      :     12.95s CPU     13.25s WALL (      50 calls)

     Called by c_bands:
     init_us_2    :      6.94s CPU      6.98s WALL (     505 calls)
     init_us_2:cp :      6.94s CPU      6.98s WALL (     505 calls)
     cegterg      :    526.43s CPU    531.21s WALL (     250 calls)

     Called by sum_band:
     sum_band:wei :      0.35s CPU      0.35s WALL (      50 calls)
     sum_band:loo :     90.60s CPU     91.30s WALL (      50 calls)
     sum_band:buf :      1.57s CPU      1.58s WALL (     250 calls)
     sum_band:ini :      3.26s CPU      3.28s WALL (     250 calls)
     sum_band:cal :     18.82s CPU     18.88s WALL (     250 calls)
     sum_band:bec :      0.60s CPU      0.60s WALL (     250 calls)
     addusdens    :     18.66s CPU     22.32s WALL (      50 calls)
                                        0.00s GPU  (      50 calls)
     addusd:skk   :      0.35s CPU      0.69s WALL (     200 calls)
                                        0.00s GPU  (     200 calls)

     Called by *egterg:
     cdiaghg      :     56.33s CPU     56.54s WALL (    1292 calls)
     cegterg:over :     37.80s CPU     37.94s WALL (    1042 calls)
     cegterg:upda :     27.75s CPU     28.09s WALL (    1042 calls)
     cegterg:last :     58.35s CPU     58.54s WALL (     456 calls)
     cdiaghg:chol :      3.19s CPU      3.21s WALL (    1292 calls)
     cdiaghg:inve :      3.48s CPU      3.49s WALL (    1292 calls)
     cdiaghg:para :      7.22s CPU      7.25s WALL (    2584 calls)
     h_psi        :    291.71s CPU    294.53s WALL (    1297 calls)
     s_psi        :     39.15s CPU     39.26s WALL (    1297 calls)
     g_psi        :      1.12s CPU      1.12s WALL (    1042 calls)

     Called by h_psi:
     h_psi:calbec :     43.05s CPU     43.20s WALL (    1297 calls)
     vloc_psi     :    206.56s CPU    208.70s WALL (    1297 calls)
     add_vuspsi   :     38.88s CPU     39.01s WALL (    1297 calls)

     General routines
     calbec       :     61.86s CPU     62.07s WALL (    1547 calls)
     fft          :      3.93s CPU      3.98s WALL (     661 calls)
     ffts         :      4.95s CPU      4.99s WALL (    5416 calls)
     fftw         :    178.15s CPU    179.76s WALL (  334192 calls)
     interpolate  :      0.52s CPU      0.53s WALL (      51 calls)
 
     Parallel routines

     PAW routines
     PAW_pot      :      1.84s CPU      1.87s WALL (      51 calls)
 
     PWSCF        :  11m56.74s CPU  12m13.03s WALL

 
   This run was terminated on:  17:49:17  21Jun2024            

=------------------------------------------------------------------------------=
   JOB DONE.
=------------------------------------------------------------------------------=
