
     Program PWSCF v.7.2 starts on 20Jun2024 at 19:24:12 

     This program is part of the open-source Quantum ESPRESSO suite
     for quantum simulation of materials; please cite
         "P. Giannozzi et al., J. Phys.:Condens. Matter 21 395502 (2009);
         "P. Giannozzi et al., J. Phys.:Condens. Matter 29 465901 (2017);
         "P. Giannozzi et al., J. Chem. Phys. 152 154105 (2020);
          URL http://www.quantum-espresso.org", 
     in publications or presentations arising from this work. More details at
     http://www.quantum-espresso.org/quote

     Parallel version (MPI & OpenMP), running on      48 processor cores
     Number of MPI processes:                48
     Threads/MPI process:                     1

     MPI processes distributed on     1 nodes
     41856 MiB available memory on the printing compute node when the environment starts
 
     Reading input from espresso.pwi
Warning: card &CELL ignored
Warning: card / ignored
Warning: card &FCP ignored
Warning: card / ignored
Warning: card &RISM ignored
Warning: card / ignored

     Current dimensions of program PWSCF are:
     Max number of different atomic species (ntypx) = 10
     Max number of k-points (npk) =  40000
     Max angular momentum in pseudopotentials (lmaxx) =  4
     file O.pbe-n-kjpaw_psl.0.1.UPF: wavefunction(s)  2P renormalized
     signal trapping enabled: kill the code with -SIGUSR1 to stop cleanly the simulation 
 
     K-points division:     npool     =       2
     R & G space division:  proc/nbgrp/npool/nimage =      24
     Subspace diagonalization in iterative solution of the eigenvalue problem:
     one sub-group per band group will be used
     scalapack distributed-memory algorithm (size of sub-group:  3*  3 procs)

 
     Parallelization info
     --------------------
     sticks:   dense  smooth     PW     G-vecs:    dense   smooth      PW
     Min         350     175     47                61430    21716    3036
     Max         351     177     48                61449    21727    3041
     Sum        8421    4205   1137              1474595   521381   72913
 
     Using Slab Decomposition
 


     bravais-lattice index     =            0
     lattice parameter (alat)  =      14.8599  a.u.
     unit-cell volume          =    8305.1283 (a.u.)^3
     number of atoms/cell      =           51
     number of atomic types    =            4
     number of electrons       =       437.00
     number of Kohn-Sham states=          263
     kinetic-energy cutoff     =      60.0000  Ry
     charge density cutoff     =     480.0000  Ry
     scf convergence threshold =      1.0E-08
     mixing beta               =       0.1500
     number of iterations used =            8  local-TF  mixing
     Exchange-correlation= PBE
                           (   1   4   3   4   0   0   0)

     celldm(1)=  14.859904  celldm(2)=   0.000000  celldm(3)=   0.000000
     celldm(4)=   0.000000  celldm(5)=   0.000000  celldm(6)=   0.000000

     crystal axes: (cart. coord. in units of alat)
               a(1) = (   1.000000   0.000000   0.000000 )  
               a(2) = (   0.000000   1.000000   0.000000 )  
               a(3) = (   0.000000   0.000000   2.531036 )  

     reciprocal axes: (cart. coord. in units 2 pi/alat)
               b(1) = (  1.000000  0.000000  0.000000 )  
               b(2) = (  0.000000  1.000000  0.000000 )  
               b(3) = (  0.000000  0.000000  0.395095 )  


     PseudoPot. # 1 for Sr read from file:
     /bsuhome/zayahcortright/q-e/pseudo/Sr_pbe_v1.uspp.F.UPF
     MD5 check sum: 6b418c05fbe9db5448babca5e47b7a5b
     Pseudo is Ultrasoft + core correction, Zval = 10.0
     Generated by new atomic code, or converted to UPF format
     Using radial grid of  883 points,  6 beta functions with: 
                l(1) =   0
                l(2) =   0
                l(3) =   1
                l(4) =   1
                l(5) =   2
                l(6) =   2
     Q(r) pseudized with  6 coefficients,  rinner =    1.400   1.400   1.400
                                                       1.400   1.400

     PseudoPot. # 2 for O  read from file:
     /bsuhome/zayahcortright/q-e/pseudo/O.pbe-n-kjpaw_psl.0.1.UPF
     MD5 check sum: 0234752ac141de4415c5fc33072bef88
     Pseudo is Projector augmented-wave + core cor, Zval =  6.0
     Generated using "atomic" code by A. Dal Corso  v.5.0.99 svn rev. 10869
     Shape of augmentation charge: BESSEL
     Using radial grid of 1095 points,  4 beta functions with: 
                l(1) =   0
                l(2) =   0
                l(3) =   1
                l(4) =   1
     Q(r) pseudized with 0 coefficients 


     PseudoPot. # 3 for Co read from file:
     /bsuhome/zayahcortright/q-e/pseudo/Co_pbe_v1.2.uspp.F.UPF
     MD5 check sum: 5f91765df6ddd3222702df6e7b74a16d
     Pseudo is Ultrasoft + core correction, Zval = 17.0
     Generated by new atomic code, or converted to UPF format
     Using radial grid of  863 points,  6 beta functions with: 
                l(1) =   0
                l(2) =   0
                l(3) =   1
                l(4) =   1
                l(5) =   2
                l(6) =   2
     Q(r) pseudized with  8 coefficients,  rinner =    1.200   1.200   1.200
                                                       1.200   1.200

     PseudoPot. # 4 for H  read from file:
     /bsuhome/zayahcortright/q-e/pseudo/H.pbe-rrkjus_psl.1.0.0.UPF
     MD5 check sum: f52b6d4d1c606e5624b1dc7b2218f220
     Pseudo is Ultrasoft, Zval =  1.0
     Generated using "atomic" code by A. Dal Corso  v.5.1
     Using radial grid of  929 points,  2 beta functions with: 
                l(1) =   0
                l(2) =   0
     Q(r) pseudized with 0 coefficients 


     atomic species   valence    mass     pseudopotential
        Sr            10.00    87.62000     Sr( 1.00)
        O              6.00    15.99900     O ( 1.00)
        Co            17.00    58.93319     Co( 1.00)
        H              1.00     1.00800     H ( 1.00)

     No symmetry found


                                    s                        frac. trans.

      isym =  1     identity                                     

 cryst.   s( 1) = (     1          0          0      )
                  (     0          1          0      )
                  (     0          0          1      )

 cart.    s( 1) = (  1.0000000  0.0000000  0.0000000 )
                  (  0.0000000  1.0000000  0.0000000 )
                  (  0.0000000  0.0000000  1.0000000 )


   Cartesian axes

     site n.     atom                  positions (alat units)
         1           Sr  tau(   1) = (   0.2508693   0.7491307   1.7574407  )
         2           O   tau(   2) = (   0.4985141   0.5014859   1.7715967  )
         3           Sr  tau(   3) = (   0.7482398   0.7454518   1.7648669  )
         4           Sr  tau(   4) = (   0.7441748   0.2558252   1.7667843  )
         5           Sr  tau(   5) = (   0.2508693   0.7491307   1.2696799  )
         6           Sr  tau(   6) = (   0.2508693   0.7491307   0.7632319  )
         7           Co  tau(   7) = (   0.4998914   0.5001086   1.0164559  )
         8           Co  tau(   8) = (   0.4936915   0.5063085   1.5135603  )
         9           O   tau(   9) = (   0.4988895   0.7610401   1.0164559  )
        10           O   tau(  10) = (   0.2389599   0.5011105   1.0164559  )
        11           O   tau(  11) = (   0.0070918   0.7374880   1.0164559  )
        12           O   tau(  12) = (   0.0088340   0.7405089   1.5135603  )
        13           O   tau(  13) = (   0.5066944   0.7415376   1.5135603  )
        14           O   tau(  14) = (   0.2584624   0.4933056   1.5135603  )
        15           O   tau(  15) = (   0.4985141   0.5014859   0.7773880  )
        16           O   tau(  16) = (   0.4985141   0.5014859   1.2555238  )
        17           Sr  tau(  17) = (   0.7482398   0.7454518   0.7706582  )
        18           Sr  tau(  18) = (   0.7482398   0.7454518   1.2622536  )
        19           Sr  tau(  19) = (   0.7441748   0.2558252   0.7725755  )
        20           Sr  tau(  20) = (   0.7441748   0.2558252   1.2603363  )
        21           O   tau(  21) = (   0.7322655   0.0078049   1.5135603  )
        22           O   tau(  22) = (   0.7558175   0.4996027   1.5135603  )
        23           O   tau(  23) = (   0.5003973   0.2441825   1.5135603  )
        24           O   tau(  24) = (   0.7527966   0.4978604   1.0164559  )
        25           O   tau(  25) = (   0.5021396   0.2472034   1.0164559  )
        26           O   tau(  26) = (   0.7517679   0.0000000   1.0164559  )
        27           O   tau(  27) = (   0.0114961   0.4948124   1.7455321  )
        28           O   tau(  28) = (   0.0048226   0.0077944   1.7715967  )
        29           Sr  tau(  29) = (   0.2545482   0.2517602   1.7648669  )
        30           O   tau(  30) = (   0.5048017   0.0015068   1.7786929  )
        31           Co  tau(  31) = (   0.0056869   0.5006215   1.0164559  )
        32           Co  tau(  32) = (   0.0065315   0.4997770   1.5135603  )
        33           Co  tau(  33) = (   0.0061999   0.0064171   1.0164559  )
        34           Co  tau(  34) = (   0.0000000   0.0126169   1.5135603  )
        35           O   tau(  35) = (   0.0114961   0.4948124   1.2815885  )
        36           O   tau(  36) = (   0.0114961   0.4948124   0.7513233  )
        37           O   tau(  37) = (   0.0051979   0.2673486   1.0164559  )
        38           O   tau(  38) = (   0.0130029   0.2478461   1.5135603  )
        39           O   tau(  39) = (   0.0048226   0.0077944   0.7773880  )
        40           O   tau(  40) = (   0.0048226   0.0077944   1.2555238  )
        41           Sr  tau(  41) = (   0.2545482   0.2517602   0.7706582  )
        42           Sr  tau(  42) = (   0.2545482   0.2517602   1.2622536  )
        43           Co  tau(  43) = (   0.4989925   0.0073160   1.5135603  )
        44           Co  tau(  44) = (   0.4998370   0.0064714   1.0164559  )
        45           O   tau(  45) = (   0.5048017   0.0015068   0.7844841  )
        46           O   tau(  46) = (   0.5048017   0.0015068   1.2484277  )
        47           O   tau(  47) = (   0.2621260   0.0059111   1.5135603  )
        48           O   tau(  48) = (   0.2591051   0.0041689   1.0164559  )
        49           O   tau(  49) = (   0.9951520   0.1421646   2.1602013  )
        50           O   tau(  50) = (   0.9951520   0.1421646   2.3186489  )
        51           H   tau(  51) = (   0.9951520   0.1421646   2.4431567  )

   Crystallographic axes

     site n.     atom                  positions (cryst. coord.)
         1           Sr  tau(   1) = (  0.2508693  0.7491307  0.6943562  )
         2           O   tau(   2) = (  0.4985141  0.5014859  0.6999492  )
         3           Sr  tau(   3) = (  0.7482398  0.7454518  0.6972903  )
         4           Sr  tau(   4) = (  0.7441748  0.2558252  0.6980478  )
         5           Sr  tau(   5) = (  0.2508693  0.7491307  0.5016443  )
         6           Sr  tau(   6) = (  0.2508693  0.7491307  0.3015492  )
         7           Co  tau(   7) = (  0.4998914  0.5001086  0.4015968  )
         8           Co  tau(   8) = (  0.4936915  0.5063085  0.5980003  )
         9           O   tau(   9) = (  0.4988895  0.7610401  0.4015968  )
        10           O   tau(  10) = (  0.2389599  0.5011105  0.4015968  )
        11           O   tau(  11) = (  0.0070918  0.7374880  0.4015968  )
        12           O   tau(  12) = (  0.0088340  0.7405089  0.5980003  )
        13           O   tau(  13) = (  0.5066944  0.7415376  0.5980003  )
        14           O   tau(  14) = (  0.2584624  0.4933056  0.5980003  )
        15           O   tau(  15) = (  0.4985141  0.5014859  0.3071422  )
        16           O   tau(  16) = (  0.4985141  0.5014859  0.4960513  )
        17           Sr  tau(  17) = (  0.7482398  0.7454518  0.3044833  )
        18           Sr  tau(  18) = (  0.7482398  0.7454518  0.4987103  )
        19           Sr  tau(  19) = (  0.7441748  0.2558252  0.3052408  )
        20           Sr  tau(  20) = (  0.7441748  0.2558252  0.4979527  )
        21           O   tau(  21) = (  0.7322655  0.0078049  0.5980003  )
        22           O   tau(  22) = (  0.7558175  0.4996027  0.5980003  )
        23           O   tau(  23) = (  0.5003973  0.2441825  0.5980003  )
        24           O   tau(  24) = (  0.7527966  0.4978604  0.4015968  )
        25           O   tau(  25) = (  0.5021396  0.2472034  0.4015968  )
        26           O   tau(  26) = (  0.7517679  0.0000000  0.4015968  )
        27           O   tau(  27) = (  0.0114961  0.4948124  0.6896512  )
        28           O   tau(  28) = (  0.0048226  0.0077944  0.6999492  )
        29           Sr  tau(  29) = (  0.2545482  0.2517602  0.6972903  )
        30           O   tau(  30) = (  0.5048017  0.0015068  0.7027529  )
        31           Co  tau(  31) = (  0.0056869  0.5006215  0.4015968  )
        32           Co  tau(  32) = (  0.0065315  0.4997770  0.5980003  )
        33           Co  tau(  33) = (  0.0061999  0.0064171  0.4015968  )
        34           Co  tau(  34) = (  0.0000000  0.0126169  0.5980003  )
        35           O   tau(  35) = (  0.0114961  0.4948124  0.5063494  )
        36           O   tau(  36) = (  0.0114961  0.4948124  0.2968442  )
        37           O   tau(  37) = (  0.0051979  0.2673486  0.4015968  )
        38           O   tau(  38) = (  0.0130029  0.2478461  0.5980003  )
        39           O   tau(  39) = (  0.0048226  0.0077944  0.3071422  )
        40           O   tau(  40) = (  0.0048226  0.0077944  0.4960513  )
        41           Sr  tau(  41) = (  0.2545482  0.2517602  0.3044833  )
        42           Sr  tau(  42) = (  0.2545482  0.2517602  0.4987103  )
        43           Co  tau(  43) = (  0.4989925  0.0073160  0.5980003  )
        44           Co  tau(  44) = (  0.4998370  0.0064714  0.4015968  )
        45           O   tau(  45) = (  0.5048017  0.0015068  0.3099459  )
        46           O   tau(  46) = (  0.5048017  0.0015068  0.4932477  )
        47           O   tau(  47) = (  0.2621260  0.0059111  0.5980003  )
        48           O   tau(  48) = (  0.2591051  0.0041689  0.4015968  )
        49           O   tau(  49) = (  0.9951520  0.1421646  0.8534850  )
        50           O   tau(  50) = (  0.9951520  0.1421646  0.9160869  )
        51           H   tau(  51) = (  0.9951520  0.1421646  0.9652793  )

     number of k points=    10  Gaussian smearing, width (Ry)=  0.0700
                       cart. coord. in units 2pi/alat
        k(    1) = (   0.0000000   0.0000000   0.0000000), wk =   0.1250000
        k(    2) = (   0.0000000   0.2500000   0.0000000), wk =   0.2500000
        k(    3) = (   0.0000000  -0.5000000   0.0000000), wk =   0.1250000
        k(    4) = (   0.2500000   0.2500000   0.0000000), wk =   0.2500000
        k(    5) = (   0.2500000  -0.5000000   0.0000000), wk =   0.2500000
        k(    6) = (  -0.5000000  -0.5000000   0.0000000), wk =   0.1250000
        k(    7) = (   0.2500000   0.0000000   0.0000000), wk =   0.2500000
        k(    8) = (  -0.5000000   0.0000000   0.0000000), wk =   0.1250000
        k(    9) = (  -0.2500000   0.2500000   0.0000000), wk =   0.2500000
        k(   10) = (  -0.5000000   0.2500000   0.0000000), wk =   0.2500000

                       cryst. coord.
        k(    1) = (   0.0000000   0.0000000   0.0000000), wk =   0.1250000
        k(    2) = (   0.0000000   0.2500000   0.0000000), wk =   0.2500000
        k(    3) = (   0.0000000  -0.5000000   0.0000000), wk =   0.1250000
        k(    4) = (   0.2500000   0.2500000   0.0000000), wk =   0.2500000
        k(    5) = (   0.2500000  -0.5000000   0.0000000), wk =   0.2500000
        k(    6) = (  -0.5000000  -0.5000000   0.0000000), wk =   0.1250000
        k(    7) = (   0.2500000   0.0000000   0.0000000), wk =   0.2500000
        k(    8) = (  -0.5000000   0.0000000   0.0000000), wk =   0.1250000
        k(    9) = (  -0.2500000   0.2500000   0.0000000), wk =   0.2500000
        k(   10) = (  -0.5000000   0.2500000   0.0000000), wk =   0.2500000

     Dense  grid:  1474595 G-vectors     FFT dimensions: ( 108, 108, 270)

     Smooth grid:   521381 G-vectors     FFT dimensions: (  75,  75, 192)

     Dynamical RAM for                 wfc:      10.90 MB

     Dynamical RAM for     wfc (w. buffer):      65.37 MB

     Dynamical RAM for           str. fact:       3.75 MB

     Dynamical RAM for           local pot:       0.00 MB

     Dynamical RAM for          nlocal pot:      24.94 MB

     Dynamical RAM for                qrad:       7.03 MB

     Dynamical RAM for          rho,v,vnew:       6.02 MB

     Dynamical RAM for               rhoin:       2.01 MB

     Dynamical RAM for            rho*nmix:      15.00 MB

     Dynamical RAM for           G-vectors:       3.68 MB

     Dynamical RAM for          h,s,v(r/c):       1.40 MB

     Dynamical RAM for          <psi|beta>:       2.42 MB

     Dynamical RAM for                 psi:      21.79 MB

     Dynamical RAM for                hpsi:      21.79 MB

     Dynamical RAM for                spsi:      21.79 MB

     Dynamical RAM for      wfcinit/wfcrot:      34.89 MB

     Dynamical RAM for           addusdens:     101.73 MB

     Estimated static dynamical RAM per process >     122.82 MB

     Estimated max dynamical RAM per process >     239.55 MB

     Estimated total dynamical RAM >      10.88 GB

     Check: negative core charge=   -0.000004

     Initial potential from superposition of free atoms

     starting charge     428.5961, renormalised to     437.0000

     negative rho (up, down):  7.813E-01 0.000E+00
     Starting wfcs are  381 randomized atomic wfcs
     Checking if some PAW data can be deallocated... 
       PAW data deallocated on   18 nodes for type:  2

     total cpu time spent up to now is       10.0 secs

     Self-consistent Calculation

     iteration #  1     ecut=    60.00 Ry     beta= 0.15
     Davidson diagonalization with overlap

---- Real-time Memory Report at c_bands before calling an iterative solver
             0 MiB given to the printing process from OS
             0 MiB allocation reported by mallinfo(arena+hblkhd)
         32066 MiB available memory on the node where the printing process lives
------------------
     ethr =  1.00E-02,  avg # of iterations =  2.0

     negative rho (up, down):  7.713E-01 0.000E+00

     total cpu time spent up to now is       25.7 secs

     total energy              =   -4489.24669322 Ry
     estimated scf accuracy    <      49.74403398 Ry

     iteration #  2     ecut=    60.00 Ry     beta= 0.15
     Davidson diagonalization with overlap

---- Real-time Memory Report at c_bands before calling an iterative solver
             0 MiB given to the printing process from OS
             0 MiB allocation reported by mallinfo(arena+hblkhd)
         32401 MiB available memory on the node where the printing process lives
------------------
     ethr =  1.00E-02,  avg # of iterations =  1.0

     negative rho (up, down):  7.612E-01 0.000E+00

     total cpu time spent up to now is       38.6 secs

     total energy              =   -4486.80364482 Ry
     estimated scf accuracy    <      35.17878686 Ry

     iteration #  3     ecut=    60.00 Ry     beta= 0.15
     Davidson diagonalization with overlap

---- Real-time Memory Report at c_bands before calling an iterative solver
             0 MiB given to the printing process from OS
             0 MiB allocation reported by mallinfo(arena+hblkhd)
         31691 MiB available memory on the node where the printing process lives
------------------
     ethr =  8.05E-03,  avg # of iterations =  1.0

     negative rho (up, down):  7.562E-01 0.000E+00

     total cpu time spent up to now is       51.5 secs

     total energy              =   -4486.76262564 Ry
     estimated scf accuracy    <      35.28328454 Ry

     iteration #  4     ecut=    60.00 Ry     beta= 0.15
     Davidson diagonalization with overlap

---- Real-time Memory Report at c_bands before calling an iterative solver
             0 MiB given to the printing process from OS
             0 MiB allocation reported by mallinfo(arena+hblkhd)
         31622 MiB available memory on the node where the printing process lives
------------------
     ethr =  8.05E-03,  avg # of iterations =  1.0

     negative rho (up, down):  7.574E-01 0.000E+00

     total cpu time spent up to now is       64.4 secs

     total energy              =   -4486.60825245 Ry
     estimated scf accuracy    <      34.20590906 Ry

     iteration #  5     ecut=    60.00 Ry     beta= 0.15
     Davidson diagonalization with overlap

---- Real-time Memory Report at c_bands before calling an iterative solver
             0 MiB given to the printing process from OS
             0 MiB allocation reported by mallinfo(arena+hblkhd)
         31608 MiB available memory on the node where the printing process lives
------------------
     ethr =  7.83E-03,  avg # of iterations =  1.0

     negative rho (up, down):  7.340E-01 0.000E+00

     total cpu time spent up to now is       77.3 secs

     total energy              =   -4482.65437700 Ry
     estimated scf accuracy    <      22.87644626 Ry

     iteration #  6     ecut=    60.00 Ry     beta= 0.15
     Davidson diagonalization with overlap

---- Real-time Memory Report at c_bands before calling an iterative solver
             0 MiB given to the printing process from OS
             0 MiB allocation reported by mallinfo(arena+hblkhd)
         31591 MiB available memory on the node where the printing process lives
------------------
     ethr =  5.23E-03,  avg # of iterations =  2.0

     negative rho (up, down):  7.485E-01 0.000E+00

     total cpu time spent up to now is       92.4 secs

     total energy              =   -4483.74269180 Ry
     estimated scf accuracy    <      36.37517914 Ry

     iteration #  7     ecut=    60.00 Ry     beta= 0.15
     Davidson diagonalization with overlap

---- Real-time Memory Report at c_bands before calling an iterative solver
             0 MiB given to the printing process from OS
             0 MiB allocation reported by mallinfo(arena+hblkhd)
         31581 MiB available memory on the node where the printing process lives
------------------
     ethr =  5.23E-03,  avg # of iterations =  1.0

     negative rho (up, down):  7.534E-01 0.000E+00

     total cpu time spent up to now is      105.5 secs

     total energy              =   -4483.65402056 Ry
     estimated scf accuracy    <      36.50913557 Ry

     iteration #  8     ecut=    60.00 Ry     beta= 0.15
     Davidson diagonalization with overlap

---- Real-time Memory Report at c_bands before calling an iterative solver
             0 MiB given to the printing process from OS
             0 MiB allocation reported by mallinfo(arena+hblkhd)
         31557 MiB available memory on the node where the printing process lives
------------------
     ethr =  5.23E-03,  avg # of iterations =  1.0

     negative rho (up, down):  7.510E-01 0.000E+00

     total cpu time spent up to now is      118.8 secs

     total energy              =   -4483.79947004 Ry
     estimated scf accuracy    <       5.95447226 Ry

     iteration #  9     ecut=    60.00 Ry     beta= 0.15
     Davidson diagonalization with overlap

---- Real-time Memory Report at c_bands before calling an iterative solver
             0 MiB given to the printing process from OS
             0 MiB allocation reported by mallinfo(arena+hblkhd)
         31531 MiB available memory on the node where the printing process lives
------------------
     ethr =  1.36E-03,  avg # of iterations =  4.1

     negative rho (up, down):  7.654E-01 0.000E+00

     total cpu time spent up to now is      136.1 secs

     total energy              =   -4483.72163845 Ry
     estimated scf accuracy    <       3.57267081 Ry

     iteration # 10     ecut=    60.00 Ry     beta= 0.15
     Davidson diagonalization with overlap

---- Real-time Memory Report at c_bands before calling an iterative solver
             0 MiB given to the printing process from OS
             0 MiB allocation reported by mallinfo(arena+hblkhd)
         31505 MiB available memory on the node where the printing process lives
------------------
     ethr =  8.18E-04,  avg # of iterations = 10.7

     negative rho (up, down):  7.868E-01 0.000E+00

     total cpu time spent up to now is      155.5 secs

     total energy              =   -4483.52895789 Ry
     estimated scf accuracy    <       4.52774116 Ry

     iteration # 11     ecut=    60.00 Ry     beta= 0.15
     Davidson diagonalization with overlap

---- Real-time Memory Report at c_bands before calling an iterative solver
             0 MiB given to the printing process from OS
             0 MiB allocation reported by mallinfo(arena+hblkhd)
         31146 MiB available memory on the node where the printing process lives
------------------
     ethr =  8.18E-04,  avg # of iterations =  5.8

     negative rho (up, down):  7.898E-01 0.000E+00

     total cpu time spent up to now is      171.9 secs

     total energy              =   -4483.22054303 Ry
     estimated scf accuracy    <       4.41502495 Ry

     iteration # 12     ecut=    60.00 Ry     beta= 0.15
     Davidson diagonalization with overlap

---- Real-time Memory Report at c_bands before calling an iterative solver
             0 MiB given to the printing process from OS
             0 MiB allocation reported by mallinfo(arena+hblkhd)
         31101 MiB available memory on the node where the printing process lives
------------------
     ethr =  8.18E-04,  avg # of iterations =  7.9

     negative rho (up, down):  8.012E-01 0.000E+00

     total cpu time spent up to now is      189.3 secs

     total energy              =   -4483.20634917 Ry
     estimated scf accuracy    <       2.13991673 Ry

     iteration # 13     ecut=    60.00 Ry     beta= 0.15
     Davidson diagonalization with overlap

---- Real-time Memory Report at c_bands before calling an iterative solver
             0 MiB given to the printing process from OS
             0 MiB allocation reported by mallinfo(arena+hblkhd)
         31094 MiB available memory on the node where the printing process lives
------------------
     ethr =  4.90E-04,  avg # of iterations =  3.1

     negative rho (up, down):  8.018E-01 0.000E+00

     total cpu time spent up to now is      204.1 secs

     total energy              =   -4483.25986638 Ry
     estimated scf accuracy    <       1.18478832 Ry

     iteration # 14     ecut=    60.00 Ry     beta= 0.15
     Davidson diagonalization with overlap

---- Real-time Memory Report at c_bands before calling an iterative solver
             0 MiB given to the printing process from OS
             0 MiB allocation reported by mallinfo(arena+hblkhd)
         31111 MiB available memory on the node where the printing process lives
------------------
     ethr =  2.71E-04,  avg # of iterations =  7.7

     negative rho (up, down):  8.141E-01 0.000E+00

     total cpu time spent up to now is      221.5 secs

     total energy              =   -4483.11523771 Ry
     estimated scf accuracy    <       0.76395183 Ry

     iteration # 15     ecut=    60.00 Ry     beta= 0.15
     Davidson diagonalization with overlap

---- Real-time Memory Report at c_bands before calling an iterative solver
             0 MiB given to the printing process from OS
             0 MiB allocation reported by mallinfo(arena+hblkhd)
         31044 MiB available memory on the node where the printing process lives
------------------
     ethr =  1.75E-04,  avg # of iterations =  7.0

     negative rho (up, down):  8.175E-01 0.000E+00

     total cpu time spent up to now is      239.3 secs

     total energy              =   -4483.14220034 Ry
     estimated scf accuracy    <       3.36990947 Ry

     iteration # 16     ecut=    60.00 Ry     beta= 0.15
     Davidson diagonalization with overlap

---- Real-time Memory Report at c_bands before calling an iterative solver
             0 MiB given to the printing process from OS
             0 MiB allocation reported by mallinfo(arena+hblkhd)
         31041 MiB available memory on the node where the printing process lives
------------------
     ethr =  1.75E-04,  avg # of iterations =  4.0

     negative rho (up, down):  8.136E-01 0.000E+00

     total cpu time spent up to now is      254.7 secs

     total energy              =   -4483.10874392 Ry
     estimated scf accuracy    <       1.41105827 Ry

     iteration # 17     ecut=    60.00 Ry     beta= 0.15
     Davidson diagonalization with overlap

---- Real-time Memory Report at c_bands before calling an iterative solver
             0 MiB given to the printing process from OS
             0 MiB allocation reported by mallinfo(arena+hblkhd)
         31088 MiB available memory on the node where the printing process lives
------------------
     ethr =  1.75E-04,  avg # of iterations =  1.6

     negative rho (up, down):  8.187E-01 0.000E+00

     total cpu time spent up to now is      268.4 secs

     total energy              =   -4483.05439807 Ry
     estimated scf accuracy    <       0.42559818 Ry

     iteration # 18     ecut=    60.00 Ry     beta= 0.15
     Davidson diagonalization with overlap

---- Real-time Memory Report at c_bands before calling an iterative solver
             0 MiB given to the printing process from OS
             0 MiB allocation reported by mallinfo(arena+hblkhd)
         31072 MiB available memory on the node where the printing process lives
------------------
     ethr =  9.74E-05,  avg # of iterations =  9.6

     negative rho (up, down):  8.201E-01 0.000E+00

     total cpu time spent up to now is      286.5 secs

     total energy              =   -4483.03873041 Ry
     estimated scf accuracy    <       1.36515778 Ry

     iteration # 19     ecut=    60.00 Ry     beta= 0.15
     Davidson diagonalization with overlap

---- Real-time Memory Report at c_bands before calling an iterative solver
             0 MiB given to the printing process from OS
             0 MiB allocation reported by mallinfo(arena+hblkhd)
         31063 MiB available memory on the node where the printing process lives
------------------
     c_bands:  1 eigenvalues not converged
     ethr =  9.74E-05,  avg # of iterations =  9.1

     negative rho (up, down):  8.256E-01 0.000E+00

     total cpu time spent up to now is      304.4 secs

     total energy              =   -4483.03160266 Ry
     estimated scf accuracy    <       0.54302609 Ry

     iteration # 20     ecut=    60.00 Ry     beta= 0.15
     Davidson diagonalization with overlap

---- Real-time Memory Report at c_bands before calling an iterative solver
             0 MiB given to the printing process from OS
             0 MiB allocation reported by mallinfo(arena+hblkhd)
         31046 MiB available memory on the node where the printing process lives
------------------
     ethr =  9.74E-05,  avg # of iterations =  3.0

     negative rho (up, down):  8.276E-01 0.000E+00

     total cpu time spent up to now is      319.5 secs

     total energy              =   -4482.99381435 Ry
     estimated scf accuracy    <       0.65550192 Ry

     iteration # 21     ecut=    60.00 Ry     beta= 0.15
     Davidson diagonalization with overlap

---- Real-time Memory Report at c_bands before calling an iterative solver
             0 MiB given to the printing process from OS
             0 MiB allocation reported by mallinfo(arena+hblkhd)
         31058 MiB available memory on the node where the printing process lives
------------------
     ethr =  9.74E-05,  avg # of iterations =  7.7

     negative rho (up, down):  8.401E-01 0.000E+00

     total cpu time spent up to now is      336.8 secs

     total energy              =   -4482.97827390 Ry
     estimated scf accuracy    <       0.23137591 Ry

     iteration # 22     ecut=    60.00 Ry     beta= 0.15
     Davidson diagonalization with overlap

---- Real-time Memory Report at c_bands before calling an iterative solver
             0 MiB given to the printing process from OS
             0 MiB allocation reported by mallinfo(arena+hblkhd)
         31044 MiB available memory on the node where the printing process lives
------------------
     ethr =  5.29E-05,  avg # of iterations = 10.0

     negative rho (up, down):  8.438E-01 0.000E+00

     total cpu time spent up to now is      355.6 secs

     total energy              =   -4482.97877101 Ry
     estimated scf accuracy    <       0.05270376 Ry

     iteration # 23     ecut=    60.00 Ry     beta= 0.15
     Davidson diagonalization with overlap

---- Real-time Memory Report at c_bands before calling an iterative solver
             0 MiB given to the printing process from OS
             0 MiB allocation reported by mallinfo(arena+hblkhd)
         30939 MiB available memory on the node where the printing process lives
------------------
     ethr =  1.21E-05,  avg # of iterations =  9.0

     negative rho (up, down):  8.300E-01 0.000E+00

     total cpu time spent up to now is      374.7 secs

     total energy              =   -4482.97418181 Ry
     estimated scf accuracy    <       0.03212426 Ry

     iteration # 24     ecut=    60.00 Ry     beta= 0.15
     Davidson diagonalization with overlap

---- Real-time Memory Report at c_bands before calling an iterative solver
             0 MiB given to the printing process from OS
             0 MiB allocation reported by mallinfo(arena+hblkhd)
         30963 MiB available memory on the node where the printing process lives
------------------
     c_bands:  1 eigenvalues not converged
     ethr =  7.35E-06,  avg # of iterations = 10.1

     negative rho (up, down):  8.225E-01 0.000E+00

     total cpu time spent up to now is      394.4 secs

     total energy              =   -4482.97356411 Ry
     estimated scf accuracy    <       0.01707746 Ry

     iteration # 25     ecut=    60.00 Ry     beta= 0.15
     Davidson diagonalization with overlap

---- Real-time Memory Report at c_bands before calling an iterative solver
             0 MiB given to the printing process from OS
             0 MiB allocation reported by mallinfo(arena+hblkhd)
         30908 MiB available memory on the node where the printing process lives
------------------
     ethr =  3.91E-06,  avg # of iterations = 10.1

     negative rho (up, down):  8.208E-01 0.000E+00

     total cpu time spent up to now is      414.2 secs

     total energy              =   -4482.97258539 Ry
     estimated scf accuracy    <       0.01061524 Ry

     iteration # 26     ecut=    60.00 Ry     beta= 0.15
     Davidson diagonalization with overlap

---- Real-time Memory Report at c_bands before calling an iterative solver
             0 MiB given to the printing process from OS
             0 MiB allocation reported by mallinfo(arena+hblkhd)
         30891 MiB available memory on the node where the printing process lives
------------------
     ethr =  2.43E-06,  avg # of iterations = 10.7

     negative rho (up, down):  7.947E-01 0.000E+00

     total cpu time spent up to now is      434.7 secs

     total energy              =   -4482.97111848 Ry
     estimated scf accuracy    <       0.00622727 Ry

     iteration # 27     ecut=    60.00 Ry     beta= 0.15
     Davidson diagonalization with overlap

---- Real-time Memory Report at c_bands before calling an iterative solver
             0 MiB given to the printing process from OS
             0 MiB allocation reported by mallinfo(arena+hblkhd)
         30832 MiB available memory on the node where the printing process lives
------------------
     ethr =  1.43E-06,  avg # of iterations =  9.5

     negative rho (up, down):  7.970E-01 0.000E+00

     total cpu time spent up to now is      454.4 secs

     total energy              =   -4482.97128178 Ry
     estimated scf accuracy    <       0.00247354 Ry

     iteration # 28     ecut=    60.00 Ry     beta= 0.15
     Davidson diagonalization with overlap

---- Real-time Memory Report at c_bands before calling an iterative solver
             0 MiB given to the printing process from OS
             0 MiB allocation reported by mallinfo(arena+hblkhd)
         30787 MiB available memory on the node where the printing process lives
------------------
     ethr =  5.66E-07,  avg # of iterations =  5.8

     negative rho (up, down):  7.942E-01 0.000E+00

     total cpu time spent up to now is      471.2 secs

     total energy              =   -4482.97118298 Ry
     estimated scf accuracy    <       0.00125134 Ry

     iteration # 29     ecut=    60.00 Ry     beta= 0.15
     Davidson diagonalization with overlap

---- Real-time Memory Report at c_bands before calling an iterative solver
             0 MiB given to the printing process from OS
             0 MiB allocation reported by mallinfo(arena+hblkhd)
         30766 MiB available memory on the node where the printing process lives
------------------
     ethr =  2.86E-07,  avg # of iterations =  5.6

     negative rho (up, down):  7.937E-01 0.000E+00

     total cpu time spent up to now is      487.8 secs

     total energy              =   -4482.97123844 Ry
     estimated scf accuracy    <       0.00048335 Ry

     iteration # 30     ecut=    60.00 Ry     beta= 0.15
     Davidson diagonalization with overlap

---- Real-time Memory Report at c_bands before calling an iterative solver
             0 MiB given to the printing process from OS
             0 MiB allocation reported by mallinfo(arena+hblkhd)
         30779 MiB available memory on the node where the printing process lives
------------------
     ethr =  1.11E-07,  avg # of iterations =  3.4

     negative rho (up, down):  7.932E-01 0.000E+00

     total cpu time spent up to now is      503.3 secs

     total energy              =   -4482.97123906 Ry
     estimated scf accuracy    <       0.00022102 Ry

     iteration # 31     ecut=    60.00 Ry     beta= 0.15
     Davidson diagonalization with overlap

---- Real-time Memory Report at c_bands before calling an iterative solver
             0 MiB given to the printing process from OS
             0 MiB allocation reported by mallinfo(arena+hblkhd)
         30785 MiB available memory on the node where the printing process lives
------------------
     ethr =  5.06E-08,  avg # of iterations =  2.1

     negative rho (up, down):  7.929E-01 0.000E+00

     total cpu time spent up to now is      517.8 secs

     total energy              =   -4482.97121898 Ry
     estimated scf accuracy    <       0.00018080 Ry

     iteration # 32     ecut=    60.00 Ry     beta= 0.15
     Davidson diagonalization with overlap

---- Real-time Memory Report at c_bands before calling an iterative solver
             0 MiB given to the printing process from OS
             0 MiB allocation reported by mallinfo(arena+hblkhd)
         30824 MiB available memory on the node where the printing process lives
------------------
     ethr =  4.14E-08,  avg # of iterations =  2.5

     negative rho (up, down):  7.924E-01 0.000E+00

     total cpu time spent up to now is      532.4 secs

     total energy              =   -4482.97119682 Ry
     estimated scf accuracy    <       0.00011620 Ry

     iteration # 33     ecut=    60.00 Ry     beta= 0.15
     Davidson diagonalization with overlap

---- Real-time Memory Report at c_bands before calling an iterative solver
             0 MiB given to the printing process from OS
             0 MiB allocation reported by mallinfo(arena+hblkhd)
         30827 MiB available memory on the node where the printing process lives
------------------
     ethr =  2.66E-08,  avg # of iterations =  4.8

     negative rho (up, down):  7.922E-01 0.000E+00

     total cpu time spent up to now is      548.4 secs

     total energy              =   -4482.97120358 Ry
     estimated scf accuracy    <       0.00006076 Ry

     iteration # 34     ecut=    60.00 Ry     beta= 0.15
     Davidson diagonalization with overlap

---- Real-time Memory Report at c_bands before calling an iterative solver
             0 MiB given to the printing process from OS
             0 MiB allocation reported by mallinfo(arena+hblkhd)
         30852 MiB available memory on the node where the printing process lives
------------------
     ethr =  1.39E-08,  avg # of iterations =  2.6

     negative rho (up, down):  7.921E-01 0.000E+00

     total cpu time spent up to now is      563.1 secs

     total energy              =   -4482.97121000 Ry
     estimated scf accuracy    <       0.00003623 Ry

     iteration # 35     ecut=    60.00 Ry     beta= 0.15
     Davidson diagonalization with overlap

---- Real-time Memory Report at c_bands before calling an iterative solver
             0 MiB given to the printing process from OS
             0 MiB allocation reported by mallinfo(arena+hblkhd)
         30865 MiB available memory on the node where the printing process lives
------------------
     ethr =  8.29E-09,  avg # of iterations =  2.6

     negative rho (up, down):  7.921E-01 0.000E+00

     total cpu time spent up to now is      578.0 secs

     total energy              =   -4482.97121774 Ry
     estimated scf accuracy    <       0.00002480 Ry

     iteration # 36     ecut=    60.00 Ry     beta= 0.15
     Davidson diagonalization with overlap

---- Real-time Memory Report at c_bands before calling an iterative solver
             0 MiB given to the printing process from OS
             0 MiB allocation reported by mallinfo(arena+hblkhd)
         30866 MiB available memory on the node where the printing process lives
------------------
     ethr =  5.67E-09,  avg # of iterations =  2.4

     negative rho (up, down):  7.922E-01 0.000E+00

     total cpu time spent up to now is      592.8 secs

     total energy              =   -4482.97122720 Ry
     estimated scf accuracy    <       0.00001842 Ry

     iteration # 37     ecut=    60.00 Ry     beta= 0.15
     Davidson diagonalization with overlap

---- Real-time Memory Report at c_bands before calling an iterative solver
             0 MiB given to the printing process from OS
             0 MiB allocation reported by mallinfo(arena+hblkhd)
         30857 MiB available memory on the node where the printing process lives
------------------
     ethr =  4.21E-09,  avg # of iterations =  3.7

     negative rho (up, down):  7.924E-01 0.000E+00

     total cpu time spent up to now is      608.6 secs

     total energy              =   -4482.97123018 Ry
     estimated scf accuracy    <       0.00001149 Ry

     iteration # 38     ecut=    60.00 Ry     beta= 0.15
     Davidson diagonalization with overlap

---- Real-time Memory Report at c_bands before calling an iterative solver
             0 MiB given to the printing process from OS
             0 MiB allocation reported by mallinfo(arena+hblkhd)
         30889 MiB available memory on the node where the printing process lives
------------------
     ethr =  2.63E-09,  avg # of iterations =  4.5

     negative rho (up, down):  7.925E-01 0.000E+00

     total cpu time spent up to now is      624.3 secs

     total energy              =   -4482.97122976 Ry
     estimated scf accuracy    <       0.00000586 Ry

     iteration # 39     ecut=    60.00 Ry     beta= 0.15
     Davidson diagonalization with overlap

---- Real-time Memory Report at c_bands before calling an iterative solver
             0 MiB given to the printing process from OS
             0 MiB allocation reported by mallinfo(arena+hblkhd)
         30896 MiB available memory on the node where the printing process lives
------------------
     ethr =  1.34E-09,  avg # of iterations =  3.8

     negative rho (up, down):  7.925E-01 0.000E+00

     total cpu time spent up to now is      639.7 secs

     total energy              =   -4482.97122978 Ry
     estimated scf accuracy    <       0.00000381 Ry

     iteration # 40     ecut=    60.00 Ry     beta= 0.15
     Davidson diagonalization with overlap

---- Real-time Memory Report at c_bands before calling an iterative solver
             0 MiB given to the printing process from OS
             0 MiB allocation reported by mallinfo(arena+hblkhd)
         30896 MiB available memory on the node where the printing process lives
------------------
     ethr =  8.71E-10,  avg # of iterations =  2.8

     negative rho (up, down):  7.925E-01 0.000E+00

     total cpu time spent up to now is      654.7 secs

     total energy              =   -4482.97123032 Ry
     estimated scf accuracy    <       0.00000264 Ry

     iteration # 41     ecut=    60.00 Ry     beta= 0.15
     Davidson diagonalization with overlap

---- Real-time Memory Report at c_bands before calling an iterative solver
             0 MiB given to the printing process from OS
             0 MiB allocation reported by mallinfo(arena+hblkhd)
         30891 MiB available memory on the node where the printing process lives
------------------
     ethr =  6.03E-10,  avg # of iterations =  2.5

     negative rho (up, down):  7.924E-01 0.000E+00

     total cpu time spent up to now is      669.2 secs

     total energy              =   -4482.97123077 Ry
     estimated scf accuracy    <       0.00000222 Ry

     iteration # 42     ecut=    60.00 Ry     beta= 0.15
     Davidson diagonalization with overlap

---- Real-time Memory Report at c_bands before calling an iterative solver
             0 MiB given to the printing process from OS
             0 MiB allocation reported by mallinfo(arena+hblkhd)
         30888 MiB available memory on the node where the printing process lives
------------------
     ethr =  5.07E-10,  avg # of iterations =  3.6

     negative rho (up, down):  7.924E-01 0.000E+00

     total cpu time spent up to now is      684.5 secs

     total energy              =   -4482.97123093 Ry
     estimated scf accuracy    <       0.00000140 Ry

     iteration # 43     ecut=    60.00 Ry     beta= 0.15
     Davidson diagonalization with overlap

---- Real-time Memory Report at c_bands before calling an iterative solver
             0 MiB given to the printing process from OS
             0 MiB allocation reported by mallinfo(arena+hblkhd)
         30879 MiB available memory on the node where the printing process lives
------------------
     ethr =  3.20E-10,  avg # of iterations =  3.4

     negative rho (up, down):  7.924E-01 0.000E+00

     total cpu time spent up to now is      699.6 secs

     total energy              =   -4482.97123091 Ry
     estimated scf accuracy    <       0.00000079 Ry

     iteration # 44     ecut=    60.00 Ry     beta= 0.15
     Davidson diagonalization with overlap

---- Real-time Memory Report at c_bands before calling an iterative solver
             0 MiB given to the printing process from OS
             0 MiB allocation reported by mallinfo(arena+hblkhd)
         30879 MiB available memory on the node where the printing process lives
------------------
     ethr =  1.81E-10,  avg # of iterations =  4.1

     negative rho (up, down):  7.923E-01 0.000E+00

     total cpu time spent up to now is      715.3 secs

     total energy              =   -4482.97123078 Ry
     estimated scf accuracy    <       0.00000045 Ry

     iteration # 45     ecut=    60.00 Ry     beta= 0.15
     Davidson diagonalization with overlap

---- Real-time Memory Report at c_bands before calling an iterative solver
             0 MiB given to the printing process from OS
             0 MiB allocation reported by mallinfo(arena+hblkhd)
         30876 MiB available memory on the node where the printing process lives
------------------
     ethr =  1.04E-10,  avg # of iterations =  4.2

     negative rho (up, down):  7.923E-01 0.000E+00

     total cpu time spent up to now is      730.8 secs

     total energy              =   -4482.97123083 Ry
     estimated scf accuracy    <       0.00000024 Ry

     iteration # 46     ecut=    60.00 Ry     beta= 0.15
     Davidson diagonalization with overlap

---- Real-time Memory Report at c_bands before calling an iterative solver
             0 MiB given to the printing process from OS
             0 MiB allocation reported by mallinfo(arena+hblkhd)
         30872 MiB available memory on the node where the printing process lives
------------------
     ethr =  5.45E-11,  avg # of iterations =  3.9

     negative rho (up, down):  7.923E-01 0.000E+00

     total cpu time spent up to now is      746.4 secs

     total energy              =   -4482.97123089 Ry
     estimated scf accuracy    <       0.00000013 Ry

     iteration # 47     ecut=    60.00 Ry     beta= 0.15
     Davidson diagonalization with overlap

---- Real-time Memory Report at c_bands before calling an iterative solver
             0 MiB given to the printing process from OS
             0 MiB allocation reported by mallinfo(arena+hblkhd)
         30882 MiB available memory on the node where the printing process lives
------------------
     ethr =  3.04E-11,  avg # of iterations =  3.8

     negative rho (up, down):  7.923E-01 0.000E+00

     total cpu time spent up to now is      761.9 secs

     total energy              =   -4482.97123090 Ry
     estimated scf accuracy    <       0.00000006 Ry

     iteration # 48     ecut=    60.00 Ry     beta= 0.15
     Davidson diagonalization with overlap

---- Real-time Memory Report at c_bands before calling an iterative solver
             0 MiB given to the printing process from OS
             0 MiB allocation reported by mallinfo(arena+hblkhd)
         30888 MiB available memory on the node where the printing process lives
------------------
     ethr =  1.39E-11,  avg # of iterations =  4.5

     negative rho (up, down):  7.923E-01 0.000E+00

     total cpu time spent up to now is      778.1 secs

     total energy              =   -4482.97123090 Ry
     estimated scf accuracy    <       0.00000002 Ry

     iteration # 49     ecut=    60.00 Ry     beta= 0.15
     Davidson diagonalization with overlap

---- Real-time Memory Report at c_bands before calling an iterative solver
             0 MiB given to the printing process from OS
             0 MiB allocation reported by mallinfo(arena+hblkhd)
         30875 MiB available memory on the node where the printing process lives
------------------
     ethr =  4.95E-12,  avg # of iterations =  2.7

     negative rho (up, down):  7.923E-01 0.000E+00

     total cpu time spent up to now is      792.8 secs

     total energy              =   -4482.97123091 Ry
     estimated scf accuracy    <       0.00000002 Ry

     iteration # 50     ecut=    60.00 Ry     beta= 0.15
     Davidson diagonalization with overlap

---- Real-time Memory Report at c_bands before calling an iterative solver
             0 MiB given to the printing process from OS
             0 MiB allocation reported by mallinfo(arena+hblkhd)
         30939 MiB available memory on the node where the printing process lives
------------------
     ethr =  4.57E-12,  avg # of iterations =  2.0

     negative rho (up, down):  7.923E-01 0.000E+00

     total cpu time spent up to now is      807.4 secs

     total energy              =   -4482.97123091 Ry
     estimated scf accuracy    <       0.00000002 Ry

     iteration # 51     ecut=    60.00 Ry     beta= 0.15
     Davidson diagonalization with overlap

---- Real-time Memory Report at c_bands before calling an iterative solver
             0 MiB given to the printing process from OS
             0 MiB allocation reported by mallinfo(arena+hblkhd)
         30920 MiB available memory on the node where the printing process lives
------------------
     ethr =  3.50E-12,  avg # of iterations =  2.9

     negative rho (up, down):  7.923E-01 0.000E+00

     total cpu time spent up to now is      822.2 secs

     total energy              =   -4482.97123092 Ry
     estimated scf accuracy    <       0.00000001 Ry

     iteration # 52     ecut=    60.00 Ry     beta= 0.15
     Davidson diagonalization with overlap

---- Real-time Memory Report at c_bands before calling an iterative solver
             0 MiB given to the printing process from OS
             0 MiB allocation reported by mallinfo(arena+hblkhd)
         30920 MiB available memory on the node where the printing process lives
------------------
     ethr =  2.88E-12,  avg # of iterations =  4.4

     negative rho (up, down):  7.923E-01 0.000E+00

     total cpu time spent up to now is      837.6 secs

     End of self-consistent calculation

          k = 0.0000 0.0000 0.0000 ( 65197 PWs)   bands (ev):

   -92.3318 -92.2768 -92.1857 -92.1365 -92.0771 -92.0381 -92.0210 -91.8991
   -55.6849 -55.6632 -55.5436 -55.5330 -55.5253 -55.5197 -55.4820 -55.4554
   -55.4391 -55.4370 -55.4279 -55.3859 -55.3674 -55.3292 -55.3117 -55.2766
   -55.2718 -55.2272 -55.2255 -55.2239 -55.2154 -55.1737 -55.1517 -55.0657
   -30.9193 -30.9002 -30.8145 -30.7592 -30.6726 -30.6379 -30.6147 -30.4206
   -29.4836 -29.4403 -29.4140 -29.3054 -22.2491 -14.7172 -14.6811 -14.5954
   -14.4648 -14.2820 -14.1593 -13.8581 -13.8425 -13.8096 -13.7693 -13.7663
   -13.7254 -13.7152 -13.7011 -13.6860 -13.6699 -13.6299 -13.5671 -13.4193
   -13.2479 -13.2090 -13.1755 -13.1491 -13.1303 -13.0855 -13.0459 -12.9663
   -12.8936 -12.8166 -12.8019 -12.7522 -12.7414 -12.7172 -12.6991 -12.6756
   -12.6507 -12.6350 -12.6126 -12.5945 -12.5883 -12.5641 -12.5438 -12.5274
   -12.5191 -12.4787 -12.4610 -12.3653 -12.3446 -12.3299 -11.9843 -11.8396
   -11.7189 -11.6426 -11.4975 -11.4229 -11.4115 -11.3896 -11.3718 -11.3077
   -11.2903 -11.2561 -11.2270 -11.1154 -11.0349 -11.0314  -5.8342  -3.1558
    -3.1505  -2.5776  -2.3440  -2.1145  -1.9689  -1.9043  -1.7614  -1.4554
    -1.4411  -1.4198  -1.3379  -1.3196  -1.2512  -1.2359  -1.1938  -1.1476
    -0.9683  -0.7453  -0.7164  -0.5653  -0.5517  -0.5088  -0.4898  -0.4462
    -0.4314  -0.3689  -0.3427  -0.2760  -0.2630  -0.1817  -0.0564  -0.0412
    -0.0120   0.0702   0.0747   0.0867   0.1564   0.2341   0.2546   0.3270
     0.3479   0.4029   0.4920   0.5435   0.5668   0.5745   0.8262   0.8415
     1.0107   1.0822   1.1431   1.1922   1.2833   1.2953   1.3131   1.3807
     1.4093   1.4442   1.5028   1.6385   1.6891   1.7123   1.7309   1.7389
     1.8084   1.8883   1.9782   1.9947   2.0476   2.0723   2.1094   2.1340
     2.1392   2.1947   2.2481   2.2561   2.2829   2.3171   2.3867   2.5159
     2.5918   2.6441   2.6642   2.8063   2.8208   2.8682   2.8803   2.9767
     3.0199   3.0398   3.0600   3.0725   3.0744   3.0893   3.1592   3.2694
     3.3031   3.3176   3.3244   3.3904   3.3944   3.4197   3.4282   3.4360
     3.4455   3.4542   3.4666   3.4724   3.4866   3.4951   3.5022   3.5229
     3.5441   3.5496   3.5608   3.5778   3.7016   3.7542   4.4273   4.7672
     4.7926   5.1464   5.3879   5.4864   5.7051   6.2845   6.3251   6.3630
     6.6227   6.6370   6.6805   6.7302   6.9580   7.2084   7.2378   7.3813
     7.4434   7.6562   7.7859   7.9026   7.9368   7.9763   8.0491   8.0637
     8.2840   8.3557   8.3790   8.4427   8.5177   8.5490   8.6245

     occupation numbers 
     1.0000   1.0000   1.0000   1.0000   1.0000   1.0000   1.0000   1.0000
     1.0000   1.0000   1.0000   1.0000   1.0000   1.0000   1.0000   1.0000
     1.0000   1.0000   1.0000   1.0000   1.0000   1.0000   1.0000   1.0000
     1.0000   1.0000   1.0000   1.0000   1.0000   1.0000   1.0000   1.0000
     1.0000   1.0000   1.0000   1.0000   1.0000   1.0000   1.0000   1.0000
     1.0000   1.0000   1.0000   1.0000   1.0000   1.0000   1.0000   1.0000
     1.0000   1.0000   1.0000   1.0000   1.0000   1.0000   1.0000   1.0000
     1.0000   1.0000   1.0000   1.0000   1.0000   1.0000   1.0000   1.0000
     1.0000   1.0000   1.0000   1.0000   1.0000   1.0000   1.0000   1.0000
     1.0000   1.0000   1.0000   1.0000   1.0000   1.0000   1.0000   1.0000
     1.0000   1.0000   1.0000   1.0000   1.0000   1.0000   1.0000   1.0000
     1.0000   1.0000   1.0000   1.0000   1.0000   1.0000   1.0000   1.0000
     1.0000   1.0000   1.0000   1.0000   1.0000   1.0000   1.0000   1.0000
     1.0000   1.0000   1.0000   1.0000   1.0000   1.0000   1.0000   1.0000
     1.0000   1.0000   1.0000   1.0000   1.0000   1.0000   1.0000   1.0000
     1.0000   1.0000   1.0000   1.0000   1.0000   1.0000   1.0000   1.0000
     1.0000   1.0000   1.0000   1.0000   1.0000   1.0000   1.0000   1.0000
     1.0000   1.0000   1.0000   1.0000   1.0000   1.0000   1.0000   1.0000
     1.0000   1.0000   1.0000   1.0000   1.0000   1.0000   1.0000   1.0000
     1.0000   1.0000   1.0000   1.0000   1.0000   1.0000   1.0000   1.0000
     1.0000   0.9999   0.9999   0.9999   0.9998   0.9998   0.9998   0.9997
     0.9997   0.9996   0.9994   0.9989   0.9985   0.9984   0.9982   0.9982
     0.9974   0.9963   0.9946   0.9942   0.9928   0.9920   0.9907   0.9897
     0.9895   0.9870   0.9841   0.9837   0.9820   0.9796   0.9739   0.9599
     0.9492   0.9406   0.9370   0.9064   0.9027   0.8901   0.8866   0.8567
     0.8418   0.8345   0.8269   0.8221   0.8214   0.8156   0.7866   0.7360
     0.7194   0.7121   0.7086   0.6742   0.6720   0.6584   0.6537   0.6495
     0.6442   0.6393   0.6325   0.6292   0.6212   0.6164   0.6124   0.6006
     0.5884   0.5852   0.5787   0.5687   0.4957   0.4646   0.1382   0.0556
     0.0515   0.0155   0.0060   0.0039   0.0014   0.0001   0.0000   0.0000
     0.0000   0.0000   0.0000   0.0000   0.0000   0.0000   0.0000   0.0000
     0.0000   0.0000   0.0000   0.0000   0.0000   0.0000   0.0000   0.0000
     0.0000   0.0000   0.0000   0.0000   0.0000   0.0000   0.0000

          k = 0.0000 0.2500 0.0000 ( 65257 PWs)   bands (ev):

   -92.3318 -92.2768 -92.1857 -92.1365 -92.0771 -92.0381 -92.0210 -91.8991
   -55.6849 -55.6632 -55.5436 -55.5330 -55.5253 -55.5197 -55.4820 -55.4554
   -55.4391 -55.4370 -55.4279 -55.3859 -55.3674 -55.3293 -55.3117 -55.2766
   -55.2718 -55.2272 -55.2255 -55.2239 -55.2154 -55.1737 -55.1517 -55.0657
   -30.9191 -30.9001 -30.8143 -30.7594 -30.6727 -30.6381 -30.6145 -30.4208
   -29.4830 -29.4400 -29.4146 -29.3058 -22.2491 -14.6801 -14.6549 -14.5704
   -14.4356 -14.3207 -14.1492 -14.0031 -13.8237 -13.7957 -13.7730 -13.7684
   -13.7424 -13.6873 -13.6798 -13.6652 -13.6521 -13.6134 -13.4872 -13.4505
   -13.2877 -13.2738 -13.2185 -13.1826 -13.1411 -13.1014 -13.0638 -12.9857
   -12.9529 -12.9206 -12.8569 -12.7929 -12.7863 -12.7498 -12.7319 -12.6436
   -12.6171 -12.6015 -12.5771 -12.5730 -12.5474 -12.5356 -12.5081 -12.4978
   -12.4395 -12.4231 -12.3938 -12.3614 -12.2658 -12.1936 -12.0457 -11.8909
   -11.7744 -11.7085 -11.4630 -11.4197 -11.3922 -11.3635 -11.3468 -11.2998
   -11.2883 -11.2658 -11.2323 -11.1295 -11.0765 -11.0660  -5.8342  -3.1558
    -3.1507  -2.4424  -2.2196  -2.0826  -1.9006  -1.8569  -1.6923  -1.4752
    -1.3878  -1.3747  -1.3187  -1.2162  -1.2014  -1.1661  -1.1413  -1.0977
    -0.8994  -0.7715  -0.7593  -0.6832  -0.6723  -0.5677  -0.5366  -0.4818
    -0.4573  -0.4130  -0.3515  -0.3269  -0.2925  -0.2646  -0.2466  -0.2130
    -0.1405  -0.0867  -0.0255   0.0818   0.1034   0.1441   0.2605   0.2956
     0.3576   0.4102   0.4753   0.4933   0.5207   0.5752   0.8734   0.9616
     0.9906   1.0808   1.1248   1.1443   1.2714   1.2899   1.3822   1.4067
     1.4386   1.5542   1.6387   1.6659   1.6895   1.7070   1.7365   1.7976
     1.8229   1.8495   1.8990   1.9288   1.9578   2.0340   2.0667   2.1022
     2.1609   2.2091   2.2401   2.2711   2.3084   2.3295   2.4184   2.5492
     2.6228   2.6470   2.7227   2.7648   2.8017   2.8082   2.8768   2.9199
     2.9929   3.0356   3.0511   3.0701   3.0815   3.2316   3.2525   3.2842
     3.3057   3.3238   3.3329   3.3403   3.3485   3.3786   3.3806   3.3984
     3.4012   3.4145   3.4303   3.4407   3.4515   3.4742   3.4846   3.4894
     3.5246   3.5411   3.6022   3.9478   3.9860   4.2438   4.6117   4.7553
     4.9148   5.0916   5.4192   5.5205   5.8337   5.9166   6.1695   6.3168
     6.3479   6.4644   6.5310   6.7405   6.9026   7.0604   7.2844   7.4641
     7.5481   7.7173   7.8009   7.8842   7.9266   7.9606   8.0726   8.2127
     8.2635   8.4109   8.5384   8.5797   8.6097   8.6904   8.9431

     occupation numbers 
     1.0000   1.0000   1.0000   1.0000   1.0000   1.0000   1.0000   1.0000
     1.0000   1.0000   1.0000   1.0000   1.0000   1.0000   1.0000   1.0000
     1.0000   1.0000   1.0000   1.0000   1.0000   1.0000   1.0000   1.0000
     1.0000   1.0000   1.0000   1.0000   1.0000   1.0000   1.0000   1.0000
     1.0000   1.0000   1.0000   1.0000   1.0000   1.0000   1.0000   1.0000
     1.0000   1.0000   1.0000   1.0000   1.0000   1.0000   1.0000   1.0000
     1.0000   1.0000   1.0000   1.0000   1.0000   1.0000   1.0000   1.0000
     1.0000   1.0000   1.0000   1.0000   1.0000   1.0000   1.0000   1.0000
     1.0000   1.0000   1.0000   1.0000   1.0000   1.0000   1.0000   1.0000
     1.0000   1.0000   1.0000   1.0000   1.0000   1.0000   1.0000   1.0000
     1.0000   1.0000   1.0000   1.0000   1.0000   1.0000   1.0000   1.0000
     1.0000   1.0000   1.0000   1.0000   1.0000   1.0000   1.0000   1.0000
     1.0000   1.0000   1.0000   1.0000   1.0000   1.0000   1.0000   1.0000
     1.0000   1.0000   1.0000   1.0000   1.0000   1.0000   1.0000   1.0000
     1.0000   1.0000   1.0000   1.0000   1.0000   1.0000   1.0000   1.0000
     1.0000   1.0000   1.0000   1.0000   1.0000   1.0000   1.0000   1.0000
     1.0000   1.0000   1.0000   1.0000   1.0000   1.0000   1.0000   1.0000
     1.0000   1.0000   1.0000   1.0000   1.0000   1.0000   1.0000   1.0000
     1.0000   1.0000   1.0000   1.0000   1.0000   1.0000   1.0000   1.0000
     1.0000   1.0000   1.0000   1.0000   1.0000   1.0000   1.0000   1.0000
     1.0000   0.9999   0.9999   0.9999   0.9998   0.9998   0.9997   0.9997
     0.9996   0.9993   0.9989   0.9987   0.9985   0.9984   0.9982   0.9976
     0.9973   0.9969   0.9962   0.9956   0.9950   0.9932   0.9922   0.9910
     0.9886   0.9863   0.9846   0.9827   0.9802   0.9787   0.9709   0.9555
     0.9442   0.9401   0.9255   0.9163   0.9075   0.9059   0.8877   0.8750
     0.8512   0.8360   0.8303   0.8231   0.8187   0.7541   0.7442   0.7288
     0.7181   0.7090   0.7043   0.7005   0.6962   0.6805   0.6794   0.6699
     0.6684   0.6612   0.6525   0.6469   0.6409   0.6282   0.6224   0.6196
     0.5995   0.5900   0.5545   0.3534   0.3325   0.2073   0.0866   0.0576
     0.0350   0.0190   0.0052   0.0033   0.0007   0.0005   0.0001   0.0000
     0.0000   0.0000   0.0000   0.0000   0.0000   0.0000   0.0000   0.0000
     0.0000   0.0000   0.0000   0.0000   0.0000   0.0000   0.0000   0.0000
     0.0000   0.0000   0.0000   0.0000   0.0000   0.0000   0.0000

          k = 0.0000-0.5000 0.0000 ( 65180 PWs)   bands (ev):

   -92.3318 -92.2768 -92.1857 -92.1365 -92.0771 -92.0381 -92.0210 -91.8991
   -55.6849 -55.6632 -55.5436 -55.5330 -55.5253 -55.5197 -55.4820 -55.4554
   -55.4391 -55.4370 -55.4279 -55.3859 -55.3674 -55.3293 -55.3117 -55.2766
   -55.2718 -55.2272 -55.2255 -55.2239 -55.2154 -55.1737 -55.1517 -55.0657
   -30.9189 -30.9000 -30.8142 -30.7597 -30.6729 -30.6383 -30.6144 -30.4209
   -29.4824 -29.4397 -29.4152 -29.3061 -22.2491 -14.6480 -14.5997 -14.5467
   -14.4250 -14.3331 -14.1990 -14.0483 -13.9320 -13.7934 -13.7687 -13.7332
   -13.6891 -13.6744 -13.6307 -13.6104 -13.5613 -13.5467 -13.5189 -13.4858
   -13.4708 -13.4161 -13.2203 -13.1638 -13.1500 -13.0940 -13.0781 -12.9981
   -12.9839 -12.9355 -12.9261 -12.8610 -12.7892 -12.7502 -12.7297 -12.6690
   -12.6117 -12.6001 -12.5726 -12.5704 -12.5362 -12.5219 -12.4958 -12.4029
   -12.3814 -12.3649 -12.3466 -12.2933 -12.1568 -12.1328 -11.9888 -11.9661
   -11.8739 -11.8283 -11.4167 -11.4146 -11.3873 -11.3488 -11.3149 -11.3040
   -11.2620 -11.2579 -11.2141 -11.1507 -11.1371 -11.1229  -5.8342  -3.1557
    -3.1509  -2.2278  -2.1680  -2.0166  -1.9440  -1.6644  -1.5809  -1.4522
    -1.3143  -1.2777  -1.2583  -1.1787  -1.1495  -1.0662  -1.0318  -0.9558
    -0.9142  -0.8748  -0.8482  -0.7922  -0.7543  -0.7098  -0.6730  -0.6378
    -0.6055  -0.4937  -0.4488  -0.4166  -0.4150  -0.3297  -0.2959  -0.2750
    -0.2268  -0.1414  -0.0749   0.0081   0.0357   0.1362   0.1815   0.3347
     0.3622   0.3927   0.4488   0.5613   0.6099   0.7569   0.8214   0.8290
     0.9572   0.9933   1.1048   1.2345   1.3420   1.3731   1.4078   1.4143
     1.4543   1.4728   1.5089   1.5229   1.5371   1.6440   1.7034   1.7341
     1.7596   2.0161   2.0478   2.0665   2.1564   2.1849   2.2163   2.2308
     2.2679   2.2760   2.2867   2.3188   2.3629   2.3914   2.4144   2.4310
     2.4583   2.5123   2.5921   2.6163   2.7990   2.9669   2.9749   2.9859
     3.0309   3.0355   3.0467   3.0666   3.0793   3.0967   3.1111   3.1657
     3.1856   3.2599   3.2755   3.3425   3.3508   3.3758   3.3766   3.3970
     3.3997   3.4041   3.4076   3.4121   3.4238   3.4445   3.4452   3.5101
     3.5153   3.5306   3.5853   4.4795   4.4925   4.5249   4.5970   4.9728
     5.1408   5.2335   5.3962   5.5310   5.6141   5.8264   5.9467   6.0170
     6.2112   6.3795   6.4009   6.4669   7.0178   7.0573   7.1282   7.4406
     7.5814   7.5993   7.7369   8.0065   8.0116   8.0737   8.2128   8.3081
     8.5522   8.6059   8.7227   8.7267   8.7325   8.8566   8.9510

     occupation numbers 
     1.0000   1.0000   1.0000   1.0000   1.0000   1.0000   1.0000   1.0000
     1.0000   1.0000   1.0000   1.0000   1.0000   1.0000   1.0000   1.0000
     1.0000   1.0000   1.0000   1.0000   1.0000   1.0000   1.0000   1.0000
     1.0000   1.0000   1.0000   1.0000   1.0000   1.0000   1.0000   1.0000
     1.0000   1.0000   1.0000   1.0000   1.0000   1.0000   1.0000   1.0000
     1.0000   1.0000   1.0000   1.0000   1.0000   1.0000   1.0000   1.0000
     1.0000   1.0000   1.0000   1.0000   1.0000   1.0000   1.0000   1.0000
     1.0000   1.0000   1.0000   1.0000   1.0000   1.0000   1.0000   1.0000
     1.0000   1.0000   1.0000   1.0000   1.0000   1.0000   1.0000   1.0000
     1.0000   1.0000   1.0000   1.0000   1.0000   1.0000   1.0000   1.0000
     1.0000   1.0000   1.0000   1.0000   1.0000   1.0000   1.0000   1.0000
     1.0000   1.0000   1.0000   1.0000   1.0000   1.0000   1.0000   1.0000
     1.0000   1.0000   1.0000   1.0000   1.0000   1.0000   1.0000   1.0000
     1.0000   1.0000   1.0000   1.0000   1.0000   1.0000   1.0000   1.0000
     1.0000   1.0000   1.0000   1.0000   1.0000   1.0000   1.0000   1.0000
     1.0000   1.0000   1.0000   1.0000   1.0000   1.0000   1.0000   1.0000
     1.0000   1.0000   1.0000   1.0000   1.0000   1.0000   1.0000   1.0000
     1.0000   1.0000   1.0000   1.0000   1.0000   1.0000   1.0000   1.0000
     1.0000   1.0000   1.0000   1.0000   1.0000   1.0000   1.0000   1.0000
     1.0000   1.0000   1.0000   1.0000   1.0000   1.0000   1.0000   1.0000
     1.0000   1.0000   0.9999   0.9999   0.9998   0.9997   0.9997   0.9996
     0.9996   0.9995   0.9994   0.9994   0.9993   0.9988   0.9984   0.9982
     0.9980   0.9937   0.9928   0.9922   0.9888   0.9875   0.9859   0.9851
     0.9829   0.9824   0.9817   0.9795   0.9760   0.9735   0.9713   0.9697
     0.9668   0.9604   0.9492   0.9453   0.9082   0.8600   0.8573   0.8536
     0.8378   0.8361   0.8319   0.8244   0.8195   0.8126   0.8068   0.7838
     0.7751   0.7406   0.7330   0.6994   0.6951   0.6820   0.6815   0.6707
     0.6692   0.6668   0.6649   0.6625   0.6561   0.6447   0.6443   0.6079
     0.6049   0.5961   0.5644   0.1219   0.1180   0.1088   0.0901   0.0288
     0.0159   0.0111   0.0058   0.0032   0.0022   0.0008   0.0004   0.0003
     0.0001   0.0000   0.0000   0.0000   0.0000   0.0000   0.0000   0.0000
     0.0000   0.0000   0.0000   0.0000   0.0000   0.0000   0.0000   0.0000
     0.0000   0.0000   0.0000   0.0000   0.0000   0.0000   0.0000

          k = 0.2500 0.2500 0.0000 ( 65198 PWs)   bands (ev):

   -92.3318 -92.2768 -92.1857 -92.1365 -92.0771 -92.0381 -92.0210 -91.8991
   -55.6849 -55.6632 -55.5436 -55.5330 -55.5253 -55.5197 -55.4820 -55.4554
   -55.4391 -55.4370 -55.4279 -55.3859 -55.3674 -55.3292 -55.3117 -55.2766
   -55.2718 -55.2272 -55.2255 -55.2239 -55.2154 -55.1737 -55.1517 -55.0657
   -30.9174 -30.9019 -30.8142 -30.7591 -30.6731 -30.6379 -30.6147 -30.4209
   -29.4821 -29.4410 -29.4142 -29.3062 -22.2491 -14.6522 -14.6192 -14.5425
   -14.4255 -14.3120 -14.1882 -14.1084 -13.9096 -13.7689 -13.7473 -13.7371
   -13.7019 -13.6724 -13.6497 -13.6256 -13.5993 -13.5736 -13.4797 -13.4644
   -13.3036 -13.2909 -13.2591 -13.2405 -13.2024 -13.1520 -13.1149 -13.0674
   -12.9820 -12.9416 -12.8725 -12.7878 -12.7583 -12.7378 -12.6889 -12.6635
   -12.6331 -12.6094 -12.5896 -12.5708 -12.5496 -12.5184 -12.4953 -12.4583
   -12.3900 -12.3843 -12.3621 -12.3543 -12.2077 -12.0942 -12.0791 -11.9200
   -11.8048 -11.7579 -11.4352 -11.4033 -11.3926 -11.3852 -11.3230 -11.2877
   -11.2813 -11.2461 -11.2382 -11.1461 -11.1048 -11.0873  -5.8342  -3.1559
    -3.1507  -2.3043  -2.0940  -1.9768  -1.8834  -1.7610  -1.6956  -1.5001
    -1.3532  -1.3328  -1.3054  -1.2111  -1.1759  -1.0839  -1.0569  -1.0069
    -0.8745  -0.8272  -0.7549  -0.7097  -0.6657  -0.6410  -0.6157  -0.5743
    -0.5582  -0.4685  -0.4192  -0.3562  -0.3075  -0.2785  -0.2241  -0.2147
    -0.1512  -0.1001  -0.0456  -0.0096   0.0732   0.1248   0.1546   0.1966
     0.2502   0.3088   0.3571   0.3844   0.4517   0.5004   0.7677   0.9127
     0.9525   1.0000   1.0468   1.1059   1.1584   1.2177   1.2538   1.5288
     1.6005   1.6752   1.7007   1.7443   1.7801   1.8151   1.8513   1.8697
     1.8980   1.9345   1.9469   1.9652   2.0059   2.0469   2.0864   2.1266
     2.1664   2.1816   2.2094   2.2498   2.3007   2.3307   2.4605   2.5293
     2.5702   2.6007   2.6620   2.7249   2.7566   2.7946   2.8147   2.8289
     2.9401   2.9786   3.0579   3.0660   3.0855   3.2419   3.2595   3.2658
     3.2813   3.2947   3.3085   3.3208   3.3288   3.3387   3.3523   3.3638
     3.3837   3.3902   3.4010   3.4211   3.4354   3.4452   3.4761   3.7780
     3.8687   3.9056   3.9668   3.9884   4.2149   4.3196   4.6458   4.8083
     4.9875   5.1494   5.3323   5.5558   5.9365   5.9576   6.0107   6.1284
     6.2057   6.2551   6.3466   6.4330   6.8999   7.0107   7.0968   7.2031
     7.7151   7.7899   7.8352   7.8991   8.0304   8.1320   8.2186   8.2911
     8.3474   8.4467   8.5763   8.6857   8.7260   8.7841   8.8985

     occupation numbers 
     1.0000   1.0000   1.0000   1.0000   1.0000   1.0000   1.0000   1.0000
     1.0000   1.0000   1.0000   1.0000   1.0000   1.0000   1.0000   1.0000
     1.0000   1.0000   1.0000   1.0000   1.0000   1.0000   1.0000   1.0000
     1.0000   1.0000   1.0000   1.0000   1.0000   1.0000   1.0000   1.0000
     1.0000   1.0000   1.0000   1.0000   1.0000   1.0000   1.0000   1.0000
     1.0000   1.0000   1.0000   1.0000   1.0000   1.0000   1.0000   1.0000
     1.0000   1.0000   1.0000   1.0000   1.0000   1.0000   1.0000   1.0000
     1.0000   1.0000   1.0000   1.0000   1.0000   1.0000   1.0000   1.0000
     1.0000   1.0000   1.0000   1.0000   1.0000   1.0000   1.0000   1.0000
     1.0000   1.0000   1.0000   1.0000   1.0000   1.0000   1.0000   1.0000
     1.0000   1.0000   1.0000   1.0000   1.0000   1.0000   1.0000   1.0000
     1.0000   1.0000   1.0000   1.0000   1.0000   1.0000   1.0000   1.0000
     1.0000   1.0000   1.0000   1.0000   1.0000   1.0000   1.0000   1.0000
     1.0000   1.0000   1.0000   1.0000   1.0000   1.0000   1.0000   1.0000
     1.0000   1.0000   1.0000   1.0000   1.0000   1.0000   1.0000   1.0000
     1.0000   1.0000   1.0000   1.0000   1.0000   1.0000   1.0000   1.0000
     1.0000   1.0000   1.0000   1.0000   1.0000   1.0000   1.0000   1.0000
     1.0000   1.0000   1.0000   1.0000   1.0000   1.0000   1.0000   1.0000
     1.0000   1.0000   1.0000   1.0000   1.0000   1.0000   1.0000   1.0000
     1.0000   1.0000   1.0000   1.0000   1.0000   1.0000   1.0000   1.0000
     1.0000   1.0000   1.0000   0.9999   0.9999   0.9999   0.9999   0.9993
     0.9991   0.9986   0.9985   0.9981   0.9978   0.9974   0.9969   0.9966
     0.9962   0.9955   0.9953   0.9949   0.9939   0.9928   0.9915   0.9900
     0.9884   0.9877   0.9863   0.9840   0.9808   0.9786   0.9665   0.9582
     0.9525   0.9478   0.9374   0.9250   0.9181   0.9093   0.9043   0.9006
     0.8687   0.8561   0.8277   0.8246   0.8171   0.7492   0.7408   0.7378
     0.7302   0.7236   0.7167   0.7105   0.7064   0.7013   0.6943   0.6883
     0.6777   0.6743   0.6685   0.6576   0.6497   0.6444   0.6271   0.4506
     0.3979   0.3769   0.3430   0.3312   0.2198   0.1766   0.0789   0.0491
     0.0274   0.0154   0.0075   0.0029   0.0004   0.0004   0.0003   0.0002
     0.0001   0.0001   0.0000   0.0000   0.0000   0.0000   0.0000   0.0000
     0.0000   0.0000   0.0000   0.0000   0.0000   0.0000   0.0000   0.0000
     0.0000   0.0000   0.0000   0.0000   0.0000   0.0000   0.0000

          k = 0.2500-0.5000 0.0000 ( 65138 PWs)   bands (ev):

   -92.3318 -92.2768 -92.1857 -92.1365 -92.0771 -92.0380 -92.0210 -91.8991
   -55.6849 -55.6632 -55.5436 -55.5330 -55.5253 -55.5197 -55.4820 -55.4554
   -55.4391 -55.4370 -55.4279 -55.3859 -55.3674 -55.3293 -55.3117 -55.2766
   -55.2718 -55.2272 -55.2255 -55.2239 -55.2154 -55.1737 -55.1517 -55.0657
   -30.9172 -30.9017 -30.8140 -30.7593 -30.6732 -30.6381 -30.6145 -30.4211
   -29.4814 -29.4407 -29.4148 -29.3065 -22.2491 -14.6176 -14.5727 -14.5037
   -14.3942 -14.3572 -14.2384 -14.1511 -14.0266 -13.7688 -13.7107 -13.6645
   -13.6351 -13.6141 -13.5984 -13.5814 -13.5466 -13.5344 -13.5011 -13.4603
   -13.4489 -13.4103 -13.3041 -13.2564 -13.2194 -13.1766 -13.1377 -13.1078
   -13.0365 -12.9941 -12.8486 -12.7848 -12.7734 -12.7295 -12.6734 -12.6390
   -12.6274 -12.6059 -12.5858 -12.5703 -12.5541 -12.5177 -12.5034 -12.4344
   -12.4100 -12.3685 -12.2972 -12.2657 -12.1635 -12.1024 -11.9639 -11.9531
   -11.8665 -11.8364 -11.4106 -11.3988 -11.3876 -11.3603 -11.3292 -11.3003
   -11.2599 -11.2316 -11.2099 -11.1640 -11.1381 -11.1271  -5.8342  -3.1559
    -3.1509  -2.0865  -2.0202  -1.8907  -1.8130  -1.6851  -1.6008  -1.4768
    -1.3257  -1.2724  -1.2507  -1.1877  -1.1741  -1.0769  -1.0109  -0.9251
    -0.8776  -0.8683  -0.8029  -0.7623  -0.7267  -0.6797  -0.6434  -0.6082
    -0.5673  -0.5561  -0.5114  -0.4835  -0.4420  -0.4115  -0.3433  -0.2427
    -0.2046  -0.1272  -0.0636  -0.0157   0.0289   0.0507   0.0975   0.2602
     0.2682   0.3746   0.4142   0.4244   0.4719   0.4948   0.5352   0.5626
     0.6387   0.8960   0.9858   1.0674   1.1275   1.3851   1.4105   1.4998
     1.5279   1.6977   1.7289   1.7728   1.7959   1.8138   1.8338   1.8939
     1.9387   1.9758   2.0533   2.1297   2.1712   2.1957   2.2098   2.2406
     2.2567   2.2665   2.3048   2.3218   2.3387   2.3770   2.3934   2.4220
     2.4512   2.5105   2.5474   2.6238   2.7669   2.9204   2.9347   2.9529
     2.9803   3.0051   3.0342   3.0510   3.0584   3.0736   3.0825   3.0972
     3.1919   3.2388   3.2609   3.2630   3.2783   3.2991   3.3133   3.3319
     3.3388   3.3692   3.3818   3.3975   3.4064   3.4148   3.4260   3.9407
     3.9488   4.1089   4.1570   4.4862   4.5349   4.5420   4.6638   5.0348
     5.1753   5.2671   5.4257   5.5081   5.6240   5.6995   5.8936   5.9199
     6.0863   6.1502   6.2812   6.5256   6.5707   6.6650   7.1212   7.2115
     7.5450   7.6490   7.9687   8.0782   8.1634   8.2062   8.3327   8.3890
     8.5130   8.5889   8.6998   8.8187   8.8637   8.9282   8.9545

     occupation numbers 
     1.0000   1.0000   1.0000   1.0000   1.0000   1.0000   1.0000   1.0000
     1.0000   1.0000   1.0000   1.0000   1.0000   1.0000   1.0000   1.0000
     1.0000   1.0000   1.0000   1.0000   1.0000   1.0000   1.0000   1.0000
     1.0000   1.0000   1.0000   1.0000   1.0000   1.0000   1.0000   1.0000
     1.0000   1.0000   1.0000   1.0000   1.0000   1.0000   1.0000   1.0000
     1.0000   1.0000   1.0000   1.0000   1.0000   1.0000   1.0000   1.0000
     1.0000   1.0000   1.0000   1.0000   1.0000   1.0000   1.0000   1.0000
     1.0000   1.0000   1.0000   1.0000   1.0000   1.0000   1.0000   1.0000
     1.0000   1.0000   1.0000   1.0000   1.0000   1.0000   1.0000   1.0000
     1.0000   1.0000   1.0000   1.0000   1.0000   1.0000   1.0000   1.0000
     1.0000   1.0000   1.0000   1.0000   1.0000   1.0000   1.0000   1.0000
     1.0000   1.0000   1.0000   1.0000   1.0000   1.0000   1.0000   1.0000
     1.0000   1.0000   1.0000   1.0000   1.0000   1.0000   1.0000   1.0000
     1.0000   1.0000   1.0000   1.0000   1.0000   1.0000   1.0000   1.0000
     1.0000   1.0000   1.0000   1.0000   1.0000   1.0000   1.0000   1.0000
     1.0000   1.0000   1.0000   1.0000   1.0000   1.0000   1.0000   1.0000
     1.0000   1.0000   1.0000   1.0000   1.0000   1.0000   1.0000   1.0000
     1.0000   1.0000   1.0000   1.0000   1.0000   1.0000   1.0000   1.0000
     1.0000   1.0000   1.0000   1.0000   1.0000   1.0000   1.0000   1.0000
     1.0000   1.0000   1.0000   1.0000   1.0000   1.0000   1.0000   1.0000
     1.0000   1.0000   1.0000   1.0000   0.9999   0.9997   0.9997   0.9994
     0.9994   0.9985   0.9982   0.9978   0.9976   0.9974   0.9971   0.9962
     0.9954   0.9946   0.9926   0.9899   0.9881   0.9870   0.9863   0.9846
     0.9836   0.9830   0.9805   0.9792   0.9780   0.9748   0.9733   0.9706
     0.9676   0.9606   0.9557   0.9441   0.9158   0.8748   0.8704   0.8646
     0.8555   0.8470   0.8366   0.8303   0.8276   0.8217   0.8183   0.8124
     0.7722   0.7507   0.7401   0.7391   0.7317   0.7214   0.7143   0.7048
     0.7013   0.6855   0.6788   0.6703   0.6656   0.6610   0.6549   0.3573
     0.3528   0.2691   0.2461   0.1199   0.1060   0.1041   0.0750   0.0233
     0.0139   0.0098   0.0051   0.0035   0.0021   0.0015   0.0005   0.0005
     0.0002   0.0001   0.0001   0.0000   0.0000   0.0000   0.0000   0.0000
     0.0000   0.0000   0.0000   0.0000   0.0000   0.0000   0.0000   0.0000
     0.0000   0.0000   0.0000   0.0000   0.0000   0.0000   0.0000

          k =-0.5000-0.5000 0.0000 ( 65132 PWs)   bands (ev):

   -92.3318 -92.2768 -92.1857 -92.1365 -92.0771 -92.0380 -92.0210 -91.8991
   -55.6849 -55.6632 -55.5436 -55.5330 -55.5253 -55.5197 -55.4820 -55.4554
   -55.4391 -55.4370 -55.4279 -55.3859 -55.3674 -55.3293 -55.3117 -55.2766
   -55.2718 -55.2272 -55.2255 -55.2239 -55.2154 -55.1737 -55.1517 -55.0657
   -30.9149 -30.9040 -30.8139 -30.7589 -30.6736 -30.6380 -30.6147 -30.4212
   -29.4804 -29.4417 -29.4144 -29.3069 -22.2491 -14.5717 -14.5450 -14.4288
   -14.4163 -14.3235 -14.2845 -14.2575 -14.1244 -13.7688 -13.6234 -13.6148
   -13.5769 -13.5601 -13.5411 -13.5294 -13.4976 -13.4887 -13.4727 -13.4703
   -13.4544 -13.3735 -13.3675 -13.3430 -13.3176 -13.3044 -13.2171 -13.2014
   -13.0856 -13.0422 -12.8007 -12.7689 -12.6982 -12.6918 -12.6670 -12.6345
   -12.6267 -12.6178 -12.5985 -12.5752 -12.5504 -12.5180 -12.5000 -12.4739
   -12.4317 -12.3805 -12.2469 -12.2393 -12.1799 -12.0756 -11.9603 -11.9131
   -11.8612 -11.8492 -11.4068 -11.3948 -11.3771 -11.3602 -11.3257 -11.3081
   -11.2726 -11.2118 -11.1919 -11.1863 -11.1359 -11.1330  -5.8342  -3.1561
    -3.1508  -1.8631  -1.7871  -1.7777  -1.7027  -1.6649  -1.5867  -1.5190
    -1.3929  -1.2758  -1.2466  -1.2069  -1.1493  -1.0779  -1.0635  -0.9926
    -0.9497  -0.8343  -0.8072  -0.7582  -0.7257  -0.6619  -0.6187  -0.5994
    -0.5885  -0.5352  -0.4870  -0.4755  -0.3611  -0.3041  -0.2566  -0.2084
    -0.1836  -0.1710  -0.1352  -0.0962  -0.0618  -0.0474   0.0389   0.1021
     0.1548   0.1734   0.2508   0.2994   0.3099   0.3705   0.3938   0.4093
     0.4273   0.8630   0.8993   1.0060   1.0449   1.4174   1.4323   1.4635
     1.5025   1.7805   1.8001   1.8064   1.8446   1.9793   2.0746   2.1005
     2.1350   2.1450   2.1723   2.1852   2.2162   2.2217   2.2289   2.2440
     2.3090   2.3111   2.3362   2.3400   2.3678   2.3769   2.4180   2.4491
     2.4591   2.4952   2.5224   2.5937   2.6607   2.9304   2.9646   2.9824
     3.0018   3.0047   3.0411   3.0453   3.0627   3.0655   3.0758   3.0861
     3.0943   3.1158   3.1278   3.1929   3.1961   3.2182   3.2308   3.2424
     3.2615   3.2669   3.2759   3.3777   3.3815   3.4108   3.4205   4.3721
     4.3832   4.3998   4.4142   4.6865   4.7575   4.7859   5.0255   5.1460
     5.1833   5.2323   5.3471   5.4019   5.5067   5.5633   5.5720   5.7384
[...]
     0.0000   0.0000   0.0000   0.0000   0.0000   0.0000   0.0000   0.0000
     0.0000   0.0000   0.0000   0.0000   0.0000   0.0000   0.0000

          k =-0.5000 0.0000 0.0000 ( 65180 PWs)   bands (ev):

   -92.3318 -92.2768 -92.1857 -92.1365 -92.0771 -92.0381 -92.0210 -91.8991
   -55.6849 -55.6632 -55.5436 -55.5330 -55.5253 -55.5197 -55.4820 -55.4554
   -55.4391 -55.4370 -55.4279 -55.3859 -55.3674 -55.3292 -55.3117 -55.2766
   -55.2718 -55.2272 -55.2255 -55.2239 -55.2154 -55.1737 -55.1517 -55.0657
   -30.9153 -30.9043 -30.8142 -30.7585 -30.6733 -30.6376 -30.6150 -30.4209
   -29.4816 -29.4424 -29.4132 -29.3063 -22.2491 -14.6519 -14.6032 -14.5411
   -14.4354 -14.3270 -14.1827 -14.0454 -13.9042 -13.7728 -13.7688 -13.7651
   -13.7438 -13.6977 -13.6332 -13.5999 -13.5545 -13.5499 -13.5315 -13.4778
   -13.4699 -13.3765 -13.1921 -13.1748 -13.1329 -13.1241 -13.0963 -13.0033
   -12.9851 -12.9110 -12.8915 -12.8877 -12.7818 -12.6960 -12.6889 -12.6787
   -12.6616 -12.6513 -12.5883 -12.5718 -12.5685 -12.5411 -12.4966 -12.3871
   -12.3742 -12.3624 -12.2817 -12.2727 -12.1828 -12.1420 -11.9988 -11.9701
   -11.8668 -11.8288 -11.4139 -11.3929 -11.3858 -11.3711 -11.3533 -11.3122
   -11.2484 -11.2310 -11.1987 -11.1535 -11.1442 -11.1283  -5.8342  -3.1561
    -3.1505  -2.2177  -2.1787  -2.0139  -1.9750  -1.6635  -1.5880  -1.4388
    -1.3206  -1.2823  -1.2358  -1.1880  -1.1620  -1.0407  -0.9952  -0.9817
    -0.8982  -0.8629  -0.8497  -0.8155  -0.7608  -0.6909  -0.6603  -0.6342
    -0.5409  -0.4904  -0.4422  -0.4101  -0.3882  -0.3591  -0.3107  -0.2860
    -0.2499  -0.1533  -0.0807  -0.0182   0.0452   0.1936   0.2471   0.3067
     0.3298   0.3815   0.4169   0.5437   0.5831   0.6322   0.8043   0.9023
     0.9480   1.0279   1.0785   1.2180   1.2355   1.3580   1.3908   1.4453
     1.4717   1.5092   1.5215   1.5673   1.5933   1.6553   1.7041   1.7515
     1.7603   2.0505   2.0598   2.0662   2.0936   2.2114   2.2196   2.2267
     2.2449   2.2795   2.2910   2.3248   2.3559   2.3741   2.4424   2.4453
     2.5047   2.5174   2.5828   2.6939   2.7794   2.8636   2.8788   2.9570
     2.9935   3.0166   3.0583   3.0693   3.0913   3.1014   3.1063   3.1336
     3.2015   3.2452   3.2906   3.3182   3.3659   3.3694   3.3707   3.3830
     3.3975   3.4096   3.4236   3.4275   3.4477   3.4540   3.4752   3.4962
     3.5004   3.6262   3.6341   4.4367   4.4688   4.5314   4.6522   5.0167
     5.1494   5.2108   5.3212   5.4460   5.7259   5.8722   5.9580   5.9932
     6.2374   6.3118   6.3883   6.4325   6.9796   7.0987   7.1658   7.4659
     7.4869   7.6799   7.7577   7.9771   8.0969   8.1314   8.1918   8.3369
     8.4476   8.6061   8.6201   8.7323   8.7746   8.8673   8.9188

     occupation numbers 
     1.0000   1.0000   1.0000   1.0000   1.0000   1.0000   1.0000   1.0000
     1.0000   1.0000   1.0000   1.0000   1.0000   1.0000   1.0000   1.0000
     1.0000   1.0000   1.0000   1.0000   1.0000   1.0000   1.0000   1.0000
     1.0000   1.0000   1.0000   1.0000   1.0000   1.0000   1.0000   1.0000
     1.0000   1.0000   1.0000   1.0000   1.0000   1.0000   1.0000   1.0000
     1.0000   1.0000   1.0000   1.0000   1.0000   1.0000   1.0000   1.0000
     1.0000   1.0000   1.0000   1.0000   1.0000   1.0000   1.0000   1.0000
     1.0000   1.0000   1.0000   1.0000   1.0000   1.0000   1.0000   1.0000
     1.0000   1.0000   1.0000   1.0000   1.0000   1.0000   1.0000   1.0000
     1.0000   1.0000   1.0000   1.0000   1.0000   1.0000   1.0000   1.0000
     1.0000   1.0000   1.0000   1.0000   1.0000   1.0000   1.0000   1.0000
     1.0000   1.0000   1.0000   1.0000   1.0000   1.0000   1.0000   1.0000
     1.0000   1.0000   1.0000   1.0000   1.0000   1.0000   1.0000   1.0000
     1.0000   1.0000   1.0000   1.0000   1.0000   1.0000   1.0000   1.0000
     1.0000   1.0000   1.0000   1.0000   1.0000   1.0000   1.0000   1.0000
     1.0000   1.0000   1.0000   1.0000   1.0000   1.0000   1.0000   1.0000
     1.0000   1.0000   1.0000   1.0000   1.0000   1.0000   1.0000   1.0000
     1.0000   1.0000   1.0000   1.0000   1.0000   1.0000   1.0000   1.0000
     1.0000   1.0000   1.0000   1.0000   1.0000   1.0000   1.0000   1.0000
     1.0000   1.0000   1.0000   1.0000   1.0000   1.0000   1.0000   1.0000
     1.0000   1.0000   0.9999   0.9999   0.9999   0.9997   0.9997   0.9996
     0.9995   0.9994   0.9994   0.9992   0.9991   0.9988   0.9984   0.9980
     0.9980   0.9927   0.9924   0.9922   0.9913   0.9862   0.9857   0.9853
     0.9843   0.9822   0.9814   0.9790   0.9766   0.9750   0.9685   0.9682
     0.9614   0.9598   0.9506   0.9313   0.9129   0.8914   0.8871   0.8633
     0.8510   0.8429   0.8276   0.8234   0.8148   0.8108   0.8088   0.7975
     0.7679   0.7476   0.7256   0.7118   0.6872   0.6853   0.6846   0.6781
     0.6704   0.6639   0.6562   0.6541   0.6430   0.6395   0.6276   0.6158
     0.6134   0.5404   0.5357   0.1352   0.1251   0.1070   0.0775   0.0248
     0.0154   0.0122   0.0079   0.0046   0.0013   0.0006   0.0004   0.0003
     0.0001   0.0001   0.0000   0.0000   0.0000   0.0000   0.0000   0.0000
     0.0000   0.0000   0.0000   0.0000   0.0000   0.0000   0.0000   0.0000
     0.0000   0.0000   0.0000   0.0000   0.0000   0.0000   0.0000

          k =-0.2500 0.2500 0.0000 ( 65198 PWs)   bands (ev):

   -92.3318 -92.2768 -92.1857 -92.1365 -92.0771 -92.0381 -92.0210 -91.8991
   -55.6849 -55.6632 -55.5436 -55.5330 -55.5253 -55.5197 -55.4820 -55.4554
   -55.4391 -55.4370 -55.4279 -55.3859 -55.3674 -55.3293 -55.3117 -55.2766
   -55.2718 -55.2272 -55.2255 -55.2239 -55.2154 -55.1737 -55.1517 -55.0657
   -30.9174 -30.9019 -30.8142 -30.7591 -30.6731 -30.6379 -30.6147 -30.4209
   -29.4821 -29.4410 -29.4142 -29.3062 -22.2491 -14.6536 -14.6180 -14.5413
   -14.4232 -14.3185 -14.1929 -14.1001 -13.9009 -13.7690 -13.7551 -13.7255
   -13.7155 -13.6672 -13.6430 -13.6254 -13.6167 -13.5761 -13.4758 -13.4651
   -13.3131 -13.2861 -13.2585 -13.2369 -13.2030 -13.1383 -13.1064 -13.0773
   -12.9921 -12.9403 -12.8660 -12.7904 -12.7565 -12.7312 -12.6829 -12.6523
   -12.6317 -12.6067 -12.5962 -12.5762 -12.5690 -12.5302 -12.5019 -12.4594
   -12.4124 -12.3716 -12.3605 -12.3331 -12.1804 -12.1048 -12.0839 -11.9258
   -11.8087 -11.7528 -11.4344 -11.4126 -11.3855 -11.3731 -11.3327 -11.2974
   -11.2748 -11.2529 -11.2306 -11.1458 -11.1002 -11.0906  -5.8342  -3.1559
    -3.1507  -2.3027  -2.0930  -1.9725  -1.8854  -1.7652  -1.6983  -1.4977
    -1.3499  -1.3305  -1.3034  -1.2116  -1.1747  -1.0837  -1.0504  -1.0244
    -0.8800  -0.8254  -0.7579  -0.7290  -0.6695  -0.6466  -0.6059  -0.5770
    -0.5372  -0.4752  -0.4283  -0.3679  -0.2985  -0.2748  -0.2208  -0.1928
    -0.1477  -0.0905  -0.0486  -0.0041   0.0915   0.1281   0.1329   0.1840
     0.2473   0.3089   0.3593   0.3884   0.4550   0.4989   0.7496   0.9144
     0.9600   0.9938   1.0511   1.1028   1.1643   1.2225   1.2522   1.5363
     1.6515   1.6903   1.7223   1.7304   1.7728   1.7902   1.8339   1.8643
     1.8814   1.9073   1.9453   1.9584   2.0073   2.0229   2.0676   2.1368
     2.1581   2.1814   2.2156   2.2469   2.2831   2.3343   2.4490   2.5588
     2.5971   2.6417   2.6616   2.7239   2.7687   2.7953   2.8164   2.8403
     2.9404   2.9775   3.0586   3.0647   3.0861   3.2487   3.2570   3.2707
     3.2810   3.2916   3.3048   3.3109   3.3287   3.3373   3.3532   3.3626
     3.3754   3.3847   3.3917   3.4233   3.4347   3.4444   3.4779   3.7712
     3.8519   3.9084   3.9695   3.9974   4.1996   4.3280   4.6447   4.8087
     4.9842   5.1513   5.3427   5.5534   5.9462   5.9527   6.0080   6.1334
     6.2029   6.2551   6.3618   6.4119   6.9290   7.0072   7.0706   7.1911
     7.7200   7.8096   7.8477   7.9111   7.9893   8.1521   8.2001   8.2953
     8.3646   8.4441   8.5490   8.6889   8.7256   8.8049   8.8997

     occupation numbers 
     1.0000   1.0000   1.0000   1.0000   1.0000   1.0000   1.0000   1.0000
     1.0000   1.0000   1.0000   1.0000   1.0000   1.0000   1.0000   1.0000
     1.0000   1.0000   1.0000   1.0000   1.0000   1.0000   1.0000   1.0000
     1.0000   1.0000   1.0000   1.0000   1.0000   1.0000   1.0000   1.0000
     1.0000   1.0000   1.0000   1.0000   1.0000   1.0000   1.0000   1.0000
     1.0000   1.0000   1.0000   1.0000   1.0000   1.0000   1.0000   1.0000
     1.0000   1.0000   1.0000   1.0000   1.0000   1.0000   1.0000   1.0000
     1.0000   1.0000   1.0000   1.0000   1.0000   1.0000   1.0000   1.0000
     1.0000   1.0000   1.0000   1.0000   1.0000   1.0000   1.0000   1.0000
     1.0000   1.0000   1.0000   1.0000   1.0000   1.0000   1.0000   1.0000
     1.0000   1.0000   1.0000   1.0000   1.0000   1.0000   1.0000   1.0000
     1.0000   1.0000   1.0000   1.0000   1.0000   1.0000   1.0000   1.0000
     1.0000   1.0000   1.0000   1.0000   1.0000   1.0000   1.0000   1.0000
     1.0000   1.0000   1.0000   1.0000   1.0000   1.0000   1.0000   1.0000
     1.0000   1.0000   1.0000   1.0000   1.0000   1.0000   1.0000   1.0000
     1.0000   1.0000   1.0000   1.0000   1.0000   1.0000   1.0000   1.0000
     1.0000   1.0000   1.0000   1.0000   1.0000   1.0000   1.0000   1.0000
     1.0000   1.0000   1.0000   1.0000   1.0000   1.0000   1.0000   1.0000
     1.0000   1.0000   1.0000   1.0000   1.0000   1.0000   1.0000   1.0000
     1.0000   1.0000   1.0000   1.0000   1.0000   1.0000   1.0000   1.0000
     1.0000   1.0000   1.0000   0.9999   0.9999   0.9999   0.9999   0.9993
     0.9988   0.9985   0.9983   0.9982   0.9978   0.9977   0.9971   0.9967
     0.9965   0.9960   0.9953   0.9950   0.9939   0.9935   0.9921   0.9896
     0.9887   0.9877   0.9860   0.9842   0.9819   0.9783   0.9678   0.9541
     0.9484   0.9410   0.9375   0.9252   0.9154   0.9091   0.9039   0.8977
     0.8686   0.8565   0.8275   0.8251   0.8168   0.7460   0.7420   0.7354
     0.7304   0.7251   0.7186   0.7155   0.7064   0.7021   0.6938   0.6889
     0.6821   0.6772   0.6735   0.6564   0.6502   0.6448   0.6261   0.4547
     0.4076   0.3754   0.3415   0.3264   0.2266   0.1734   0.0791   0.0490
     0.0277   0.0153   0.0072   0.0029   0.0004   0.0004   0.0003   0.0001
     0.0001   0.0001   0.0000   0.0000   0.0000   0.0000   0.0000   0.0000
     0.0000   0.0000   0.0000   0.0000   0.0000   0.0000   0.0000   0.0000
     0.0000   0.0000   0.0000   0.0000   0.0000   0.0000   0.0000

          k =-0.5000 0.2500 0.0000 ( 65138 PWs)   bands (ev):

   -92.3318 -92.2768 -92.1857 -92.1365 -92.0771 -92.0380 -92.0210 -91.8991
   -55.6849 -55.6632 -55.5436 -55.5330 -55.5253 -55.5197 -55.4820 -55.4554
   -55.4391 -55.4370 -55.4279 -55.3859 -55.3674 -55.3292 -55.3117 -55.2766
   -55.2718 -55.2272 -55.2255 -55.2239 -55.2154 -55.1737 -55.1517 -55.0657
   -30.9151 -30.9041 -30.8140 -30.7587 -30.6735 -30.6378 -30.6149 -30.4211
   -29.4810 -29.4421 -29.4138 -29.3066 -22.2491 -14.6195 -14.5764 -14.4982
   -14.4012 -14.3562 -14.2293 -14.1486 -14.0195 -13.7688 -13.7053 -13.6764
   -13.6638 -13.6204 -13.6030 -13.5721 -13.5402 -13.5349 -13.5091 -13.4716
   -13.4577 -13.3629 -13.2765 -13.2356 -13.2257 -13.2158 -13.1572 -13.1098
   -13.0321 -12.9741 -12.8428 -12.8074 -12.7410 -12.7051 -12.6697 -12.6575
   -12.6320 -12.6214 -12.5978 -12.5843 -12.5684 -12.5177 -12.5054 -12.4303
   -12.4019 -12.3671 -12.2639 -12.2565 -12.1811 -12.1063 -11.9657 -11.9586
   -11.8613 -11.8376 -11.4067 -11.3941 -11.3801 -11.3682 -11.3471 -11.3169
   -11.2358 -11.2270 -11.2040 -11.1679 -11.1399 -11.1307  -5.8342  -3.1561
    -3.1507  -2.0759  -2.0333  -1.8837  -1.8420  -1.6828  -1.6067  -1.4629
    -1.3269  -1.2707  -1.2430  -1.2042  -1.1645  -1.0846  -0.9701  -0.9134
    -0.8900  -0.8650  -0.7902  -0.7592  -0.7236  -0.7034  -0.6431  -0.6157
    -0.5752  -0.5398  -0.5113  -0.4542  -0.4282  -0.3864  -0.3523  -0.2483
    -0.2232  -0.1363  -0.0739  -0.0420   0.0144   0.1004   0.1294   0.2347
     0.2605   0.3262   0.3669   0.3970   0.4773   0.5107   0.5426   0.5959
     0.6322   0.9347   0.9820   1.0558   1.0893   1.3663   1.4290   1.5020
     1.5277   1.7099   1.7458   1.7832   1.7982   1.8160   1.8339   1.9019
     1.9448   1.9800   2.0103   2.1135   2.1563   2.1999   2.2094   2.2387
     2.2696   2.2849   2.2983   2.3205   2.3451   2.3874   2.4136   2.4443
     2.4688   2.4925   2.5624   2.6824   2.7784   2.8075   2.8772   2.9202
     2.9724   3.0166   3.0229   3.0531   3.0628   3.0831   3.0959   3.1174
     3.2016   3.2426   3.2563   3.2632   3.2840   3.3070   3.3198   3.3337
     3.3467   3.3661   3.3807   3.3907   3.3984   3.4091   3.4213   3.9453
     3.9749   4.1405   4.1603   4.4416   4.4933   4.5463   4.7483   5.0712
     5.1692   5.2328   5.3456   5.4565   5.7307   5.7704   5.8421   5.9404
     6.0526   6.1307   6.3353   6.4362   6.5650   6.6598   7.1428   7.3360
     7.4750   7.6219   7.9703   8.0655   8.1873   8.2168   8.3167   8.3909
     8.5419   8.6176   8.6866   8.8166   8.8564   8.9133   8.9405

     occupation numbers 
     1.0000   1.0000   1.0000   1.0000   1.0000   1.0000   1.0000   1.0000
     1.0000   1.0000   1.0000   1.0000   1.0000   1.0000   1.0000   1.0000
     1.0000   1.0000   1.0000   1.0000   1.0000   1.0000   1.0000   1.0000
     1.0000   1.0000   1.0000   1.0000   1.0000   1.0000   1.0000   1.0000
     1.0000   1.0000   1.0000   1.0000   1.0000   1.0000   1.0000   1.0000
     1.0000   1.0000   1.0000   1.0000   1.0000   1.0000   1.0000   1.0000
     1.0000   1.0000   1.0000   1.0000   1.0000   1.0000   1.0000   1.0000
     1.0000   1.0000   1.0000   1.0000   1.0000   1.0000   1.0000   1.0000
     1.0000   1.0000   1.0000   1.0000   1.0000   1.0000   1.0000   1.0000
     1.0000   1.0000   1.0000   1.0000   1.0000   1.0000   1.0000   1.0000
     1.0000   1.0000   1.0000   1.0000   1.0000   1.0000   1.0000   1.0000
     1.0000   1.0000   1.0000   1.0000   1.0000   1.0000   1.0000   1.0000
     1.0000   1.0000   1.0000   1.0000   1.0000   1.0000   1.0000   1.0000
     1.0000   1.0000   1.0000   1.0000   1.0000   1.0000   1.0000   1.0000
     1.0000   1.0000   1.0000   1.0000   1.0000   1.0000   1.0000   1.0000
     1.0000   1.0000   1.0000   1.0000   1.0000   1.0000   1.0000   1.0000
     1.0000   1.0000   1.0000   1.0000   1.0000   1.0000   1.0000   1.0000
     1.0000   1.0000   1.0000   1.0000   1.0000   1.0000   1.0000   1.0000
     1.0000   1.0000   1.0000   1.0000   1.0000   1.0000   1.0000   1.0000
     1.0000   1.0000   1.0000   1.0000   1.0000   1.0000   1.0000   1.0000
     1.0000   1.0000   1.0000   1.0000   0.9999   0.9997   0.9996   0.9994
     0.9994   0.9984   0.9981   0.9977   0.9976   0.9974   0.9971   0.9961
     0.9953   0.9945   0.9938   0.9906   0.9888   0.9868   0.9863   0.9847
     0.9828   0.9818   0.9809   0.9793   0.9774   0.9739   0.9714   0.9683
     0.9656   0.9629   0.9536   0.9336   0.9131   0.9061   0.8875   0.8749
     0.8582   0.8429   0.8407   0.8295   0.8259   0.8180   0.8129   0.8042
     0.7679   0.7489   0.7424   0.7390   0.7289   0.7175   0.7110   0.7039
     0.6972   0.6871   0.6794   0.6740   0.6699   0.6641   0.6575   0.3548
     0.3385   0.2539   0.2445   0.1336   0.1178   0.1029   0.0588   0.0205
     0.0143   0.0112   0.0071   0.0044   0.0012   0.0010   0.0007   0.0004
     0.0002   0.0001   0.0000   0.0000   0.0000   0.0000   0.0000   0.0000
     0.0000   0.0000   0.0000   0.0000   0.0000   0.0000   0.0000   0.0000
     0.0000   0.0000   0.0000   0.0000   0.0000   0.0000   0.0000

     the Fermi energy is     3.6945 ev

!    total energy              =   -4482.97123091 Ry
     estimated scf accuracy    <          8.7E-09 Ry
     smearing contrib. (-TS)   =      -1.17239429 Ry
     internal energy E=F+TS    =   -4481.79883663 Ry

     The total energy is F=E-TS. E is the sum of the following terms:
     one-electron contribution =  -20252.51346284 Ry
     hartree contribution      =   10266.01903830 Ry
     xc contribution           =    -701.58035229 Ry
     ewald contribution        =    6491.93319129 Ry
     one-center paw contrib.   =    -285.65725109 Ry
      -> PAW hartree energy AE =      25.18773496 Ry
      -> PAW hartree energy PS =     -25.07140881 Ry
      -> PAW xc energy AE      =     -16.52093563 Ry
      -> PAW xc energy PS      =       6.88059617 Ry
      -> total E_H with PAW    =   10266.13536446 Ry
      -> total E_XC with PAW   =    -711.22069175 Ry

     convergence has been achieved in  52 iterations

     Writing all to output data dir /bsuhome/zayahcortright/scratch/pwscf.save/
 
     init_run     :      8.93s CPU      9.27s WALL (       1 calls)
     electrons    :    808.67s CPU    827.75s WALL (       1 calls)

     Called by init_run:
     wfcinit      :      6.97s CPU      7.14s WALL (       1 calls)
     wfcinit:atom :      0.05s CPU      0.06s WALL (       5 calls)
     wfcinit:wfcr :      6.65s CPU      6.77s WALL (       5 calls)
     potinit      :      0.21s CPU      0.23s WALL (       1 calls)
     hinit0       :      0.77s CPU      0.85s WALL (       1 calls)

     Called by electrons:
     c_bands      :    642.93s CPU    649.05s WALL (      52 calls)
     sum_band     :    124.21s CPU    131.61s WALL (      52 calls)
     v_of_rho     :      5.76s CPU      6.09s WALL (      53 calls)
     v_h          :      0.47s CPU      0.48s WALL (      53 calls)
     v_xc         :      5.29s CPU      5.62s WALL (      53 calls)
     newd         :     20.33s CPU     25.00s WALL (      53 calls)
     PAW_pot      :      1.81s CPU      1.85s WALL (      53 calls)
     mix_rho      :     13.28s CPU     13.67s WALL (      52 calls)

     Called by c_bands:
     init_us_2    :      7.16s CPU      7.22s WALL (     525 calls)
     init_us_2:cp :      7.16s CPU      7.21s WALL (     525 calls)
     cegterg      :    602.14s CPU    607.91s WALL (     260 calls)

     Called by sum_band:
     sum_band:wei :      0.37s CPU      0.37s WALL (      52 calls)
     sum_band:loo :    101.68s CPU    102.76s WALL (      52 calls)
     sum_band:buf :      1.64s CPU      1.72s WALL (     260 calls)
     sum_band:ini :      3.33s CPU      3.34s WALL (     260 calls)
     sum_band:cal :     21.75s CPU     21.90s WALL (     260 calls)
     sum_band:bec :      0.65s CPU      0.68s WALL (     260 calls)
     addusdens    :     17.90s CPU     23.96s WALL (      52 calls)
                                        0.00s GPU  (      52 calls)
     addusd:skk   :      0.37s CPU      0.82s WALL (     208 calls)
                                        0.00s GPU  (     208 calls)

     Called by *egterg:
     cdiaghg      :     63.22s CPU     63.53s WALL (    1449 calls)
     cegterg:over :     45.71s CPU     45.88s WALL (    1189 calls)
     cegterg:upda :     33.62s CPU     34.14s WALL (    1189 calls)
     cegterg:last :     68.86s CPU     69.12s WALL (     485 calls)
     cdiaghg:chol :      3.73s CPU      3.76s WALL (    1449 calls)
     cdiaghg:inve :      4.00s CPU      4.01s WALL (    1449 calls)
     cdiaghg:para :      7.95s CPU      8.00s WALL (    2898 calls)
     h_psi        :    327.61s CPU    330.65s WALL (    1454 calls)
     s_psi        :     44.78s CPU     44.92s WALL (    1454 calls)
     g_psi        :      1.19s CPU      1.19s WALL (    1189 calls)

     Called by h_psi:
     h_psi:calbec :     50.15s CPU     50.35s WALL (    1454 calls)
     vloc_psi     :    229.41s CPU    231.54s WALL (    1454 calls)
     add_vuspsi   :     44.80s CPU     44.98s WALL (    1454 calls)

     General routines
     calbec       :     71.90s CPU     72.24s WALL (    1714 calls)
     fft          :      5.80s CPU      5.85s WALL (     687 calls)
     ffts         :      4.89s CPU      4.95s WALL (    5456 calls)
     fftw         :    192.14s CPU    193.78s WALL (  357942 calls)
     interpolate  :      0.43s CPU      0.43s WALL (      53 calls)
 
     Parallel routines

     PAW routines
     PAW_pot      :      1.81s CPU      1.85s WALL (      53 calls)
 
     PWSCF        :  13m39.76s CPU  14m 2.41s WALL

 
   This run was terminated on:  19:38:14  20Jun2024            

=------------------------------------------------------------------------------=
   JOB DONE.
=------------------------------------------------------------------------------=
