
     Program PWSCF v.7.2 starts on 21Jun2024 at 23:59:31 

     This program is part of the open-source Quantum ESPRESSO suite
     for quantum simulation of materials; please cite
         "P. Giannozzi et al., J. Phys.:Condens. Matter 21 395502 (2009);
         "P. Giannozzi et al., J. Phys.:Condens. Matter 29 465901 (2017);
         "P. Giannozzi et al., J. Chem. Phys. 152 154105 (2020);
          URL http://www.quantum-espresso.org", 
     in publications or presentations arising from this work. More details at
     http://www.quantum-espresso.org/quote

     Parallel version (MPI & OpenMP), running on      48 processor cores
     Number of MPI processes:                48
     Threads/MPI process:                     1

     MPI processes distributed on     1 nodes
     60576 MiB available memory on the printing compute node when the environment starts
 
     Reading input from espresso.pwi
Warning: card &CELL ignored
Warning: card / ignored
Warning: card &FCP ignored
Warning: card / ignored
Warning: card &RISM ignored
Warning: card / ignored

     Current dimensions of program PWSCF are:
     Max number of different atomic species (ntypx) = 10
     Max number of k-points (npk) =  40000
     Max angular momentum in pseudopotentials (lmaxx) =  4
     file O.pbe-n-kjpaw_psl.0.1.UPF: wavefunction(s)  2P renormalized
     signal trapping enabled: kill the code with -SIGUSR1 to stop cleanly the simulation 
 
     K-points division:     npool     =       2
     R & G space division:  proc/nbgrp/npool/nimage =      24
     Subspace diagonalization in iterative solution of the eigenvalue problem:
     one sub-group per band group will be used
     scalapack distributed-memory algorithm (size of sub-group:  3*  3 procs)

 
     Parallelization info
     --------------------
     sticks:   dense  smooth     PW     G-vecs:    dense   smooth      PW
     Min         350     175     47                61430    21716    3036
     Max         351     177     48                61449    21727    3041
     Sum        8421    4205   1137              1474595   521381   72913
 
     Using Slab Decomposition
 


     bravais-lattice index     =            0
     lattice parameter (alat)  =      14.8599  a.u.
     unit-cell volume          =    8305.1283 (a.u.)^3
     number of atoms/cell      =           49
     number of atomic types    =            3
     number of electrons       =       430.00
     number of Kohn-Sham states=          258
     kinetic-energy cutoff     =      60.0000  Ry
     charge density cutoff     =     480.0000  Ry
     scf convergence threshold =      1.0E-08
     mixing beta               =       0.1500
     number of iterations used =            8  local-TF  mixing
     Exchange-correlation= SLA  PW   PBE  PBE
                           (   1   4   3   4   0   0   0)

     celldm(1)=  14.859904  celldm(2)=   0.000000  celldm(3)=   0.000000
     celldm(4)=   0.000000  celldm(5)=   0.000000  celldm(6)=   0.000000

     crystal axes: (cart. coord. in units of alat)
               a(1) = (   1.000000   0.000000   0.000000 )  
               a(2) = (   0.000000   1.000000   0.000000 )  
               a(3) = (   0.000000   0.000000   2.531036 )  

     reciprocal axes: (cart. coord. in units 2 pi/alat)
               b(1) = (  1.000000  0.000000  0.000000 )  
               b(2) = (  0.000000  1.000000  0.000000 )  
               b(3) = (  0.000000  0.000000  0.395095 )  


     PseudoPot. # 1 for Sr read from file:
     /bsuhome/zayahcortright/q-e/pseudo/Sr_pbe_v1.uspp.F.UPF
     MD5 check sum: 6b418c05fbe9db5448babca5e47b7a5b
     Pseudo is Ultrasoft + core correction, Zval = 10.0
     Generated by new atomic code, or converted to UPF format
     Using radial grid of  883 points,  6 beta functions with: 
                l(1) =   0
                l(2) =   0
                l(3) =   1
                l(4) =   1
                l(5) =   2
                l(6) =   2
     Q(r) pseudized with  6 coefficients,  rinner =    1.400   1.400   1.400
                                                       1.400   1.400

     PseudoPot. # 2 for O  read from file:
     /bsuhome/zayahcortright/q-e/pseudo/O.pbe-n-kjpaw_psl.0.1.UPF
     MD5 check sum: 0234752ac141de4415c5fc33072bef88
     Pseudo is Projector augmented-wave + core cor, Zval =  6.0
     Generated using "atomic" code by A. Dal Corso  v.5.0.99 svn rev. 10869
     Shape of augmentation charge: BESSEL
     Using radial grid of 1095 points,  4 beta functions with: 
                l(1) =   0
                l(2) =   0
                l(3) =   1
                l(4) =   1
     Q(r) pseudized with 0 coefficients 


     PseudoPot. # 3 for Co read from file:
     /bsuhome/zayahcortright/q-e/pseudo/Co_pbe_v1.2.uspp.F.UPF
     MD5 check sum: 5f91765df6ddd3222702df6e7b74a16d
     Pseudo is Ultrasoft + core correction, Zval = 17.0
     Generated by new atomic code, or converted to UPF format
     Using radial grid of  863 points,  6 beta functions with: 
                l(1) =   0
                l(2) =   0
                l(3) =   1
                l(4) =   1
                l(5) =   2
                l(6) =   2
     Q(r) pseudized with  8 coefficients,  rinner =    1.200   1.200   1.200
                                                       1.200   1.200

     atomic species   valence    mass     pseudopotential
        Sr            10.00    87.62000     Sr( 1.00)
        O              6.00    15.99900     O ( 1.00)
        Co            17.00    58.93319     Co( 1.00)

     No symmetry found


                                    s                        frac. trans.

      isym =  1     identity                                     

 cryst.   s( 1) = (     1          0          0      )
                  (     0          1          0      )
                  (     0          0          1      )

 cart.    s( 1) = (  1.0000000  0.0000000  0.0000000 )
                  (  0.0000000  1.0000000  0.0000000 )
                  (  0.0000000  0.0000000  1.0000000 )


   Cartesian axes

     site n.     atom                  positions (alat units)
         1           Sr  tau(   1) = (   0.2508693   0.7491307   1.7574407  )
         2           O   tau(   2) = (   0.4985141   0.5014859   1.7715967  )
         3           Sr  tau(   3) = (   0.7482398   0.7454518   1.7648669  )
         4           Sr  tau(   4) = (   0.7441748   0.2558252   1.7667843  )
         5           Sr  tau(   5) = (   0.2508693   0.7491307   1.2696799  )
         6           Sr  tau(   6) = (   0.2508693   0.7491307   0.7632319  )
         7           Co  tau(   7) = (   0.4998914   0.5001086   1.0164559  )
         8           Co  tau(   8) = (   0.4936915   0.5063085   1.5135603  )
         9           O   tau(   9) = (   0.4988895   0.7610401   1.0164559  )
        10           O   tau(  10) = (   0.2389599   0.5011105   1.0164559  )
        11           O   tau(  11) = (   0.0070918   0.7374880   1.0164559  )
        12           O   tau(  12) = (   0.0088340   0.7405089   1.5135603  )
        13           O   tau(  13) = (   0.5066944   0.7415376   1.5135603  )
        14           O   tau(  14) = (   0.2584624   0.4933056   1.5135603  )
        15           O   tau(  15) = (   0.4985141   0.5014859   0.7773880  )
        16           O   tau(  16) = (   0.4985141   0.5014859   1.2555238  )
        17           Sr  tau(  17) = (   0.7482398   0.7454518   0.7706582  )
        18           Sr  tau(  18) = (   0.7482398   0.7454518   1.2622536  )
        19           Sr  tau(  19) = (   0.7441748   0.2558252   0.7725755  )
        20           Sr  tau(  20) = (   0.7441748   0.2558252   1.2603363  )
        21           O   tau(  21) = (   0.7322655   0.0078049   1.5135603  )
        22           O   tau(  22) = (   0.7558175   0.4996027   1.5135603  )
        23           O   tau(  23) = (   0.5003973   0.2441825   1.5135603  )
        24           O   tau(  24) = (   0.7527966   0.4978604   1.0164559  )
        25           O   tau(  25) = (   0.5021396   0.2472034   1.0164559  )
        26           O   tau(  26) = (   0.7517679   0.0000000   1.0164559  )
        27           O   tau(  27) = (   0.0114961   0.4948124   1.7455321  )
        28           O   tau(  28) = (   0.0048226   0.0077944   1.7715967  )
        29           Sr  tau(  29) = (   0.2545482   0.2517602   1.7648669  )
        30           O   tau(  30) = (   0.5048017   0.0015068   1.7786929  )
        31           Co  tau(  31) = (   0.0056869   0.5006215   1.0164559  )
        32           Co  tau(  32) = (   0.0065315   0.4997770   1.5135603  )
        33           Co  tau(  33) = (   0.0061999   0.0064171   1.0164559  )
        34           Co  tau(  34) = (   0.0000000   0.0126169   1.5135603  )
        35           O   tau(  35) = (   0.0114961   0.4948124   1.2815885  )
        36           O   tau(  36) = (   0.0114961   0.4948124   0.7513233  )
        37           O   tau(  37) = (   0.0051979   0.2673486   1.0164559  )
        38           O   tau(  38) = (   0.0130029   0.2478461   1.5135603  )
        39           O   tau(  39) = (   0.0048226   0.0077944   0.7773880  )
        40           O   tau(  40) = (   0.0048226   0.0077944   1.2555238  )
        41           Sr  tau(  41) = (   0.2545482   0.2517602   0.7706582  )
        42           Sr  tau(  42) = (   0.2545482   0.2517602   1.2622536  )
        43           Co  tau(  43) = (   0.4989925   0.0073160   1.5135603  )
        44           Co  tau(  44) = (   0.4998370   0.0064714   1.0164559  )
        45           O   tau(  45) = (   0.5048017   0.0015068   0.7844841  )
        46           O   tau(  46) = (   0.5048017   0.0015068   1.2484277  )
        47           O   tau(  47) = (   0.2621260   0.0059111   1.5135603  )
        48           O   tau(  48) = (   0.2591051   0.0041689   1.0164559  )
        49           O   tau(  49) = (   0.7108228   0.8529874   2.1602013  )

   Crystallographic axes

     site n.     atom                  positions (cryst. coord.)
         1           Sr  tau(   1) = (  0.2508693  0.7491307  0.6943562  )
         2           O   tau(   2) = (  0.4985141  0.5014859  0.6999492  )
         3           Sr  tau(   3) = (  0.7482398  0.7454518  0.6972903  )
         4           Sr  tau(   4) = (  0.7441748  0.2558252  0.6980478  )
         5           Sr  tau(   5) = (  0.2508693  0.7491307  0.5016443  )
         6           Sr  tau(   6) = (  0.2508693  0.7491307  0.3015492  )
         7           Co  tau(   7) = (  0.4998914  0.5001086  0.4015968  )
         8           Co  tau(   8) = (  0.4936915  0.5063085  0.5980003  )
         9           O   tau(   9) = (  0.4988895  0.7610401  0.4015968  )
        10           O   tau(  10) = (  0.2389599  0.5011105  0.4015968  )
        11           O   tau(  11) = (  0.0070918  0.7374880  0.4015968  )
        12           O   tau(  12) = (  0.0088340  0.7405089  0.5980003  )
        13           O   tau(  13) = (  0.5066944  0.7415376  0.5980003  )
        14           O   tau(  14) = (  0.2584624  0.4933056  0.5980003  )
        15           O   tau(  15) = (  0.4985141  0.5014859  0.3071422  )
        16           O   tau(  16) = (  0.4985141  0.5014859  0.4960513  )
        17           Sr  tau(  17) = (  0.7482398  0.7454518  0.3044833  )
        18           Sr  tau(  18) = (  0.7482398  0.7454518  0.4987103  )
        19           Sr  tau(  19) = (  0.7441748  0.2558252  0.3052408  )
        20           Sr  tau(  20) = (  0.7441748  0.2558252  0.4979527  )
        21           O   tau(  21) = (  0.7322655  0.0078049  0.5980003  )
        22           O   tau(  22) = (  0.7558175  0.4996027  0.5980003  )
        23           O   tau(  23) = (  0.5003973  0.2441825  0.5980003  )
        24           O   tau(  24) = (  0.7527966  0.4978604  0.4015968  )
        25           O   tau(  25) = (  0.5021396  0.2472034  0.4015968  )
        26           O   tau(  26) = (  0.7517679  0.0000000  0.4015968  )
        27           O   tau(  27) = (  0.0114961  0.4948124  0.6896512  )
        28           O   tau(  28) = (  0.0048226  0.0077944  0.6999492  )
        29           Sr  tau(  29) = (  0.2545482  0.2517602  0.6972903  )
        30           O   tau(  30) = (  0.5048017  0.0015068  0.7027529  )
        31           Co  tau(  31) = (  0.0056869  0.5006215  0.4015968  )
        32           Co  tau(  32) = (  0.0065315  0.4997770  0.5980003  )
        33           Co  tau(  33) = (  0.0061999  0.0064171  0.4015968  )
        34           Co  tau(  34) = (  0.0000000  0.0126169  0.5980003  )
        35           O   tau(  35) = (  0.0114961  0.4948124  0.5063494  )
        36           O   tau(  36) = (  0.0114961  0.4948124  0.2968442  )
        37           O   tau(  37) = (  0.0051979  0.2673486  0.4015968  )
        38           O   tau(  38) = (  0.0130029  0.2478461  0.5980003  )
        39           O   tau(  39) = (  0.0048226  0.0077944  0.3071422  )
        40           O   tau(  40) = (  0.0048226  0.0077944  0.4960513  )
        41           Sr  tau(  41) = (  0.2545482  0.2517602  0.3044833  )
        42           Sr  tau(  42) = (  0.2545482  0.2517602  0.4987103  )
        43           Co  tau(  43) = (  0.4989925  0.0073160  0.5980003  )
        44           Co  tau(  44) = (  0.4998370  0.0064714  0.4015968  )
        45           O   tau(  45) = (  0.5048017  0.0015068  0.3099459  )
        46           O   tau(  46) = (  0.5048017  0.0015068  0.4932477  )
        47           O   tau(  47) = (  0.2621260  0.0059111  0.5980003  )
        48           O   tau(  48) = (  0.2591051  0.0041689  0.4015968  )
        49           O   tau(  49) = (  0.7108228  0.8529874  0.8534850  )

     number of k points=    10  Gaussian smearing, width (Ry)=  0.0700
                       cart. coord. in units 2pi/alat
        k(    1) = (   0.0000000   0.0000000   0.0000000), wk =   0.1250000
        k(    2) = (   0.0000000   0.2500000   0.0000000), wk =   0.2500000
        k(    3) = (   0.0000000  -0.5000000   0.0000000), wk =   0.1250000
        k(    4) = (   0.2500000   0.2500000   0.0000000), wk =   0.2500000
        k(    5) = (   0.2500000  -0.5000000   0.0000000), wk =   0.2500000
        k(    6) = (  -0.5000000  -0.5000000   0.0000000), wk =   0.1250000
        k(    7) = (   0.2500000   0.0000000   0.0000000), wk =   0.2500000
        k(    8) = (  -0.5000000   0.0000000   0.0000000), wk =   0.1250000
        k(    9) = (  -0.2500000   0.2500000   0.0000000), wk =   0.2500000
        k(   10) = (  -0.5000000   0.2500000   0.0000000), wk =   0.2500000

                       cryst. coord.
        k(    1) = (   0.0000000   0.0000000   0.0000000), wk =   0.1250000
        k(    2) = (   0.0000000   0.2500000   0.0000000), wk =   0.2500000
        k(    3) = (   0.0000000  -0.5000000   0.0000000), wk =   0.1250000
        k(    4) = (   0.2500000   0.2500000   0.0000000), wk =   0.2500000
        k(    5) = (   0.2500000  -0.5000000   0.0000000), wk =   0.2500000
        k(    6) = (  -0.5000000  -0.5000000   0.0000000), wk =   0.1250000
        k(    7) = (   0.2500000   0.0000000   0.0000000), wk =   0.2500000
        k(    8) = (  -0.5000000   0.0000000   0.0000000), wk =   0.1250000
        k(    9) = (  -0.2500000   0.2500000   0.0000000), wk =   0.2500000
        k(   10) = (  -0.5000000   0.2500000   0.0000000), wk =   0.2500000

     Dense  grid:  1474595 G-vectors     FFT dimensions: ( 108, 108, 270)

     Smooth grid:   521381 G-vectors     FFT dimensions: (  75,  75, 192)

     Dynamical RAM for                 wfc:      10.69 MB

     Dynamical RAM for     wfc (w. buffer):      64.13 MB

     Dynamical RAM for           str. fact:       2.81 MB

     Dynamical RAM for           local pot:       0.00 MB

     Dynamical RAM for          nlocal pot:      24.53 MB

     Dynamical RAM for                qrad:       5.27 MB

     Dynamical RAM for          rho,v,vnew:       6.02 MB

     Dynamical RAM for               rhoin:       2.01 MB

     Dynamical RAM for            rho*nmix:      15.00 MB

     Dynamical RAM for           G-vectors:       3.68 MB

     Dynamical RAM for          h,s,v(r/c):       1.35 MB

     Dynamical RAM for          <psi|beta>:       2.33 MB

     Dynamical RAM for                 psi:      21.38 MB

     Dynamical RAM for                hpsi:      21.38 MB

     Dynamical RAM for                spsi:      21.38 MB

     Dynamical RAM for      wfcinit/wfcrot:      34.39 MB

     Dynamical RAM for           addusdens:     101.26 MB

     Estimated static dynamical RAM per process >     117.53 MB

     Estimated max dynamical RAM per process >     233.79 MB

     Estimated total dynamical RAM >      10.61 GB

     Check: negative core charge=   -0.000004

     Initial potential from superposition of free atoms

     starting charge     421.5961, renormalised to     430.0000

     negative rho (up, down):  7.826E-01 0.000E+00
     Starting wfcs are  376 randomized atomic wfcs
     Checking if some PAW data can be deallocated... 
       PAW data deallocated on   19 nodes for type:  2

     total cpu time spent up to now is        8.7 secs

     Self-consistent Calculation

     iteration #  1     ecut=    60.00 Ry     beta= 0.15
     Davidson diagonalization with overlap

---- Real-time Memory Report at c_bands before calling an iterative solver
             0 MiB given to the printing process from OS
             0 MiB allocation reported by mallinfo(arena+hblkhd)
         51471 MiB available memory on the node where the printing process lives
------------------
     ethr =  1.00E-02,  avg # of iterations =  2.0

     negative rho (up, down):  7.716E-01 0.000E+00

     total cpu time spent up to now is       23.7 secs

     total energy              =   -4445.19197431 Ry
     estimated scf accuracy    <      53.79397690 Ry

     iteration #  2     ecut=    60.00 Ry     beta= 0.15
     Davidson diagonalization with overlap

---- Real-time Memory Report at c_bands before calling an iterative solver
             0 MiB given to the printing process from OS
             0 MiB allocation reported by mallinfo(arena+hblkhd)
         51818 MiB available memory on the node where the printing process lives
------------------
     ethr =  1.00E-02,  avg # of iterations =  1.0

     negative rho (up, down):  7.595E-01 0.000E+00

     total cpu time spent up to now is       36.5 secs

     total energy              =   -4442.04171003 Ry
     estimated scf accuracy    <      27.97405420 Ry

     iteration #  3     ecut=    60.00 Ry     beta= 0.15
     Davidson diagonalization with overlap

---- Real-time Memory Report at c_bands before calling an iterative solver
             0 MiB given to the printing process from OS
             0 MiB allocation reported by mallinfo(arena+hblkhd)
         51057 MiB available memory on the node where the printing process lives
------------------
     ethr =  6.51E-03,  avg # of iterations =  1.0

     negative rho (up, down):  7.528E-01 0.000E+00

     total cpu time spent up to now is       49.1 secs

     total energy              =   -4442.55110616 Ry
     estimated scf accuracy    <      30.60749937 Ry

     iteration #  4     ecut=    60.00 Ry     beta= 0.15
     Davidson diagonalization with overlap

---- Real-time Memory Report at c_bands before calling an iterative solver
             0 MiB given to the printing process from OS
             0 MiB allocation reported by mallinfo(arena+hblkhd)
         51008 MiB available memory on the node where the printing process lives
------------------
     ethr =  6.51E-03,  avg # of iterations =  1.0

     negative rho (up, down):  7.525E-01 0.000E+00

     total cpu time spent up to now is       61.8 secs

     total energy              =   -4442.90162944 Ry
     estimated scf accuracy    <      28.87095095 Ry

     iteration #  5     ecut=    60.00 Ry     beta= 0.15
     Davidson diagonalization with overlap

---- Real-time Memory Report at c_bands before calling an iterative solver
             0 MiB given to the printing process from OS
             0 MiB allocation reported by mallinfo(arena+hblkhd)
         50995 MiB available memory on the node where the printing process lives
------------------
     ethr =  6.51E-03,  avg # of iterations =  1.0

     negative rho (up, down):  7.359E-01 0.000E+00

     total cpu time spent up to now is       74.1 secs

     total energy              =   -4442.34420945 Ry
     estimated scf accuracy    <      32.14645190 Ry

     iteration #  6     ecut=    60.00 Ry     beta= 0.15
     Davidson diagonalization with overlap

---- Real-time Memory Report at c_bands before calling an iterative solver
             0 MiB given to the printing process from OS
             0 MiB allocation reported by mallinfo(arena+hblkhd)
         50979 MiB available memory on the node where the printing process lives
------------------
     ethr =  6.51E-03,  avg # of iterations =  1.0

     negative rho (up, down):  7.462E-01 0.000E+00

     total cpu time spent up to now is       86.8 secs

     total energy              =   -4441.98267153 Ry
     estimated scf accuracy    <      44.11069754 Ry

     iteration #  7     ecut=    60.00 Ry     beta= 0.15
     Davidson diagonalization with overlap

---- Real-time Memory Report at c_bands before calling an iterative solver
             0 MiB given to the printing process from OS
             0 MiB allocation reported by mallinfo(arena+hblkhd)
         50957 MiB available memory on the node where the printing process lives
------------------
     ethr =  6.51E-03,  avg # of iterations =  1.0

     negative rho (up, down):  7.446E-01 0.000E+00

     total cpu time spent up to now is       99.3 secs

     total energy              =   -4440.24150082 Ry
     estimated scf accuracy    <      36.92616878 Ry

     iteration #  8     ecut=    60.00 Ry     beta= 0.15
     Davidson diagonalization with overlap

---- Real-time Memory Report at c_bands before calling an iterative solver
             0 MiB given to the printing process from OS
             0 MiB allocation reported by mallinfo(arena+hblkhd)
         50944 MiB available memory on the node where the printing process lives
------------------
     ethr =  6.51E-03,  avg # of iterations =  1.0

     negative rho (up, down):  7.401E-01 0.000E+00

     total cpu time spent up to now is      111.7 secs

     total energy              =   -4440.89392536 Ry
     estimated scf accuracy    <       5.65289375 Ry

     iteration #  9     ecut=    60.00 Ry     beta= 0.15
     Davidson diagonalization with overlap

---- Real-time Memory Report at c_bands before calling an iterative solver
             0 MiB given to the printing process from OS
             0 MiB allocation reported by mallinfo(arena+hblkhd)
         50922 MiB available memory on the node where the printing process lives
------------------
     ethr =  1.31E-03,  avg # of iterations =  1.8

     negative rho (up, down):  7.594E-01 0.000E+00

     total cpu time spent up to now is      125.3 secs

     total energy              =   -4440.16017043 Ry
     estimated scf accuracy    <      12.63703421 Ry

     iteration # 10     ecut=    60.00 Ry     beta= 0.15
     Davidson diagonalization with overlap

---- Real-time Memory Report at c_bands before calling an iterative solver
             0 MiB given to the printing process from OS
             0 MiB allocation reported by mallinfo(arena+hblkhd)
         50896 MiB available memory on the node where the printing process lives
------------------
     ethr =  1.31E-03,  avg # of iterations =  2.1

     negative rho (up, down):  7.614E-01 0.000E+00

     total cpu time spent up to now is      139.1 secs

     total energy              =   -4440.50199948 Ry
     estimated scf accuracy    <      14.91507554 Ry

     iteration # 11     ecut=    60.00 Ry     beta= 0.15
     Davidson diagonalization with overlap

---- Real-time Memory Report at c_bands before calling an iterative solver
             0 MiB given to the printing process from OS
             0 MiB allocation reported by mallinfo(arena+hblkhd)
         50892 MiB available memory on the node where the printing process lives
------------------
     ethr =  1.31E-03,  avg # of iterations =  4.0

     negative rho (up, down):  7.729E-01 0.000E+00

     total cpu time spent up to now is      153.7 secs

     total energy              =   -4440.51055540 Ry
     estimated scf accuracy    <       2.85421995 Ry

     iteration # 12     ecut=    60.00 Ry     beta= 0.15
     Davidson diagonalization with overlap

---- Real-time Memory Report at c_bands before calling an iterative solver
             0 MiB given to the printing process from OS
             0 MiB allocation reported by mallinfo(arena+hblkhd)
         50861 MiB available memory on the node where the printing process lives
------------------
     ethr =  6.64E-04,  avg # of iterations = 11.3

     negative rho (up, down):  7.787E-01 0.000E+00

     total cpu time spent up to now is      172.5 secs

     total energy              =   -4440.54300316 Ry
     estimated scf accuracy    <       1.22662708 Ry

     iteration # 13     ecut=    60.00 Ry     beta= 0.15
     Davidson diagonalization with overlap

---- Real-time Memory Report at c_bands before calling an iterative solver
             0 MiB given to the printing process from OS
             0 MiB allocation reported by mallinfo(arena+hblkhd)
         50484 MiB available memory on the node where the printing process lives
------------------
     ethr =  2.85E-04,  avg # of iterations =  3.7

     negative rho (up, down):  7.985E-01 0.000E+00

     total cpu time spent up to now is      187.3 secs

     total energy              =   -4440.47273880 Ry
     estimated scf accuracy    <       1.68536467 Ry

     iteration # 14     ecut=    60.00 Ry     beta= 0.15
     Davidson diagonalization with overlap

---- Real-time Memory Report at c_bands before calling an iterative solver
             0 MiB given to the printing process from OS
             0 MiB allocation reported by mallinfo(arena+hblkhd)
         50456 MiB available memory on the node where the printing process lives
------------------
     ethr =  2.85E-04,  avg # of iterations =  3.7

     negative rho (up, down):  8.159E-01 0.000E+00

     total cpu time spent up to now is      202.2 secs

     total energy              =   -4440.44297644 Ry
     estimated scf accuracy    <       0.96583450 Ry

     iteration # 15     ecut=    60.00 Ry     beta= 0.15
     Davidson diagonalization with overlap

---- Real-time Memory Report at c_bands before calling an iterative solver
             0 MiB given to the printing process from OS
             0 MiB allocation reported by mallinfo(arena+hblkhd)
         50454 MiB available memory on the node where the printing process lives
------------------
     ethr =  2.25E-04,  avg # of iterations =  7.3

     negative rho (up, down):  8.247E-01 0.000E+00

     total cpu time spent up to now is      218.3 secs

     total energy              =   -4440.40854339 Ry
     estimated scf accuracy    <       0.48310378 Ry

     iteration # 16     ecut=    60.00 Ry     beta= 0.15
     Davidson diagonalization with overlap

---- Real-time Memory Report at c_bands before calling an iterative solver
             0 MiB given to the printing process from OS
             0 MiB allocation reported by mallinfo(arena+hblkhd)
         50455 MiB available memory on the node where the printing process lives
------------------
     c_bands:  2 eigenvalues not converged
     ethr =  1.12E-04,  avg # of iterations =  8.9

     negative rho (up, down):  8.230E-01 0.000E+00

     total cpu time spent up to now is      235.2 secs

     total energy              =   -4440.36662656 Ry
     estimated scf accuracy    <       1.09262648 Ry

     iteration # 17     ecut=    60.00 Ry     beta= 0.15
     Davidson diagonalization with overlap

---- Real-time Memory Report at c_bands before calling an iterative solver
             0 MiB given to the printing process from OS
             0 MiB allocation reported by mallinfo(arena+hblkhd)
         50424 MiB available memory on the node where the printing process lives
------------------
     ethr =  1.12E-04,  avg # of iterations =  4.8

     negative rho (up, down):  8.233E-01 0.000E+00

     total cpu time spent up to now is      250.0 secs

     total energy              =   -4440.37574187 Ry
     estimated scf accuracy    <       0.18640368 Ry

     iteration # 18     ecut=    60.00 Ry     beta= 0.15
     Davidson diagonalization with overlap

---- Real-time Memory Report at c_bands before calling an iterative solver
             0 MiB given to the printing process from OS
             0 MiB allocation reported by mallinfo(arena+hblkhd)
         50497 MiB available memory on the node where the printing process lives
------------------
     ethr =  4.33E-05,  avg # of iterations =  7.3

     negative rho (up, down):  8.087E-01 0.000E+00

     total cpu time spent up to now is      266.1 secs

     total energy              =   -4440.34438808 Ry
     estimated scf accuracy    <       0.22177278 Ry

     iteration # 19     ecut=    60.00 Ry     beta= 0.15
     Davidson diagonalization with overlap

---- Real-time Memory Report at c_bands before calling an iterative solver
             0 MiB given to the printing process from OS
             0 MiB allocation reported by mallinfo(arena+hblkhd)
         50542 MiB available memory on the node where the printing process lives
------------------
     ethr =  4.33E-05,  avg # of iterations = 10.3

     negative rho (up, down):  8.100E-01 0.000E+00

     total cpu time spent up to now is      283.7 secs

     total energy              =   -4440.33496418 Ry
     estimated scf accuracy    <       0.13554341 Ry

     iteration # 20     ecut=    60.00 Ry     beta= 0.15
     Davidson diagonalization with overlap

---- Real-time Memory Report at c_bands before calling an iterative solver
             0 MiB given to the printing process from OS
             0 MiB allocation reported by mallinfo(arena+hblkhd)
         50457 MiB available memory on the node where the printing process lives
------------------
     ethr =  3.15E-05,  avg # of iterations =  6.2

     negative rho (up, down):  8.149E-01 0.000E+00

     total cpu time spent up to now is      300.2 secs

     total energy              =   -4440.32657938 Ry
     estimated scf accuracy    <       0.10767201 Ry

     iteration # 21     ecut=    60.00 Ry     beta= 0.15
     Davidson diagonalization with overlap

---- Real-time Memory Report at c_bands before calling an iterative solver
             0 MiB given to the printing process from OS
             0 MiB allocation reported by mallinfo(arena+hblkhd)
         50379 MiB available memory on the node where the printing process lives
------------------
     ethr =  2.50E-05,  avg # of iterations =  7.9

     negative rho (up, down):  8.195E-01 0.000E+00

     total cpu time spent up to now is      317.2 secs

     total energy              =   -4440.31461445 Ry
     estimated scf accuracy    <       0.06981938 Ry

     iteration # 22     ecut=    60.00 Ry     beta= 0.15
     Davidson diagonalization with overlap

---- Real-time Memory Report at c_bands before calling an iterative solver
             0 MiB given to the printing process from OS
             0 MiB allocation reported by mallinfo(arena+hblkhd)
         50376 MiB available memory on the node where the printing process lives
------------------
     ethr =  1.62E-05,  avg # of iterations =  9.8

     negative rho (up, down):  8.232E-01 0.000E+00

     total cpu time spent up to now is      335.5 secs

     total energy              =   -4440.31548861 Ry
     estimated scf accuracy    <       0.03068423 Ry

     iteration # 23     ecut=    60.00 Ry     beta= 0.15
     Davidson diagonalization with overlap

---- Real-time Memory Report at c_bands before calling an iterative solver
             0 MiB given to the printing process from OS
             0 MiB allocation reported by mallinfo(arena+hblkhd)
         50263 MiB available memory on the node where the printing process lives
------------------
     ethr =  7.14E-06,  avg # of iterations =  4.0

     negative rho (up, down):  8.159E-01 0.000E+00

     total cpu time spent up to now is      350.7 secs

     total energy              =   -4440.31308385 Ry
     estimated scf accuracy    <       0.02352630 Ry

     iteration # 24     ecut=    60.00 Ry     beta= 0.15
     Davidson diagonalization with overlap

---- Real-time Memory Report at c_bands before calling an iterative solver
             0 MiB given to the printing process from OS
             0 MiB allocation reported by mallinfo(arena+hblkhd)
         50286 MiB available memory on the node where the printing process lives
------------------
     c_bands:  1 eigenvalues not converged
     c_bands:  2 eigenvalues not converged
     ethr =  5.47E-06,  avg # of iterations = 10.7

     negative rho (up, down):  8.024E-01 0.000E+00

     total cpu time spent up to now is      368.6 secs

     total energy              =   -4440.31051045 Ry
     estimated scf accuracy    <       0.01665628 Ry

     iteration # 25     ecut=    60.00 Ry     beta= 0.15
     Davidson diagonalization with overlap

---- Real-time Memory Report at c_bands before calling an iterative solver
             0 MiB given to the printing process from OS
             0 MiB allocation reported by mallinfo(arena+hblkhd)
         50337 MiB available memory on the node where the printing process lives
------------------
     c_bands:  1 eigenvalues not converged
     ethr =  3.87E-06,  avg # of iterations =  5.5

     negative rho (up, down):  7.966E-01 0.000E+00

     total cpu time spent up to now is      384.5 secs

     total energy              =   -4440.30961666 Ry
     estimated scf accuracy    <       0.00909785 Ry

     iteration # 26     ecut=    60.00 Ry     beta= 0.15
     Davidson diagonalization with overlap

---- Real-time Memory Report at c_bands before calling an iterative solver
             0 MiB given to the printing process from OS
             0 MiB allocation reported by mallinfo(arena+hblkhd)
         50340 MiB available memory on the node where the printing process lives
------------------
     ethr =  2.12E-06,  avg # of iterations =  9.5

     negative rho (up, down):  7.982E-01 0.000E+00

     total cpu time spent up to now is      402.3 secs

     total energy              =   -4440.30907280 Ry
     estimated scf accuracy    <       0.00525810 Ry

     iteration # 27     ecut=    60.00 Ry     beta= 0.15
     Davidson diagonalization with overlap

---- Real-time Memory Report at c_bands before calling an iterative solver
             0 MiB given to the printing process from OS
             0 MiB allocation reported by mallinfo(arena+hblkhd)
         50305 MiB available memory on the node where the printing process lives
------------------
     ethr =  1.22E-06,  avg # of iterations =  5.2

     negative rho (up, down):  8.015E-01 0.000E+00

     total cpu time spent up to now is      418.1 secs

     total energy              =   -4440.30904836 Ry
     estimated scf accuracy    <       0.00265720 Ry

     iteration # 28     ecut=    60.00 Ry     beta= 0.15
     Davidson diagonalization with overlap

---- Real-time Memory Report at c_bands before calling an iterative solver
             0 MiB given to the printing process from OS
             0 MiB allocation reported by mallinfo(arena+hblkhd)
         50320 MiB available memory on the node where the printing process lives
------------------
     c_bands:  1 eigenvalues not converged
     ethr =  6.18E-07,  avg # of iterations = 10.0

     negative rho (up, down):  7.995E-01 0.000E+00

     total cpu time spent up to now is      436.2 secs

     total energy              =   -4440.30897191 Ry
     estimated scf accuracy    <       0.00135827 Ry

     iteration # 29     ecut=    60.00 Ry     beta= 0.15
     Davidson diagonalization with overlap

---- Real-time Memory Report at c_bands before calling an iterative solver
             0 MiB given to the printing process from OS
             0 MiB allocation reported by mallinfo(arena+hblkhd)
         50303 MiB available memory on the node where the printing process lives
------------------
     c_bands:  1 eigenvalues not converged
     ethr =  3.16E-07,  avg # of iterations =  9.9

     negative rho (up, down):  7.975E-01 0.000E+00

     total cpu time spent up to now is      454.4 secs

     total energy              =   -4440.30894888 Ry
     estimated scf accuracy    <       0.00061859 Ry

     iteration # 30     ecut=    60.00 Ry     beta= 0.15
     Davidson diagonalization with overlap

---- Real-time Memory Report at c_bands before calling an iterative solver
             0 MiB given to the printing process from OS
             0 MiB allocation reported by mallinfo(arena+hblkhd)
         50264 MiB available memory on the node where the printing process lives
------------------
     ethr =  1.44E-07,  avg # of iterations =  3.4

     negative rho (up, down):  7.971E-01 0.000E+00

     total cpu time spent up to now is      470.6 secs

     total energy              =   -4440.30898856 Ry
     estimated scf accuracy    <       0.00028536 Ry

     iteration # 31     ecut=    60.00 Ry     beta= 0.15
     Davidson diagonalization with overlap

---- Real-time Memory Report at c_bands before calling an iterative solver
             0 MiB given to the printing process from OS
             0 MiB allocation reported by mallinfo(arena+hblkhd)
         50211 MiB available memory on the node where the printing process lives
------------------
     ethr =  6.64E-08,  avg # of iterations =  2.0

     negative rho (up, down):  7.951E-01 0.000E+00

     total cpu time spent up to now is      484.5 secs

     total energy              =   -4440.30896257 Ry
     estimated scf accuracy    <       0.00018464 Ry

     iteration # 32     ecut=    60.00 Ry     beta= 0.15
     Davidson diagonalization with overlap

---- Real-time Memory Report at c_bands before calling an iterative solver
             0 MiB given to the printing process from OS
             0 MiB allocation reported by mallinfo(arena+hblkhd)
         50230 MiB available memory on the node where the printing process lives
------------------
     ethr =  4.29E-08,  avg # of iterations =  5.2

     negative rho (up, down):  7.934E-01 0.000E+00

     total cpu time spent up to now is      500.2 secs

     total energy              =   -4440.30895589 Ry
     estimated scf accuracy    <       0.00009916 Ry

     iteration # 33     ecut=    60.00 Ry     beta= 0.15
     Davidson diagonalization with overlap

---- Real-time Memory Report at c_bands before calling an iterative solver
             0 MiB given to the printing process from OS
             0 MiB allocation reported by mallinfo(arena+hblkhd)
         50233 MiB available memory on the node where the printing process lives
------------------
     ethr =  2.31E-08,  avg # of iterations =  3.7

     negative rho (up, down):  7.923E-01 0.000E+00

     total cpu time spent up to now is      515.1 secs

     total energy              =   -4440.30895818 Ry
     estimated scf accuracy    <       0.00004973 Ry

     iteration # 34     ecut=    60.00 Ry     beta= 0.15
     Davidson diagonalization with overlap

---- Real-time Memory Report at c_bands before calling an iterative solver
             0 MiB given to the printing process from OS
             0 MiB allocation reported by mallinfo(arena+hblkhd)
         50246 MiB available memory on the node where the printing process lives
------------------
     ethr =  1.16E-08,  avg # of iterations =  3.8

     negative rho (up, down):  7.923E-01 0.000E+00

     total cpu time spent up to now is      530.7 secs

     total energy              =   -4440.30896261 Ry
     estimated scf accuracy    <       0.00000911 Ry

     iteration # 35     ecut=    60.00 Ry     beta= 0.15
     Davidson diagonalization with overlap

---- Real-time Memory Report at c_bands before calling an iterative solver
             0 MiB given to the printing process from OS
             0 MiB allocation reported by mallinfo(arena+hblkhd)
         50245 MiB available memory on the node where the printing process lives
------------------
     ethr =  2.12E-09,  avg # of iterations =  2.0

     negative rho (up, down):  7.923E-01 0.000E+00

     total cpu time spent up to now is      544.7 secs

     total energy              =   -4440.30896278 Ry
     estimated scf accuracy    <       0.00000552 Ry

     iteration # 36     ecut=    60.00 Ry     beta= 0.15
     Davidson diagonalization with overlap

---- Real-time Memory Report at c_bands before calling an iterative solver
             0 MiB given to the printing process from OS
             0 MiB allocation reported by mallinfo(arena+hblkhd)
         50303 MiB available memory on the node where the printing process lives
------------------
     ethr =  1.28E-09,  avg # of iterations =  2.0

     negative rho (up, down):  7.924E-01 0.000E+00

     total cpu time spent up to now is      558.7 secs

     total energy              =   -4440.30896291 Ry
     estimated scf accuracy    <       0.00000268 Ry

     iteration # 37     ecut=    60.00 Ry     beta= 0.15
     Davidson diagonalization with overlap

---- Real-time Memory Report at c_bands before calling an iterative solver
             0 MiB given to the printing process from OS
             0 MiB allocation reported by mallinfo(arena+hblkhd)
         50296 MiB available memory on the node where the printing process lives
------------------
     ethr =  6.24E-10,  avg # of iterations =  2.0

     negative rho (up, down):  7.925E-01 0.000E+00

     total cpu time spent up to now is      572.5 secs

     total energy              =   -4440.30896289 Ry
     estimated scf accuracy    <       0.00000142 Ry

     iteration # 38     ecut=    60.00 Ry     beta= 0.15
     Davidson diagonalization with overlap

---- Real-time Memory Report at c_bands before calling an iterative solver
             0 MiB given to the printing process from OS
             0 MiB allocation reported by mallinfo(arena+hblkhd)
         50307 MiB available memory on the node where the printing process lives
------------------
     ethr =  3.30E-10,  avg # of iterations =  2.0

     negative rho (up, down):  7.925E-01 0.000E+00

     total cpu time spent up to now is      586.5 secs

     total energy              =   -4440.30896306 Ry
     estimated scf accuracy    <       0.00000108 Ry

     iteration # 39     ecut=    60.00 Ry     beta= 0.15
     Davidson diagonalization with overlap

---- Real-time Memory Report at c_bands before calling an iterative solver
             0 MiB given to the printing process from OS
             0 MiB allocation reported by mallinfo(arena+hblkhd)
         50309 MiB available memory on the node where the printing process lives
------------------
     ethr =  2.50E-10,  avg # of iterations =  1.9

     negative rho (up, down):  7.926E-01 0.000E+00

     total cpu time spent up to now is      600.3 secs

     total energy              =   -4440.30896319 Ry
     estimated scf accuracy    <       0.00000071 Ry

     iteration # 40     ecut=    60.00 Ry     beta= 0.15
     Davidson diagonalization with overlap

---- Real-time Memory Report at c_bands before calling an iterative solver
             0 MiB given to the printing process from OS
             0 MiB allocation reported by mallinfo(arena+hblkhd)
         50310 MiB available memory on the node where the printing process lives
------------------
     ethr =  1.65E-10,  avg # of iterations =  2.8

     negative rho (up, down):  7.926E-01 0.000E+00

     total cpu time spent up to now is      614.7 secs

     total energy              =   -4440.30896318 Ry
     estimated scf accuracy    <       0.00000050 Ry

     iteration # 41     ecut=    60.00 Ry     beta= 0.15
     Davidson diagonalization with overlap

---- Real-time Memory Report at c_bands before calling an iterative solver
             0 MiB given to the printing process from OS
             0 MiB allocation reported by mallinfo(arena+hblkhd)
         50315 MiB available memory on the node where the printing process lives
------------------
     ethr =  1.17E-10,  avg # of iterations =  2.0

     negative rho (up, down):  7.927E-01 0.000E+00

     total cpu time spent up to now is      628.7 secs

     total energy              =   -4440.30896298 Ry
     estimated scf accuracy    <       0.00000032 Ry

     iteration # 42     ecut=    60.00 Ry     beta= 0.15
     Davidson diagonalization with overlap

---- Real-time Memory Report at c_bands before calling an iterative solver
             0 MiB given to the printing process from OS
             0 MiB allocation reported by mallinfo(arena+hblkhd)
         50328 MiB available memory on the node where the printing process lives
------------------
     ethr =  7.53E-11,  avg # of iterations =  2.6

     negative rho (up, down):  7.927E-01 0.000E+00

     total cpu time spent up to now is      643.0 secs

     total energy              =   -4440.30896290 Ry
     estimated scf accuracy    <       0.00000019 Ry

     iteration # 43     ecut=    60.00 Ry     beta= 0.15
     Davidson diagonalization with overlap

---- Real-time Memory Report at c_bands before calling an iterative solver
             0 MiB given to the printing process from OS
             0 MiB allocation reported by mallinfo(arena+hblkhd)
         50323 MiB available memory on the node where the printing process lives
------------------
     ethr =  4.34E-11,  avg # of iterations =  2.0

     negative rho (up, down):  7.927E-01 0.000E+00

     total cpu time spent up to now is      656.9 secs

     total energy              =   -4440.30896285 Ry
     estimated scf accuracy    <       0.00000013 Ry

     iteration # 44     ecut=    60.00 Ry     beta= 0.15
     Davidson diagonalization with overlap

---- Real-time Memory Report at c_bands before calling an iterative solver
             0 MiB given to the printing process from OS
             0 MiB allocation reported by mallinfo(arena+hblkhd)
         50330 MiB available memory on the node where the printing process lives
------------------
     ethr =  3.09E-11,  avg # of iterations =  1.8

     negative rho (up, down):  7.927E-01 0.000E+00

     total cpu time spent up to now is      670.8 secs

     total energy              =   -4440.30896294 Ry
     estimated scf accuracy    <       0.00000009 Ry

     iteration # 45     ecut=    60.00 Ry     beta= 0.15
     Davidson diagonalization with overlap

---- Real-time Memory Report at c_bands before calling an iterative solver
             0 MiB given to the printing process from OS
             0 MiB allocation reported by mallinfo(arena+hblkhd)
         50334 MiB available memory on the node where the printing process lives
------------------
     ethr =  2.02E-11,  avg # of iterations =  2.0

     negative rho (up, down):  7.927E-01 0.000E+00

     total cpu time spent up to now is      684.7 secs

     total energy              =   -4440.30896300 Ry
     estimated scf accuracy    <       0.00000008 Ry

     iteration # 46     ecut=    60.00 Ry     beta= 0.15
     Davidson diagonalization with overlap

---- Real-time Memory Report at c_bands before calling an iterative solver
             0 MiB given to the printing process from OS
             0 MiB allocation reported by mallinfo(arena+hblkhd)
         50334 MiB available memory on the node where the printing process lives
------------------
     ethr =  1.83E-11,  avg # of iterations =  2.0

     negative rho (up, down):  7.926E-01 0.000E+00

     total cpu time spent up to now is      698.5 secs

     total energy              =   -4440.30896309 Ry
     estimated scf accuracy    <       0.00000004 Ry

     iteration # 47     ecut=    60.00 Ry     beta= 0.15
     Davidson diagonalization with overlap

---- Real-time Memory Report at c_bands before calling an iterative solver
             0 MiB given to the printing process from OS
             0 MiB allocation reported by mallinfo(arena+hblkhd)
         50334 MiB available memory on the node where the printing process lives
------------------
     ethr =  9.66E-12,  avg # of iterations =  2.8

     negative rho (up, down):  7.926E-01 0.000E+00

     total cpu time spent up to now is      712.9 secs

     total energy              =   -4440.30896312 Ry
     estimated scf accuracy    <       0.00000004 Ry

     iteration # 48     ecut=    60.00 Ry     beta= 0.15
     Davidson diagonalization with overlap

---- Real-time Memory Report at c_bands before calling an iterative solver
             0 MiB given to the printing process from OS
             0 MiB allocation reported by mallinfo(arena+hblkhd)
         50328 MiB available memory on the node where the printing process lives
------------------
     ethr =  8.58E-12,  avg # of iterations =  2.3

     negative rho (up, down):  7.926E-01 0.000E+00

     total cpu time spent up to now is      726.8 secs

     total energy              =   -4440.30896315 Ry
     estimated scf accuracy    <       0.00000001 Ry

     iteration # 49     ecut=    60.00 Ry     beta= 0.15
     Davidson diagonalization with overlap

---- Real-time Memory Report at c_bands before calling an iterative solver
             0 MiB given to the printing process from OS
             0 MiB allocation reported by mallinfo(arena+hblkhd)
         50330 MiB available memory on the node where the printing process lives
------------------
     ethr =  2.57E-12,  avg # of iterations =  3.4

     negative rho (up, down):  7.926E-01 0.000E+00

     total cpu time spent up to now is      741.1 secs

     End of self-consistent calculation

          k = 0.0000 0.0000 0.0000 ( 65197 PWs)   bands (ev):

   -92.8842 -92.8329 -92.7377 -92.6910 -92.6344 -92.5905 -92.5730 -92.4524
   -56.2378 -56.2196 -56.0947 -56.0844 -56.0773 -56.0713 -56.0368 -56.0067
   -55.9919 -55.9903 -55.9831 -55.9415 -55.9223 -55.8847 -55.8643 -55.8343
   -55.8257 -55.7782 -55.7768 -55.7753 -55.7669 -55.7277 -55.7031 -55.6189
   -31.4464 -31.4272 -31.2859 -31.1999 -31.1354 -31.0550 -30.9850 -30.8362
   -30.0274 -29.9841 -29.9586 -29.8524 -15.2602 -15.2149 -15.1340 -15.0048
   -14.8063 -14.6843 -14.3966 -14.3673 -14.3456 -14.2974 -14.2522 -14.2440
   -14.2315 -14.2097 -14.1835 -14.1351 -14.1068 -13.9540 -13.7751 -13.7417
   -13.7140 -13.6788 -13.6652 -13.6031 -13.5718 -13.4894 -13.4221 -13.2810
   -13.2673 -13.2622 -13.2442 -13.2270 -13.1770 -13.1715 -13.1542 -13.1272
   -13.1064 -13.0929 -13.0703 -13.0064 -12.9730 -12.9446 -12.9165 -12.8704
   -12.8549 -12.7984 -12.7765 -12.7075 -12.5137 -12.3679 -12.1643 -12.0975
   -12.0408 -11.9747 -11.9667 -11.9558 -11.9327 -11.9149 -11.8520 -11.8348
   -11.7994 -11.7689 -11.6602 -11.5802 -11.5766  -3.1211  -2.8895  -2.6600
    -2.5125  -2.4502  -2.3086  -2.0009  -1.9867  -1.9679  -1.8828  -1.8616
    -1.7942  -1.7768  -1.7371  -1.6933  -1.5105  -1.2857  -1.2559  -1.1109
    -1.0960  -1.0484  -1.0289  -0.9831  -0.9656  -0.9134  -0.8868  -0.8097
    -0.7978  -0.7265  -0.5916  -0.5772  -0.5501  -0.4703  -0.4446  -0.4406
    -0.3738  -0.3059  -0.2470  -0.2041  -0.1742  -0.1058  -0.0388   0.0013
     0.0298   0.0377   0.3003   0.3115   0.4889   0.5486   0.6195   0.6667
     0.7537   0.7652   0.7828   0.8465   0.8734   0.9065   0.9647   1.0938
     1.1582   1.1764   1.1986   1.2137   1.2771   1.3400   1.4568   1.4683
     1.5348   1.5445   1.5887   1.6023   1.6118   1.6703   1.7291   1.7509
     1.7852   1.8228   1.8505   1.9840   2.0718   2.1085   2.1345   2.2840
     2.2990   2.3310   2.3375   2.4426   2.4789   2.5040   2.5245   2.5378
     2.5391   2.6211   2.6432   2.6508   2.7343   2.7590   2.7704   2.7774
     2.8453   2.8509   2.8734   2.8797   2.8901   2.9068   2.9101   2.9241
     2.9290   2.9418   2.9488   2.9571   2.9760   2.9975   3.0019   3.0145
     3.0520   3.1554   3.2479   3.9378   4.2611   4.6118   4.8277   4.8690
     5.7513   5.7958   5.8288   5.8821   6.1345   6.1802   6.4327   6.4430
     6.9414   6.9796   7.0874   7.1612   7.3626   7.5185   7.5471   7.5671
     7.7001   7.8666   7.9133   7.9716   8.0305   8.1650   8.4095   8.4999
     8.7433   8.9309

     occupation numbers 
     1.0000   1.0000   1.0000   1.0000   1.0000   1.0000   1.0000   1.0000
     1.0000   1.0000   1.0000   1.0000   1.0000   1.0000   1.0000   1.0000
     1.0000   1.0000   1.0000   1.0000   1.0000   1.0000   1.0000   1.0000
     1.0000   1.0000   1.0000   1.0000   1.0000   1.0000   1.0000   1.0000
     1.0000   1.0000   1.0000   1.0000   1.0000   1.0000   1.0000   1.0000
     1.0000   1.0000   1.0000   1.0000   1.0000   1.0000   1.0000   1.0000
     1.0000   1.0000   1.0000   1.0000   1.0000   1.0000   1.0000   1.0000
     1.0000   1.0000   1.0000   1.0000   1.0000   1.0000   1.0000   1.0000
     1.0000   1.0000   1.0000   1.0000   1.0000   1.0000   1.0000   1.0000
     1.0000   1.0000   1.0000   1.0000   1.0000   1.0000   1.0000   1.0000
     1.0000   1.0000   1.0000   1.0000   1.0000   1.0000   1.0000   1.0000
     1.0000   1.0000   1.0000   1.0000   1.0000   1.0000   1.0000   1.0000
     1.0000   1.0000   1.0000   1.0000   1.0000   1.0000   1.0000   1.0000
     1.0000   1.0000   1.0000   1.0000   1.0000   1.0000   1.0000   1.0000
     1.0000   1.0000   1.0000   1.0000   1.0000   1.0000   1.0000   1.0000
     1.0000   1.0000   1.0000   1.0000   1.0000   1.0000   1.0000   1.0000
     1.0000   1.0000   1.0000   1.0000   1.0000   1.0000   1.0000   1.0000
     1.0000   1.0000   1.0000   1.0000   1.0000   1.0000   1.0000   1.0000
     1.0000   1.0000   1.0000   1.0000   1.0000   1.0000   1.0000   1.0000
     1.0000   1.0000   1.0000   1.0000   1.0000   0.9999   0.9999   0.9999
     0.9998   0.9998   0.9998   0.9997   0.9996   0.9996   0.9994   0.9988
     0.9984   0.9983   0.9981   0.9979   0.9972   0.9963   0.9939   0.9936
     0.9916   0.9913   0.9896   0.9890   0.9886   0.9857   0.9822   0.9808
     0.9783   0.9752   0.9727   0.9576   0.9445   0.9381   0.9332   0.8994
     0.8955   0.8866   0.8847   0.8515   0.8387   0.8294   0.8215   0.8163
     0.8158   0.7817   0.7719   0.7684   0.7290   0.7167   0.7109   0.7074
     0.6718   0.6688   0.6566   0.6531   0.6474   0.6382   0.6363   0.6285
     0.6257   0.6185   0.6145   0.6098   0.5990   0.5866   0.5841   0.5767
     0.5548   0.4938   0.4392   0.1195   0.0487   0.0147   0.0062   0.0052
     0.0001   0.0000   0.0000   0.0000   0.0000   0.0000   0.0000   0.0000
     0.0000   0.0000   0.0000   0.0000   0.0000   0.0000   0.0000   0.0000
     0.0000   0.0000   0.0000   0.0000   0.0000   0.0000   0.0000   0.0000
     0.0000   0.0000

          k = 0.0000 0.2500 0.0000 ( 65257 PWs)   bands (ev):

   -92.8842 -92.8329 -92.7377 -92.6910 -92.6344 -92.5905 -92.5730 -92.4524
   -56.2378 -56.2196 -56.0947 -56.0844 -56.0773 -56.0713 -56.0368 -56.0067
   -55.9919 -55.9903 -55.9831 -55.9415 -55.9223 -55.8847 -55.8643 -55.8343
   -55.8257 -55.7782 -55.7768 -55.7753 -55.7669 -55.7277 -55.7031 -55.6189
   -31.4462 -31.4271 -31.2861 -31.2000 -31.1353 -31.0546 -30.9855 -30.8363
   -30.0267 -29.9838 -29.9593 -29.8528 -15.2237 -15.1892 -15.1089 -14.9751
   -14.8490 -14.6735 -14.5417 -14.3617 -14.3206 -14.2993 -14.2730 -14.2154
   -14.2108 -14.1965 -14.1669 -14.1064 -14.0264 -13.9839 -13.8225 -13.7986
   -13.7529 -13.7186 -13.6704 -13.6265 -13.5724 -13.5150 -13.4752 -13.3666
   -13.3192 -13.3122 -13.2775 -13.2577 -13.1578 -13.1429 -13.1190 -13.1038
   -13.0716 -13.0375 -13.0215 -12.9696 -12.9430 -12.9301 -12.9121 -12.8272
   -12.8065 -12.7371 -12.6992 -12.6248 -12.5750 -12.4191 -12.2204 -12.1655
   -12.0065 -11.9750 -11.9635 -11.9351 -11.9074 -11.8909 -11.8435 -11.8322
   -11.8091 -11.7737 -11.6748 -11.6220 -11.6114  -2.9858  -2.7652  -2.6273
    -2.4454  -2.4018  -2.2387  -2.0182  -1.9353  -1.9224  -1.8640  -1.7610
    -1.7437  -1.7116  -1.6831  -1.6393  -1.4418  -1.3126  -1.3015  -1.2248
    -1.2150  -1.1102  -1.0813  -1.0216  -0.9955  -0.9579  -0.8927  -0.8641
    -0.8338  -0.7972  -0.7826  -0.7503  -0.6757  -0.6270  -0.5584  -0.4437
    -0.4258  -0.3816  -0.2655  -0.2233  -0.1605  -0.1175  -0.0488  -0.0418
    -0.0148   0.0476   0.3462   0.4331   0.4657   0.5560   0.6030   0.6272
     0.7343   0.7517   0.8529   0.8770   0.8984   1.0124   1.1098   1.1326
     1.1550   1.1744   1.1977   1.2562   1.2859   1.3137   1.3600   1.3995
     1.4313   1.5198   1.5482   1.5920   1.6373   1.6965   1.7546   1.7710
     1.7890   1.8057   1.9024   2.0191   2.0934   2.1154   2.1816   2.2322
     2.2767   2.2856   2.3408   2.3747   2.4581   2.4996   2.5161   2.5366
     2.6369   2.6536   2.6859   2.7106   2.7420   2.7639   2.7794   2.7872
     2.7941   2.8043   2.8327   2.8345   2.8544   2.8594   2.8678   2.8886
     2.8997   2.9070   2.9274   2.9386   2.9431   2.9781   2.9952   3.0556
     3.4371   3.4712   3.7016   4.1279   4.2626   4.5450   4.8872   4.9907
     5.5120   5.6283   5.8071   5.9109   5.9518   6.0211   6.0691   6.5476
     7.0269   7.0727   7.2121   7.2427   7.3465   7.4049   7.5439   7.5888
     7.7253   7.9089   8.0675   8.2119   8.2913   8.3136   8.4138   8.4230
     8.5623   8.8148

     occupation numbers 
     1.0000   1.0000   1.0000   1.0000   1.0000   1.0000   1.0000   1.0000
     1.0000   1.0000   1.0000   1.0000   1.0000   1.0000   1.0000   1.0000
     1.0000   1.0000   1.0000   1.0000   1.0000   1.0000   1.0000   1.0000
     1.0000   1.0000   1.0000   1.0000   1.0000   1.0000   1.0000   1.0000
     1.0000   1.0000   1.0000   1.0000   1.0000   1.0000   1.0000   1.0000
     1.0000   1.0000   1.0000   1.0000   1.0000   1.0000   1.0000   1.0000
     1.0000   1.0000   1.0000   1.0000   1.0000   1.0000   1.0000   1.0000
     1.0000   1.0000   1.0000   1.0000   1.0000   1.0000   1.0000   1.0000
     1.0000   1.0000   1.0000   1.0000   1.0000   1.0000   1.0000   1.0000
     1.0000   1.0000   1.0000   1.0000   1.0000   1.0000   1.0000   1.0000
     1.0000   1.0000   1.0000   1.0000   1.0000   1.0000   1.0000   1.0000
     1.0000   1.0000   1.0000   1.0000   1.0000   1.0000   1.0000   1.0000
     1.0000   1.0000   1.0000   1.0000   1.0000   1.0000   1.0000   1.0000
     1.0000   1.0000   1.0000   1.0000   1.0000   1.0000   1.0000   1.0000
     1.0000   1.0000   1.0000   1.0000   1.0000   1.0000   1.0000   1.0000
     1.0000   1.0000   1.0000   1.0000   1.0000   1.0000   1.0000   1.0000
     1.0000   1.0000   1.0000   1.0000   1.0000   1.0000   1.0000   1.0000
     1.0000   1.0000   1.0000   1.0000   1.0000   1.0000   1.0000   1.0000
     1.0000   1.0000   1.0000   1.0000   1.0000   1.0000   1.0000   1.0000
     1.0000   1.0000   1.0000   1.0000   1.0000   0.9999   0.9999   0.9999
     0.9998   0.9998   0.9997   0.9996   0.9996   0.9992   0.9987   0.9986
     0.9984   0.9983   0.9981   0.9975   0.9971   0.9967   0.9960   0.9952
     0.9945   0.9921   0.9911   0.9894   0.9874   0.9842   0.9805   0.9793
     0.9780   0.9766   0.9675   0.9527   0.9408   0.9368   0.9237   0.9123
     0.9013   0.8990   0.8837   0.8736   0.8461   0.8310   0.8248   0.8168
     0.7747   0.7672   0.7523   0.7405   0.7252   0.7142   0.7063   0.7023
     0.6988   0.6935   0.6785   0.6775   0.6669   0.6642   0.6596   0.6483
     0.6421   0.6381   0.6266   0.6203   0.6178   0.5978   0.5879   0.5528
     0.3322   0.3140   0.2042   0.0722   0.0485   0.0188   0.0048   0.0031
     0.0002   0.0001   0.0000   0.0000   0.0000   0.0000   0.0000   0.0000
     0.0000   0.0000   0.0000   0.0000   0.0000   0.0000   0.0000   0.0000
     0.0000   0.0000   0.0000   0.0000   0.0000   0.0000   0.0000   0.0000
     0.0000   0.0000

          k = 0.0000-0.5000 0.0000 ( 65180 PWs)   bands (ev):

   -92.8842 -92.8329 -92.7377 -92.6910 -92.6344 -92.5905 -92.5730 -92.4524
   -56.2378 -56.2196 -56.0947 -56.0844 -56.0773 -56.0713 -56.0368 -56.0067
   -55.9919 -55.9903 -55.9831 -55.9415 -55.9223 -55.8847 -55.8643 -55.8343
   -55.8257 -55.7782 -55.7768 -55.7753 -55.7669 -55.7276 -55.7031 -55.6189
   -31.4460 -31.4270 -31.2863 -31.2002 -31.1352 -31.0541 -30.9860 -30.8364
   -30.0261 -29.9835 -29.9599 -29.8531 -15.1885 -15.1391 -15.0872 -14.9509
   -14.8749 -14.7331 -14.5832 -14.4461 -14.3351 -14.2510 -14.2182 -14.2066
   -14.1595 -14.1457 -14.0995 -14.0743 -14.0496 -14.0114 -13.9526 -13.9353
   -13.7609 -13.7020 -13.6752 -13.6334 -13.5567 -13.5342 -13.4526 -13.4508
   -13.3968 -13.3862 -13.2783 -13.2576 -13.1431 -13.1364 -13.1104 -13.0991
   -13.0621 -13.0458 -12.9504 -12.9204 -12.9014 -12.8769 -12.8239 -12.8222
   -12.8014 -12.7213 -12.6856 -12.5643 -12.4943 -12.4027 -12.3338 -12.2983
   -11.9757 -11.9604 -11.9575 -11.9299 -11.8941 -11.8589 -11.8465 -11.8045
   -11.8001 -11.7556 -11.6972 -11.6833 -11.6691  -2.7717  -2.7114  -2.5625
    -2.4903  -2.2081  -2.1231  -1.9985  -1.8606  -1.8238  -1.8037  -1.7256
    -1.6906  -1.6126  -1.5752  -1.4977  -1.4585  -1.4205  -1.3926  -1.3347
    -1.2967  -1.2490  -1.2110  -1.1822  -1.1452  -1.0378  -0.9933  -0.9569
    -0.9547  -0.8683  -0.8366  -0.8123  -0.7624  -0.6803  -0.6029  -0.5174
    -0.4911  -0.3798  -0.3375  -0.2085  -0.1636  -0.1395  -0.0766   0.0576
     0.0984   0.2123   0.2857   0.2911   0.4181   0.4771   0.5913   0.6977
     0.8073   0.8388   0.8774   0.8856   0.9260   0.9366   0.9744   0.9951
     1.0042   1.1126   1.1747   1.2012   1.2280   1.4941   1.5247   1.5565
     1.6482   1.6761   1.6991   1.7143   1.7350   1.7651   1.7817   1.7972
     1.8276   1.8579   1.8891   1.8957   1.9249   1.9772   2.0634   2.0984
     2.2800   2.4242   2.4307   2.4520   2.4878   2.4930   2.5021   2.5411
     2.5536   2.5633   2.6164   2.6314   2.6434   2.6565   2.7264   2.7332
     2.8010   2.8117   2.8295   2.8333   2.8497   2.8572   2.8597   2.8643
     2.8671   2.8840   2.8977   2.9008   2.9629   2.9690   2.9848   3.0381
     3.9601   3.9904   4.0196   4.0890   4.5652   4.7328   4.9092   4.9964
     5.2867   5.3609   5.4935   5.5762   5.8523   5.8775   6.2870   6.6824
     6.7952   6.8876   7.1448   7.3015   7.5768   7.6466   7.6740   7.7042
     7.7754   7.9134   8.0687   8.1969   8.3446   8.4009   8.5098   8.5441
     8.6877   8.7378

     occupation numbers 
     1.0000   1.0000   1.0000   1.0000   1.0000   1.0000   1.0000   1.0000
     1.0000   1.0000   1.0000   1.0000   1.0000   1.0000   1.0000   1.0000
     1.0000   1.0000   1.0000   1.0000   1.0000   1.0000   1.0000   1.0000
     1.0000   1.0000   1.0000   1.0000   1.0000   1.0000   1.0000   1.0000
     1.0000   1.0000   1.0000   1.0000   1.0000   1.0000   1.0000   1.0000
     1.0000   1.0000   1.0000   1.0000   1.0000   1.0000   1.0000   1.0000
     1.0000   1.0000   1.0000   1.0000   1.0000   1.0000   1.0000   1.0000
     1.0000   1.0000   1.0000   1.0000   1.0000   1.0000   1.0000   1.0000
     1.0000   1.0000   1.0000   1.0000   1.0000   1.0000   1.0000   1.0000
     1.0000   1.0000   1.0000   1.0000   1.0000   1.0000   1.0000   1.0000
     1.0000   1.0000   1.0000   1.0000   1.0000   1.0000   1.0000   1.0000
     1.0000   1.0000   1.0000   1.0000   1.0000   1.0000   1.0000   1.0000
     1.0000   1.0000   1.0000   1.0000   1.0000   1.0000   1.0000   1.0000
     1.0000   1.0000   1.0000   1.0000   1.0000   1.0000   1.0000   1.0000
     1.0000   1.0000   1.0000   1.0000   1.0000   1.0000   1.0000   1.0000
     1.0000   1.0000   1.0000   1.0000   1.0000   1.0000   1.0000   1.0000
     1.0000   1.0000   1.0000   1.0000   1.0000   1.0000   1.0000   1.0000
     1.0000   1.0000   1.0000   1.0000   1.0000   1.0000   1.0000   1.0000
     1.0000   1.0000   1.0000   1.0000   1.0000   1.0000   1.0000   1.0000
     1.0000   1.0000   1.0000   1.0000   1.0000   1.0000   0.9999   0.9999
     0.9997   0.9997   0.9996   0.9996   0.9995   0.9995   0.9994   0.9993
     0.9993   0.9987   0.9983   0.9981   0.9978   0.9929   0.9919   0.9908
     0.9869   0.9854   0.9841   0.9832   0.9818   0.9798   0.9785   0.9773
     0.9748   0.9720   0.9689   0.9682   0.9650   0.9585   0.9459   0.9399
     0.9005   0.8577   0.8555   0.8482   0.8354   0.8335   0.8301   0.8150
     0.8100   0.8061   0.7837   0.7771   0.7718   0.7658   0.7328   0.7295
     0.6952   0.6896   0.6802   0.6782   0.6694   0.6654   0.6641   0.6615
     0.6600   0.6507   0.6432   0.6415   0.6065   0.6030   0.5939   0.5630
     0.1130   0.1047   0.0970   0.0805   0.0175   0.0092   0.0044   0.0030
     0.0007   0.0005   0.0002   0.0002   0.0000   0.0000   0.0000   0.0000
     0.0000   0.0000   0.0000   0.0000   0.0000   0.0000   0.0000   0.0000
     0.0000   0.0000   0.0000   0.0000   0.0000   0.0000   0.0000   0.0000
     0.0000   0.0000

          k = 0.2500 0.2500 0.0000 ( 65198 PWs)   bands (ev):

   -92.8842 -92.8329 -92.7377 -92.6910 -92.6344 -92.5905 -92.5730 -92.4524
   -56.2378 -56.2196 -56.0947 -56.0844 -56.0773 -56.0713 -56.0368 -56.0067
   -55.9919 -55.9903 -55.9831 -55.9415 -55.9223 -55.8847 -55.8643 -55.8343
   -55.8257 -55.7782 -55.7768 -55.7753 -55.7669 -55.7277 -55.7031 -55.6189
   -31.4445 -31.4288 -31.2857 -31.2004 -31.1351 -31.0545 -30.9857 -30.8364
   -30.0258 -29.9848 -29.9589 -29.8532 -15.1949 -15.1552 -15.0810 -14.9641
   -14.8415 -14.7153 -14.6468 -14.4329 -14.2845 -14.2676 -14.2327 -14.2013
   -14.1842 -14.1585 -14.1134 -14.0683 -14.0151 -13.9975 -13.8376 -13.8233
   -13.7955 -13.7741 -13.7148 -13.6861 -13.6012 -13.5960 -13.4275 -13.4031
   -13.3817 -13.3108 -13.2705 -13.2187 -13.1881 -13.1472 -13.1187 -13.0983
   -13.0809 -13.0255 -12.9605 -12.9391 -12.9142 -12.8926 -12.8844 -12.8352
   -12.8000 -12.7250 -12.6745 -12.6232 -12.4926 -12.4482 -12.2426 -12.2284
   -11.9792 -11.9744 -11.9471 -11.9360 -11.9284 -11.8662 -11.8311 -11.8252
   -11.7900 -11.7799 -11.6917 -11.6501 -11.6331  -2.8474  -2.6394  -2.5211
    -2.4267  -2.3067  -2.2420  -2.0429  -1.8998  -1.8811  -1.8508  -1.7560
    -1.7219  -1.6260  -1.5993  -1.5490  -1.4171  -1.3696  -1.2970  -1.2516
    -1.2071  -1.1833  -1.1600  -1.1161  -1.1020  -1.0110  -0.9597  -0.8946
    -0.8438  -0.8121  -0.7672  -0.7496  -0.6860  -0.6389  -0.5794  -0.5469
    -0.4586  -0.4059  -0.3768  -0.3409  -0.2840  -0.1969  -0.1704  -0.1430
    -0.0580  -0.0292   0.2331   0.3823   0.4158   0.4790   0.5222   0.5898
     0.6380   0.6969   0.7321   1.0013   1.0644   1.1366   1.1615   1.2140
     1.2428   1.2780   1.3154   1.3320   1.3588   1.4079   1.4136   1.4288
     1.4751   1.5163   1.5533   1.6241   1.6612   1.6653   1.7098   1.7385
     1.7953   1.8264   1.9420   2.0034   2.0364   2.0551   2.1294   2.1975
     2.2199   2.2534   2.2824   2.2972   2.4040   2.4399   2.5278   2.5353
     2.6388   2.6515   2.6991   2.7134   2.7201   2.7350   2.7529   2.7643
     2.7764   2.7827   2.7945   2.8070   2.8200   2.8376   2.8437   2.8568
     2.8810   2.8896   2.8991   2.9304   3.2300   3.3251   3.3702   3.4446
     3.4817   3.6814   3.7742   4.1343   4.3530   4.5528   4.8081   5.1301
     5.4994   5.5591   5.5931   5.6587   5.7212   6.0901   6.1324   6.1731
     6.8336   7.0523   7.2431   7.3717   7.4533   7.4829   7.5932   7.7572
     7.8502   8.1110   8.2038   8.2210   8.3259   8.3726   8.4396   8.4977
     8.5674   8.7225

     occupation numbers 
     1.0000   1.0000   1.0000   1.0000   1.0000   1.0000   1.0000   1.0000
     1.0000   1.0000   1.0000   1.0000   1.0000   1.0000   1.0000   1.0000
     1.0000   1.0000   1.0000   1.0000   1.0000   1.0000   1.0000   1.0000
     1.0000   1.0000   1.0000   1.0000   1.0000   1.0000   1.0000   1.0000
     1.0000   1.0000   1.0000   1.0000   1.0000   1.0000   1.0000   1.0000
     1.0000   1.0000   1.0000   1.0000   1.0000   1.0000   1.0000   1.0000
     1.0000   1.0000   1.0000   1.0000   1.0000   1.0000   1.0000   1.0000
     1.0000   1.0000   1.0000   1.0000   1.0000   1.0000   1.0000   1.0000
     1.0000   1.0000   1.0000   1.0000   1.0000   1.0000   1.0000   1.0000
     1.0000   1.0000   1.0000   1.0000   1.0000   1.0000   1.0000   1.0000
     1.0000   1.0000   1.0000   1.0000   1.0000   1.0000   1.0000   1.0000
     1.0000   1.0000   1.0000   1.0000   1.0000   1.0000   1.0000   1.0000
     1.0000   1.0000   1.0000   1.0000   1.0000   1.0000   1.0000   1.0000
     1.0000   1.0000   1.0000   1.0000   1.0000   1.0000   1.0000   1.0000
     1.0000   1.0000   1.0000   1.0000   1.0000   1.0000   1.0000   1.0000
     1.0000   1.0000   1.0000   1.0000   1.0000   1.0000   1.0000   1.0000
     1.0000   1.0000   1.0000   1.0000   1.0000   1.0000   1.0000   1.0000
     1.0000   1.0000   1.0000   1.0000   1.0000   1.0000   1.0000   1.0000
     1.0000   1.0000   1.0000   1.0000   1.0000   1.0000   1.0000   1.0000
     1.0000   1.0000   1.0000   1.0000   1.0000   1.0000   1.0000   0.9999
     0.9999   0.9999   0.9998   0.9993   0.9990   0.9986   0.9984   0.9979
     0.9976   0.9972   0.9967   0.9964   0.9960   0.9950   0.9949   0.9946
     0.9934   0.9922   0.9909   0.9880   0.9862   0.9860   0.9835   0.9816
     0.9775   0.9749   0.9630   0.9550   0.9501   0.9472   0.9342   0.9203
     0.9152   0.9072   0.8998   0.8959   0.8644   0.8524   0.8202   0.8173
     0.7738   0.7681   0.7460   0.7392   0.7359   0.7286   0.7197   0.7140
     0.7078   0.7046   0.6986   0.6921   0.6853   0.6759   0.6727   0.6656
     0.6524   0.6477   0.6424   0.6249   0.4497   0.3945   0.3690   0.3281
     0.3085   0.2128   0.1750   0.0709   0.0364   0.0183   0.0068   0.0016
     0.0002   0.0002   0.0001   0.0001   0.0001   0.0000   0.0000   0.0000
     0.0000   0.0000   0.0000   0.0000   0.0000   0.0000   0.0000   0.0000
     0.0000   0.0000   0.0000   0.0000   0.0000   0.0000   0.0000   0.0000
     0.0000   0.0000

          k = 0.2500-0.5000 0.0000 ( 65138 PWs)   bands (ev):

   -92.8842 -92.8329 -92.7377 -92.6910 -92.6344 -92.5905 -92.5730 -92.4524
   -56.2378 -56.2196 -56.0947 -56.0844 -56.0773 -56.0713 -56.0368 -56.0067
   -55.9919 -55.9903 -55.9831 -55.9415 -55.9223 -55.8847 -55.8643 -55.8343
   -55.8257 -55.7782 -55.7768 -55.7753 -55.7669 -55.7276 -55.7031 -55.6189
   -31.4443 -31.4287 -31.2859 -31.2005 -31.1350 -31.0540 -30.9862 -30.8365
   -30.0251 -29.9845 -29.9595 -29.8535 -15.1584 -15.1124 -15.0446 -14.9220
   -14.8955 -14.7750 -14.6831 -14.5462 -14.2492 -14.1912 -14.1679 -14.1460
   -14.1244 -14.1200 -14.0842 -14.0635 -14.0239 -13.9930 -13.9558 -13.9170
   -13.8423 -13.7921 -13.7314 -13.7141 -13.6412 -13.5982 -13.4814 -13.4477
   -13.3768 -13.3118 -13.2869 -13.2032 -13.1614 -13.1462 -13.1159 -13.0978
   -13.0817 -13.0214 -12.9556 -12.9437 -12.9051 -12.8314 -12.8249 -12.7984
   -12.7940 -12.7205 -12.6913 -12.5542 -12.4917 -12.4031 -12.3115 -12.2888
   -11.9756 -11.9539 -11.9420 -11.9313 -11.9038 -11.8717 -11.8440 -11.8006
   -11.7759 -11.7524 -11.7103 -11.6844 -11.6732  -2.6296  -2.5628  -2.4363
    -2.3588  -2.2283  -2.1432  -2.0227  -1.8718  -1.8185  -1.7959  -1.7321
    -1.7193  -1.6233  -1.5536  -1.4707  -1.4196  -1.4096  -1.3483  -1.3051
    -1.2705  -1.2223  -1.1847  -1.1501  -1.1110  -1.0994  -1.0531  -1.0234
    -0.9807  -0.9502  -0.8837  -0.7820  -0.7392  -0.6626  -0.5955  -0.5461
    -0.5053  -0.4844  -0.4269  -0.2657  -0.2549  -0.1521  -0.1184  -0.1066
    -0.0669  -0.0316   0.0128   0.0341   0.0967   0.3813   0.4773   0.5593
     0.6109   0.8638   0.8906   0.9758   0.9980   1.1608   1.1971   1.2371
     1.2603   1.2730   1.2940   1.3573   1.4061   1.4410   1.5243   1.6223
     1.6597   1.6754   1.6887   1.7249   1.7355   1.7483   1.7901   1.7982
     1.8288   1.8554   1.8699   1.8828   1.9221   1.9775   2.0177   2.0994
     2.2374   2.3745   2.3921   2.4133   2.4417   2.4627   2.4892   2.5100
     2.5217   2.5384   2.5490   2.6341   2.6473   2.6575   2.7026   2.7148
     2.7204   2.7337   2.7531   2.7664   2.7866   2.7955   2.8293   2.8394
     2.8518   2.8618   2.8699   2.8823   3.4142   3.4193   3.5620   3.6151
     3.9733   4.0164   4.0277   4.1440   4.5839   4.7534   4.9272   4.9618
     5.1359   5.3006   5.5082   5.5191   5.6330   5.6661   6.3461   6.3841
     6.4425   6.7796   7.2257   7.5875   7.6594   7.7157   7.7654   7.8158
     7.9135   7.9538   8.2362   8.3209   8.4027   8.4780   8.5498   8.5892
     8.6339   8.6940

     occupation numbers 
     1.0000   1.0000   1.0000   1.0000   1.0000   1.0000   1.0000   1.0000
     1.0000   1.0000   1.0000   1.0000   1.0000   1.0000   1.0000   1.0000
     1.0000   1.0000   1.0000   1.0000   1.0000   1.0000   1.0000   1.0000
     1.0000   1.0000   1.0000   1.0000   1.0000   1.0000   1.0000   1.0000
     1.0000   1.0000   1.0000   1.0000   1.0000   1.0000   1.0000   1.0000
     1.0000   1.0000   1.0000   1.0000   1.0000   1.0000   1.0000   1.0000
     1.0000   1.0000   1.0000   1.0000   1.0000   1.0000   1.0000   1.0000
     1.0000   1.0000   1.0000   1.0000   1.0000   1.0000   1.0000   1.0000
     1.0000   1.0000   1.0000   1.0000   1.0000   1.0000   1.0000   1.0000
     1.0000   1.0000   1.0000   1.0000   1.0000   1.0000   1.0000   1.0000
     1.0000   1.0000   1.0000   1.0000   1.0000   1.0000   1.0000   1.0000
     1.0000   1.0000   1.0000   1.0000   1.0000   1.0000   1.0000   1.0000
     1.0000   1.0000   1.0000   1.0000   1.0000   1.0000   1.0000   1.0000
     1.0000   1.0000   1.0000   1.0000   1.0000   1.0000   1.0000   1.0000
     1.0000   1.0000   1.0000   1.0000   1.0000   1.0000   1.0000   1.0000
     1.0000   1.0000   1.0000   1.0000   1.0000   1.0000   1.0000   1.0000
     1.0000   1.0000   1.0000   1.0000   1.0000   1.0000   1.0000   1.0000
     1.0000   1.0000   1.0000   1.0000   1.0000   1.0000   1.0000   1.0000
     1.0000   1.0000   1.0000   1.0000   1.0000   1.0000   1.0000   1.0000
     1.0000   1.0000   1.0000   1.0000   1.0000   1.0000   1.0000   0.9999
     0.9999   0.9996   0.9996   0.9994   0.9993   0.9984   0.9981   0.9977
     0.9974   0.9973   0.9970   0.9960   0.9951   0.9943   0.9919   0.9881
     0.9863   0.9854   0.9847   0.9825   0.9818   0.9809   0.9779   0.9772
     0.9747   0.9722   0.9708   0.9695   0.9653   0.9585   0.9529   0.9397
     0.9111   0.8737   0.8682   0.8613   0.8518   0.8445   0.8349   0.8271
     0.8226   0.8161   0.8119   0.7759   0.7700   0.7654   0.7443   0.7385
     0.7358   0.7292   0.7196   0.7129   0.7027   0.6981   0.6804   0.6750
     0.6683   0.6629   0.6585   0.6517   0.3446   0.3418   0.2678   0.2425
     0.1093   0.0978   0.0950   0.0690   0.0163   0.0085   0.0041   0.0035
     0.0016   0.0007   0.0002   0.0002   0.0001   0.0001   0.0000   0.0000
     0.0000   0.0000   0.0000   0.0000   0.0000   0.0000   0.0000   0.0000
     0.0000   0.0000   0.0000   0.0000   0.0000   0.0000   0.0000   0.0000
     0.0000   0.0000

          k =-0.5000-0.5000 0.0000 ( 65132 PWs)   bands (ev):

   -92.8842 -92.8329 -92.7377 -92.6910 -92.6344 -92.5905 -92.5730 -92.4524
   -56.2378 -56.2196 -56.0947 -56.0844 -56.0773 -56.0713 -56.0368 -56.0067
   -55.9919 -55.9903 -55.9831 -55.9415 -55.9223 -55.8847 -55.8643 -55.8343
   -55.8257 -55.7782 -55.7768 -55.7753 -55.7669 -55.7276 -55.7031 -55.6189
   -31.4420 -31.4310 -31.2856 -31.2009 -31.1348 -31.0539 -30.9864 -30.8367
   -30.0241 -29.9855 -29.9591 -29.8540 -15.1131 -15.0857 -14.9676 -14.9555
   -14.8558 -14.8252 -14.7792 -14.6474 -14.1619 -14.1451 -14.1121 -14.0927
   -14.0795 -14.0625 -14.0379 -14.0272 -14.0103 -13.9948 -13.9726 -13.9075
   -13.8999 -13.8583 -13.8334 -13.8222 -13.7289 -13.6459 -13.5171 -13.4880
   -13.3277 -13.2833 -13.2202 -13.1961 -13.1617 -13.1548 -13.1457 -13.1270
   -13.0726 -12.9991 -12.9711 -12.9534 -12.9120 -12.8218 -12.7991 -12.7755
   -12.7692 -12.7300 -12.7074 -12.5433 -12.4879 -12.3990 -12.2901 -12.2813
   -11.9752 -11.9513 -11.9382 -11.9199 -11.9037 -11.8675 -11.8501 -11.8151
   -11.7568 -11.7350 -11.7321 -11.6821 -11.6792  -2.4049  -2.3299  -2.3175
    -2.2477  -2.2098  -2.1312  -2.0635  -1.9371  -1.8226  -1.7918  -1.7532
    -1.6960  -1.6227  -1.6086  -1.5381  -1.4950  -1.3758  -1.3468  -1.2986
    -1.2730  -1.2085  -1.1614  -1.1417  -1.1287  -1.0762  -1.0331  -1.0135
    -0.9024  -0.8463  -0.8009  -0.7482  -0.7194  -0.7092  -0.6740  -0.6277
    -0.5932  -0.5820  -0.4999  -0.4298  -0.3900  -0.3585  -0.2880  -0.2262
    -0.2051  -0.1533  -0.1278  -0.1180  -0.1042   0.3538   0.4021   0.5128
     0.5309   0.9005   0.9069   0.9399   0.9786   1.2467   1.2674   1.2744
     1.3127   1.4385   1.5342   1.5621   1.5985   1.6275   1.6481   1.6569
     1.6854   1.7028   1.7258   1.7282   1.7728   1.7736   1.8042   1.8389
     1.8499   1.8621   1.9010   1.9193   1.9375   1.9650   1.9978   2.0550
     2.1234   2.3815   2.4190   2.4399   2.4565   2.4697   2.4980   2.5013
     2.5162   2.5271   2.5428   2.5485   2.5737   2.5823   2.6332   2.6429
     2.6513   2.6568   2.6727   2.6904   2.7044   2.7217   2.7241   2.7324
     2.8376   2.8435   2.8680   2.8775   3.8376   3.8637   3.9096   3.9293
     4.1384   4.2146   4.2368   4.4787   4.6004   4.6824   4.8163   4.9222
     4.9302   5.0266   5.1736   5.2406   5.8129   5.8469   5.8969   5.9987
     6.5996   6.8435   6.9232   7.6299   7.8384   7.8511   7.9289   8.0692
     8.1596   8.1914   8.2200   8.2491   8.4022   8.4742   8.4947   8.5255
     8.5385   8.6868

     occupation numbers 
     1.0000   1.0000   1.0000   1.0000   1.0000   1.0000   1.0000   1.0000
     1.0000   1.0000   1.0000   1.0000   1.0000   1.0000   1.0000   1.0000
     1.0000   1.0000   1.0000   1.0000   1.0000   1.0000   1.0000   1.0000
     1.0000   1.0000   1.0000   1.0000   1.0000   1.0000   1.0000   1.0000
     1.0000   1.0000   1.0000   1.0000   1.0000   1.0000   1.0000   1.0000
     1.0000   1.0000   1.0000   1.0000   1.0000   1.0000   1.0000   1.0000
     1.0000   1.0000   1.0000   1.0000   1.0000   1.0000   1.0000   1.0000
     1.0000   1.0000   1.0000   1.0000   1.0000   1.0000   1.0000   1.0000
     1.0000   1.0000   1.0000   1.0000   1.0000   1.0000   1.0000   1.0000
     1.0000   1.0000   1.0000   1.0000   1.0000   1.0000   1.0000   1.0000
     1.0000   1.0000   1.0000   1.0000   1.0000   1.0000   1.0000   1.0000
     1.0000   1.0000   1.0000   1.0000   1.0000   1.0000   1.0000   1.0000
     1.0000   1.0000   1.0000   1.0000   1.0000   1.0000   1.0000   1.0000
     1.0000   1.0000   1.0000   1.0000   1.0000   1.0000   1.0000   1.0000
     1.0000   1.0000   1.0000   1.0000   1.0000   1.0000   1.0000   1.0000
     1.0000   1.0000   1.0000   1.0000   1.0000   1.0000   1.0000   1.0000
     1.0000   1.0000   1.0000   1.0000   1.0000   1.0000   1.0000   1.0000
     1.0000   1.0000   1.0000   1.0000   1.0000   1.0000   1.0000   1.0000
     1.0000   1.0000   1.0000   1.0000   1.0000   1.0000   1.0000   1.0000
     1.0000   1.0000   1.0000   1.0000   1.0000   1.0000   1.0000   1.0000
     0.9999   0.9996   0.9996   0.9995   0.9994   0.9976   0.9973   0.9973
     0.9967   0.9944   0.9916   0.9906   0.9892   0.9879   0.9869   0.9864
     0.9849   0.9839   0.9825   0.9823   0.9792   0.9791   0.9767   0.9738
     0.9728   0.9716   0.9676   0.9656   0.9635   0.9601   0.9558   0.9472
     0.9353   0.8715   0.8594   0.8524   0.8467   0.8420   0.8316   0.8304
     0.8247   0.8205   0.8144   0.8121   0.8018   0.7982   0.7763   0.7720
     0.7682   0.7657   0.7584   0.7501   0.7435   0.7351   0.7340   0.7299
     0.6759   0.6727   0.6595   0.6543   0.1518   0.1429   0.1281   0.1221
     0.0701   0.0561   0.0525   0.0238   0.0153   0.0112   0.0065   0.0042
     0.0040   0.0026   0.0013   0.0009   0.0000   0.0000   0.0000   0.0000
     0.0000   0.0000   0.0000   0.0000   0.0000   0.0000   0.0000   0.0000
     0.0000   0.0000   0.0000   0.0000   0.0000   0.0000   0.0000   0.0000
     0.0000   0.0000

          k = 0.2500 0.0000 0.0000 ( 65257 PWs)   bands (ev):

   -92.8842 -92.8329 -92.7377 -92.6910 -92.6344 -92.5905 -92.5730 -92.4524
   -56.2378 -56.2196 -56.0947 -56.0844 -56.0773 -56.0713 -56.0368 -56.0067
   -55.9919 -55.9903 -55.9831 -55.9415 -55.9223 -55.8847 -55.8643 -55.8343
   -55.8257 -55.7782 -55.7768 -55.7753 -55.7669 -55.7277 -55.7031 -55.6189
   -31.4446 -31.4290 -31.2855 -31.2003 -31.1352 -31.0549 -30.9853 -30.8363
[...]
     0.6335   0.6209   0.6185   0.6141   0.6102   0.6045   0.5989   0.5220
     0.3472   0.3197   0.2036   0.0764   0.0429   0.0205   0.0049   0.0030
     0.0002   0.0001   0.0000   0.0000   0.0000   0.0000   0.0000   0.0000
     0.0000   0.0000   0.0000   0.0000   0.0000   0.0000   0.0000   0.0000
     0.0000   0.0000   0.0000   0.0000   0.0000   0.0000   0.0000   0.0000
     0.0000   0.0000

          k =-0.5000 0.0000 0.0000 ( 65180 PWs)   bands (ev):

   -92.8842 -92.8329 -92.7377 -92.6910 -92.6344 -92.5905 -92.5730 -92.4524
   -56.2378 -56.2196 -56.0947 -56.0844 -56.0773 -56.0713 -56.0368 -56.0067
   -55.9919 -55.9903 -55.9831 -55.9415 -55.9223 -55.8847 -55.8643 -55.8343
   -55.8257 -55.7782 -55.7768 -55.7753 -55.7669 -55.7276 -55.7031 -55.6189
   -31.4424 -31.4312 -31.2851 -31.2006 -31.1350 -31.0548 -30.9855 -30.8365
   -30.0253 -29.9862 -29.9578 -29.8533 -15.1935 -15.1427 -15.0796 -14.9622
   -14.8672 -14.7219 -14.5779 -14.4179 -14.3097 -14.2877 -14.2840 -14.2160
   -14.1658 -14.1370 -14.0853 -14.0691 -14.0594 -14.0114 -13.9726 -13.8742
   -13.7322 -13.7027 -13.6718 -13.6638 -13.5656 -13.5399 -13.4628 -13.4359
   -13.4125 -13.3734 -13.2238 -13.2114 -13.1872 -13.1776 -13.1183 -13.1057
   -13.0948 -13.0732 -12.9326 -12.8984 -12.8759 -12.8507 -12.8304 -12.8115
   -12.8022 -12.7306 -12.7119 -12.5517 -12.4981 -12.3958 -12.3401 -12.3007
   -11.9752 -11.9577 -11.9360 -11.9289 -11.9154 -11.8963 -11.8544 -11.7931
   -11.7744 -11.7393 -11.6997 -11.6904 -11.6745  -2.7612  -2.7226  -2.5602
    -2.5201  -2.2064  -2.1316  -1.9846  -1.8658  -1.8271  -1.7817  -1.7344
    -1.7093  -1.5847  -1.5407  -1.5247  -1.4433  -1.4062  -1.3912  -1.3608
    -1.2996  -1.2336  -1.2056  -1.1733  -1.0740  -1.0330  -0.9842  -0.9512
    -0.9298  -0.8983  -0.8508  -0.8246  -0.7847  -0.6891  -0.6125  -0.5473
    -0.4855  -0.3090  -0.2802  -0.2335  -0.1961  -0.1248  -0.1203   0.0289
     0.0532   0.0968   0.2612   0.3611   0.4119   0.5035   0.5851   0.6864
     0.7017   0.8348   0.8551   0.9075   0.9379   0.9788   0.9877   1.0361
     1.0550   1.1252   1.1757   1.2210   1.2296   1.5338   1.5458   1.5614
     1.5907   1.6852   1.6970   1.7173   1.7301   1.7519   1.7638   1.8030
     1.8212   1.8580   1.8982   1.9236   1.9680   1.9981   2.0442   2.1606
     2.2678   2.3218   2.3398   2.4178   2.4451   2.4763   2.5312   2.5482
     2.5547   2.5583   2.5882   2.6370   2.6449   2.6631   2.7095   2.7516
     2.7829   2.8212   2.8258   2.8264   2.8386   2.8524   2.8645   2.8771
     2.8819   2.9045   2.9058   2.9319   2.9483   2.9536   3.0848   3.0936
     3.8992   3.9526   4.0209   4.1780   4.6167   4.6983   4.8810   4.9304
     5.3697   5.4077   5.4820   5.5172   5.8574   5.8654   6.3058   6.6170
     6.7352   6.9435   7.2024   7.2521   7.6182   7.6542   7.6591   7.7057
     7.7770   7.9886   8.0301   8.1932   8.3333   8.3763   8.4839   8.6313
     8.6436   8.8034

     occupation numbers 
     1.0000   1.0000   1.0000   1.0000   1.0000   1.0000   1.0000   1.0000
     1.0000   1.0000   1.0000   1.0000   1.0000   1.0000   1.0000   1.0000
     1.0000   1.0000   1.0000   1.0000   1.0000   1.0000   1.0000   1.0000
     1.0000   1.0000   1.0000   1.0000   1.0000   1.0000   1.0000   1.0000
     1.0000   1.0000   1.0000   1.0000   1.0000   1.0000   1.0000   1.0000
     1.0000   1.0000   1.0000   1.0000   1.0000   1.0000   1.0000   1.0000
     1.0000   1.0000   1.0000   1.0000   1.0000   1.0000   1.0000   1.0000
     1.0000   1.0000   1.0000   1.0000   1.0000   1.0000   1.0000   1.0000
     1.0000   1.0000   1.0000   1.0000   1.0000   1.0000   1.0000   1.0000
     1.0000   1.0000   1.0000   1.0000   1.0000   1.0000   1.0000   1.0000
     1.0000   1.0000   1.0000   1.0000   1.0000   1.0000   1.0000   1.0000
     1.0000   1.0000   1.0000   1.0000   1.0000   1.0000   1.0000   1.0000
     1.0000   1.0000   1.0000   1.0000   1.0000   1.0000   1.0000   1.0000
     1.0000   1.0000   1.0000   1.0000   1.0000   1.0000   1.0000   1.0000
     1.0000   1.0000   1.0000   1.0000   1.0000   1.0000   1.0000   1.0000
     1.0000   1.0000   1.0000   1.0000   1.0000   1.0000   1.0000   1.0000
     1.0000   1.0000   1.0000   1.0000   1.0000   1.0000   1.0000   1.0000
     1.0000   1.0000   1.0000   1.0000   1.0000   1.0000   1.0000   1.0000
     1.0000   1.0000   1.0000   1.0000   1.0000   1.0000   1.0000   1.0000
     1.0000   1.0000   1.0000   1.0000   1.0000   1.0000   0.9999   0.9999
     0.9999   0.9997   0.9997   0.9996   0.9995   0.9994   0.9993   0.9991
     0.9990   0.9986   0.9983   0.9979   0.9978   0.9916   0.9912   0.9906
     0.9895   0.9849   0.9842   0.9830   0.9822   0.9807   0.9799   0.9768
     0.9753   0.9720   0.9679   0.9651   0.9597   0.9557   0.9489   0.9281
     0.9036   0.8892   0.8841   0.8598   0.8506   0.8396   0.8189   0.8122
     0.8096   0.8081   0.7958   0.7746   0.7711   0.7628   0.7410   0.7204
     0.7046   0.6846   0.6822   0.6819   0.6754   0.6680   0.6614   0.6546
     0.6519   0.6395   0.6387   0.6241   0.6148   0.6118   0.5356   0.5304
     0.1313   0.1152   0.0967   0.0625   0.0144   0.0105   0.0050   0.0040
     0.0005   0.0004   0.0003   0.0002   0.0000   0.0000   0.0000   0.0000
     0.0000   0.0000   0.0000   0.0000   0.0000   0.0000   0.0000   0.0000
     0.0000   0.0000   0.0000   0.0000   0.0000   0.0000   0.0000   0.0000
     0.0000   0.0000

          k =-0.2500 0.2500 0.0000 ( 65198 PWs)   bands (ev):

   -92.8842 -92.8329 -92.7377 -92.6910 -92.6344 -92.5905 -92.5730 -92.4524
   -56.2378 -56.2196 -56.0947 -56.0844 -56.0773 -56.0713 -56.0368 -56.0067
   -55.9919 -55.9903 -55.9831 -55.9415 -55.9223 -55.8847 -55.8643 -55.8343
   -55.8257 -55.7782 -55.7768 -55.7753 -55.7669 -55.7277 -55.7031 -55.6189
   -31.4445 -31.4288 -31.2857 -31.2004 -31.1351 -31.0545 -30.9857 -30.8364
   -30.0258 -29.9848 -29.9589 -29.8532 -15.1962 -15.1543 -15.0791 -14.9633
   -14.8465 -14.7212 -14.6387 -14.4231 -14.2904 -14.2615 -14.2418 -14.2012
   -14.1719 -14.1581 -14.1309 -14.0738 -14.0104 -13.9966 -13.8459 -13.8204
   -13.7917 -13.7708 -13.7222 -13.6729 -13.6075 -13.5801 -13.4338 -13.4056
   -13.3883 -13.3150 -13.2711 -13.2099 -13.1777 -13.1563 -13.1210 -13.0983
   -13.0926 -13.0276 -12.9583 -12.9469 -12.9380 -12.8770 -12.8630 -12.8427
   -12.7881 -12.7270 -12.6134 -12.6104 -12.5665 -12.4539 -12.2642 -12.1979
   -11.9789 -11.9738 -11.9563 -11.9292 -11.9169 -11.8755 -11.8409 -11.8180
   -11.7962 -11.7735 -11.6914 -11.6455 -11.6364  -2.8458  -2.6384  -2.5171
    -2.4280  -2.3108  -2.2448  -2.0406  -1.8967  -1.8788  -1.8488  -1.7566
    -1.7208  -1.6261  -1.5925  -1.5660  -1.4244  -1.3666  -1.2991  -1.2714
    -1.2112  -1.1888  -1.1497  -1.1210  -1.0810  -1.0161  -0.9685  -0.9042
    -0.8365  -0.8081  -0.7601  -0.7289  -0.6844  -0.6287  -0.5818  -0.5422
    -0.4401  -0.4095  -0.3935  -0.3538  -0.2866  -0.2037  -0.1651  -0.1345
    -0.0551  -0.0314   0.2144   0.3856   0.4241   0.4679   0.5278   0.5889
     0.6426   0.7070   0.7276   1.0088   1.1159   1.1544   1.1870   1.1935
     1.2345   1.2515   1.2978   1.3285   1.3407   1.3670   1.4150   1.4324
     1.4736   1.4912   1.5376   1.6325   1.6546   1.6664   1.7159   1.7345
     1.7761   1.8353   1.9319   2.0317   2.0556   2.1057   2.1266   2.1956
     2.2320   2.2570   2.2852   2.3044   2.4051   2.4393   2.5250   2.5349
     2.6400   2.6507   2.7032   2.7125   2.7254   2.7370   2.7468   2.7604
     2.7679   2.7869   2.7950   2.8078   2.8180   2.8291   2.8387   2.8461
     2.8803   2.8909   2.8974   2.9323   3.2232   3.3057   3.3743   3.4612
     3.4764   3.6670   3.7828   4.1335   4.3519   4.5541   4.8167   5.1301
     5.5007   5.5554   5.5967   5.6558   5.7224   6.1051   6.1226   6.1685
     6.8347   7.0802   7.2015   7.3638   7.4634   7.4880   7.5694   7.7682
     7.8860   8.0487   8.2059   8.2590   8.3274   8.4191   8.4523   8.4980
     8.5789   8.6419

     occupation numbers 
     1.0000   1.0000   1.0000   1.0000   1.0000   1.0000   1.0000   1.0000
     1.0000   1.0000   1.0000   1.0000   1.0000   1.0000   1.0000   1.0000
     1.0000   1.0000   1.0000   1.0000   1.0000   1.0000   1.0000   1.0000
     1.0000   1.0000   1.0000   1.0000   1.0000   1.0000   1.0000   1.0000
     1.0000   1.0000   1.0000   1.0000   1.0000   1.0000   1.0000   1.0000
     1.0000   1.0000   1.0000   1.0000   1.0000   1.0000   1.0000   1.0000
     1.0000   1.0000   1.0000   1.0000   1.0000   1.0000   1.0000   1.0000
     1.0000   1.0000   1.0000   1.0000   1.0000   1.0000   1.0000   1.0000
     1.0000   1.0000   1.0000   1.0000   1.0000   1.0000   1.0000   1.0000
     1.0000   1.0000   1.0000   1.0000   1.0000   1.0000   1.0000   1.0000
     1.0000   1.0000   1.0000   1.0000   1.0000   1.0000   1.0000   1.0000
     1.0000   1.0000   1.0000   1.0000   1.0000   1.0000   1.0000   1.0000
     1.0000   1.0000   1.0000   1.0000   1.0000   1.0000   1.0000   1.0000
     1.0000   1.0000   1.0000   1.0000   1.0000   1.0000   1.0000   1.0000
     1.0000   1.0000   1.0000   1.0000   1.0000   1.0000   1.0000   1.0000
     1.0000   1.0000   1.0000   1.0000   1.0000   1.0000   1.0000   1.0000
     1.0000   1.0000   1.0000   1.0000   1.0000   1.0000   1.0000   1.0000
     1.0000   1.0000   1.0000   1.0000   1.0000   1.0000   1.0000   1.0000
     1.0000   1.0000   1.0000   1.0000   1.0000   1.0000   1.0000   1.0000
     1.0000   1.0000   1.0000   1.0000   1.0000   1.0000   0.9999   0.9999
     0.9999   0.9999   0.9998   0.9992   0.9987   0.9984   0.9982   0.9981
     0.9977   0.9975   0.9970   0.9965   0.9963   0.9959   0.9949   0.9945
     0.9935   0.9930   0.9915   0.9876   0.9865   0.9859   0.9831   0.9819
     0.9789   0.9741   0.9642   0.9508   0.9471   0.9386   0.9347   0.9207
     0.9124   0.9063   0.8991   0.8940   0.8640   0.8526   0.8213   0.8175
     0.7733   0.7685   0.7441   0.7396   0.7333   0.7276   0.7228   0.7160
     0.7122   0.7025   0.6983   0.6917   0.6863   0.6804   0.6753   0.6714
     0.6528   0.6470   0.6434   0.6239   0.4537   0.4057   0.3667   0.3193
     0.3113   0.2191   0.1718   0.0711   0.0365   0.0182   0.0065   0.0016
     0.0002   0.0002   0.0001   0.0001   0.0001   0.0000   0.0000   0.0000
     0.0000   0.0000   0.0000   0.0000   0.0000   0.0000   0.0000   0.0000
     0.0000   0.0000   0.0000   0.0000   0.0000   0.0000   0.0000   0.0000
     0.0000   0.0000

          k =-0.5000 0.2500 0.0000 ( 65138 PWs)   bands (ev):

   -92.8842 -92.8329 -92.7377 -92.6910 -92.6344 -92.5905 -92.5730 -92.4524
   -56.2378 -56.2196 -56.0947 -56.0844 -56.0773 -56.0713 -56.0368 -56.0067
   -55.9919 -55.9903 -55.9831 -55.9415 -55.9223 -55.8847 -55.8643 -55.8343
   -55.8257 -55.7782 -55.7768 -55.7753 -55.7669 -55.7276 -55.7031 -55.6189
   -31.4422 -31.4311 -31.2854 -31.2008 -31.1349 -31.0543 -30.9859 -30.8366
   -30.0247 -29.9859 -29.9585 -29.8536 -15.1609 -15.1164 -15.0370 -14.9305
   -14.8932 -14.7692 -14.6790 -14.5388 -14.2416 -14.2092 -14.1964 -14.1555
   -14.1275 -14.1091 -14.0718 -14.0511 -14.0406 -13.9988 -13.9740 -13.8694
   -13.8128 -13.7647 -13.7599 -13.7435 -13.6418 -13.6067 -13.4896 -13.4307
   -13.3699 -13.3333 -13.2358 -13.1968 -13.1862 -13.1561 -13.1229 -13.1101
   -13.0829 -13.0455 -12.9511 -12.9261 -12.8936 -12.8386 -12.8095 -12.7936
   -12.7858 -12.7253 -12.7089 -12.5485 -12.4933 -12.4008 -12.3137 -12.2899
   -11.9753 -11.9505 -11.9380 -11.9233 -11.9110 -11.8898 -11.8594 -11.7786
   -11.7716 -11.7458 -11.7142 -11.6860 -11.6770  -2.6185  -2.5768  -2.4298
    -2.3865  -2.2253  -2.1501  -2.0087  -1.8716  -1.8160  -1.7889  -1.7503
    -1.7119  -1.6308  -1.5145  -1.4575  -1.4339  -1.4076  -1.3309  -1.3027
    -1.2633  -1.2470  -1.1871  -1.1558  -1.1185  -1.0827  -1.0539  -0.9954
    -0.9674  -0.9245  -0.8909  -0.7868  -0.7582  -0.6706  -0.6056  -0.5783
    -0.5206  -0.4356  -0.3980  -0.3025  -0.2530  -0.2013  -0.1434  -0.1264
    -0.0541  -0.0255   0.0073   0.0528   0.0950   0.4130   0.4803   0.5543
     0.5732   0.8481   0.9015   0.9771   0.9991   1.1752   1.2110   1.2487
     1.2585   1.2776   1.2953   1.3639   1.4109   1.4538   1.4800   1.6163
     1.6494   1.6715   1.6860   1.7345   1.7477   1.7654   1.7803   1.7958
     1.8191   1.8706   1.8777   1.9162   1.9367   1.9750   2.0235   2.1487
     2.2476   2.2715   2.3391   2.3723   2.4355   2.4720   2.4778   2.5153
     2.5363   2.5488   2.5748   2.6352   2.6456   2.6645   2.7059   2.7130
     2.7190   2.7394   2.7613   2.7739   2.7883   2.8046   2.8251   2.8364
     2.8462   2.8544   2.8645   2.8760   3.4075   3.4625   3.5949   3.6178
     3.9046   3.9771   4.0279   4.2486   4.6095   4.7111   4.8758   4.9438
     5.2327   5.2654   5.4919   5.5665   5.6147   5.6405   6.3346   6.3993
     6.4572   6.7128   7.2805   7.6023   7.6708   7.7223   7.7497   7.7981
     7.9021   7.9589   8.2386   8.3368   8.4250   8.4448   8.5016   8.5644
     8.6981   8.7527

     occupation numbers 
     1.0000   1.0000   1.0000   1.0000   1.0000   1.0000   1.0000   1.0000
     1.0000   1.0000   1.0000   1.0000   1.0000   1.0000   1.0000   1.0000
     1.0000   1.0000   1.0000   1.0000   1.0000   1.0000   1.0000   1.0000
     1.0000   1.0000   1.0000   1.0000   1.0000   1.0000   1.0000   1.0000
     1.0000   1.0000   1.0000   1.0000   1.0000   1.0000   1.0000   1.0000
     1.0000   1.0000   1.0000   1.0000   1.0000   1.0000   1.0000   1.0000
     1.0000   1.0000   1.0000   1.0000   1.0000   1.0000   1.0000   1.0000
     1.0000   1.0000   1.0000   1.0000   1.0000   1.0000   1.0000   1.0000
     1.0000   1.0000   1.0000   1.0000   1.0000   1.0000   1.0000   1.0000
     1.0000   1.0000   1.0000   1.0000   1.0000   1.0000   1.0000   1.0000
     1.0000   1.0000   1.0000   1.0000   1.0000   1.0000   1.0000   1.0000
     1.0000   1.0000   1.0000   1.0000   1.0000   1.0000   1.0000   1.0000
     1.0000   1.0000   1.0000   1.0000   1.0000   1.0000   1.0000   1.0000
     1.0000   1.0000   1.0000   1.0000   1.0000   1.0000   1.0000   1.0000
     1.0000   1.0000   1.0000   1.0000   1.0000   1.0000   1.0000   1.0000
     1.0000   1.0000   1.0000   1.0000   1.0000   1.0000   1.0000   1.0000
     1.0000   1.0000   1.0000   1.0000   1.0000   1.0000   1.0000   1.0000
     1.0000   1.0000   1.0000   1.0000   1.0000   1.0000   1.0000   1.0000
     1.0000   1.0000   1.0000   1.0000   1.0000   1.0000   1.0000   1.0000
     1.0000   1.0000   1.0000   1.0000   1.0000   1.0000   1.0000   0.9999
     0.9999   0.9997   0.9996   0.9994   0.9993   0.9983   0.9980   0.9976
     0.9975   0.9972   0.9970   0.9959   0.9950   0.9940   0.9933   0.9884
     0.9868   0.9857   0.9849   0.9819   0.9810   0.9797   0.9786   0.9774
     0.9755   0.9708   0.9701   0.9660   0.9636   0.9588   0.9521   0.9305
     0.9086   0.9027   0.8842   0.8744   0.8539   0.8411   0.8391   0.8251
     0.8169   0.8120   0.8014   0.7754   0.7708   0.7622   0.7428   0.7393
     0.7364   0.7265   0.7155   0.7092   0.7018   0.6934   0.6826   0.6765
     0.6713   0.6669   0.6614   0.6551   0.3483   0.3186   0.2520   0.2413
     0.1296   0.1083   0.0949   0.0506   0.0148   0.0100   0.0051   0.0038
     0.0010   0.0008   0.0002   0.0002   0.0001   0.0001   0.0000   0.0000
     0.0000   0.0000   0.0000   0.0000   0.0000   0.0000   0.0000   0.0000
     0.0000   0.0000   0.0000   0.0000   0.0000   0.0000   0.0000   0.0000
     0.0000   0.0000

     the Fermi energy is     3.1449 ev

!    total energy              =   -4440.30896314 Ry
     estimated scf accuracy    <          6.1E-09 Ry
     smearing contrib. (-TS)   =      -1.20785717 Ry
     internal energy E=F+TS    =   -4439.10110597 Ry

     The total energy is F=E-TS. E is the sum of the following terms:
     one-electron contribution =  -20889.83439905 Ry
     hartree contribution      =   10573.94470229 Ry
     xc contribution           =    -693.25393760 Ry
     ewald contribution        =    6846.23337825 Ry
     one-center paw contrib.   =    -276.19084986 Ry
      -> PAW hartree energy AE =      25.14802542 Ry
      -> PAW hartree energy PS =     -25.03205965 Ry
      -> PAW xc energy AE      =     -16.51541093 Ry
      -> PAW xc energy PS      =       6.87476274 Ry
      -> total E_H with PAW    =   10574.06066807 Ry
      -> total E_XC with PAW   =    -702.89458579 Ry

     convergence has been achieved in  49 iterations

     Writing all to output data dir /bsuhome/zayahcortright/scratch/pwscf.save/
 
     init_run     :      7.40s CPU      8.24s WALL (       1 calls)
     electrons    :    698.23s CPU    732.71s WALL (       1 calls)

     Called by init_run:
     wfcinit      :      5.97s CPU      6.19s WALL (       1 calls)
     wfcinit:atom :      0.04s CPU      0.06s WALL (       5 calls)
     wfcinit:wfcr :      5.66s CPU      5.79s WALL (       5 calls)
     potinit      :      0.17s CPU      0.20s WALL (       1 calls)
     hinit0       :      0.40s CPU      0.71s WALL (       1 calls)

     Called by electrons:
     c_bands      :    556.27s CPU    563.69s WALL (      49 calls)
     sum_band     :    106.40s CPU    121.21s WALL (      49 calls)
     v_of_rho     :      5.23s CPU      5.64s WALL (      50 calls)
     v_h          :      0.44s CPU      0.45s WALL (      50 calls)
     v_xc         :      4.78s CPU      5.19s WALL (      50 calls)
     newd         :     16.27s CPU     27.57s WALL (      50 calls)
     PAW_pot      :      1.58s CPU      1.66s WALL (      50 calls)
     mix_rho      :     12.13s CPU     12.49s WALL (      49 calls)

     Called by c_bands:
     init_us_2    :      7.09s CPU      7.19s WALL (     495 calls)
     init_us_2:cp :      7.08s CPU      7.19s WALL (     495 calls)
     cegterg      :    521.34s CPU    528.36s WALL (     245 calls)

     Called by sum_band:
     sum_band:wei :      0.34s CPU      0.35s WALL (      49 calls)
     sum_band:loo :     89.19s CPU     89.92s WALL (      49 calls)
     sum_band:buf :      1.51s CPU      1.57s WALL (     245 calls)
     sum_band:ini :      3.37s CPU      3.38s WALL (     245 calls)
     sum_band:cal :     19.60s CPU     19.67s WALL (     245 calls)
     sum_band:bec :      0.56s CPU      0.56s WALL (     245 calls)
     addusdens    :     15.85s CPU     29.87s WALL (      49 calls)
                                        0.00s GPU  (      49 calls)
     addusd:skk   :      0.30s CPU      0.99s WALL (     147 calls)
                                        0.00s GPU  (     147 calls)

     Called by *egterg:
     cdiaghg      :     54.56s CPU     54.89s WALL (    1294 calls)
     cegterg:over :     37.70s CPU     37.88s WALL (    1049 calls)
     cegterg:upda :     27.46s CPU     28.04s WALL (    1049 calls)
     cegterg:last :     59.64s CPU     59.91s WALL (     448 calls)
     cdiaghg:chol :      3.16s CPU      3.18s WALL (    1294 calls)
     cdiaghg:inve :      2.82s CPU      2.85s WALL (    1294 calls)
     cdiaghg:para :      6.73s CPU      6.79s WALL (    2588 calls)
     h_psi        :    286.26s CPU    289.57s WALL (    1299 calls)
     s_psi        :     39.88s CPU     40.05s WALL (    1299 calls)
     g_psi        :      1.12s CPU      1.14s WALL (    1049 calls)

     Called by h_psi:
     h_psi:calbec :     44.24s CPU     44.49s WALL (    1299 calls)
     vloc_psi     :    199.28s CPU    201.42s WALL (    1299 calls)
     add_vuspsi   :     39.76s CPU     39.97s WALL (    1299 calls)

     General routines
     calbec       :     63.83s CPU     64.15s WALL (    1544 calls)
     fft          :      3.48s CPU      3.53s WALL (     648 calls)
     ffts         :      4.50s CPU      4.54s WALL (    5199 calls)
     fftw         :    169.15s CPU    170.77s WALL (  329668 calls)
     interpolate  :      0.41s CPU      0.42s WALL (      50 calls)
 
     Parallel routines

     PAW routines
     PAW_pot      :      1.58s CPU      1.66s WALL (      50 calls)
 
     PWSCF        :  11m47.25s CPU  12m27.53s WALL

 
   This run was terminated on:   0:11:59  22Jun2024            

=------------------------------------------------------------------------------=
   JOB DONE.
=------------------------------------------------------------------------------=
