
     Program PWSCF v.7.2 starts on 21Jun2024 at 16:54:56 

     This program is part of the open-source Quantum ESPRESSO suite
     for quantum simulation of materials; please cite
         "P. Giannozzi et al., J. Phys.:Condens. Matter 21 395502 (2009);
         "P. Giannozzi et al., J. Phys.:Condens. Matter 29 465901 (2017);
         "P. Giannozzi et al., J. Chem. Phys. 152 154105 (2020);
          URL http://www.quantum-espresso.org", 
     in publications or presentations arising from this work. More details at
     http://www.quantum-espresso.org/quote

     Parallel version (MPI & OpenMP), running on      48 processor cores
     Number of MPI processes:                48
     Threads/MPI process:                     1

     MPI processes distributed on     1 nodes
     33229 MiB available memory on the printing compute node when the environment starts
 
     Reading input from espresso.pwi
Warning: card &CELL ignored
Warning: card / ignored
Warning: card &FCP ignored
Warning: card / ignored
Warning: card &RISM ignored
Warning: card / ignored

     Current dimensions of program PWSCF are:
     Max number of different atomic species (ntypx) = 10
     Max number of k-points (npk) =  40000
     Max angular momentum in pseudopotentials (lmaxx) =  4
     file O.pbe-n-kjpaw_psl.0.1.UPF: wavefunction(s)  2P renormalized
     signal trapping enabled: kill the code with -SIGUSR1 to stop cleanly the simulation 
 
     K-points division:     npool     =       2
     R & G space division:  proc/nbgrp/npool/nimage =      24
     Subspace diagonalization in iterative solution of the eigenvalue problem:
     one sub-group per band group will be used
     scalapack distributed-memory algorithm (size of sub-group:  3*  3 procs)

 
     Parallelization info
     --------------------
     sticks:   dense  smooth     PW     G-vecs:    dense   smooth      PW
     Min         350     175     47                61430    21716    3036
     Max         351     177     48                61449    21727    3041
     Sum        8421    4205   1137              1474595   521381   72913
 
     Using Slab Decomposition
 


     bravais-lattice index     =            0
     lattice parameter (alat)  =      14.8599  a.u.
     unit-cell volume          =    8305.1283 (a.u.)^3
     number of atoms/cell      =           50
     number of atomic types    =            4
     number of electrons       =       431.00
     number of Kohn-Sham states=          259
     kinetic-energy cutoff     =      60.0000  Ry
     charge density cutoff     =     480.0000  Ry
     scf convergence threshold =      1.0E-08
     mixing beta               =       0.1500
     number of iterations used =            8  local-TF  mixing
     Exchange-correlation= PBE
                           (   1   4   3   4   0   0   0)

     celldm(1)=  14.859904  celldm(2)=   0.000000  celldm(3)=   0.000000
     celldm(4)=   0.000000  celldm(5)=   0.000000  celldm(6)=   0.000000

     crystal axes: (cart. coord. in units of alat)
               a(1) = (   1.000000   0.000000   0.000000 )  
               a(2) = (   0.000000   1.000000   0.000000 )  
               a(3) = (   0.000000   0.000000   2.531036 )  

     reciprocal axes: (cart. coord. in units 2 pi/alat)
               b(1) = (  1.000000  0.000000  0.000000 )  
               b(2) = (  0.000000  1.000000  0.000000 )  
               b(3) = (  0.000000  0.000000  0.395095 )  


     PseudoPot. # 1 for Sr read from file:
     /bsuhome/zayahcortright/q-e/pseudo/Sr_pbe_v1.uspp.F.UPF
     MD5 check sum: 6b418c05fbe9db5448babca5e47b7a5b
     Pseudo is Ultrasoft + core correction, Zval = 10.0
     Generated by new atomic code, or converted to UPF format
     Using radial grid of  883 points,  6 beta functions with: 
                l(1) =   0
                l(2) =   0
                l(3) =   1
                l(4) =   1
                l(5) =   2
                l(6) =   2
     Q(r) pseudized with  6 coefficients,  rinner =    1.400   1.400   1.400
                                                       1.400   1.400

     PseudoPot. # 2 for O  read from file:
     /bsuhome/zayahcortright/q-e/pseudo/O.pbe-n-kjpaw_psl.0.1.UPF
     MD5 check sum: 0234752ac141de4415c5fc33072bef88
     Pseudo is Projector augmented-wave + core cor, Zval =  6.0
     Generated using "atomic" code by A. Dal Corso  v.5.0.99 svn rev. 10869
     Shape of augmentation charge: BESSEL
     Using radial grid of 1095 points,  4 beta functions with: 
                l(1) =   0
                l(2) =   0
                l(3) =   1
                l(4) =   1
     Q(r) pseudized with 0 coefficients 


     PseudoPot. # 3 for Co read from file:
     /bsuhome/zayahcortright/q-e/pseudo/Co_pbe_v1.2.uspp.F.UPF
     MD5 check sum: 5f91765df6ddd3222702df6e7b74a16d
     Pseudo is Ultrasoft + core correction, Zval = 17.0
     Generated by new atomic code, or converted to UPF format
     Using radial grid of  863 points,  6 beta functions with: 
                l(1) =   0
                l(2) =   0
                l(3) =   1
                l(4) =   1
                l(5) =   2
                l(6) =   2
     Q(r) pseudized with  8 coefficients,  rinner =    1.200   1.200   1.200
                                                       1.200   1.200

     PseudoPot. # 4 for H  read from file:
     /bsuhome/zayahcortright/q-e/pseudo/H.pbe-rrkjus_psl.1.0.0.UPF
     MD5 check sum: f52b6d4d1c606e5624b1dc7b2218f220
     Pseudo is Ultrasoft, Zval =  1.0
     Generated using "atomic" code by A. Dal Corso  v.5.1
     Using radial grid of  929 points,  2 beta functions with: 
                l(1) =   0
                l(2) =   0
     Q(r) pseudized with 0 coefficients 


     atomic species   valence    mass     pseudopotential
        Sr            10.00    87.62000     Sr( 1.00)
        O              6.00    15.99900     O ( 1.00)
        Co            17.00    58.93319     Co( 1.00)
        H              1.00     1.00800     H ( 1.00)

     No symmetry found


                                    s                        frac. trans.

      isym =  1     identity                                     

 cryst.   s( 1) = (     1          0          0      )
                  (     0          1          0      )
                  (     0          0          1      )

 cart.    s( 1) = (  1.0000000  0.0000000  0.0000000 )
                  (  0.0000000  1.0000000  0.0000000 )
                  (  0.0000000  0.0000000  1.0000000 )


   Cartesian axes

     site n.     atom                  positions (alat units)
         1           Sr  tau(   1) = (   0.2508693   0.7491307   1.7574407  )
         2           O   tau(   2) = (   0.4985141   0.5014859   1.7715967  )
         3           Sr  tau(   3) = (   0.7482398   0.7454518   1.7648669  )
         4           Sr  tau(   4) = (   0.7441748   0.2558252   1.7667843  )
         5           Sr  tau(   5) = (   0.2508693   0.7491307   1.2696799  )
         6           Sr  tau(   6) = (   0.2508693   0.7491307   0.7632319  )
         7           Co  tau(   7) = (   0.4998914   0.5001086   1.0164559  )
         8           Co  tau(   8) = (   0.4936915   0.5063085   1.5135603  )
         9           O   tau(   9) = (   0.4988895   0.7610401   1.0164559  )
        10           O   tau(  10) = (   0.2389599   0.5011105   1.0164559  )
        11           O   tau(  11) = (   0.0070918   0.7374880   1.0164559  )
        12           O   tau(  12) = (   0.0088340   0.7405089   1.5135603  )
        13           O   tau(  13) = (   0.5066944   0.7415376   1.5135603  )
        14           O   tau(  14) = (   0.2584624   0.4933056   1.5135603  )
        15           O   tau(  15) = (   0.4985141   0.5014859   0.7773880  )
        16           O   tau(  16) = (   0.4985141   0.5014859   1.2555238  )
        17           Sr  tau(  17) = (   0.7482398   0.7454518   0.7706582  )
        18           Sr  tau(  18) = (   0.7482398   0.7454518   1.2622536  )
        19           Sr  tau(  19) = (   0.7441748   0.2558252   0.7725755  )
        20           Sr  tau(  20) = (   0.7441748   0.2558252   1.2603363  )
        21           O   tau(  21) = (   0.7322655   0.0078049   1.5135603  )
        22           O   tau(  22) = (   0.7558175   0.4996027   1.5135603  )
        23           O   tau(  23) = (   0.5003973   0.2441825   1.5135603  )
        24           O   tau(  24) = (   0.7527966   0.4978604   1.0164559  )
        25           O   tau(  25) = (   0.5021396   0.2472034   1.0164559  )
        26           O   tau(  26) = (   0.7517679   0.0000000   1.0164559  )
        27           O   tau(  27) = (   0.0114961   0.4948124   1.7455321  )
        28           O   tau(  28) = (   0.0048226   0.0077944   1.7715967  )
        29           Sr  tau(  29) = (   0.2545482   0.2517602   1.7648669  )
        30           O   tau(  30) = (   0.5048017   0.0015068   1.7786929  )
        31           Co  tau(  31) = (   0.0056869   0.5006215   1.0164559  )
        32           Co  tau(  32) = (   0.0065315   0.4997770   1.5135603  )
        33           Co  tau(  33) = (   0.0061999   0.0064171   1.0164559  )
        34           Co  tau(  34) = (   0.0000000   0.0126169   1.5135603  )
        35           O   tau(  35) = (   0.0114961   0.4948124   1.2815885  )
        36           O   tau(  36) = (   0.0114961   0.4948124   0.7513233  )
        37           O   tau(  37) = (   0.0051979   0.2673486   1.0164559  )
        38           O   tau(  38) = (   0.0130029   0.2478461   1.5135603  )
        39           O   tau(  39) = (   0.0048226   0.0077944   0.7773880  )
        40           O   tau(  40) = (   0.0048226   0.0077944   1.2555238  )
        41           Sr  tau(  41) = (   0.2545482   0.2517602   0.7706582  )
        42           Sr  tau(  42) = (   0.2545482   0.2517602   1.2622536  )
        43           Co  tau(  43) = (   0.4989925   0.0073160   1.5135603  )
        44           Co  tau(  44) = (   0.4998370   0.0064714   1.0164559  )
        45           O   tau(  45) = (   0.5048017   0.0015068   0.7844841  )
        46           O   tau(  46) = (   0.5048017   0.0015068   1.2484277  )
        47           O   tau(  47) = (   0.2621260   0.0059111   1.5135603  )
        48           O   tau(  48) = (   0.2591051   0.0041689   1.0164559  )
        49           O   tau(  49) = (   0.1421646   0.4264937   2.1602013  )
        50           H   tau(  50) = (   0.1421646   0.4264937   2.2847091  )

   Crystallographic axes

     site n.     atom                  positions (cryst. coord.)
         1           Sr  tau(   1) = (  0.2508693  0.7491307  0.6943562  )
         2           O   tau(   2) = (  0.4985141  0.5014859  0.6999492  )
         3           Sr  tau(   3) = (  0.7482398  0.7454518  0.6972903  )
         4           Sr  tau(   4) = (  0.7441748  0.2558252  0.6980478  )
         5           Sr  tau(   5) = (  0.2508693  0.7491307  0.5016443  )
         6           Sr  tau(   6) = (  0.2508693  0.7491307  0.3015492  )
         7           Co  tau(   7) = (  0.4998914  0.5001086  0.4015968  )
         8           Co  tau(   8) = (  0.4936915  0.5063085  0.5980003  )
         9           O   tau(   9) = (  0.4988895  0.7610401  0.4015968  )
        10           O   tau(  10) = (  0.2389599  0.5011105  0.4015968  )
        11           O   tau(  11) = (  0.0070918  0.7374880  0.4015968  )
        12           O   tau(  12) = (  0.0088340  0.7405089  0.5980003  )
        13           O   tau(  13) = (  0.5066944  0.7415376  0.5980003  )
        14           O   tau(  14) = (  0.2584624  0.4933056  0.5980003  )
        15           O   tau(  15) = (  0.4985141  0.5014859  0.3071422  )
        16           O   tau(  16) = (  0.4985141  0.5014859  0.4960513  )
        17           Sr  tau(  17) = (  0.7482398  0.7454518  0.3044833  )
        18           Sr  tau(  18) = (  0.7482398  0.7454518  0.4987103  )
        19           Sr  tau(  19) = (  0.7441748  0.2558252  0.3052408  )
        20           Sr  tau(  20) = (  0.7441748  0.2558252  0.4979527  )
        21           O   tau(  21) = (  0.7322655  0.0078049  0.5980003  )
        22           O   tau(  22) = (  0.7558175  0.4996027  0.5980003  )
        23           O   tau(  23) = (  0.5003973  0.2441825  0.5980003  )
        24           O   tau(  24) = (  0.7527966  0.4978604  0.4015968  )
        25           O   tau(  25) = (  0.5021396  0.2472034  0.4015968  )
        26           O   tau(  26) = (  0.7517679  0.0000000  0.4015968  )
        27           O   tau(  27) = (  0.0114961  0.4948124  0.6896512  )
        28           O   tau(  28) = (  0.0048226  0.0077944  0.6999492  )
        29           Sr  tau(  29) = (  0.2545482  0.2517602  0.6972903  )
        30           O   tau(  30) = (  0.5048017  0.0015068  0.7027529  )
        31           Co  tau(  31) = (  0.0056869  0.5006215  0.4015968  )
        32           Co  tau(  32) = (  0.0065315  0.4997770  0.5980003  )
        33           Co  tau(  33) = (  0.0061999  0.0064171  0.4015968  )
        34           Co  tau(  34) = (  0.0000000  0.0126169  0.5980003  )
        35           O   tau(  35) = (  0.0114961  0.4948124  0.5063494  )
        36           O   tau(  36) = (  0.0114961  0.4948124  0.2968442  )
        37           O   tau(  37) = (  0.0051979  0.2673486  0.4015968  )
        38           O   tau(  38) = (  0.0130029  0.2478461  0.5980003  )
        39           O   tau(  39) = (  0.0048226  0.0077944  0.3071422  )
        40           O   tau(  40) = (  0.0048226  0.0077944  0.4960513  )
        41           Sr  tau(  41) = (  0.2545482  0.2517602  0.3044833  )
        42           Sr  tau(  42) = (  0.2545482  0.2517602  0.4987103  )
        43           Co  tau(  43) = (  0.4989925  0.0073160  0.5980003  )
        44           Co  tau(  44) = (  0.4998370  0.0064714  0.4015968  )
        45           O   tau(  45) = (  0.5048017  0.0015068  0.3099459  )
        46           O   tau(  46) = (  0.5048017  0.0015068  0.4932477  )
        47           O   tau(  47) = (  0.2621260  0.0059111  0.5980003  )
        48           O   tau(  48) = (  0.2591051  0.0041689  0.4015968  )
        49           O   tau(  49) = (  0.1421646  0.4264937  0.8534850  )
        50           H   tau(  50) = (  0.1421646  0.4264937  0.9026774  )

     number of k points=    10  Gaussian smearing, width (Ry)=  0.0700
                       cart. coord. in units 2pi/alat
        k(    1) = (   0.0000000   0.0000000   0.0000000), wk =   0.1250000
        k(    2) = (   0.0000000   0.2500000   0.0000000), wk =   0.2500000
        k(    3) = (   0.0000000  -0.5000000   0.0000000), wk =   0.1250000
        k(    4) = (   0.2500000   0.2500000   0.0000000), wk =   0.2500000
        k(    5) = (   0.2500000  -0.5000000   0.0000000), wk =   0.2500000
        k(    6) = (  -0.5000000  -0.5000000   0.0000000), wk =   0.1250000
        k(    7) = (   0.2500000   0.0000000   0.0000000), wk =   0.2500000
        k(    8) = (  -0.5000000   0.0000000   0.0000000), wk =   0.1250000
        k(    9) = (  -0.2500000   0.2500000   0.0000000), wk =   0.2500000
        k(   10) = (  -0.5000000   0.2500000   0.0000000), wk =   0.2500000

                       cryst. coord.
        k(    1) = (   0.0000000   0.0000000   0.0000000), wk =   0.1250000
        k(    2) = (   0.0000000   0.2500000   0.0000000), wk =   0.2500000
        k(    3) = (   0.0000000  -0.5000000   0.0000000), wk =   0.1250000
        k(    4) = (   0.2500000   0.2500000   0.0000000), wk =   0.2500000
        k(    5) = (   0.2500000  -0.5000000   0.0000000), wk =   0.2500000
        k(    6) = (  -0.5000000  -0.5000000   0.0000000), wk =   0.1250000
        k(    7) = (   0.2500000   0.0000000   0.0000000), wk =   0.2500000
        k(    8) = (  -0.5000000   0.0000000   0.0000000), wk =   0.1250000
        k(    9) = (  -0.2500000   0.2500000   0.0000000), wk =   0.2500000
        k(   10) = (  -0.5000000   0.2500000   0.0000000), wk =   0.2500000

     Dense  grid:  1474595 G-vectors     FFT dimensions: ( 108, 108, 270)

     Smooth grid:   521381 G-vectors     FFT dimensions: (  75,  75, 192)

     Dynamical RAM for                 wfc:      10.73 MB

     Dynamical RAM for     wfc (w. buffer):      64.38 MB

     Dynamical RAM for           str. fact:       3.75 MB

     Dynamical RAM for           local pot:       0.00 MB

     Dynamical RAM for          nlocal pot:      24.61 MB

     Dynamical RAM for                qrad:       7.03 MB

     Dynamical RAM for          rho,v,vnew:       6.02 MB

     Dynamical RAM for               rhoin:       2.01 MB

     Dynamical RAM for            rho*nmix:      15.00 MB

     Dynamical RAM for           G-vectors:       3.68 MB

     Dynamical RAM for          h,s,v(r/c):       1.35 MB

     Dynamical RAM for          <psi|beta>:       2.35 MB

     Dynamical RAM for                 psi:      21.46 MB

     Dynamical RAM for                hpsi:      21.46 MB

     Dynamical RAM for                spsi:      21.46 MB

     Dynamical RAM for      wfcinit/wfcrot:      34.49 MB

     Dynamical RAM for           addusdens:     101.26 MB

     Estimated static dynamical RAM per process >     121.50 MB

     Estimated max dynamical RAM per process >     237.76 MB

     Estimated total dynamical RAM >      10.79 GB

     Check: negative core charge=   -0.000004

     Initial potential from superposition of free atoms

     starting charge     422.5961, renormalised to     431.0000

     negative rho (up, down):  7.820E-01 0.000E+00
     Starting wfcs are  377 randomized atomic wfcs
     Checking if some PAW data can be deallocated... 
       PAW data deallocated on   19 nodes for type:  2

     total cpu time spent up to now is        9.3 secs

     Self-consistent Calculation

     iteration #  1     ecut=    60.00 Ry     beta= 0.15
     Davidson diagonalization with overlap

---- Real-time Memory Report at c_bands before calling an iterative solver
             0 MiB given to the printing process from OS
             0 MiB allocation reported by mallinfo(arena+hblkhd)
         23988 MiB available memory on the node where the printing process lives
------------------
     ethr =  1.00E-02,  avg # of iterations =  2.0

     negative rho (up, down):  7.718E-01 0.000E+00

     total cpu time spent up to now is       26.8 secs

     total energy              =   -4446.66847380 Ry
     estimated scf accuracy    <      44.76181572 Ry

     iteration #  2     ecut=    60.00 Ry     beta= 0.15
     Davidson diagonalization with overlap

---- Real-time Memory Report at c_bands before calling an iterative solver
             0 MiB given to the printing process from OS
             0 MiB allocation reported by mallinfo(arena+hblkhd)
         24260 MiB available memory on the node where the printing process lives
------------------
     ethr =  1.00E-02,  avg # of iterations =  1.0

     negative rho (up, down):  7.586E-01 0.000E+00

     total cpu time spent up to now is       41.7 secs

     total energy              =   -4443.34430026 Ry
     estimated scf accuracy    <      29.89800790 Ry

     iteration #  3     ecut=    60.00 Ry     beta= 0.15
     Davidson diagonalization with overlap

---- Real-time Memory Report at c_bands before calling an iterative solver
             0 MiB given to the printing process from OS
             0 MiB allocation reported by mallinfo(arena+hblkhd)
         23414 MiB available memory on the node where the printing process lives
------------------
     ethr =  6.94E-03,  avg # of iterations =  1.0

     negative rho (up, down):  7.555E-01 0.000E+00

     total cpu time spent up to now is       57.2 secs

     total energy              =   -4444.26287611 Ry
     estimated scf accuracy    <      27.80625157 Ry

     iteration #  4     ecut=    60.00 Ry     beta= 0.15
     Davidson diagonalization with overlap

---- Real-time Memory Report at c_bands before calling an iterative solver
             0 MiB given to the printing process from OS
             0 MiB allocation reported by mallinfo(arena+hblkhd)
         23388 MiB available memory on the node where the printing process lives
------------------
     ethr =  6.45E-03,  avg # of iterations =  1.0

     negative rho (up, down):  7.504E-01 0.000E+00

     total cpu time spent up to now is       72.7 secs

     total energy              =   -4443.07094971 Ry
     estimated scf accuracy    <      20.59191785 Ry

     iteration #  5     ecut=    60.00 Ry     beta= 0.15
     Davidson diagonalization with overlap

---- Real-time Memory Report at c_bands before calling an iterative solver
             0 MiB given to the printing process from OS
             0 MiB allocation reported by mallinfo(arena+hblkhd)
         23372 MiB available memory on the node where the printing process lives
------------------
     ethr =  4.78E-03,  avg # of iterations =  1.0

     negative rho (up, down):  7.395E-01 0.000E+00

     total cpu time spent up to now is       88.1 secs

     total energy              =   -4442.46206300 Ry
     estimated scf accuracy    <      12.39850730 Ry

     iteration #  6     ecut=    60.00 Ry     beta= 0.15
     Davidson diagonalization with overlap

---- Real-time Memory Report at c_bands before calling an iterative solver
             0 MiB given to the printing process from OS
             0 MiB allocation reported by mallinfo(arena+hblkhd)
         23352 MiB available memory on the node where the printing process lives
------------------
     ethr =  2.88E-03,  avg # of iterations =  1.0

     negative rho (up, down):  7.425E-01 0.000E+00

     total cpu time spent up to now is      103.3 secs

     total energy              =   -4442.82170172 Ry
     estimated scf accuracy    <       5.07398547 Ry

     iteration #  7     ecut=    60.00 Ry     beta= 0.15
     Davidson diagonalization with overlap

---- Real-time Memory Report at c_bands before calling an iterative solver
             0 MiB given to the printing process from OS
             0 MiB allocation reported by mallinfo(arena+hblkhd)
         23340 MiB available memory on the node where the printing process lives
------------------
     ethr =  1.18E-03,  avg # of iterations =  1.7

     negative rho (up, down):  7.645E-01 0.000E+00

     total cpu time spent up to now is      119.0 secs

     total energy              =   -4441.67183027 Ry
     estimated scf accuracy    <       3.97468946 Ry

     iteration #  8     ecut=    60.00 Ry     beta= 0.15
     Davidson diagonalization with overlap

---- Real-time Memory Report at c_bands before calling an iterative solver
             0 MiB given to the printing process from OS
             0 MiB allocation reported by mallinfo(arena+hblkhd)
         23320 MiB available memory on the node where the printing process lives
------------------
     ethr =  9.22E-04,  avg # of iterations =  3.5

     negative rho (up, down):  7.735E-01 0.000E+00

     total cpu time spent up to now is      138.5 secs

     total energy              =   -4441.25925292 Ry
     estimated scf accuracy    <      23.04097771 Ry

     iteration #  9     ecut=    60.00 Ry     beta= 0.15
     Davidson diagonalization with overlap

---- Real-time Memory Report at c_bands before calling an iterative solver
             0 MiB given to the printing process from OS
             0 MiB allocation reported by mallinfo(arena+hblkhd)
         23205 MiB available memory on the node where the printing process lives
------------------
     ethr =  9.22E-04,  avg # of iterations = 10.0

     negative rho (up, down):  7.704E-01 0.000E+00

     total cpu time spent up to now is      161.5 secs

     total energy              =   -4441.70958414 Ry
     estimated scf accuracy    <       4.15384963 Ry

     iteration # 10     ecut=    60.00 Ry     beta= 0.15
     Davidson diagonalization with overlap

---- Real-time Memory Report at c_bands before calling an iterative solver
             0 MiB given to the printing process from OS
             0 MiB allocation reported by mallinfo(arena+hblkhd)
         22821 MiB available memory on the node where the printing process lives
------------------
     ethr =  9.22E-04,  avg # of iterations =  1.0

     negative rho (up, down):  7.739E-01 0.000E+00

     total cpu time spent up to now is      176.8 secs

     total energy              =   -4441.88077926 Ry
     estimated scf accuracy    <       1.67772259 Ry

     iteration # 11     ecut=    60.00 Ry     beta= 0.15
     Davidson diagonalization with overlap

---- Real-time Memory Report at c_bands before calling an iterative solver
             0 MiB given to the printing process from OS
             0 MiB allocation reported by mallinfo(arena+hblkhd)
         22808 MiB available memory on the node where the printing process lives
------------------
     ethr =  3.89E-04,  avg # of iterations =  1.4

     negative rho (up, down):  7.994E-01 0.000E+00

     total cpu time spent up to now is      193.4 secs

     total energy              =   -4441.77714487 Ry
     estimated scf accuracy    <       0.97081701 Ry

     iteration # 12     ecut=    60.00 Ry     beta= 0.15
     Davidson diagonalization with overlap

---- Real-time Memory Report at c_bands before calling an iterative solver
             0 MiB given to the printing process from OS
             0 MiB allocation reported by mallinfo(arena+hblkhd)
         22810 MiB available memory on the node where the printing process lives
------------------
     ethr =  2.25E-04,  avg # of iterations =  7.1

     negative rho (up, down):  8.159E-01 0.000E+00

     total cpu time spent up to now is      213.7 secs

     total energy              =   -4441.88621750 Ry
     estimated scf accuracy    <       1.56240476 Ry

     iteration # 13     ecut=    60.00 Ry     beta= 0.15
     Davidson diagonalization with overlap

---- Real-time Memory Report at c_bands before calling an iterative solver
             0 MiB given to the printing process from OS
             0 MiB allocation reported by mallinfo(arena+hblkhd)
         22795 MiB available memory on the node where the printing process lives
------------------
     ethr =  2.25E-04,  avg # of iterations =  7.5

     negative rho (up, down):  8.190E-01 0.000E+00

     total cpu time spent up to now is      234.2 secs

     total energy              =   -4441.80361954 Ry
     estimated scf accuracy    <       1.21332516 Ry

     iteration # 14     ecut=    60.00 Ry     beta= 0.15
     Davidson diagonalization with overlap

---- Real-time Memory Report at c_bands before calling an iterative solver
             0 MiB given to the printing process from OS
             0 MiB allocation reported by mallinfo(arena+hblkhd)
         22781 MiB available memory on the node where the printing process lives
------------------
     ethr =  2.25E-04,  avg # of iterations =  4.0

     negative rho (up, down):  8.142E-01 0.000E+00

     total cpu time spent up to now is      252.9 secs

     total energy              =   -4441.75089256 Ry
     estimated scf accuracy    <       0.46748939 Ry

     iteration # 15     ecut=    60.00 Ry     beta= 0.15
     Davidson diagonalization with overlap

---- Real-time Memory Report at c_bands before calling an iterative solver
             0 MiB given to the printing process from OS
             0 MiB allocation reported by mallinfo(arena+hblkhd)
         22781 MiB available memory on the node where the printing process lives
------------------
     ethr =  1.08E-04,  avg # of iterations =  6.1

     negative rho (up, down):  8.255E-01 0.000E+00

     total cpu time spent up to now is      272.6 secs

     total energy              =   -4441.73585080 Ry
     estimated scf accuracy    <       0.32630625 Ry

     iteration # 16     ecut=    60.00 Ry     beta= 0.15
     Davidson diagonalization with overlap

---- Real-time Memory Report at c_bands before calling an iterative solver
             0 MiB given to the printing process from OS
             0 MiB allocation reported by mallinfo(arena+hblkhd)
         22772 MiB available memory on the node where the printing process lives
------------------
     ethr =  7.57E-05,  avg # of iterations = 11.4

     negative rho (up, down):  8.299E-01 0.000E+00

     total cpu time spent up to now is      296.0 secs

     total energy              =   -4441.72931408 Ry
     estimated scf accuracy    <       0.31755101 Ry

     iteration # 17     ecut=    60.00 Ry     beta= 0.15
     Davidson diagonalization with overlap

---- Real-time Memory Report at c_bands before calling an iterative solver
             0 MiB given to the printing process from OS
             0 MiB allocation reported by mallinfo(arena+hblkhd)
         22800 MiB available memory on the node where the printing process lives
------------------
     c_bands:  1 eigenvalues not converged
     ethr =  7.37E-05,  avg # of iterations =  4.9

     negative rho (up, down):  8.285E-01 0.000E+00

     total cpu time spent up to now is      315.0 secs

     total energy              =   -4441.71629554 Ry
     estimated scf accuracy    <       0.24413840 Ry

     iteration # 18     ecut=    60.00 Ry     beta= 0.15
     Davidson diagonalization with overlap

---- Real-time Memory Report at c_bands before calling an iterative solver
             0 MiB given to the printing process from OS
             0 MiB allocation reported by mallinfo(arena+hblkhd)
         22770 MiB available memory on the node where the printing process lives
------------------
     ethr =  5.66E-05,  avg # of iterations =  3.5

     negative rho (up, down):  8.133E-01 0.000E+00

     total cpu time spent up to now is      333.1 secs

     total energy              =   -4441.68843765 Ry
     estimated scf accuracy    <       0.15843772 Ry

     iteration # 19     ecut=    60.00 Ry     beta= 0.15
     Davidson diagonalization with overlap

---- Real-time Memory Report at c_bands before calling an iterative solver
             0 MiB given to the printing process from OS
             0 MiB allocation reported by mallinfo(arena+hblkhd)
         22769 MiB available memory on the node where the printing process lives
------------------
     ethr =  3.68E-05,  avg # of iterations =  7.7

     negative rho (up, down):  8.226E-01 0.000E+00

     total cpu time spent up to now is      354.3 secs

     total energy              =   -4441.67612117 Ry
     estimated scf accuracy    <       0.10789623 Ry

     iteration # 20     ecut=    60.00 Ry     beta= 0.15
     Davidson diagonalization with overlap

---- Real-time Memory Report at c_bands before calling an iterative solver
             0 MiB given to the printing process from OS
             0 MiB allocation reported by mallinfo(arena+hblkhd)
         22747 MiB available memory on the node where the printing process lives
------------------
     c_bands:  1 eigenvalues not converged
     ethr =  2.50E-05,  avg # of iterations =  9.5

     negative rho (up, down):  8.183E-01 0.000E+00

     total cpu time spent up to now is      376.2 secs

     total energy              =   -4441.67057720 Ry
     estimated scf accuracy    <       0.06201844 Ry

     iteration # 21     ecut=    60.00 Ry     beta= 0.15
     Davidson diagonalization with overlap

---- Real-time Memory Report at c_bands before calling an iterative solver
             0 MiB given to the printing process from OS
             0 MiB allocation reported by mallinfo(arena+hblkhd)
         22725 MiB available memory on the node where the printing process lives
------------------
     ethr =  1.44E-05,  avg # of iterations =  9.9

     negative rho (up, down):  8.190E-01 0.000E+00

     total cpu time spent up to now is      398.4 secs

     total energy              =   -4441.66937519 Ry
     estimated scf accuracy    <       0.03621161 Ry

     iteration # 22     ecut=    60.00 Ry     beta= 0.15
     Davidson diagonalization with overlap

---- Real-time Memory Report at c_bands before calling an iterative solver
             0 MiB given to the printing process from OS
             0 MiB allocation reported by mallinfo(arena+hblkhd)
         22709 MiB available memory on the node where the printing process lives
------------------
     ethr =  8.40E-06,  avg # of iterations =  9.0

     negative rho (up, down):  8.123E-01 0.000E+00

     total cpu time spent up to now is      420.6 secs

     total energy              =   -4441.66945051 Ry
     estimated scf accuracy    <       0.02328225 Ry

     iteration # 23     ecut=    60.00 Ry     beta= 0.15
     Davidson diagonalization with overlap

---- Real-time Memory Report at c_bands before calling an iterative solver
             0 MiB given to the printing process from OS
             0 MiB allocation reported by mallinfo(arena+hblkhd)
         22720 MiB available memory on the node where the printing process lives
------------------
     ethr =  5.40E-06,  avg # of iterations =  1.4

     negative rho (up, down):  7.894E-01 0.000E+00

     total cpu time spent up to now is      437.3 secs

     total energy              =   -4441.66512375 Ry
     estimated scf accuracy    <       0.01877129 Ry

     iteration # 24     ecut=    60.00 Ry     beta= 0.15
     Davidson diagonalization with overlap

---- Real-time Memory Report at c_bands before calling an iterative solver
             0 MiB given to the printing process from OS
             0 MiB allocation reported by mallinfo(arena+hblkhd)
         22740 MiB available memory on the node where the printing process lives
------------------
     c_bands:  1 eigenvalues not converged
     ethr =  4.36E-06,  avg # of iterations = 10.7

     negative rho (up, down):  7.916E-01 0.000E+00

     total cpu time spent up to now is      459.8 secs

     total energy              =   -4441.66450788 Ry
     estimated scf accuracy    <       0.01160590 Ry

     iteration # 25     ecut=    60.00 Ry     beta= 0.15
     Davidson diagonalization with overlap

---- Real-time Memory Report at c_bands before calling an iterative solver
             0 MiB given to the printing process from OS
             0 MiB allocation reported by mallinfo(arena+hblkhd)
         22737 MiB available memory on the node where the printing process lives
------------------
     c_bands:  1 eigenvalues not converged
     ethr =  2.69E-06,  avg # of iterations = 12.2

     negative rho (up, down):  7.957E-01 0.000E+00

     total cpu time spent up to now is      483.6 secs

     total energy              =   -4441.66410519 Ry
     estimated scf accuracy    <       0.00552857 Ry

     iteration # 26     ecut=    60.00 Ry     beta= 0.15
     Davidson diagonalization with overlap

---- Real-time Memory Report at c_bands before calling an iterative solver
             0 MiB given to the printing process from OS
             0 MiB allocation reported by mallinfo(arena+hblkhd)
         22730 MiB available memory on the node where the printing process lives
------------------
     ethr =  1.28E-06,  avg # of iterations =  6.9

     negative rho (up, down):  7.988E-01 0.000E+00

     total cpu time spent up to now is      504.3 secs

     total energy              =   -4441.66403130 Ry
     estimated scf accuracy    <       0.00322530 Ry

     iteration # 27     ecut=    60.00 Ry     beta= 0.15
     Davidson diagonalization with overlap

---- Real-time Memory Report at c_bands before calling an iterative solver
             0 MiB given to the printing process from OS
             0 MiB allocation reported by mallinfo(arena+hblkhd)
         22697 MiB available memory on the node where the printing process lives
------------------
     ethr =  7.48E-07,  avg # of iterations =  7.9

     negative rho (up, down):  7.979E-01 0.000E+00

     total cpu time spent up to now is      525.6 secs

     total energy              =   -4441.66404165 Ry
     estimated scf accuracy    <       0.00124683 Ry

     iteration # 28     ecut=    60.00 Ry     beta= 0.15
     Davidson diagonalization with overlap

---- Real-time Memory Report at c_bands before calling an iterative solver
             0 MiB given to the printing process from OS
             0 MiB allocation reported by mallinfo(arena+hblkhd)
         22698 MiB available memory on the node where the printing process lives
------------------
     c_bands:  1 eigenvalues not converged
     ethr =  2.89E-07,  avg # of iterations =  8.8

     negative rho (up, down):  7.951E-01 0.000E+00

     total cpu time spent up to now is      547.8 secs

     total energy              =   -4441.66408391 Ry
     estimated scf accuracy    <       0.00044028 Ry

     iteration # 29     ecut=    60.00 Ry     beta= 0.15
     Davidson diagonalization with overlap

---- Real-time Memory Report at c_bands before calling an iterative solver
             0 MiB given to the printing process from OS
             0 MiB allocation reported by mallinfo(arena+hblkhd)
         22686 MiB available memory on the node where the printing process lives
------------------
     c_bands:  1 eigenvalues not converged
     ethr =  1.02E-07,  avg # of iterations =  6.5

     negative rho (up, down):  7.939E-01 0.000E+00

     total cpu time spent up to now is      567.3 secs

     total energy              =   -4441.66409572 Ry
     estimated scf accuracy    <       0.00021404 Ry

     iteration # 30     ecut=    60.00 Ry     beta= 0.15
     Davidson diagonalization with overlap

---- Real-time Memory Report at c_bands before calling an iterative solver
             0 MiB given to the printing process from OS
             0 MiB allocation reported by mallinfo(arena+hblkhd)
         22716 MiB available memory on the node where the printing process lives
------------------
     ethr =  4.97E-08,  avg # of iterations =  3.1

     negative rho (up, down):  7.932E-01 0.000E+00

     total cpu time spent up to now is      585.5 secs

     total energy              =   -4441.66410379 Ry
     estimated scf accuracy    <       0.00011310 Ry

     iteration # 31     ecut=    60.00 Ry     beta= 0.15
     Davidson diagonalization with overlap

---- Real-time Memory Report at c_bands before calling an iterative solver
             0 MiB given to the printing process from OS
             0 MiB allocation reported by mallinfo(arena+hblkhd)
         22765 MiB available memory on the node where the printing process lives
------------------
     ethr =  2.62E-08,  avg # of iterations =  3.5

     negative rho (up, down):  7.930E-01 0.000E+00

     total cpu time spent up to now is      604.0 secs

     total energy              =   -4441.66411006 Ry
     estimated scf accuracy    <       0.00005318 Ry

     iteration # 32     ecut=    60.00 Ry     beta= 0.15
     Davidson diagonalization with overlap

---- Real-time Memory Report at c_bands before calling an iterative solver
             0 MiB given to the printing process from OS
             0 MiB allocation reported by mallinfo(arena+hblkhd)
         22769 MiB available memory on the node where the printing process lives
------------------
     ethr =  1.23E-08,  avg # of iterations =  2.1

     negative rho (up, down):  7.924E-01 0.000E+00

     total cpu time spent up to now is      621.6 secs

     total energy              =   -4441.66411083 Ry
     estimated scf accuracy    <       0.00003480 Ry

     iteration # 33     ecut=    60.00 Ry     beta= 0.15
     Davidson diagonalization with overlap

---- Real-time Memory Report at c_bands before calling an iterative solver
             0 MiB given to the printing process from OS
             0 MiB allocation reported by mallinfo(arena+hblkhd)
         22763 MiB available memory on the node where the printing process lives
------------------
     ethr =  8.07E-09,  avg # of iterations =  2.9

     negative rho (up, down):  7.923E-01 0.000E+00

     total cpu time spent up to now is      640.1 secs

     total energy              =   -4441.66411422 Ry
     estimated scf accuracy    <       0.00001423 Ry

     iteration # 34     ecut=    60.00 Ry     beta= 0.15
     Davidson diagonalization with overlap

---- Real-time Memory Report at c_bands before calling an iterative solver
             0 MiB given to the printing process from OS
             0 MiB allocation reported by mallinfo(arena+hblkhd)
         22772 MiB available memory on the node where the printing process lives
------------------
     ethr =  3.30E-09,  avg # of iterations =  2.1

     negative rho (up, down):  7.922E-01 0.000E+00

     total cpu time spent up to now is      657.8 secs

     total energy              =   -4441.66411439 Ry
     estimated scf accuracy    <       0.00000759 Ry

     iteration # 35     ecut=    60.00 Ry     beta= 0.15
     Davidson diagonalization with overlap

---- Real-time Memory Report at c_bands before calling an iterative solver
             0 MiB given to the printing process from OS
             0 MiB allocation reported by mallinfo(arena+hblkhd)
         22773 MiB available memory on the node where the printing process lives
------------------
     ethr =  1.76E-09,  avg # of iterations =  2.1

     negative rho (up, down):  7.923E-01 0.000E+00

     total cpu time spent up to now is      675.5 secs

     total energy              =   -4441.66411528 Ry
     estimated scf accuracy    <       0.00000533 Ry

     iteration # 36     ecut=    60.00 Ry     beta= 0.15
     Davidson diagonalization with overlap

---- Real-time Memory Report at c_bands before calling an iterative solver
             0 MiB given to the printing process from OS
             0 MiB allocation reported by mallinfo(arena+hblkhd)
         22774 MiB available memory on the node where the printing process lives
------------------
     ethr =  1.24E-09,  avg # of iterations =  1.7

     negative rho (up, down):  7.923E-01 0.000E+00

     total cpu time spent up to now is      692.1 secs

     total energy              =   -4441.66411695 Ry
     estimated scf accuracy    <       0.00000376 Ry

     iteration # 37     ecut=    60.00 Ry     beta= 0.15
     Davidson diagonalization with overlap

---- Real-time Memory Report at c_bands before calling an iterative solver
             0 MiB given to the printing process from OS
             0 MiB allocation reported by mallinfo(arena+hblkhd)
         22783 MiB available memory on the node where the printing process lives
------------------
     ethr =  8.72E-10,  avg # of iterations =  2.3

     negative rho (up, down):  7.924E-01 0.000E+00

     total cpu time spent up to now is      709.7 secs

     total energy              =   -4441.66411784 Ry
     estimated scf accuracy    <       0.00000175 Ry

     iteration # 38     ecut=    60.00 Ry     beta= 0.15
     Davidson diagonalization with overlap

---- Real-time Memory Report at c_bands before calling an iterative solver
             0 MiB given to the printing process from OS
             0 MiB allocation reported by mallinfo(arena+hblkhd)
         22776 MiB available memory on the node where the printing process lives
------------------
     ethr =  4.07E-10,  avg # of iterations =  2.8

     negative rho (up, down):  7.924E-01 0.000E+00

     total cpu time spent up to now is      727.7 secs

     total energy              =   -4441.66411825 Ry
     estimated scf accuracy    <       0.00000110 Ry

     iteration # 39     ecut=    60.00 Ry     beta= 0.15
     Davidson diagonalization with overlap

---- Real-time Memory Report at c_bands before calling an iterative solver
             0 MiB given to the printing process from OS
             0 MiB allocation reported by mallinfo(arena+hblkhd)
         22777 MiB available memory on the node where the printing process lives
------------------
     ethr =  2.54E-10,  avg # of iterations =  3.1

     negative rho (up, down):  7.925E-01 0.000E+00

     total cpu time spent up to now is      746.0 secs

     total energy              =   -4441.66411834 Ry
     estimated scf accuracy    <       0.00000067 Ry

     iteration # 40     ecut=    60.00 Ry     beta= 0.15
     Davidson diagonalization with overlap

---- Real-time Memory Report at c_bands before calling an iterative solver
             0 MiB given to the printing process from OS
             0 MiB allocation reported by mallinfo(arena+hblkhd)
         22776 MiB available memory on the node where the printing process lives
------------------
     ethr =  1.55E-10,  avg # of iterations =  2.8

     negative rho (up, down):  7.925E-01 0.000E+00

     total cpu time spent up to now is      764.1 secs

     total energy              =   -4441.66411835 Ry
     estimated scf accuracy    <       0.00000047 Ry

     iteration # 41     ecut=    60.00 Ry     beta= 0.15
     Davidson diagonalization with overlap

---- Real-time Memory Report at c_bands before calling an iterative solver
             0 MiB given to the printing process from OS
             0 MiB allocation reported by mallinfo(arena+hblkhd)
         22775 MiB available memory on the node where the printing process lives
------------------
     ethr =  1.08E-10,  avg # of iterations =  2.1

     negative rho (up, down):  7.925E-01 0.000E+00

     total cpu time spent up to now is      781.5 secs

     total energy              =   -4441.66411833 Ry
     estimated scf accuracy    <       0.00000031 Ry

     iteration # 42     ecut=    60.00 Ry     beta= 0.15
     Davidson diagonalization with overlap

---- Real-time Memory Report at c_bands before calling an iterative solver
             0 MiB given to the printing process from OS
             0 MiB allocation reported by mallinfo(arena+hblkhd)
         22775 MiB available memory on the node where the printing process lives
------------------
     ethr =  7.15E-11,  avg # of iterations =  2.1

     negative rho (up, down):  7.925E-01 0.000E+00

     total cpu time spent up to now is      799.1 secs

     total energy              =   -4441.66411833 Ry
     estimated scf accuracy    <       0.00000019 Ry

     iteration # 43     ecut=    60.00 Ry     beta= 0.15
     Davidson diagonalization with overlap

---- Real-time Memory Report at c_bands before calling an iterative solver
             0 MiB given to the printing process from OS
             0 MiB allocation reported by mallinfo(arena+hblkhd)
         22778 MiB available memory on the node where the printing process lives
------------------
     ethr =  4.30E-11,  avg # of iterations =  2.1

     negative rho (up, down):  7.925E-01 0.000E+00

     total cpu time spent up to now is      816.4 secs

     total energy              =   -4441.66411832 Ry
     estimated scf accuracy    <       0.00000011 Ry

     iteration # 44     ecut=    60.00 Ry     beta= 0.15
     Davidson diagonalization with overlap

---- Real-time Memory Report at c_bands before calling an iterative solver
             0 MiB given to the printing process from OS
             0 MiB allocation reported by mallinfo(arena+hblkhd)
         22775 MiB available memory on the node where the printing process lives
------------------
     ethr =  2.53E-11,  avg # of iterations =  2.8

     negative rho (up, down):  7.925E-01 0.000E+00

     total cpu time spent up to now is      834.3 secs

     total energy              =   -4441.66411832 Ry
     estimated scf accuracy    <       0.00000005 Ry

     iteration # 45     ecut=    60.00 Ry     beta= 0.15
     Davidson diagonalization with overlap

---- Real-time Memory Report at c_bands before calling an iterative solver
             0 MiB given to the printing process from OS
             0 MiB allocation reported by mallinfo(arena+hblkhd)
         22774 MiB available memory on the node where the printing process lives
------------------
     ethr =  1.22E-11,  avg # of iterations =  2.2

     negative rho (up, down):  7.925E-01 0.000E+00

     total cpu time spent up to now is      851.8 secs

     total energy              =   -4441.66411832 Ry
     estimated scf accuracy    <       0.00000003 Ry

     iteration # 46     ecut=    60.00 Ry     beta= 0.15
     Davidson diagonalization with overlap

---- Real-time Memory Report at c_bands before calling an iterative solver
             0 MiB given to the printing process from OS
             0 MiB allocation reported by mallinfo(arena+hblkhd)
         22773 MiB available memory on the node where the printing process lives
------------------
     ethr =  6.93E-12,  avg # of iterations =  2.1

     negative rho (up, down):  7.925E-01 0.000E+00

     total cpu time spent up to now is      869.4 secs

     total energy              =   -4441.66411833 Ry
     estimated scf accuracy    <       0.00000002 Ry

     iteration # 47     ecut=    60.00 Ry     beta= 0.15
     Davidson diagonalization with overlap

---- Real-time Memory Report at c_bands before calling an iterative solver
             0 MiB given to the printing process from OS
             0 MiB allocation reported by mallinfo(arena+hblkhd)
         22774 MiB available memory on the node where the printing process lives
------------------
     ethr =  3.90E-12,  avg # of iterations =  2.2

     negative rho (up, down):  7.925E-01 0.000E+00

     total cpu time spent up to now is      886.7 secs

     End of self-consistent calculation

          k = 0.0000 0.0000 0.0000 ( 65197 PWs)   bands (ev):

   -92.7052 -92.6570 -92.5602 -92.5125 -92.4562 -92.4119 -92.3943 -92.2741
   -56.0586 -56.0434 -55.9171 -55.9059 -55.9000 -55.8927 -55.8596 -55.8290
   -55.8129 -55.8115 -55.8075 -55.7630 -55.7433 -55.7069 -55.6871 -55.6562
   -55.6478 -55.6008 -55.6000 -55.5971 -55.5887 -55.5490 -55.5246 -55.4392
   -31.2824 -31.2628 -31.1212 -31.1192 -31.0341 -30.9947 -30.8329 -30.5586
   -29.8530 -29.8086 -29.7834 -29.6745 -15.0853 -15.0348 -14.9593 -14.8298
   -14.6302 -14.5106 -14.2227 -14.2011 -14.1735 -14.1282 -14.0794 -14.0643
   -14.0589 -14.0378 -14.0198 -13.9886 -13.9676 -13.9346 -13.7815 -13.5942
   -13.5696 -13.5396 -13.5002 -13.4828 -13.4355 -13.4014 -13.3268 -13.2543
   -13.1360 -13.1164 -13.1144 -13.0914 -13.0791 -13.0609 -13.0104 -13.0065
   -12.9859 -12.9612 -12.9278 -12.9239 -12.9070 -12.8989 -12.8644 -12.7842
   -12.7608 -12.7479 -12.5542 -12.5430 -12.4910 -12.3468 -12.2007 -11.9894
   -11.9173 -11.8653 -11.7919 -11.7807 -11.7569 -11.7394 -11.6762 -11.6589
   -11.6242 -11.5959 -11.4825 -11.4036 -11.4001  -2.9444  -2.7130  -2.4837
    -2.3344  -2.2734  -2.1317  -1.8233  -1.8086  -1.7905  -1.7023  -1.6850
    -1.6174  -1.6006  -1.5606  -1.5168  -1.3349  -1.1513  -1.1075  -1.0769
    -0.9351  -0.9201  -0.8716  -0.8528  -0.8078  -0.7913  -0.7378  -0.7107
    -0.6354  -0.6236  -0.5509  -0.4189  -0.4068  -0.3757  -0.2959  -0.2727
    -0.2161  -0.1835  -0.1290  -0.0828  -0.0302  -0.0086   0.0606   0.1267
     0.1770   0.2009   0.2118   0.4715   0.4865   0.6622   0.7237   0.7873
     0.8398   0.9219   0.9342   0.9515   1.0199   1.0480   1.0811   1.1387
     1.2698   1.3278   1.3498   1.3768   1.3871   1.4462   1.5170   1.6297
     1.6471   1.7017   1.7119   1.7553   1.7763   1.7879   1.8400   1.9044
     1.9158   1.9474   1.9739   2.0247   2.1560   2.2447   2.2837   2.3019
     2.4349   2.4498   2.4587   2.4757   2.5081   2.5114   2.6217   2.6546
     2.6823   2.7016   2.7201   2.8019   2.9047   2.9400   2.9480   2.9535
     3.0212   3.0270   3.0487   3.0570   3.0658   3.0766   3.0863   3.1003
     3.1065   3.1166   3.1252   3.1329   3.1529   3.1740   3.1788   3.1914
     3.2141   3.3312   3.4131   4.1015   4.4258   4.7662   4.8647   5.0395
     5.7993   5.9523   5.9863   6.0064   6.3098   6.3568   6.4790   6.4868
     6.7484   7.0049   7.1009   7.3127   7.4873   7.6258   7.6589   7.6716
     7.7132   7.8826   7.9631   8.0043   8.1092   8.1560   8.4160   8.5208
     8.7226   8.8596   8.8681

     occupation numbers 
     1.0000   1.0000   1.0000   1.0000   1.0000   1.0000   1.0000   1.0000
     1.0000   1.0000   1.0000   1.0000   1.0000   1.0000   1.0000   1.0000
     1.0000   1.0000   1.0000   1.0000   1.0000   1.0000   1.0000   1.0000
     1.0000   1.0000   1.0000   1.0000   1.0000   1.0000   1.0000   1.0000
     1.0000   1.0000   1.0000   1.0000   1.0000   1.0000   1.0000   1.0000
     1.0000   1.0000   1.0000   1.0000   1.0000   1.0000   1.0000   1.0000
     1.0000   1.0000   1.0000   1.0000   1.0000   1.0000   1.0000   1.0000
     1.0000   1.0000   1.0000   1.0000   1.0000   1.0000   1.0000   1.0000
     1.0000   1.0000   1.0000   1.0000   1.0000   1.0000   1.0000   1.0000
     1.0000   1.0000   1.0000   1.0000   1.0000   1.0000   1.0000   1.0000
     1.0000   1.0000   1.0000   1.0000   1.0000   1.0000   1.0000   1.0000
     1.0000   1.0000   1.0000   1.0000   1.0000   1.0000   1.0000   1.0000
     1.0000   1.0000   1.0000   1.0000   1.0000   1.0000   1.0000   1.0000
     1.0000   1.0000   1.0000   1.0000   1.0000   1.0000   1.0000   1.0000
     1.0000   1.0000   1.0000   1.0000   1.0000   1.0000   1.0000   1.0000
     1.0000   1.0000   1.0000   1.0000   1.0000   1.0000   1.0000   1.0000
     1.0000   1.0000   1.0000   1.0000   1.0000   1.0000   1.0000   1.0000
     1.0000   1.0000   1.0000   1.0000   1.0000   1.0000   1.0000   1.0000
     1.0000   1.0000   1.0000   1.0000   1.0000   1.0000   1.0000   1.0000
     1.0000   1.0000   1.0000   1.0000   1.0000   1.0000   0.9999   0.9999
     0.9999   0.9998   0.9998   0.9998   0.9997   0.9996   0.9996   0.9994
     0.9988   0.9985   0.9983   0.9981   0.9980   0.9973   0.9963   0.9940
     0.9936   0.9919   0.9916   0.9900   0.9892   0.9887   0.9861   0.9824
     0.9816   0.9794   0.9774   0.9730   0.9584   0.9452   0.9385   0.9351
     0.9062   0.9025   0.9002   0.8957   0.8867   0.8857   0.8509   0.8393
     0.8290   0.8217   0.8144   0.7802   0.7324   0.7149   0.7108   0.7081
     0.6726   0.6695   0.6577   0.6532   0.6484   0.6424   0.6370   0.6292
     0.6257   0.6200   0.6151   0.6107   0.5993   0.5872   0.5844   0.5771
     0.5638   0.4948   0.4464   0.1236   0.0507   0.0160   0.0110   0.0054
     0.0001   0.0000   0.0000   0.0000   0.0000   0.0000   0.0000   0.0000
     0.0000   0.0000   0.0000   0.0000   0.0000   0.0000   0.0000   0.0000
     0.0000   0.0000   0.0000   0.0000   0.0000   0.0000   0.0000   0.0000
     0.0000   0.0000   0.0000

          k = 0.0000 0.2500 0.0000 ( 65257 PWs)   bands (ev):

   -92.7052 -92.6570 -92.5602 -92.5125 -92.4562 -92.4119 -92.3943 -92.2741
   -56.0586 -56.0434 -55.9171 -55.9059 -55.9000 -55.8927 -55.8596 -55.8290
   -55.8129 -55.8115 -55.8075 -55.7630 -55.7433 -55.7069 -55.6871 -55.6562
   -55.6478 -55.6008 -55.6000 -55.5971 -55.5887 -55.5490 -55.5246 -55.4393
   -31.2822 -31.2627 -31.1214 -31.1189 -31.0343 -30.9950 -30.8328 -30.5587
   -29.8524 -29.8083 -29.7840 -29.6748 -15.0490 -15.0080 -14.9343 -14.8002
   -14.6733 -14.5000 -14.3675 -14.1888 -14.1503 -14.1330 -14.1042 -14.0437
   -14.0381 -14.0204 -14.0015 -13.9700 -13.9518 -13.8528 -13.8122 -13.6516
   -13.6198 -13.5815 -13.5431 -13.4804 -13.4557 -13.4063 -13.3470 -13.3124
   -13.2507 -13.1823 -13.1521 -13.1146 -13.1050 -13.0702 -12.9944 -12.9714
   -12.9414 -12.9255 -12.9063 -12.8716 -12.8553 -12.8348 -12.8035 -12.7728
   -12.7175 -12.6899 -12.5029 -12.4820 -12.4374 -12.4081 -12.2519 -12.0435
   -11.9792 -11.8306 -11.7887 -11.7604 -11.7319 -11.7152 -11.6680 -11.6569
   -11.6343 -11.6004 -11.4968 -11.4452 -11.4347  -2.8089  -2.5887  -2.4505
    -2.2680  -2.2247  -2.0619  -1.8400  -1.7581  -1.7450  -1.6821  -1.5837
    -1.5682  -1.5346  -1.5071  -1.4632  -1.2664  -1.1538  -1.1355  -1.1219
    -1.0471  -1.0372  -0.9343  -0.9056  -0.8461  -0.8197  -0.7814  -0.7157
    -0.6893  -0.6567  -0.6262  -0.6085  -0.5763  -0.5038  -0.4521  -0.3701
    -0.2704  -0.2366  -0.1862  -0.0930  -0.0496   0.0136   0.0559   0.1142
     0.1295   0.1556   0.2165   0.5207   0.6061   0.6425   0.7255   0.7728
     0.7967   0.9064   0.9254   1.0206   1.0476   1.0738   1.1879   1.2860
     1.3033   1.3309   1.3509   1.3714   1.4319   1.4593   1.4877   1.5336
     1.5701   1.6031   1.6928   1.7314   1.7536   1.8097   1.8620   1.8997
     1.9303   1.9569   1.9697   2.0753   2.1960   2.2682   2.2869   2.3563
     2.4009   2.4337   2.4428   2.4524   2.4704   2.5152   2.5506   2.6357
     2.6834   2.6996   2.8620   2.8825   2.9171   2.9410   2.9552   2.9639
     2.9702   2.9791   3.0092   3.0114   3.0291   3.0381   3.0433   3.0625
     3.0751   3.0821   3.1035   3.1145   3.1201   3.1555   3.1717   3.2305
     3.5998   3.6347   3.8768   4.2922   4.4193   4.7137   5.0175   5.0616
     5.6427   5.8264   5.9525   5.9922   6.0821   6.1023   6.1799   6.5941
     6.8780   7.0585   7.1167   7.3276   7.4815   7.4967   7.6422   7.6883
     7.8648   7.9559   8.0322   8.1807   8.2160   8.3668   8.4067   8.4701
     8.5959   8.8257   8.9434

     occupation numbers 
     1.0000   1.0000   1.0000   1.0000   1.0000   1.0000   1.0000   1.0000
     1.0000   1.0000   1.0000   1.0000   1.0000   1.0000   1.0000   1.0000
     1.0000   1.0000   1.0000   1.0000   1.0000   1.0000   1.0000   1.0000
     1.0000   1.0000   1.0000   1.0000   1.0000   1.0000   1.0000   1.0000
     1.0000   1.0000   1.0000   1.0000   1.0000   1.0000   1.0000   1.0000
     1.0000   1.0000   1.0000   1.0000   1.0000   1.0000   1.0000   1.0000
     1.0000   1.0000   1.0000   1.0000   1.0000   1.0000   1.0000   1.0000
     1.0000   1.0000   1.0000   1.0000   1.0000   1.0000   1.0000   1.0000
     1.0000   1.0000   1.0000   1.0000   1.0000   1.0000   1.0000   1.0000
     1.0000   1.0000   1.0000   1.0000   1.0000   1.0000   1.0000   1.0000
     1.0000   1.0000   1.0000   1.0000   1.0000   1.0000   1.0000   1.0000
     1.0000   1.0000   1.0000   1.0000   1.0000   1.0000   1.0000   1.0000
     1.0000   1.0000   1.0000   1.0000   1.0000   1.0000   1.0000   1.0000
     1.0000   1.0000   1.0000   1.0000   1.0000   1.0000   1.0000   1.0000
     1.0000   1.0000   1.0000   1.0000   1.0000   1.0000   1.0000   1.0000
     1.0000   1.0000   1.0000   1.0000   1.0000   1.0000   1.0000   1.0000
     1.0000   1.0000   1.0000   1.0000   1.0000   1.0000   1.0000   1.0000
     1.0000   1.0000   1.0000   1.0000   1.0000   1.0000   1.0000   1.0000
     1.0000   1.0000   1.0000   1.0000   1.0000   1.0000   1.0000   1.0000
     1.0000   1.0000   1.0000   1.0000   1.0000   1.0000   0.9999   0.9999
     0.9999   0.9998   0.9998   0.9997   0.9996   0.9996   0.9992   0.9988
     0.9986   0.9984   0.9983   0.9981   0.9975   0.9972   0.9968   0.9960
     0.9954   0.9947   0.9922   0.9909   0.9901   0.9876   0.9849   0.9827
     0.9806   0.9787   0.9777   0.9680   0.9528   0.9412   0.9379   0.9243
     0.9144   0.9065   0.9042   0.9018   0.8971   0.8846   0.8741   0.8460
     0.8286   0.8224   0.7529   0.7432   0.7263   0.7144   0.7072   0.7027
     0.6995   0.6949   0.6790   0.6778   0.6684   0.6635   0.6607   0.6502
     0.6432   0.6393   0.6274   0.6212   0.6180   0.5978   0.5885   0.5542
     0.3402   0.3214   0.2052   0.0749   0.0517   0.0194   0.0059   0.0049
     0.0003   0.0001   0.0000   0.0000   0.0000   0.0000   0.0000   0.0000
     0.0000   0.0000   0.0000   0.0000   0.0000   0.0000   0.0000   0.0000
     0.0000   0.0000   0.0000   0.0000   0.0000   0.0000   0.0000   0.0000
     0.0000   0.0000   0.0000

          k = 0.0000-0.5000 0.0000 ( 65180 PWs)   bands (ev):

   -92.7052 -92.6570 -92.5602 -92.5125 -92.4562 -92.4119 -92.3943 -92.2741
   -56.0586 -56.0434 -55.9171 -55.9059 -55.9000 -55.8927 -55.8596 -55.8290
   -55.8129 -55.8115 -55.8075 -55.7630 -55.7433 -55.7069 -55.6871 -55.6562
   -55.6478 -55.6008 -55.6000 -55.5971 -55.5887 -55.5490 -55.5246 -55.4392
   -31.2820 -31.2626 -31.1216 -31.1187 -31.0344 -30.9952 -30.8327 -30.5588
   -29.8518 -29.8080 -29.7846 -29.6751 -15.0108 -14.9632 -14.9067 -14.7807
   -14.6970 -14.5622 -14.4001 -14.2853 -14.1616 -14.0887 -14.0447 -14.0391
   -13.9890 -13.9750 -13.9689 -13.9243 -13.8936 -13.8789 -13.8454 -13.7974
   -13.7619 -13.5875 -13.5280 -13.4798 -13.4608 -13.4016 -13.3624 -13.3219
   -13.2877 -13.2735 -13.2223 -13.1162 -13.1063 -13.0529 -12.9941 -12.9690
   -12.9501 -12.9328 -12.8864 -12.8467 -12.8249 -12.7778 -12.7099 -12.6870
   -12.6653 -12.6564 -12.5192 -12.4947 -12.3773 -12.3269 -12.2757 -12.1355
   -12.0849 -11.7856 -11.7823 -11.7552 -11.7180 -11.6836 -11.6725 -11.6301
   -11.6263 -11.5818 -11.5186 -11.5055 -11.4916  -2.5933  -2.5361  -2.3851
    -2.3139  -2.0287  -1.9484  -1.8195  -1.6846  -1.6395  -1.6263  -1.5488
    -1.5177  -1.4340  -1.3999  -1.3193  -1.2824  -1.2447  -1.2174  -1.1691
    -1.1370  -1.1210  -1.0713  -1.0379  -1.0050  -0.9724  -0.8615  -0.8179
    -0.7804  -0.7758  -0.6911  -0.6614  -0.6395  -0.5917  -0.4997  -0.4329
    -0.3387  -0.2812  -0.2064  -0.1783  -0.0339   0.0357   0.0382   0.0832
     0.2037   0.2747   0.3877   0.4583   0.4691   0.5936   0.6620   0.7432
     0.8764   0.9767   1.0105   1.0508   1.0673   1.0958   1.1115   1.1454
     1.1615   1.1759   1.2843   1.3446   1.3809   1.4081   1.6794   1.7021
     1.7179   1.8067   1.8320   1.8678   1.8865   1.9085   1.9322   1.9342
     1.9584   2.0031   2.0289   2.0619   2.0652   2.0948   2.1477   2.2413
     2.2791   2.4323   2.4380   2.4671   2.5995   2.6122   2.6267   2.6675
     2.6777   2.6806   2.7301   2.7417   2.7952   2.8161   2.8941   2.9139
     2.9797   2.9833   3.0080   3.0121   3.0261   3.0294   3.0341   3.0409
     3.0438   3.0554   3.0738   3.0749   3.1408   3.1444   3.1611   3.2158
     4.1219   4.1347   4.1869   4.2631   4.7329   4.9032   5.0212   5.1796
     5.4112   5.4606   5.5820   5.7416   6.0356   6.0425   6.3397   6.4778
     6.8494   6.9495   7.2141   7.2727   7.4122   7.4648   7.7462   7.8537
     7.9054   8.0399   8.1057   8.2734   8.4013   8.4746   8.4855   8.6683
     8.8091   8.8396   8.8685

     occupation numbers 
     1.0000   1.0000   1.0000   1.0000   1.0000   1.0000   1.0000   1.0000
     1.0000   1.0000   1.0000   1.0000   1.0000   1.0000   1.0000   1.0000
     1.0000   1.0000   1.0000   1.0000   1.0000   1.0000   1.0000   1.0000
     1.0000   1.0000   1.0000   1.0000   1.0000   1.0000   1.0000   1.0000
     1.0000   1.0000   1.0000   1.0000   1.0000   1.0000   1.0000   1.0000
     1.0000   1.0000   1.0000   1.0000   1.0000   1.0000   1.0000   1.0000
     1.0000   1.0000   1.0000   1.0000   1.0000   1.0000   1.0000   1.0000
     1.0000   1.0000   1.0000   1.0000   1.0000   1.0000   1.0000   1.0000
     1.0000   1.0000   1.0000   1.0000   1.0000   1.0000   1.0000   1.0000
     1.0000   1.0000   1.0000   1.0000   1.0000   1.0000   1.0000   1.0000
     1.0000   1.0000   1.0000   1.0000   1.0000   1.0000   1.0000   1.0000
     1.0000   1.0000   1.0000   1.0000   1.0000   1.0000   1.0000   1.0000
     1.0000   1.0000   1.0000   1.0000   1.0000   1.0000   1.0000   1.0000
     1.0000   1.0000   1.0000   1.0000   1.0000   1.0000   1.0000   1.0000
     1.0000   1.0000   1.0000   1.0000   1.0000   1.0000   1.0000   1.0000
     1.0000   1.0000   1.0000   1.0000   1.0000   1.0000   1.0000   1.0000
     1.0000   1.0000   1.0000   1.0000   1.0000   1.0000   1.0000   1.0000
     1.0000   1.0000   1.0000   1.0000   1.0000   1.0000   1.0000   1.0000
     1.0000   1.0000   1.0000   1.0000   1.0000   1.0000   1.0000   1.0000
     1.0000   1.0000   1.0000   1.0000   1.0000   1.0000   1.0000   0.9999
     0.9999   0.9998   0.9997   0.9996   0.9996   0.9995   0.9995   0.9994
     0.9993   0.9993   0.9988   0.9983   0.9980   0.9978   0.9926   0.9919
     0.9914   0.9878   0.9866   0.9846   0.9835   0.9821   0.9805   0.9804
     0.9786   0.9749   0.9726   0.9694   0.9690   0.9658   0.9594   0.9458
     0.9393   0.9069   0.9054   0.8979   0.8584   0.8542   0.8492   0.8346
     0.8308   0.8297   0.8104   0.8057   0.7831   0.7739   0.7376   0.7279
     0.6945   0.6927   0.6797   0.6775   0.6700   0.6682   0.6657   0.6620
     0.6604   0.6541   0.6440   0.6433   0.6063   0.6042   0.5946   0.5629
     0.1176   0.1139   0.0996   0.0812   0.0181   0.0095   0.0058   0.0029
     0.0010   0.0007   0.0004   0.0002   0.0000   0.0000   0.0000   0.0000
     0.0000   0.0000   0.0000   0.0000   0.0000   0.0000   0.0000   0.0000
     0.0000   0.0000   0.0000   0.0000   0.0000   0.0000   0.0000   0.0000
     0.0000   0.0000   0.0000

          k = 0.2500 0.2500 0.0000 ( 65198 PWs)   bands (ev):

   -92.7052 -92.6570 -92.5602 -92.5125 -92.4562 -92.4119 -92.3943 -92.2741
   -56.0586 -56.0434 -55.9171 -55.9059 -55.9000 -55.8927 -55.8596 -55.8290
   -55.8129 -55.8115 -55.8075 -55.7630 -55.7433 -55.7069 -55.6871 -55.6562
   -55.6478 -55.6008 -55.6000 -55.5971 -55.5887 -55.5490 -55.5246 -55.4392
   -31.2805 -31.2644 -31.1210 -31.1188 -31.0347 -30.9949 -30.8329 -30.5588
   -29.8514 -29.8093 -29.7836 -29.6752 -15.0198 -14.9730 -14.9061 -14.7901
   -14.6661 -14.5411 -14.4739 -14.2652 -14.1120 -14.0989 -14.0624 -14.0326
   -14.0092 -13.9774 -13.9671 -13.9465 -13.9156 -13.8434 -13.8260 -13.6674
   -13.6525 -13.6206 -13.6042 -13.5232 -13.5110 -13.4377 -13.4302 -13.3066
   -13.2630 -13.2332 -13.1472 -13.1073 -13.0667 -13.0441 -13.0218 -12.9857
   -12.9515 -12.9377 -12.9208 -12.8655 -12.8132 -12.7719 -12.7480 -12.7289
   -12.7178 -12.6439 -12.4963 -12.4718 -12.4563 -12.3364 -12.2810 -12.0662
   -12.0289 -11.8032 -11.7717 -11.7606 -11.7541 -11.6909 -11.6560 -11.6496
   -11.6143 -11.6070 -11.5135 -11.4734 -11.4560  -2.6705  -2.4629  -2.3448
    -2.2485  -2.1296  -2.0652  -1.8645  -1.7223  -1.7039  -1.6699  -1.5782
    -1.5453  -1.4508  -1.4222  -1.3726  -1.2426  -1.1958  -1.1483  -1.1182
    -1.0753  -1.0294  -1.0071  -0.9839  -0.9411  -0.9258  -0.8353  -0.7852
    -0.7147  -0.6684  -0.6396  -0.5917  -0.5773  -0.5123  -0.4623  -0.3941
    -0.3679  -0.2731  -0.2309  -0.1959  -0.1638  -0.1096  -0.0306   0.0032
     0.0388   0.1052   0.1399   0.4080   0.5627   0.5903   0.6543   0.6924
     0.7538   0.7981   0.8658   0.9039   1.1759   1.2386   1.3128   1.3353
     1.3904   1.4156   1.4537   1.4908   1.5066   1.5343   1.5815   1.5887
     1.6061   1.6526   1.6866   1.7266   1.7886   1.8213   1.8383   1.8636
     1.9021   1.9559   1.9824   2.1127   2.1760   2.2109   2.2311   2.3036
     2.3621   2.3915   2.4271   2.4365   2.4563   2.4598   2.4729   2.5786
     2.6225   2.7129   2.8728   2.8905   2.8951   2.9123   2.9273   2.9407
     2.9528   2.9590   2.9709   2.9845   2.9992   3.0141   3.0205   3.0325
     3.0570   3.0661   3.0755   3.1063   3.4069   3.4991   3.5479   3.6144
     3.6282   3.8593   3.9495   4.3023   4.5053   4.7187   4.9784   5.1656
     5.6447   5.7033   5.7924   5.8350   5.8933   6.1096   6.1586   6.2071
     6.8905   6.9917   7.0893   7.3201   7.5495   7.6025   7.7101   7.8597
     7.8844   8.0047   8.1823   8.2487   8.2965   8.3477   8.4400   8.4836
     8.5578   8.7879   8.9112

     occupation numbers 
     1.0000   1.0000   1.0000   1.0000   1.0000   1.0000   1.0000   1.0000
     1.0000   1.0000   1.0000   1.0000   1.0000   1.0000   1.0000   1.0000
     1.0000   1.0000   1.0000   1.0000   1.0000   1.0000   1.0000   1.0000
     1.0000   1.0000   1.0000   1.0000   1.0000   1.0000   1.0000   1.0000
     1.0000   1.0000   1.0000   1.0000   1.0000   1.0000   1.0000   1.0000
     1.0000   1.0000   1.0000   1.0000   1.0000   1.0000   1.0000   1.0000
     1.0000   1.0000   1.0000   1.0000   1.0000   1.0000   1.0000   1.0000
     1.0000   1.0000   1.0000   1.0000   1.0000   1.0000   1.0000   1.0000
     1.0000   1.0000   1.0000   1.0000   1.0000   1.0000   1.0000   1.0000
     1.0000   1.0000   1.0000   1.0000   1.0000   1.0000   1.0000   1.0000
     1.0000   1.0000   1.0000   1.0000   1.0000   1.0000   1.0000   1.0000
     1.0000   1.0000   1.0000   1.0000   1.0000   1.0000   1.0000   1.0000
     1.0000   1.0000   1.0000   1.0000   1.0000   1.0000   1.0000   1.0000
     1.0000   1.0000   1.0000   1.0000   1.0000   1.0000   1.0000   1.0000
     1.0000   1.0000   1.0000   1.0000   1.0000   1.0000   1.0000   1.0000
     1.0000   1.0000   1.0000   1.0000   1.0000   1.0000   1.0000   1.0000
     1.0000   1.0000   1.0000   1.0000   1.0000   1.0000   1.0000   1.0000
     1.0000   1.0000   1.0000   1.0000   1.0000   1.0000   1.0000   1.0000
     1.0000   1.0000   1.0000   1.0000   1.0000   1.0000   1.0000   1.0000
     1.0000   1.0000   1.0000   1.0000   1.0000   1.0000   1.0000   1.0000
     0.9999   0.9999   0.9999   0.9998   0.9993   0.9990   0.9986   0.9984
     0.9979   0.9977   0.9972   0.9967   0.9965   0.9960   0.9951   0.9950
     0.9946   0.9934   0.9924   0.9911   0.9886   0.9871   0.9862   0.9848
     0.9825   0.9788   0.9767   0.9638   0.9556   0.9506   0.9474   0.9348
     0.9230   0.9166   0.9081   0.9058   0.9008   0.8999   0.8964   0.8653
     0.8506   0.8173   0.7478   0.7393   0.7371   0.7287   0.7212   0.7146
     0.7084   0.7052   0.6991   0.6920   0.6843   0.6764   0.6730   0.6665
     0.6532   0.6482   0.6430   0.6258   0.4501   0.3965   0.3688   0.3322
     0.3249   0.2126   0.1758   0.0728   0.0395   0.0191   0.0070   0.0031
     0.0003   0.0002   0.0001   0.0001   0.0001   0.0000   0.0000   0.0000
     0.0000   0.0000   0.0000   0.0000   0.0000   0.0000   0.0000   0.0000
     0.0000   0.0000   0.0000   0.0000   0.0000   0.0000   0.0000   0.0000
     0.0000   0.0000   0.0000

          k = 0.2500-0.5000 0.0000 ( 65138 PWs)   bands (ev):

   -92.7052 -92.6570 -92.5602 -92.5125 -92.4562 -92.4119 -92.3943 -92.2741
   -56.0586 -56.0434 -55.9171 -55.9059 -55.9000 -55.8927 -55.8596 -55.8290
   -55.8129 -55.8115 -55.8075 -55.7630 -55.7433 -55.7069 -55.6871 -55.6562
   -55.6478 -55.6008 -55.6000 -55.5971 -55.5887 -55.5490 -55.5246 -55.4392
   -31.2803 -31.2642 -31.1213 -31.1186 -31.0348 -30.9952 -30.8328 -30.5589
   -29.8508 -29.8090 -29.7842 -29.6755 -14.9797 -14.9361 -14.8633 -14.7521
   -14.7194 -14.6028 -14.5060 -14.3813 -14.0772 -14.0219 -13.9967 -13.9739
   -13.9689 -13.9582 -13.9461 -13.9079 -13.8815 -13.8585 -13.8236 -13.7930
   -13.7494 -13.6694 -13.6218 -13.5435 -13.5361 -13.4729 -13.4475 -13.3646
   -13.3244 -13.2112 -13.1466 -13.1277 -13.0481 -13.0230 -12.9965 -12.9828
   -12.9521 -12.9390 -12.9150 -12.8410 -12.8167 -12.7685 -12.7163 -12.6973
   -12.6603 -12.6292 -12.5260 -12.4975 -12.3495 -12.3243 -12.2460 -12.1263
   -12.0902 -11.7791 -11.7668 -11.7559 -11.7289 -11.6975 -11.6688 -11.6279
   -11.5997 -11.5781 -11.5318 -11.5069 -11.4958  -2.4508  -2.3879  -2.2587
    -2.1826  -2.0492  -1.9680  -1.8439  -1.6952  -1.6372  -1.6170  -1.5565
    -1.5437  -1.4448  -1.3792  -1.2948  -1.2425  -1.2337  -1.1740  -1.1514
    -1.1233  -1.0951  -1.0461  -1.0087  -0.9741  -0.9354  -0.9209  -0.8785
    -0.8490  -0.8047  -0.7749  -0.7078  -0.6010  -0.5682  -0.4860  -0.4194
    -0.3619  -0.3248  -0.3103  -0.2410  -0.0972  -0.0870   0.0429   0.0508
     0.0600   0.1048   0.1439   0.1746   0.2107   0.2742   0.5615   0.6625
     0.7100   0.7629   1.0451   1.0545   1.1466   1.1741   1.3362   1.3755
     1.4106   1.4342   1.4474   1.4697   1.5350   1.5872   1.6195   1.6897
     1.7942   1.8241   1.8444   1.8531   1.8908   1.9045   1.9132   1.9570
     1.9660   1.9875   2.0213   2.0327   2.0571   2.0909   2.1479   2.1956
     2.2769   2.4009   2.4368   2.4630   2.5517   2.5686   2.5865   2.6206
     2.6422   2.6686   2.6887   2.7031   2.7268   2.8218   2.8737   2.8915
     2.9007   2.9092   2.9292   2.9427   2.9623   2.9701   3.0104   3.0186
     3.0299   3.0365   3.0461   3.0558   3.5722   3.5980   3.7383   3.7922
     4.1235   4.1822   4.1935   4.3179   4.7527   4.9247   5.0574   5.1441
     5.3010   5.4323   5.6056   5.6591   5.7666   5.7914   6.3931   6.4420
     6.4876   6.5991   7.2983   7.3987   7.5722   7.7012   7.7975   7.8528
     7.8972   8.0387   8.2688   8.4018   8.4701   8.5369   8.5579   8.5843
     8.7128   8.7693   8.7912

     occupation numbers 
     1.0000   1.0000   1.0000   1.0000   1.0000   1.0000   1.0000   1.0000
     1.0000   1.0000   1.0000   1.0000   1.0000   1.0000   1.0000   1.0000
     1.0000   1.0000   1.0000   1.0000   1.0000   1.0000   1.0000   1.0000
     1.0000   1.0000   1.0000   1.0000   1.0000   1.0000   1.0000   1.0000
     1.0000   1.0000   1.0000   1.0000   1.0000   1.0000   1.0000   1.0000
     1.0000   1.0000   1.0000   1.0000   1.0000   1.0000   1.0000   1.0000
     1.0000   1.0000   1.0000   1.0000   1.0000   1.0000   1.0000   1.0000
     1.0000   1.0000   1.0000   1.0000   1.0000   1.0000   1.0000   1.0000
     1.0000   1.0000   1.0000   1.0000   1.0000   1.0000   1.0000   1.0000
     1.0000   1.0000   1.0000   1.0000   1.0000   1.0000   1.0000   1.0000
     1.0000   1.0000   1.0000   1.0000   1.0000   1.0000   1.0000   1.0000
     1.0000   1.0000   1.0000   1.0000   1.0000   1.0000   1.0000   1.0000
     1.0000   1.0000   1.0000   1.0000   1.0000   1.0000   1.0000   1.0000
     1.0000   1.0000   1.0000   1.0000   1.0000   1.0000   1.0000   1.0000
     1.0000   1.0000   1.0000   1.0000   1.0000   1.0000   1.0000   1.0000
     1.0000   1.0000   1.0000   1.0000   1.0000   1.0000   1.0000   1.0000
     1.0000   1.0000   1.0000   1.0000   1.0000   1.0000   1.0000   1.0000
     1.0000   1.0000   1.0000   1.0000   1.0000   1.0000   1.0000   1.0000
     1.0000   1.0000   1.0000   1.0000   1.0000   1.0000   1.0000   1.0000
     1.0000   1.0000   1.0000   1.0000   1.0000   1.0000   1.0000   1.0000
     0.9999   0.9999   0.9996   0.9996   0.9994   0.9993   0.9984   0.9981
     0.9977   0.9975   0.9973   0.9970   0.9960   0.9950   0.9943   0.9923
     0.9884   0.9870   0.9859   0.9854   0.9832   0.9824   0.9818   0.9787
     0.9780   0.9763   0.9733   0.9722   0.9699   0.9663   0.9594   0.9528
     0.9397   0.9144   0.9057   0.8990   0.8738   0.8685   0.8627   0.8513
     0.8437   0.8342   0.8266   0.8211   0.8117   0.7713   0.7474   0.7388
     0.7344   0.7302   0.7203   0.7135   0.7035   0.6995   0.6784   0.6740
     0.6679   0.6644   0.6591   0.6538   0.3553   0.3412   0.2684   0.2427
     0.1171   0.1008   0.0979   0.0697   0.0168   0.0087   0.0050   0.0034
     0.0017   0.0009   0.0003   0.0003   0.0001   0.0001   0.0000   0.0000
     0.0000   0.0000   0.0000   0.0000   0.0000   0.0000   0.0000   0.0000
     0.0000   0.0000   0.0000   0.0000   0.0000   0.0000   0.0000   0.0000
     0.0000   0.0000   0.0000

          k =-0.5000-0.5000 0.0000 ( 65132 PWs)   bands (ev):

   -92.7052 -92.6570 -92.5602 -92.5125 -92.4562 -92.4119 -92.3943 -92.2741
   -56.0586 -56.0434 -55.9171 -55.9059 -55.9000 -55.8927 -55.8596 -55.8290
   -55.8129 -55.8115 -55.8075 -55.7630 -55.7433 -55.7069 -55.6871 -55.6562
   -55.6478 -55.6008 -55.6000 -55.5971 -55.5887 -55.5490 -55.5246 -55.4392
   -31.2782 -31.2664 -31.1209 -31.1185 -31.0352 -30.9951 -30.8329 -30.5590
   -29.8498 -29.8100 -29.7839 -29.6760 -14.9316 -14.9087 -14.7925 -14.7758
   -14.6826 -14.6486 -14.6138 -14.4800 -13.9864 -13.9760 -13.9698 -13.9401
   -13.9242 -13.9037 -13.8784 -13.8630 -13.8510 -13.8357 -13.8286 -13.8137
   -13.7368 -13.7300 -13.6995 -13.6671 -13.6160 -13.5596 -13.5100 -13.4046
   -13.3673 -13.1617 -13.1253 -13.0545 -13.0301 -13.0138 -12.9959 -12.9880
   -12.9786 -12.9601 -12.9217 -12.8247 -12.7917 -12.7697 -12.7565 -12.7267
   -12.6107 -12.6027 -12.5422 -12.5019 -12.3255 -12.3192 -12.2167 -12.1168
   -12.0972 -11.7752 -11.7636 -11.7457 -11.7285 -11.6939 -11.6755 -11.6412
   -11.5793 -11.5606 -11.5545 -11.5049 -11.5016  -2.2244  -2.1516  -2.1447
    -2.0711  -2.0323  -1.9541  -1.8860  -1.7599  -1.6451  -1.6156  -1.5714
    -1.5186  -1.4472  -1.4315  -1.3622  -1.3197  -1.2020  -1.1740  -1.1456
    -1.1230  -1.0963  -1.0318  -0.9837  -0.9664  -0.9535  -0.8967  -0.8568
    -0.8372  -0.7260  -0.6685  -0.6212  -0.5745  -0.5452  -0.5252  -0.4959
    -0.4572  -0.4148  -0.4043  -0.3232  -0.2563  -0.2142  -0.1838  -0.1142
    -0.0500  -0.0471   0.0173   0.0479   0.0566   0.0872   0.5371   0.5906
     0.6535   0.6766   1.0666   1.0821   1.1177   1.1553   1.4236   1.4400
     1.4488   1.4941   1.6154   1.7092   1.7367   1.7736   1.8034   1.8158
     1.8271   1.8570   1.8695   1.8919   1.8945   1.9443   1.9478   1.9746
     1.9925   2.0113   2.0261   2.0650   2.0900   2.1054   2.1346   2.1686
     2.2299   2.2978   2.4329   2.4592   2.5640   2.5958   2.6177   2.6339
     2.6472   2.6766   2.6786   2.6980   2.7095   2.7264   2.7483   2.7593
     2.8238   2.8268   2.8482   2.8623   2.8761   2.8990   2.9013   2.9081
     3.0169   3.0228   3.0409   3.0537   4.0019   4.0448   4.0492   4.0848
     4.3148   4.3885   4.4144   4.6539   4.7771   4.8596   4.9891   5.0811
     5.0891   5.2046   5.2940   5.4591   5.8552   5.8873   5.9541   6.0244
     6.6413   6.8103   7.0034   7.1722   7.8956   7.9242   7.9550   7.9725
     7.9962   8.0317   8.0896   8.2669   8.4371   8.5843   8.6178   8.6406
     8.6686   8.7124   8.7424

     occupation numbers 
     1.0000   1.0000   1.0000   1.0000   1.0000   1.0000   1.0000   1.0000
     1.0000   1.0000   1.0000   1.0000   1.0000   1.0000   1.0000   1.0000
     1.0000   1.0000   1.0000   1.0000   1.0000   1.0000   1.0000   1.0000
     1.0000   1.0000   1.0000   1.0000   1.0000   1.0000   1.0000   1.0000
     1.0000   1.0000   1.0000   1.0000   1.0000   1.0000   1.0000   1.0000
     1.0000   1.0000   1.0000   1.0000   1.0000   1.0000   1.0000   1.0000
     1.0000   1.0000   1.0000   1.0000   1.0000   1.0000   1.0000   1.0000
     1.0000   1.0000   1.0000   1.0000   1.0000   1.0000   1.0000   1.0000
     1.0000   1.0000   1.0000   1.0000   1.0000   1.0000   1.0000   1.0000
     1.0000   1.0000   1.0000   1.0000   1.0000   1.0000   1.0000   1.0000
     1.0000   1.0000   1.0000   1.0000   1.0000   1.0000   1.0000   1.0000
     1.0000   1.0000   1.0000   1.0000   1.0000   1.0000   1.0000   1.0000
     1.0000   1.0000   1.0000   1.0000   1.0000   1.0000   1.0000   1.0000
     1.0000   1.0000   1.0000   1.0000   1.0000   1.0000   1.0000   1.0000
     1.0000   1.0000   1.0000   1.0000   1.0000   1.0000   1.0000   1.0000
     1.0000   1.0000   1.0000   1.0000   1.0000   1.0000   1.0000   1.0000
     1.0000   1.0000   1.0000   1.0000   1.0000   1.0000   1.0000   1.0000
     1.0000   1.0000   1.0000   1.0000   1.0000   1.0000   1.0000   1.0000
     1.0000   1.0000   1.0000   1.0000   1.0000   1.0000   1.0000   1.0000
     1.0000   1.0000   1.0000   1.0000   1.0000   1.0000   1.0000   1.0000
     1.0000   1.0000   0.9996   0.9996   0.9995   0.9994   0.9976   0.9974
     0.9973   0.9967   0.9944   0.9917   0.9907   0.9893   0.9879   0.9874
     0.9868   0.9852   0.9845   0.9832   0.9830   0.9796   0.9794   0.9773
     0.9758   0.9742   0.9729   0.9690   0.9664   0.9646   0.9611   0.9567
     0.9476   0.9359   0.9067   0.9000   0.8699   0.8597   0.8523   0.8467
     0.8419   0.8312   0.8304   0.8231   0.8186   0.8119   0.8030   0.7984
     0.7705   0.7691   0.7593   0.7528   0.7462   0.7352   0.7341   0.7308
     0.6749   0.6718   0.6620   0.6550   0.1565   0.1417   0.1402   0.1288
     0.0703   0.0567   0.0525   0.0240   0.0154   0.0112   0.0067   0.0045
     0.0044   0.0026   0.0017   0.0008   0.0001   0.0001   0.0000   0.0000
     0.0000   0.0000   0.0000   0.0000   0.0000   0.0000   0.0000   0.0000
     0.0000   0.0000   0.0000   0.0000   0.0000   0.0000   0.0000   0.0000
     0.0000   0.0000   0.0000

          k = 0.2500 0.0000 0.0000 ( 65257 PWs)   bands (ev):

   -92.7052 -92.6570 -92.5602 -92.5125 -92.4562 -92.4119 -92.3943 -92.2741
   -56.0586 -56.0434 -55.9171 -55.9059 -55.9000 -55.8927 -55.8596 -55.8290
   -55.8129 -55.8115 -55.8075 -55.7630 -55.7433 -55.7069 -55.6871 -55.6562
   -55.6478 -55.6008 -55.6000 -55.5971 -55.5887 -55.5490 -55.5246 -55.4393
   -31.2807 -31.2645 -31.1208 -31.1191 -31.0345 -30.9947 -30.8330 -30.5587
   -29.8521 -29.8096 -29.7830 -29.6749 -15.0528 -15.0029 -14.9400 -14.7933
   -14.6825 -14.4870 -14.3598 -14.1784 -14.1620 -14.1324 -14.0988 -14.0749
   -14.0389 -14.0230 -14.0025 -13.9710 -13.9555 -13.8442 -13.8119 -13.6636
   -13.5953 -13.5764 -13.5057 -13.4939 -13.4783 -13.4172 -13.3498 -13.3172
   -13.2276 -13.1643 -13.1583 -13.0974 -13.0648 -13.0479 -13.0305 -13.0154
   -12.9789 -12.9478 -12.9306 -12.9007 -12.8789 -12.8242 -12.7764 -12.7570
   -12.6540 -12.6174 -12.5268 -12.4946 -12.4775 -12.4103 -12.2529 -12.0397
   -11.9771 -11.8302 -11.7789 -11.7616 -11.7472 -11.7207 -11.6705 -11.6474
[...]
     0.3550   0.3255   0.2038   0.0788   0.0462   0.0216   0.0059   0.0048
     0.0003   0.0001   0.0000   0.0000   0.0000   0.0000   0.0000   0.0000
     0.0000   0.0000   0.0000   0.0000   0.0000   0.0000   0.0000   0.0000
     0.0000   0.0000   0.0000   0.0000   0.0000   0.0000   0.0000   0.0000
     0.0000   0.0000   0.0000

          k =-0.5000 0.0000 0.0000 ( 65180 PWs)   bands (ev):

   -92.7052 -92.6570 -92.5602 -92.5125 -92.4562 -92.4119 -92.3943 -92.2741
   -56.0586 -56.0434 -55.9171 -55.9059 -55.9000 -55.8927 -55.8596 -55.8290
   -55.8129 -55.8115 -55.8075 -55.7630 -55.7433 -55.7069 -55.6871 -55.6562
   -55.6478 -55.6008 -55.6000 -55.5971 -55.5887 -55.5490 -55.5246 -55.4392
   -31.2786 -31.2667 -31.1205 -31.1190 -31.0349 -30.9946 -30.8331 -30.5587
   -29.8511 -29.8106 -29.7826 -29.6753 -15.0181 -14.9610 -14.9013 -14.7935
   -14.6909 -14.5476 -14.3958 -14.2589 -14.1362 -14.1209 -14.1125 -14.0466
   -13.9953 -13.9702 -13.9604 -13.9112 -13.8994 -13.8836 -13.8408 -13.8216
   -13.7129 -13.5592 -13.5093 -13.4958 -13.4863 -13.4166 -13.3680 -13.3044
   -13.2723 -13.2486 -13.2329 -13.0903 -13.0588 -13.0454 -13.0223 -13.0133
   -12.9694 -12.9487 -12.9300 -12.9012 -12.8836 -12.7531 -12.6449 -12.6358
   -12.6085 -12.5836 -12.5452 -12.4966 -12.4347 -12.3321 -12.3293 -12.1183
   -12.0711 -11.7830 -11.7607 -11.7546 -11.7390 -11.7210 -11.6799 -11.6173
   -11.6002 -11.5678 -11.5208 -11.5122 -11.4969  -2.5841  -2.5463  -2.3828
    -2.3441  -2.0283  -1.9518  -1.8065  -1.6896  -1.6493  -1.6025  -1.5558
    -1.5326  -1.4087  -1.3650  -1.3474  -1.2664  -1.2323  -1.2136  -1.1865
    -1.1514  -1.1206  -1.0558  -1.0296  -0.9958  -0.9040  -0.8575  -0.8064
    -0.7755  -0.7547  -0.7209  -0.6759  -0.6515  -0.6110  -0.5029  -0.4435
    -0.3598  -0.3015  -0.1472  -0.1103  -0.0606   0.0006   0.0433   0.0617
     0.1943   0.2260   0.2715   0.4364   0.5359   0.5842   0.6797   0.7408
     0.8594   0.8697   1.0021   1.0289   1.0838   1.1198   1.1489   1.1610
     1.2069   1.2324   1.3008   1.3461   1.3930   1.4077   1.7021   1.7149
     1.7356   1.7576   1.8569   1.8706   1.8834   1.8888   1.9229   1.9338
     1.9705   1.9936   2.0155   2.0736   2.0897   2.1427   2.1628   2.2207
     2.3286   2.4252   2.4417   2.4611   2.4998   2.5143   2.5977   2.6223
     2.6550   2.7222   2.7313   2.7386   2.7701   2.8331   2.8784   2.9343
     2.9515   2.9967   3.0012   3.0040   3.0132   3.0299   3.0410   3.0541
     3.0597   3.0798   3.0836   3.1047   3.1250   3.1301   3.2595   3.2647
     4.0615   4.1346   4.1909   4.3109   4.7890   4.8638   5.0416   5.0595
     5.4817   5.5083   5.6069   5.6521   6.0309   6.0520   6.2814   6.5616
     6.7951   7.0019   7.2755   7.3047   7.4059   7.4470   7.7297   7.7733
     7.8852   7.8998   8.1610   8.2867   8.4186   8.5107   8.5439   8.6437
     8.7589   8.8062   8.9166

     occupation numbers 
     1.0000   1.0000   1.0000   1.0000   1.0000   1.0000   1.0000   1.0000
     1.0000   1.0000   1.0000   1.0000   1.0000   1.0000   1.0000   1.0000
     1.0000   1.0000   1.0000   1.0000   1.0000   1.0000   1.0000   1.0000
     1.0000   1.0000   1.0000   1.0000   1.0000   1.0000   1.0000   1.0000
     1.0000   1.0000   1.0000   1.0000   1.0000   1.0000   1.0000   1.0000
     1.0000   1.0000   1.0000   1.0000   1.0000   1.0000   1.0000   1.0000
     1.0000   1.0000   1.0000   1.0000   1.0000   1.0000   1.0000   1.0000
     1.0000   1.0000   1.0000   1.0000   1.0000   1.0000   1.0000   1.0000
     1.0000   1.0000   1.0000   1.0000   1.0000   1.0000   1.0000   1.0000
     1.0000   1.0000   1.0000   1.0000   1.0000   1.0000   1.0000   1.0000
     1.0000   1.0000   1.0000   1.0000   1.0000   1.0000   1.0000   1.0000
     1.0000   1.0000   1.0000   1.0000   1.0000   1.0000   1.0000   1.0000
     1.0000   1.0000   1.0000   1.0000   1.0000   1.0000   1.0000   1.0000
     1.0000   1.0000   1.0000   1.0000   1.0000   1.0000   1.0000   1.0000
     1.0000   1.0000   1.0000   1.0000   1.0000   1.0000   1.0000   1.0000
     1.0000   1.0000   1.0000   1.0000   1.0000   1.0000   1.0000   1.0000
     1.0000   1.0000   1.0000   1.0000   1.0000   1.0000   1.0000   1.0000
     1.0000   1.0000   1.0000   1.0000   1.0000   1.0000   1.0000   1.0000
     1.0000   1.0000   1.0000   1.0000   1.0000   1.0000   1.0000   1.0000
     1.0000   1.0000   1.0000   1.0000   1.0000   1.0000   1.0000   0.9999
     0.9999   0.9999   0.9997   0.9997   0.9996   0.9995   0.9994   0.9993
     0.9992   0.9990   0.9987   0.9983   0.9979   0.9978   0.9919   0.9915
     0.9908   0.9899   0.9852   0.9844   0.9837   0.9834   0.9811   0.9804
     0.9776   0.9758   0.9738   0.9681   0.9664   0.9601   0.9574   0.9491
     0.9300   0.9086   0.9045   0.8995   0.8890   0.8849   0.8591   0.8507
     0.8391   0.8136   0.8099   0.8070   0.7939   0.7662   0.7451   0.7178
     0.7091   0.6857   0.6833   0.6818   0.6769   0.6680   0.6619   0.6548
     0.6517   0.6407   0.6385   0.6267   0.6153   0.6124   0.5371   0.5341
     0.1362   0.1139   0.0986   0.0711   0.0147   0.0110   0.0053   0.0049
     0.0007   0.0006   0.0003   0.0003   0.0000   0.0000   0.0000   0.0000
     0.0000   0.0000   0.0000   0.0000   0.0000   0.0000   0.0000   0.0000
     0.0000   0.0000   0.0000   0.0000   0.0000   0.0000   0.0000   0.0000
     0.0000   0.0000   0.0000

          k =-0.2500 0.2500 0.0000 ( 65198 PWs)   bands (ev):

   -92.7052 -92.6570 -92.5602 -92.5125 -92.4562 -92.4119 -92.3943 -92.2741
   -56.0586 -56.0434 -55.9171 -55.9059 -55.9000 -55.8927 -55.8596 -55.8290
   -55.8129 -55.8115 -55.8075 -55.7630 -55.7433 -55.7069 -55.6871 -55.6562
   -55.6478 -55.6008 -55.6000 -55.5971 -55.5887 -55.5490 -55.5246 -55.4392
   -31.2805 -31.2644 -31.1210 -31.1188 -31.0347 -30.9949 -30.8329 -30.5588
   -29.8514 -29.8093 -29.7836 -29.6752 -15.0211 -14.9719 -14.9049 -14.7885
   -14.6716 -14.5469 -14.4656 -14.2552 -14.1187 -14.0898 -14.0752 -14.0272
   -14.0030 -13.9803 -13.9727 -13.9507 -13.9235 -13.8390 -13.8267 -13.6763
   -13.6493 -13.6168 -13.5992 -13.5234 -13.5006 -13.4394 -13.4279 -13.3134
   -13.2679 -13.2274 -13.1511 -13.1096 -13.0533 -13.0411 -13.0114 -12.9917
   -12.9564 -12.9312 -12.9179 -12.8883 -12.8315 -12.7767 -12.7697 -12.7319
   -12.6965 -12.6155 -12.4978 -12.4464 -12.4292 -12.3841 -12.2867 -12.0805
   -12.0121 -11.8023 -11.7813 -11.7536 -11.7418 -11.7006 -11.6658 -11.6428
   -11.6217 -11.5991 -11.5133 -11.4687 -11.4594  -2.6688  -2.4618  -2.3408
    -2.2499  -2.1339  -2.0680  -1.8620  -1.7193  -1.7015  -1.6679  -1.5788
    -1.5442  -1.4505  -1.4159  -1.3895  -1.2496  -1.1922  -1.1526  -1.1197
    -1.0911  -1.0324  -1.0142  -0.9736  -0.9454  -0.9045  -0.8416  -0.7937
    -0.7254  -0.6609  -0.6358  -0.5852  -0.5570  -0.5109  -0.4517  -0.3947
    -0.3650  -0.2578  -0.2333  -0.2110  -0.1710  -0.1130  -0.0351   0.0022
     0.0482   0.1108   0.1364   0.3886   0.5653   0.5979   0.6415   0.7016
     0.7537   0.8025   0.8718   0.9014   1.1839   1.2891   1.3289   1.3629
     1.3713   1.4108   1.4253   1.4722   1.5030   1.5156   1.5414   1.5907
     1.6073   1.6440   1.6695   1.7107   1.8006   1.8149   1.8383   1.8665
     1.8985   1.9409   1.9866   2.0991   2.2105   2.2336   2.2785   2.2978
     2.3607   2.4025   2.4280   2.4404   2.4515   2.4687   2.4794   2.5787
     2.6209   2.7124   2.8812   2.8874   2.9018   2.9106   2.9223   2.9364
     2.9440   2.9616   2.9715   2.9839   2.9947   3.0060   3.0154   3.0232
     3.0578   3.0671   3.0744   3.1084   3.4002   3.4811   3.5498   3.6164
     3.6405   3.8431   3.9582   4.3015   4.5027   4.7203   4.9883   5.1656
     5.6467   5.7006   5.7954   5.8306   5.8939   6.1123   6.1705   6.1931
     6.8860   6.9853   7.1233   7.2890   7.5631   7.6111   7.6705   7.8757
     7.8966   7.9901   8.1851   8.2222   8.3378   8.3445   8.4414   8.4890
     8.5817   8.7572   8.8983

     occupation numbers 
     1.0000   1.0000   1.0000   1.0000   1.0000   1.0000   1.0000   1.0000
     1.0000   1.0000   1.0000   1.0000   1.0000   1.0000   1.0000   1.0000
     1.0000   1.0000   1.0000   1.0000   1.0000   1.0000   1.0000   1.0000
     1.0000   1.0000   1.0000   1.0000   1.0000   1.0000   1.0000   1.0000
     1.0000   1.0000   1.0000   1.0000   1.0000   1.0000   1.0000   1.0000
     1.0000   1.0000   1.0000   1.0000   1.0000   1.0000   1.0000   1.0000
     1.0000   1.0000   1.0000   1.0000   1.0000   1.0000   1.0000   1.0000
     1.0000   1.0000   1.0000   1.0000   1.0000   1.0000   1.0000   1.0000
     1.0000   1.0000   1.0000   1.0000   1.0000   1.0000   1.0000   1.0000
     1.0000   1.0000   1.0000   1.0000   1.0000   1.0000   1.0000   1.0000
     1.0000   1.0000   1.0000   1.0000   1.0000   1.0000   1.0000   1.0000
     1.0000   1.0000   1.0000   1.0000   1.0000   1.0000   1.0000   1.0000
     1.0000   1.0000   1.0000   1.0000   1.0000   1.0000   1.0000   1.0000
     1.0000   1.0000   1.0000   1.0000   1.0000   1.0000   1.0000   1.0000
     1.0000   1.0000   1.0000   1.0000   1.0000   1.0000   1.0000   1.0000
     1.0000   1.0000   1.0000   1.0000   1.0000   1.0000   1.0000   1.0000
     1.0000   1.0000   1.0000   1.0000   1.0000   1.0000   1.0000   1.0000
     1.0000   1.0000   1.0000   1.0000   1.0000   1.0000   1.0000   1.0000
     1.0000   1.0000   1.0000   1.0000   1.0000   1.0000   1.0000   1.0000
     1.0000   1.0000   1.0000   1.0000   1.0000   1.0000   1.0000   1.0000
     0.9999   0.9999   0.9999   0.9998   0.9993   0.9987   0.9985   0.9982
     0.9981   0.9977   0.9976   0.9970   0.9965   0.9963   0.9959   0.9949
     0.9946   0.9937   0.9929   0.9916   0.9881   0.9874   0.9862   0.9847
     0.9828   0.9799   0.9763   0.9653   0.9506   0.9470   0.9394   0.9359
     0.9233   0.9140   0.9079   0.9048   0.9020   0.8975   0.8947   0.8652
     0.8512   0.8174   0.7438   0.7408   0.7338   0.7295   0.7238   0.7167
     0.7129   0.7039   0.6988   0.6923   0.6867   0.6807   0.6757   0.6716
     0.6528   0.6476   0.6436   0.6246   0.4540   0.4068   0.3678   0.3312
     0.3183   0.2197   0.1726   0.0730   0.0398   0.0190   0.0067   0.0031
     0.0003   0.0002   0.0001   0.0001   0.0001   0.0000   0.0000   0.0000
     0.0000   0.0000   0.0000   0.0000   0.0000   0.0000   0.0000   0.0000
     0.0000   0.0000   0.0000   0.0000   0.0000   0.0000   0.0000   0.0000
     0.0000   0.0000   0.0000

          k =-0.5000 0.2500 0.0000 ( 65138 PWs)   bands (ev):

   -92.7052 -92.6570 -92.5602 -92.5125 -92.4562 -92.4119 -92.3943 -92.2741
   -56.0586 -56.0434 -55.9171 -55.9059 -55.9000 -55.8927 -55.8596 -55.8290
   -55.8129 -55.8115 -55.8075 -55.7630 -55.7433 -55.7069 -55.6871 -55.6562
   -55.6478 -55.6008 -55.6000 -55.5971 -55.5887 -55.5490 -55.5246 -55.4392
   -31.2784 -31.2665 -31.1207 -31.1187 -31.0351 -30.9948 -30.8330 -30.5589
   -29.8505 -29.8103 -29.7832 -29.6756 -14.9846 -14.9351 -14.8581 -14.7602
   -14.7195 -14.5948 -14.5014 -14.3753 -14.0690 -14.0381 -14.0262 -13.9798
   -13.9709 -13.9563 -13.9338 -13.8978 -13.8837 -13.8642 -13.8279 -13.8187
   -13.7074 -13.6415 -13.5924 -13.5848 -13.5464 -13.4739 -13.4628 -13.3514
   -13.3084 -13.2044 -13.1693 -13.0751 -13.0471 -13.0288 -13.0197 -12.9909
   -12.9592 -12.9443 -12.9233 -12.8942 -12.8398 -12.7609 -12.6757 -12.6576
   -12.6269 -12.6195 -12.5435 -12.4968 -12.3719 -12.3261 -12.2698 -12.1166
   -12.0823 -11.7755 -11.7624 -11.7485 -11.7367 -11.7146 -11.6847 -11.6046
   -11.5953 -11.5731 -11.5355 -11.5081 -11.4994  -2.4413  -2.4001  -2.2523
    -2.2106  -2.0483  -1.9704  -1.8308  -1.6957  -1.6368  -1.6107  -1.5720
    -1.5351  -1.4536  -1.3385  -1.2813  -1.2591  -1.2316  -1.1622  -1.1412
    -1.1274  -1.0860  -1.0710  -1.0101  -0.9780  -0.9422  -0.9074  -0.8784
    -0.8195  -0.7927  -0.7518  -0.7151  -0.6093  -0.5848  -0.4840  -0.4370
    -0.3970  -0.3303  -0.2622  -0.2291  -0.1247  -0.0877  -0.0275   0.0212
     0.0746   0.1194   0.1450   0.1773   0.2288   0.2682   0.5971   0.6577
     0.7031   0.7259   1.0148   1.0799   1.1484   1.1807   1.3510   1.3848
     1.4226   1.4334   1.4515   1.4689   1.5399   1.5858   1.6262   1.6618
     1.7767   1.8196   1.8444   1.8530   1.8901   1.9207   1.9359   1.9456
     1.9637   1.9888   2.0298   2.0480   2.0836   2.1087   2.1424   2.1965
     2.3201   2.4129   2.4373   2.4452   2.4657   2.5121   2.5497   2.6134
     2.6508   2.6557   2.6978   2.7294   2.7523   2.8327   2.8759   2.8907
     2.8959   2.9167   2.9373   2.9496   2.9659   2.9774   3.0018   3.0147
     3.0234   3.0319   3.0400   3.0520   3.5825   3.6221   3.7714   3.7911
     4.0708   4.1487   4.1998   4.3975   4.7832   4.8810   5.0457   5.0750
     5.4114   5.4299   5.5891   5.6307   5.7424   5.8084   6.3848   6.3950
     6.4902   6.7005   7.2387   7.4252   7.5542   7.7129   7.7921   7.8641
     7.8988   8.0235   8.2344   8.3960   8.4749   8.5212   8.5722   8.5980
     8.6660   8.7457   8.8339

     occupation numbers 
     1.0000   1.0000   1.0000   1.0000   1.0000   1.0000   1.0000   1.0000
     1.0000   1.0000   1.0000   1.0000   1.0000   1.0000   1.0000   1.0000
     1.0000   1.0000   1.0000   1.0000   1.0000   1.0000   1.0000   1.0000
     1.0000   1.0000   1.0000   1.0000   1.0000   1.0000   1.0000   1.0000
     1.0000   1.0000   1.0000   1.0000   1.0000   1.0000   1.0000   1.0000
     1.0000   1.0000   1.0000   1.0000   1.0000   1.0000   1.0000   1.0000
     1.0000   1.0000   1.0000   1.0000   1.0000   1.0000   1.0000   1.0000
     1.0000   1.0000   1.0000   1.0000   1.0000   1.0000   1.0000   1.0000
     1.0000   1.0000   1.0000   1.0000   1.0000   1.0000   1.0000   1.0000
     1.0000   1.0000   1.0000   1.0000   1.0000   1.0000   1.0000   1.0000
     1.0000   1.0000   1.0000   1.0000   1.0000   1.0000   1.0000   1.0000
     1.0000   1.0000   1.0000   1.0000   1.0000   1.0000   1.0000   1.0000
     1.0000   1.0000   1.0000   1.0000   1.0000   1.0000   1.0000   1.0000
     1.0000   1.0000   1.0000   1.0000   1.0000   1.0000   1.0000   1.0000
     1.0000   1.0000   1.0000   1.0000   1.0000   1.0000   1.0000   1.0000
     1.0000   1.0000   1.0000   1.0000   1.0000   1.0000   1.0000   1.0000
     1.0000   1.0000   1.0000   1.0000   1.0000   1.0000   1.0000   1.0000
     1.0000   1.0000   1.0000   1.0000   1.0000   1.0000   1.0000   1.0000
     1.0000   1.0000   1.0000   1.0000   1.0000   1.0000   1.0000   1.0000
     1.0000   1.0000   1.0000   1.0000   1.0000   1.0000   1.0000   1.0000
     0.9999   0.9999   0.9997   0.9996   0.9994   0.9993   0.9983   0.9980
     0.9976   0.9975   0.9973   0.9970   0.9959   0.9950   0.9941   0.9932
     0.9891   0.9872   0.9859   0.9854   0.9833   0.9813   0.9802   0.9795
     0.9782   0.9762   0.9725   0.9708   0.9671   0.9642   0.9601   0.9527
     0.9317   0.9116   0.9056   0.9036   0.8983   0.8855   0.8744   0.8538
     0.8407   0.8389   0.8231   0.8107   0.8014   0.7664   0.7463   0.7392
     0.7367   0.7265   0.7162   0.7100   0.7017   0.6957   0.6829   0.6761
     0.6715   0.6669   0.6625   0.6559   0.3497   0.3281   0.2525   0.2432
     0.1332   0.1099   0.0963   0.0552   0.0150   0.0103   0.0052   0.0046
     0.0010   0.0009   0.0004   0.0003   0.0002   0.0001   0.0000   0.0000
     0.0000   0.0000   0.0000   0.0000   0.0000   0.0000   0.0000   0.0000
     0.0000   0.0000   0.0000   0.0000   0.0000   0.0000   0.0000   0.0000
     0.0000   0.0000   0.0000

     the Fermi energy is     3.3223 ev

!    total energy              =   -4441.66411831 Ry
     estimated scf accuracy    <          8.0E-09 Ry
     smearing contrib. (-TS)   =      -1.15498540 Ry
     internal energy E=F+TS    =   -4440.50913292 Ry

     The total energy is F=E-TS. E is the sum of the following terms:
     one-electron contribution =  -20803.78420144 Ry
     hartree contribution      =   10533.81803434 Ry
     xc contribution           =    -694.18300207 Ry
     ewald contribution        =    6799.80947401 Ry
     one-center paw contrib.   =    -276.16943776 Ry
      -> PAW hartree energy AE =      25.14403650 Ry
      -> PAW hartree energy PS =     -25.02812854 Ry
      -> PAW xc energy AE      =     -16.51481852 Ry
      -> PAW xc energy PS      =       6.87415090 Ry
      -> total E_H with PAW    =   10533.93394229 Ry
      -> total E_XC with PAW   =    -703.82366969 Ry

     convergence has been achieved in  47 iterations

     Writing all to output data dir /bsuhome/zayahcortright/scratch/pwscf.save/
 
     init_run     :      8.39s CPU      8.96s WALL (       1 calls)
     electrons    :    794.08s CPU    877.70s WALL (       1 calls)

     Called by init_run:
     wfcinit      :      6.32s CPU      6.57s WALL (       1 calls)
     wfcinit:atom :      0.03s CPU      0.06s WALL (       5 calls)
     wfcinit:wfcr :      6.02s CPU      6.19s WALL (       5 calls)
     potinit      :      0.18s CPU      0.21s WALL (       1 calls)
     hinit0       :      0.70s CPU      0.77s WALL (       1 calls)

     Called by electrons:
     c_bands      :    640.88s CPU    653.57s WALL (      47 calls)
     sum_band     :    114.71s CPU    154.69s WALL (      47 calls)
     v_of_rho     :      5.10s CPU      5.59s WALL (      48 calls)
     v_h          :      0.42s CPU      0.43s WALL (      48 calls)
     v_xc         :      4.68s CPU      5.16s WALL (      48 calls)
     newd         :     18.73s CPU     48.64s WALL (      48 calls)
     PAW_pot      :      1.61s CPU      1.66s WALL (      48 calls)
     mix_rho      :     12.66s CPU     13.17s WALL (      47 calls)

     Called by c_bands:
     init_us_2    :      5.78s CPU      5.89s WALL (     475 calls)
     init_us_2:cp :      5.78s CPU      5.89s WALL (     475 calls)
     cegterg      :    606.10s CPU    618.40s WALL (     235 calls)

     Called by sum_band:
     sum_band:wei :      0.34s CPU      0.34s WALL (      47 calls)
     sum_band:loo :     95.34s CPU     96.07s WALL (      47 calls)
     sum_band:buf :      1.29s CPU      1.36s WALL (     235 calls)
     sum_band:ini :      2.56s CPU      2.57s WALL (     235 calls)
     sum_band:cal :     18.93s CPU     18.99s WALL (     235 calls)
     sum_band:bec :      0.59s CPU      0.61s WALL (     235 calls)
     addusdens    :     17.46s CPU     56.63s WALL (      47 calls)
                                        0.00s GPU  (      47 calls)
     addusd:skk   :      0.27s CPU      2.14s WALL (     188 calls)
                                        0.00s GPU  (     188 calls)

     Called by *egterg:
     cdiaghg      :     59.16s CPU     59.46s WALL (    1304 calls)
     cegterg:over :     50.67s CPU     50.93s WALL (    1069 calls)
     cegterg:upda :     47.85s CPU     48.99s WALL (    1069 calls)
     cegterg:last :     67.35s CPU     67.66s WALL (     422 calls)
     cdiaghg:chol :      3.35s CPU      3.37s WALL (    1304 calls)
     cdiaghg:inve :      3.75s CPU      3.78s WALL (    1304 calls)
     cdiaghg:para :      7.45s CPU      7.51s WALL (    2608 calls)
     h_psi        :    316.27s CPU    321.13s WALL (    1309 calls)
     s_psi        :     37.85s CPU     38.00s WALL (    1309 calls)
     g_psi        :      2.53s CPU      2.54s WALL (    1069 calls)

     Called by h_psi:
     h_psi:calbec :     45.10s CPU     45.30s WALL (    1309 calls)
     vloc_psi     :    227.64s CPU    229.78s WALL (    1309 calls)
     add_vuspsi   :     37.43s CPU     37.69s WALL (    1309 calls)

     General routines
     calbec       :     64.02s CPU     64.29s WALL (    1544 calls)
     fft          :      3.80s CPU      3.86s WALL (     622 calls)
     ffts         :      4.64s CPU      4.69s WALL (    5053 calls)
     fftw         :    227.85s CPU    229.78s WALL (  318077 calls)
     interpolate  :      0.41s CPU      0.42s WALL (      48 calls)
 
     Parallel routines

     PAW routines
     PAW_pot      :      1.61s CPU      1.66s WALL (      48 calls)
 
     PWSCF        :  13m23.98s CPU  14m51.36s WALL

 
   This run was terminated on:  17: 9:48  21Jun2024            

=------------------------------------------------------------------------------=
   JOB DONE.
=------------------------------------------------------------------------------=
