
     Program PWSCF v.7.2 starts on 22Jun2024 at  0:37:36 

     This program is part of the open-source Quantum ESPRESSO suite
     for quantum simulation of materials; please cite
         "P. Giannozzi et al., J. Phys.:Condens. Matter 21 395502 (2009);
         "P. Giannozzi et al., J. Phys.:Condens. Matter 29 465901 (2017);
         "P. Giannozzi et al., J. Chem. Phys. 152 154105 (2020);
          URL http://www.quantum-espresso.org", 
     in publications or presentations arising from this work. More details at
     http://www.quantum-espresso.org/quote

     Parallel version (MPI & OpenMP), running on      48 processor cores
     Number of MPI processes:                48
     Threads/MPI process:                     1

     MPI processes distributed on     1 nodes
     33226 MiB available memory on the printing compute node when the environment starts
 
     Reading input from espresso.pwi
Warning: card &CELL ignored
Warning: card / ignored
Warning: card &FCP ignored
Warning: card / ignored
Warning: card &RISM ignored
Warning: card / ignored

     Current dimensions of program PWSCF are:
     Max number of different atomic species (ntypx) = 10
     Max number of k-points (npk) =  40000
     Max angular momentum in pseudopotentials (lmaxx) =  4
     file O.pbe-n-kjpaw_psl.0.1.UPF: wavefunction(s)  2P renormalized
     signal trapping enabled: kill the code with -SIGUSR1 to stop cleanly the simulation 
 
     K-points division:     npool     =       2
     R & G space division:  proc/nbgrp/npool/nimage =      24
     Subspace diagonalization in iterative solution of the eigenvalue problem:
     one sub-group per band group will be used
     scalapack distributed-memory algorithm (size of sub-group:  3*  3 procs)

 
     Parallelization info
     --------------------
     sticks:   dense  smooth     PW     G-vecs:    dense   smooth      PW
     Min         350     175     47                61430    21716    3036
     Max         351     177     48                61449    21727    3041
     Sum        8421    4205   1137              1474595   521381   72913
 
     Using Slab Decomposition
 


     bravais-lattice index     =            0
     lattice parameter (alat)  =      14.8599  a.u.
     unit-cell volume          =    8305.1283 (a.u.)^3
     number of atoms/cell      =           50
     number of atomic types    =            4
     number of electrons       =       431.00
     number of Kohn-Sham states=          259
     kinetic-energy cutoff     =      60.0000  Ry
     charge density cutoff     =     480.0000  Ry
     scf convergence threshold =      1.0E-08
     mixing beta               =       0.1500
     number of iterations used =            8  local-TF  mixing
     Exchange-correlation= PBE
                           (   1   4   3   4   0   0   0)

     celldm(1)=  14.859904  celldm(2)=   0.000000  celldm(3)=   0.000000
     celldm(4)=   0.000000  celldm(5)=   0.000000  celldm(6)=   0.000000

     crystal axes: (cart. coord. in units of alat)
               a(1) = (   1.000000   0.000000   0.000000 )  
               a(2) = (   0.000000   1.000000   0.000000 )  
               a(3) = (   0.000000   0.000000   2.531036 )  

     reciprocal axes: (cart. coord. in units 2 pi/alat)
               b(1) = (  1.000000  0.000000  0.000000 )  
               b(2) = (  0.000000  1.000000  0.000000 )  
               b(3) = (  0.000000  0.000000  0.395095 )  


     PseudoPot. # 1 for Sr read from file:
     /bsuhome/zayahcortright/q-e/pseudo/Sr_pbe_v1.uspp.F.UPF
     MD5 check sum: 6b418c05fbe9db5448babca5e47b7a5b
     Pseudo is Ultrasoft + core correction, Zval = 10.0
     Generated by new atomic code, or converted to UPF format
     Using radial grid of  883 points,  6 beta functions with: 
                l(1) =   0
                l(2) =   0
                l(3) =   1
                l(4) =   1
                l(5) =   2
                l(6) =   2
     Q(r) pseudized with  6 coefficients,  rinner =    1.400   1.400   1.400
                                                       1.400   1.400

     PseudoPot. # 2 for O  read from file:
     /bsuhome/zayahcortright/q-e/pseudo/O.pbe-n-kjpaw_psl.0.1.UPF
     MD5 check sum: 0234752ac141de4415c5fc33072bef88
     Pseudo is Projector augmented-wave + core cor, Zval =  6.0
     Generated using "atomic" code by A. Dal Corso  v.5.0.99 svn rev. 10869
     Shape of augmentation charge: BESSEL
     Using radial grid of 1095 points,  4 beta functions with: 
                l(1) =   0
                l(2) =   0
                l(3) =   1
                l(4) =   1
     Q(r) pseudized with 0 coefficients 


     PseudoPot. # 3 for Co read from file:
     /bsuhome/zayahcortright/q-e/pseudo/Co_pbe_v1.2.uspp.F.UPF
     MD5 check sum: 5f91765df6ddd3222702df6e7b74a16d
     Pseudo is Ultrasoft + core correction, Zval = 17.0
     Generated by new atomic code, or converted to UPF format
     Using radial grid of  863 points,  6 beta functions with: 
                l(1) =   0
                l(2) =   0
                l(3) =   1
                l(4) =   1
                l(5) =   2
                l(6) =   2
     Q(r) pseudized with  8 coefficients,  rinner =    1.200   1.200   1.200
                                                       1.200   1.200

     PseudoPot. # 4 for H  read from file:
     /bsuhome/zayahcortright/q-e/pseudo/H.pbe-rrkjus_psl.1.0.0.UPF
     MD5 check sum: f52b6d4d1c606e5624b1dc7b2218f220
     Pseudo is Ultrasoft, Zval =  1.0
     Generated using "atomic" code by A. Dal Corso  v.5.1
     Using radial grid of  929 points,  2 beta functions with: 
                l(1) =   0
                l(2) =   0
     Q(r) pseudized with 0 coefficients 


     atomic species   valence    mass     pseudopotential
        Sr            10.00    87.62000     Sr( 1.00)
        O              6.00    15.99900     O ( 1.00)
        Co            17.00    58.93319     Co( 1.00)
        H              1.00     1.00800     H ( 1.00)

     No symmetry found


                                    s                        frac. trans.

      isym =  1     identity                                     

 cryst.   s( 1) = (     1          0          0      )
                  (     0          1          0      )
                  (     0          0          1      )

 cart.    s( 1) = (  1.0000000  0.0000000  0.0000000 )
                  (  0.0000000  1.0000000  0.0000000 )
                  (  0.0000000  0.0000000  1.0000000 )


   Cartesian axes

     site n.     atom                  positions (alat units)
         1           Sr  tau(   1) = (   0.2508693   0.7491307   1.7574407  )
         2           O   tau(   2) = (   0.4985141   0.5014859   1.7715967  )
         3           Sr  tau(   3) = (   0.7482398   0.7454518   1.7648669  )
         4           Sr  tau(   4) = (   0.7441748   0.2558252   1.7667843  )
         5           Sr  tau(   5) = (   0.2508693   0.7491307   1.2696799  )
         6           Sr  tau(   6) = (   0.2508693   0.7491307   0.7632319  )
         7           Co  tau(   7) = (   0.4998914   0.5001086   1.0164559  )
         8           Co  tau(   8) = (   0.4936915   0.5063085   1.5135603  )
         9           O   tau(   9) = (   0.4988895   0.7610401   1.0164559  )
        10           O   tau(  10) = (   0.2389599   0.5011105   1.0164559  )
        11           O   tau(  11) = (   0.0070918   0.7374880   1.0164559  )
        12           O   tau(  12) = (   0.0088340   0.7405089   1.5135603  )
        13           O   tau(  13) = (   0.5066944   0.7415376   1.5135603  )
        14           O   tau(  14) = (   0.2584624   0.4933056   1.5135603  )
        15           O   tau(  15) = (   0.4985141   0.5014859   0.7773880  )
        16           O   tau(  16) = (   0.4985141   0.5014859   1.2555238  )
        17           Sr  tau(  17) = (   0.7482398   0.7454518   0.7706582  )
        18           Sr  tau(  18) = (   0.7482398   0.7454518   1.2622536  )
        19           Sr  tau(  19) = (   0.7441748   0.2558252   0.7725755  )
        20           Sr  tau(  20) = (   0.7441748   0.2558252   1.2603363  )
        21           O   tau(  21) = (   0.7322655   0.0078049   1.5135603  )
        22           O   tau(  22) = (   0.7558175   0.4996027   1.5135603  )
        23           O   tau(  23) = (   0.5003973   0.2441825   1.5135603  )
        24           O   tau(  24) = (   0.7527966   0.4978604   1.0164559  )
        25           O   tau(  25) = (   0.5021396   0.2472034   1.0164559  )
        26           O   tau(  26) = (   0.7517679   0.0000000   1.0164559  )
        27           O   tau(  27) = (   0.0114961   0.4948124   1.7455321  )
        28           O   tau(  28) = (   0.0048226   0.0077944   1.7715967  )
        29           Sr  tau(  29) = (   0.2545482   0.2517602   1.7648669  )
        30           O   tau(  30) = (   0.5048017   0.0015068   1.7786929  )
        31           Co  tau(  31) = (   0.0056869   0.5006215   1.0164559  )
        32           Co  tau(  32) = (   0.0065315   0.4997770   1.5135603  )
        33           Co  tau(  33) = (   0.0061999   0.0064171   1.0164559  )
        34           Co  tau(  34) = (   0.0000000   0.0126169   1.5135603  )
        35           O   tau(  35) = (   0.0114961   0.4948124   1.2815885  )
        36           O   tau(  36) = (   0.0114961   0.4948124   0.7513233  )
        37           O   tau(  37) = (   0.0051979   0.2673486   1.0164559  )
        38           O   tau(  38) = (   0.0130029   0.2478461   1.5135603  )
        39           O   tau(  39) = (   0.0048226   0.0077944   0.7773880  )
        40           O   tau(  40) = (   0.0048226   0.0077944   1.2555238  )
        41           Sr  tau(  41) = (   0.2545482   0.2517602   0.7706582  )
        42           Sr  tau(  42) = (   0.2545482   0.2517602   1.2622536  )
        43           Co  tau(  43) = (   0.4989925   0.0073160   1.5135603  )
        44           Co  tau(  44) = (   0.4998370   0.0064714   1.0164559  )
        45           O   tau(  45) = (   0.5048017   0.0015068   0.7844841  )
        46           O   tau(  46) = (   0.5048017   0.0015068   1.2484277  )
        47           O   tau(  47) = (   0.2621260   0.0059111   1.5135603  )
        48           O   tau(  48) = (   0.2591051   0.0041689   1.0164559  )
        49           O   tau(  49) = (   0.7108228   0.4264937   2.1602013  )
        50           H   tau(  50) = (   0.7108228   0.4264937   2.2847091  )

   Crystallographic axes

     site n.     atom                  positions (cryst. coord.)
         1           Sr  tau(   1) = (  0.2508693  0.7491307  0.6943562  )
         2           O   tau(   2) = (  0.4985141  0.5014859  0.6999492  )
         3           Sr  tau(   3) = (  0.7482398  0.7454518  0.6972903  )
         4           Sr  tau(   4) = (  0.7441748  0.2558252  0.6980478  )
         5           Sr  tau(   5) = (  0.2508693  0.7491307  0.5016443  )
         6           Sr  tau(   6) = (  0.2508693  0.7491307  0.3015492  )
         7           Co  tau(   7) = (  0.4998914  0.5001086  0.4015968  )
         8           Co  tau(   8) = (  0.4936915  0.5063085  0.5980003  )
         9           O   tau(   9) = (  0.4988895  0.7610401  0.4015968  )
        10           O   tau(  10) = (  0.2389599  0.5011105  0.4015968  )
        11           O   tau(  11) = (  0.0070918  0.7374880  0.4015968  )
        12           O   tau(  12) = (  0.0088340  0.7405089  0.5980003  )
        13           O   tau(  13) = (  0.5066944  0.7415376  0.5980003  )
        14           O   tau(  14) = (  0.2584624  0.4933056  0.5980003  )
        15           O   tau(  15) = (  0.4985141  0.5014859  0.3071422  )
        16           O   tau(  16) = (  0.4985141  0.5014859  0.4960513  )
        17           Sr  tau(  17) = (  0.7482398  0.7454518  0.3044833  )
        18           Sr  tau(  18) = (  0.7482398  0.7454518  0.4987103  )
        19           Sr  tau(  19) = (  0.7441748  0.2558252  0.3052408  )
        20           Sr  tau(  20) = (  0.7441748  0.2558252  0.4979527  )
        21           O   tau(  21) = (  0.7322655  0.0078049  0.5980003  )
        22           O   tau(  22) = (  0.7558175  0.4996027  0.5980003  )
        23           O   tau(  23) = (  0.5003973  0.2441825  0.5980003  )
        24           O   tau(  24) = (  0.7527966  0.4978604  0.4015968  )
        25           O   tau(  25) = (  0.5021396  0.2472034  0.4015968  )
        26           O   tau(  26) = (  0.7517679  0.0000000  0.4015968  )
        27           O   tau(  27) = (  0.0114961  0.4948124  0.6896512  )
        28           O   tau(  28) = (  0.0048226  0.0077944  0.6999492  )
        29           Sr  tau(  29) = (  0.2545482  0.2517602  0.6972903  )
        30           O   tau(  30) = (  0.5048017  0.0015068  0.7027529  )
        31           Co  tau(  31) = (  0.0056869  0.5006215  0.4015968  )
        32           Co  tau(  32) = (  0.0065315  0.4997770  0.5980003  )
        33           Co  tau(  33) = (  0.0061999  0.0064171  0.4015968  )
        34           Co  tau(  34) = (  0.0000000  0.0126169  0.5980003  )
        35           O   tau(  35) = (  0.0114961  0.4948124  0.5063494  )
        36           O   tau(  36) = (  0.0114961  0.4948124  0.2968442  )
        37           O   tau(  37) = (  0.0051979  0.2673486  0.4015968  )
        38           O   tau(  38) = (  0.0130029  0.2478461  0.5980003  )
        39           O   tau(  39) = (  0.0048226  0.0077944  0.3071422  )
        40           O   tau(  40) = (  0.0048226  0.0077944  0.4960513  )
        41           Sr  tau(  41) = (  0.2545482  0.2517602  0.3044833  )
        42           Sr  tau(  42) = (  0.2545482  0.2517602  0.4987103  )
        43           Co  tau(  43) = (  0.4989925  0.0073160  0.5980003  )
        44           Co  tau(  44) = (  0.4998370  0.0064714  0.4015968  )
        45           O   tau(  45) = (  0.5048017  0.0015068  0.3099459  )
        46           O   tau(  46) = (  0.5048017  0.0015068  0.4932477  )
        47           O   tau(  47) = (  0.2621260  0.0059111  0.5980003  )
        48           O   tau(  48) = (  0.2591051  0.0041689  0.4015968  )
        49           O   tau(  49) = (  0.7108228  0.4264937  0.8534850  )
        50           H   tau(  50) = (  0.7108228  0.4264937  0.9026774  )

     number of k points=    10  Gaussian smearing, width (Ry)=  0.0700
                       cart. coord. in units 2pi/alat
        k(    1) = (   0.0000000   0.0000000   0.0000000), wk =   0.1250000
        k(    2) = (   0.0000000   0.2500000   0.0000000), wk =   0.2500000
        k(    3) = (   0.0000000  -0.5000000   0.0000000), wk =   0.1250000
        k(    4) = (   0.2500000   0.2500000   0.0000000), wk =   0.2500000
        k(    5) = (   0.2500000  -0.5000000   0.0000000), wk =   0.2500000
        k(    6) = (  -0.5000000  -0.5000000   0.0000000), wk =   0.1250000
        k(    7) = (   0.2500000   0.0000000   0.0000000), wk =   0.2500000
        k(    8) = (  -0.5000000   0.0000000   0.0000000), wk =   0.1250000
        k(    9) = (  -0.2500000   0.2500000   0.0000000), wk =   0.2500000
        k(   10) = (  -0.5000000   0.2500000   0.0000000), wk =   0.2500000

                       cryst. coord.
        k(    1) = (   0.0000000   0.0000000   0.0000000), wk =   0.1250000
        k(    2) = (   0.0000000   0.2500000   0.0000000), wk =   0.2500000
        k(    3) = (   0.0000000  -0.5000000   0.0000000), wk =   0.1250000
        k(    4) = (   0.2500000   0.2500000   0.0000000), wk =   0.2500000
        k(    5) = (   0.2500000  -0.5000000   0.0000000), wk =   0.2500000
        k(    6) = (  -0.5000000  -0.5000000   0.0000000), wk =   0.1250000
        k(    7) = (   0.2500000   0.0000000   0.0000000), wk =   0.2500000
        k(    8) = (  -0.5000000   0.0000000   0.0000000), wk =   0.1250000
        k(    9) = (  -0.2500000   0.2500000   0.0000000), wk =   0.2500000
        k(   10) = (  -0.5000000   0.2500000   0.0000000), wk =   0.2500000

     Dense  grid:  1474595 G-vectors     FFT dimensions: ( 108, 108, 270)

     Smooth grid:   521381 G-vectors     FFT dimensions: (  75,  75, 192)

     Dynamical RAM for                 wfc:      10.73 MB

     Dynamical RAM for     wfc (w. buffer):      64.38 MB

     Dynamical RAM for           str. fact:       3.75 MB

     Dynamical RAM for           local pot:       0.00 MB

     Dynamical RAM for          nlocal pot:      24.61 MB

     Dynamical RAM for                qrad:       7.03 MB

     Dynamical RAM for          rho,v,vnew:       6.02 MB

     Dynamical RAM for               rhoin:       2.01 MB

     Dynamical RAM for            rho*nmix:      15.00 MB

     Dynamical RAM for           G-vectors:       3.68 MB

     Dynamical RAM for          h,s,v(r/c):       1.35 MB

     Dynamical RAM for          <psi|beta>:       2.35 MB

     Dynamical RAM for                 psi:      21.46 MB

     Dynamical RAM for                hpsi:      21.46 MB

     Dynamical RAM for                spsi:      21.46 MB

     Dynamical RAM for      wfcinit/wfcrot:      34.49 MB

     Dynamical RAM for           addusdens:     101.26 MB

     Estimated static dynamical RAM per process >     121.50 MB

     Estimated max dynamical RAM per process >     237.76 MB

     Estimated total dynamical RAM >      10.79 GB

     Check: negative core charge=   -0.000004

     Initial potential from superposition of free atoms

     starting charge     422.5961, renormalised to     431.0000

     negative rho (up, down):  7.820E-01 0.000E+00
     Starting wfcs are  377 randomized atomic wfcs
     Checking if some PAW data can be deallocated... 
       PAW data deallocated on   19 nodes for type:  2

     total cpu time spent up to now is        9.0 secs

     Self-consistent Calculation

     iteration #  1     ecut=    60.00 Ry     beta= 0.15
     Davidson diagonalization with overlap

---- Real-time Memory Report at c_bands before calling an iterative solver
             0 MiB given to the printing process from OS
             0 MiB allocation reported by mallinfo(arena+hblkhd)
         23993 MiB available memory on the node where the printing process lives
------------------
     ethr =  1.00E-02,  avg # of iterations =  2.0

     negative rho (up, down):  7.717E-01 0.000E+00

     total cpu time spent up to now is       25.3 secs

     total energy              =   -4446.65541442 Ry
     estimated scf accuracy    <      44.65492886 Ry

     iteration #  2     ecut=    60.00 Ry     beta= 0.15
     Davidson diagonalization with overlap

---- Real-time Memory Report at c_bands before calling an iterative solver
             0 MiB given to the printing process from OS
             0 MiB allocation reported by mallinfo(arena+hblkhd)
         24249 MiB available memory on the node where the printing process lives
------------------
     ethr =  1.00E-02,  avg # of iterations =  1.0

     negative rho (up, down):  7.586E-01 0.000E+00

     total cpu time spent up to now is       39.6 secs

     total energy              =   -4443.36791260 Ry
     estimated scf accuracy    <      29.87858893 Ry

     iteration #  3     ecut=    60.00 Ry     beta= 0.15
     Davidson diagonalization with overlap

---- Real-time Memory Report at c_bands before calling an iterative solver
             0 MiB given to the printing process from OS
             0 MiB allocation reported by mallinfo(arena+hblkhd)
         23415 MiB available memory on the node where the printing process lives
------------------
     ethr =  6.93E-03,  avg # of iterations =  1.0

     negative rho (up, down):  7.555E-01 0.000E+00

     total cpu time spent up to now is       54.1 secs

     total energy              =   -4444.26773481 Ry
     estimated scf accuracy    <      27.58545644 Ry

     iteration #  4     ecut=    60.00 Ry     beta= 0.15
     Davidson diagonalization with overlap

---- Real-time Memory Report at c_bands before calling an iterative solver
             0 MiB given to the printing process from OS
             0 MiB allocation reported by mallinfo(arena+hblkhd)
         23389 MiB available memory on the node where the printing process lives
------------------
     ethr =  6.40E-03,  avg # of iterations =  1.0

     negative rho (up, down):  7.504E-01 0.000E+00

     total cpu time spent up to now is       68.6 secs

     total energy              =   -4443.09077494 Ry
     estimated scf accuracy    <      20.34543472 Ry

     iteration #  5     ecut=    60.00 Ry     beta= 0.15
     Davidson diagonalization with overlap

---- Real-time Memory Report at c_bands before calling an iterative solver
             0 MiB given to the printing process from OS
             0 MiB allocation reported by mallinfo(arena+hblkhd)
         23372 MiB available memory on the node where the printing process lives
------------------
     ethr =  4.72E-03,  avg # of iterations =  1.0

     negative rho (up, down):  7.395E-01 0.000E+00

     total cpu time spent up to now is       83.0 secs

     total energy              =   -4442.46154955 Ry
     estimated scf accuracy    <      12.39940460 Ry

     iteration #  6     ecut=    60.00 Ry     beta= 0.15
     Davidson diagonalization with overlap

---- Real-time Memory Report at c_bands before calling an iterative solver
             0 MiB given to the printing process from OS
             0 MiB allocation reported by mallinfo(arena+hblkhd)
         23354 MiB available memory on the node where the printing process lives
------------------
     ethr =  2.88E-03,  avg # of iterations =  1.0

     negative rho (up, down):  7.425E-01 0.000E+00

     total cpu time spent up to now is       97.5 secs

     total energy              =   -4442.83172841 Ry
     estimated scf accuracy    <       5.10426696 Ry

     iteration #  7     ecut=    60.00 Ry     beta= 0.15
     Davidson diagonalization with overlap

---- Real-time Memory Report at c_bands before calling an iterative solver
             0 MiB given to the printing process from OS
             0 MiB allocation reported by mallinfo(arena+hblkhd)
         23337 MiB available memory on the node where the printing process lives
------------------
     ethr =  1.18E-03,  avg # of iterations =  1.7

     negative rho (up, down):  7.639E-01 0.000E+00

     total cpu time spent up to now is      112.4 secs

     total energy              =   -4441.67290175 Ry
     estimated scf accuracy    <       3.99019988 Ry

     iteration #  8     ecut=    60.00 Ry     beta= 0.15
     Davidson diagonalization with overlap

---- Real-time Memory Report at c_bands before calling an iterative solver
             0 MiB given to the printing process from OS
             0 MiB allocation reported by mallinfo(arena+hblkhd)
         23315 MiB available memory on the node where the printing process lives
------------------
     ethr =  9.26E-04,  avg # of iterations =  3.9

     negative rho (up, down):  7.736E-01 0.000E+00

     total cpu time spent up to now is      131.2 secs

     total energy              =   -4441.27725941 Ry
     estimated scf accuracy    <      22.17613654 Ry

     iteration #  9     ecut=    60.00 Ry     beta= 0.15
     Davidson diagonalization with overlap

---- Real-time Memory Report at c_bands before calling an iterative solver
             0 MiB given to the printing process from OS
             0 MiB allocation reported by mallinfo(arena+hblkhd)
         23201 MiB available memory on the node where the printing process lives
------------------
     ethr =  9.26E-04,  avg # of iterations = 10.6

     negative rho (up, down):  7.705E-01 0.000E+00

     total cpu time spent up to now is      154.2 secs

     total energy              =   -4441.71407582 Ry
     estimated scf accuracy    <       4.01182744 Ry

     iteration # 10     ecut=    60.00 Ry     beta= 0.15
     Davidson diagonalization with overlap

---- Real-time Memory Report at c_bands before calling an iterative solver
             0 MiB given to the printing process from OS
             0 MiB allocation reported by mallinfo(arena+hblkhd)
         22866 MiB available memory on the node where the printing process lives
------------------
     ethr =  9.26E-04,  avg # of iterations =  1.1

     negative rho (up, down):  7.744E-01 0.000E+00

     total cpu time spent up to now is      169.5 secs

     total energy              =   -4441.88777281 Ry
     estimated scf accuracy    <       1.65522300 Ry

     iteration # 11     ecut=    60.00 Ry     beta= 0.15
     Davidson diagonalization with overlap

---- Real-time Memory Report at c_bands before calling an iterative solver
             0 MiB given to the printing process from OS
             0 MiB allocation reported by mallinfo(arena+hblkhd)
         22848 MiB available memory on the node where the printing process lives
------------------
     ethr =  3.84E-04,  avg # of iterations =  1.3

     negative rho (up, down):  8.006E-01 0.000E+00

     total cpu time spent up to now is      185.1 secs

     total energy              =   -4441.77696783 Ry
     estimated scf accuracy    <       1.03062753 Ry

     iteration # 12     ecut=    60.00 Ry     beta= 0.15
     Davidson diagonalization with overlap

---- Real-time Memory Report at c_bands before calling an iterative solver
             0 MiB given to the printing process from OS
             0 MiB allocation reported by mallinfo(arena+hblkhd)
         22853 MiB available memory on the node where the printing process lives
------------------
     ethr =  2.39E-04,  avg # of iterations =  4.4

     negative rho (up, down):  8.150E-01 0.000E+00

     total cpu time spent up to now is      203.4 secs

     total energy              =   -4441.88522497 Ry
     estimated scf accuracy    <       1.47721760 Ry

     iteration # 13     ecut=    60.00 Ry     beta= 0.15
     Davidson diagonalization with overlap

---- Real-time Memory Report at c_bands before calling an iterative solver
             0 MiB given to the printing process from OS
             0 MiB allocation reported by mallinfo(arena+hblkhd)
         22830 MiB available memory on the node where the printing process lives
------------------
     ethr =  2.39E-04,  avg # of iterations =  9.0

     negative rho (up, down):  8.190E-01 0.000E+00

     total cpu time spent up to now is      223.6 secs

     total energy              =   -4441.81884750 Ry
     estimated scf accuracy    <       1.08174525 Ry

     iteration # 14     ecut=    60.00 Ry     beta= 0.15
     Davidson diagonalization with overlap

---- Real-time Memory Report at c_bands before calling an iterative solver
             0 MiB given to the printing process from OS
             0 MiB allocation reported by mallinfo(arena+hblkhd)
         22773 MiB available memory on the node where the printing process lives
------------------
     ethr =  2.39E-04,  avg # of iterations =  2.4

     negative rho (up, down):  8.165E-01 0.000E+00

     total cpu time spent up to now is      239.7 secs

     total energy              =   -4441.76024570 Ry
     estimated scf accuracy    <       0.46733980 Ry

     iteration # 15     ecut=    60.00 Ry     beta= 0.15
     Davidson diagonalization with overlap

---- Real-time Memory Report at c_bands before calling an iterative solver
             0 MiB given to the printing process from OS
             0 MiB allocation reported by mallinfo(arena+hblkhd)
         22774 MiB available memory on the node where the printing process lives
------------------
     ethr =  1.08E-04,  avg # of iterations =  6.2

     negative rho (up, down):  8.262E-01 0.000E+00

     total cpu time spent up to now is      258.2 secs

     total energy              =   -4441.74186276 Ry
     estimated scf accuracy    <       0.31997497 Ry

     iteration # 16     ecut=    60.00 Ry     beta= 0.15
     Davidson diagonalization with overlap

---- Real-time Memory Report at c_bands before calling an iterative solver
             0 MiB given to the printing process from OS
             0 MiB allocation reported by mallinfo(arena+hblkhd)
         22761 MiB available memory on the node where the printing process lives
------------------
     ethr =  7.42E-05,  avg # of iterations =  8.5

     negative rho (up, down):  8.296E-01 0.000E+00

     total cpu time spent up to now is      279.0 secs

     total energy              =   -4441.73712843 Ry
     estimated scf accuracy    <       0.32454295 Ry

     iteration # 17     ecut=    60.00 Ry     beta= 0.15
     Davidson diagonalization with overlap

---- Real-time Memory Report at c_bands before calling an iterative solver
             0 MiB given to the printing process from OS
             0 MiB allocation reported by mallinfo(arena+hblkhd)
         22784 MiB available memory on the node where the printing process lives
------------------
     ethr =  7.42E-05,  avg # of iterations =  2.7

     negative rho (up, down):  8.278E-01 0.000E+00

     total cpu time spent up to now is      295.5 secs

     total energy              =   -4441.71983696 Ry
     estimated scf accuracy    <       0.25100289 Ry

     iteration # 18     ecut=    60.00 Ry     beta= 0.15
     Davidson diagonalization with overlap

---- Real-time Memory Report at c_bands before calling an iterative solver
             0 MiB given to the printing process from OS
             0 MiB allocation reported by mallinfo(arena+hblkhd)
         22750 MiB available memory on the node where the printing process lives
------------------
     c_bands:  1 eigenvalues not converged
     c_bands:  1 eigenvalues not converged
     ethr =  5.82E-05,  avg # of iterations =  8.1

     negative rho (up, down):  8.144E-01 0.000E+00

     total cpu time spent up to now is      315.2 secs

     total energy              =   -4441.69092469 Ry
     estimated scf accuracy    <       0.15883344 Ry

     iteration # 19     ecut=    60.00 Ry     beta= 0.15
     Davidson diagonalization with overlap

---- Real-time Memory Report at c_bands before calling an iterative solver
             0 MiB given to the printing process from OS
             0 MiB allocation reported by mallinfo(arena+hblkhd)
         22793 MiB available memory on the node where the printing process lives
------------------
     ethr =  3.69E-05,  avg # of iterations =  9.6

     negative rho (up, down):  8.304E-01 0.000E+00

     total cpu time spent up to now is      336.6 secs

     total energy              =   -4441.67910738 Ry
     estimated scf accuracy    <       0.10888659 Ry

     iteration # 20     ecut=    60.00 Ry     beta= 0.15
     Davidson diagonalization with overlap

---- Real-time Memory Report at c_bands before calling an iterative solver
             0 MiB given to the printing process from OS
             0 MiB allocation reported by mallinfo(arena+hblkhd)
         22727 MiB available memory on the node where the printing process lives
------------------
     ethr =  2.53E-05,  avg # of iterations =  6.3

     negative rho (up, down):  8.204E-01 0.000E+00

     total cpu time spent up to now is      356.0 secs

     total energy              =   -4441.67756263 Ry
     estimated scf accuracy    <       0.05306102 Ry

     iteration # 21     ecut=    60.00 Ry     beta= 0.15
     Davidson diagonalization with overlap

---- Real-time Memory Report at c_bands before calling an iterative solver
             0 MiB given to the printing process from OS
             0 MiB allocation reported by mallinfo(arena+hblkhd)
         22709 MiB available memory on the node where the printing process lives
------------------
     ethr =  1.23E-05,  avg # of iterations =  9.8

     negative rho (up, down):  8.162E-01 0.000E+00

     total cpu time spent up to now is      377.3 secs

     total energy              =   -4441.67628855 Ry
     estimated scf accuracy    <       0.03300107 Ry

     iteration # 22     ecut=    60.00 Ry     beta= 0.15
     Davidson diagonalization with overlap

---- Real-time Memory Report at c_bands before calling an iterative solver
             0 MiB given to the printing process from OS
             0 MiB allocation reported by mallinfo(arena+hblkhd)
         22678 MiB available memory on the node where the printing process lives
------------------
     ethr =  7.66E-06,  avg # of iterations =  6.8

     negative rho (up, down):  8.130E-01 0.000E+00

     total cpu time spent up to now is      396.6 secs

     total energy              =   -4441.67543731 Ry
     estimated scf accuracy    <       0.02339561 Ry

     iteration # 23     ecut=    60.00 Ry     beta= 0.15
     Davidson diagonalization with overlap

---- Real-time Memory Report at c_bands before calling an iterative solver
             0 MiB given to the printing process from OS
             0 MiB allocation reported by mallinfo(arena+hblkhd)
         22688 MiB available memory on the node where the printing process lives
------------------
     ethr =  5.43E-06,  avg # of iterations =  3.6

     negative rho (up, down):  7.924E-01 0.000E+00

     total cpu time spent up to now is      414.6 secs

     total energy              =   -4441.67075142 Ry
     estimated scf accuracy    <       0.01792105 Ry

     iteration # 24     ecut=    60.00 Ry     beta= 0.15
     Davidson diagonalization with overlap

---- Real-time Memory Report at c_bands before calling an iterative solver
             0 MiB given to the printing process from OS
             0 MiB allocation reported by mallinfo(arena+hblkhd)
         22687 MiB available memory on the node where the printing process lives
------------------
     ethr =  4.16E-06,  avg # of iterations = 10.9

     negative rho (up, down):  7.985E-01 0.000E+00

     total cpu time spent up to now is      437.0 secs

     total energy              =   -4441.67033403 Ry
     estimated scf accuracy    <       0.01036003 Ry

     iteration # 25     ecut=    60.00 Ry     beta= 0.15
     Davidson diagonalization with overlap

---- Real-time Memory Report at c_bands before calling an iterative solver
             0 MiB given to the printing process from OS
             0 MiB allocation reported by mallinfo(arena+hblkhd)
         22679 MiB available memory on the node where the printing process lives
------------------
     ethr =  2.40E-06,  avg # of iterations =  8.5

     negative rho (up, down):  8.002E-01 0.000E+00

     total cpu time spent up to now is      458.2 secs

     total energy              =   -4441.67035305 Ry
     estimated scf accuracy    <       0.00350201 Ry

     iteration # 26     ecut=    60.00 Ry     beta= 0.15
     Davidson diagonalization with overlap

---- Real-time Memory Report at c_bands before calling an iterative solver
             0 MiB given to the printing process from OS
             0 MiB allocation reported by mallinfo(arena+hblkhd)
         22662 MiB available memory on the node where the printing process lives
------------------
     ethr =  8.13E-07,  avg # of iterations =  3.6

     negative rho (up, down):  7.991E-01 0.000E+00

     total cpu time spent up to now is      475.9 secs

     total energy              =   -4441.67026335 Ry
     estimated scf accuracy    <       0.00198695 Ry

     iteration # 27     ecut=    60.00 Ry     beta= 0.15
     Davidson diagonalization with overlap

---- Real-time Memory Report at c_bands before calling an iterative solver
             0 MiB given to the printing process from OS
             0 MiB allocation reported by mallinfo(arena+hblkhd)
         22668 MiB available memory on the node where the printing process lives
------------------
     c_bands:  1 eigenvalues not converged
     ethr =  4.61E-07,  avg # of iterations =  8.8

     negative rho (up, down):  7.971E-01 0.000E+00

     total cpu time spent up to now is      496.3 secs

     total energy              =   -4441.67025662 Ry
     estimated scf accuracy    <       0.00087299 Ry

     iteration # 28     ecut=    60.00 Ry     beta= 0.15
     Davidson diagonalization with overlap

---- Real-time Memory Report at c_bands before calling an iterative solver
             0 MiB given to the printing process from OS
             0 MiB allocation reported by mallinfo(arena+hblkhd)
         22663 MiB available memory on the node where the printing process lives
------------------
     c_bands:  1 eigenvalues not converged
     ethr =  2.03E-07,  avg # of iterations =  8.3

     negative rho (up, down):  7.947E-01 0.000E+00

     total cpu time spent up to now is      518.7 secs

     total energy              =   -4441.67029644 Ry
     estimated scf accuracy    <       0.00037640 Ry

     iteration # 29     ecut=    60.00 Ry     beta= 0.15
     Davidson diagonalization with overlap

---- Real-time Memory Report at c_bands before calling an iterative solver
             0 MiB given to the printing process from OS
             0 MiB allocation reported by mallinfo(arena+hblkhd)
         22609 MiB available memory on the node where the printing process lives
------------------
     ethr =  8.73E-08,  avg # of iterations =  4.9

     negative rho (up, down):  7.934E-01 0.000E+00

     total cpu time spent up to now is      536.9 secs

     total energy              =   -4441.67030622 Ry
     estimated scf accuracy    <       0.00015036 Ry

     iteration # 30     ecut=    60.00 Ry     beta= 0.15
     Davidson diagonalization with overlap

---- Real-time Memory Report at c_bands before calling an iterative solver
             0 MiB given to the printing process from OS
             0 MiB allocation reported by mallinfo(arena+hblkhd)
         22638 MiB available memory on the node where the printing process lives
------------------
     ethr =  3.49E-08,  avg # of iterations =  3.8

     negative rho (up, down):  7.928E-01 0.000E+00

     total cpu time spent up to now is      554.9 secs

     total energy              =   -4441.67031017 Ry
     estimated scf accuracy    <       0.00008188 Ry

     iteration # 31     ecut=    60.00 Ry     beta= 0.15
     Davidson diagonalization with overlap

---- Real-time Memory Report at c_bands before calling an iterative solver
             0 MiB given to the printing process from OS
             0 MiB allocation reported by mallinfo(arena+hblkhd)
         22669 MiB available memory on the node where the printing process lives
------------------
     ethr =  1.90E-08,  avg # of iterations =  3.5

     negative rho (up, down):  7.927E-01 0.000E+00

     total cpu time spent up to now is      572.6 secs

     total energy              =   -4441.67031722 Ry
     estimated scf accuracy    <       0.00003723 Ry

     iteration # 32     ecut=    60.00 Ry     beta= 0.15
     Davidson diagonalization with overlap

---- Real-time Memory Report at c_bands before calling an iterative solver
             0 MiB given to the printing process from OS
             0 MiB allocation reported by mallinfo(arena+hblkhd)
         22646 MiB available memory on the node where the printing process lives
------------------
     ethr =  8.64E-09,  avg # of iterations =  2.1

     negative rho (up, down):  7.926E-01 0.000E+00

     total cpu time spent up to now is      589.4 secs

     total energy              =   -4441.67032378 Ry
     estimated scf accuracy    <       0.00001830 Ry

     iteration # 33     ecut=    60.00 Ry     beta= 0.15
     Davidson diagonalization with overlap

---- Real-time Memory Report at c_bands before calling an iterative solver
             0 MiB given to the printing process from OS
             0 MiB allocation reported by mallinfo(arena+hblkhd)
         22661 MiB available memory on the node where the printing process lives
------------------
     ethr =  4.25E-09,  avg # of iterations =  2.2

     negative rho (up, down):  7.926E-01 0.000E+00

     total cpu time spent up to now is      608.0 secs

     total energy              =   -4441.67032722 Ry
     estimated scf accuracy    <       0.00000641 Ry

     iteration # 34     ecut=    60.00 Ry     beta= 0.15
     Davidson diagonalization with overlap

---- Real-time Memory Report at c_bands before calling an iterative solver
             0 MiB given to the printing process from OS
             0 MiB allocation reported by mallinfo(arena+hblkhd)
         22651 MiB available memory on the node where the printing process lives
------------------
     ethr =  1.49E-09,  avg # of iterations =  2.1

     negative rho (up, down):  7.926E-01 0.000E+00

     total cpu time spent up to now is      624.9 secs

     total energy              =   -4441.67032782 Ry
     estimated scf accuracy    <       0.00000410 Ry

     iteration # 35     ecut=    60.00 Ry     beta= 0.15
     Davidson diagonalization with overlap

---- Real-time Memory Report at c_bands before calling an iterative solver
             0 MiB given to the printing process from OS
             0 MiB allocation reported by mallinfo(arena+hblkhd)
         22663 MiB available memory on the node where the printing process lives
------------------
     ethr =  9.52E-10,  avg # of iterations =  1.9

     negative rho (up, down):  7.925E-01 0.000E+00

     total cpu time spent up to now is      641.1 secs

     total energy              =   -4441.67032952 Ry
     estimated scf accuracy    <       0.00000342 Ry

     iteration # 36     ecut=    60.00 Ry     beta= 0.15
     Davidson diagonalization with overlap

---- Real-time Memory Report at c_bands before calling an iterative solver
             0 MiB given to the printing process from OS
             0 MiB allocation reported by mallinfo(arena+hblkhd)
         22666 MiB available memory on the node where the printing process lives
------------------
     ethr =  7.94E-10,  avg # of iterations =  2.2

     negative rho (up, down):  7.925E-01 0.000E+00

     total cpu time spent up to now is      657.9 secs

     total energy              =   -4441.67033043 Ry
     estimated scf accuracy    <       0.00000200 Ry

     iteration # 37     ecut=    60.00 Ry     beta= 0.15
     Davidson diagonalization with overlap

---- Real-time Memory Report at c_bands before calling an iterative solver
             0 MiB given to the printing process from OS
             0 MiB allocation reported by mallinfo(arena+hblkhd)
         22666 MiB available memory on the node where the printing process lives
------------------
     ethr =  4.63E-10,  avg # of iterations =  4.0

     negative rho (up, down):  7.925E-01 0.000E+00

     total cpu time spent up to now is      675.7 secs

     total energy              =   -4441.67033053 Ry
     estimated scf accuracy    <       0.00000079 Ry

     iteration # 38     ecut=    60.00 Ry     beta= 0.15
     Davidson diagonalization with overlap

---- Real-time Memory Report at c_bands before calling an iterative solver
             0 MiB given to the printing process from OS
             0 MiB allocation reported by mallinfo(arena+hblkhd)
         22670 MiB available memory on the node where the printing process lives
------------------
     ethr =  1.84E-10,  avg # of iterations =  2.2

     negative rho (up, down):  7.925E-01 0.000E+00

     total cpu time spent up to now is      692.4 secs

     total energy              =   -4441.67033053 Ry
     estimated scf accuracy    <       0.00000055 Ry

     iteration # 39     ecut=    60.00 Ry     beta= 0.15
     Davidson diagonalization with overlap

---- Real-time Memory Report at c_bands before calling an iterative solver
             0 MiB given to the printing process from OS
             0 MiB allocation reported by mallinfo(arena+hblkhd)
         22666 MiB available memory on the node where the printing process lives
------------------
     ethr =  1.27E-10,  avg # of iterations =  1.7

     negative rho (up, down):  7.925E-01 0.000E+00

     total cpu time spent up to now is      708.4 secs

     total energy              =   -4441.67033048 Ry
     estimated scf accuracy    <       0.00000055 Ry

     iteration # 40     ecut=    60.00 Ry     beta= 0.15
     Davidson diagonalization with overlap

---- Real-time Memory Report at c_bands before calling an iterative solver
             0 MiB given to the printing process from OS
             0 MiB allocation reported by mallinfo(arena+hblkhd)
         22668 MiB available memory on the node where the printing process lives
------------------
     ethr =  1.27E-10,  avg # of iterations =  1.5

     negative rho (up, down):  7.925E-01 0.000E+00

     total cpu time spent up to now is      724.0 secs

     total energy              =   -4441.67033058 Ry
     estimated scf accuracy    <       0.00000037 Ry

     iteration # 41     ecut=    60.00 Ry     beta= 0.15
     Davidson diagonalization with overlap

---- Real-time Memory Report at c_bands before calling an iterative solver
             0 MiB given to the printing process from OS
             0 MiB allocation reported by mallinfo(arena+hblkhd)
         22669 MiB available memory on the node where the printing process lives
------------------
     ethr =  8.70E-11,  avg # of iterations =  2.3

     negative rho (up, down):  7.925E-01 0.000E+00

     total cpu time spent up to now is      740.8 secs

     total energy              =   -4441.67033061 Ry
     estimated scf accuracy    <       0.00000023 Ry

     iteration # 42     ecut=    60.00 Ry     beta= 0.15
     Davidson diagonalization with overlap

---- Real-time Memory Report at c_bands before calling an iterative solver
             0 MiB given to the printing process from OS
             0 MiB allocation reported by mallinfo(arena+hblkhd)
         22671 MiB available memory on the node where the printing process lives
------------------
     ethr =  5.44E-11,  avg # of iterations =  2.1

     negative rho (up, down):  7.925E-01 0.000E+00

     total cpu time spent up to now is      758.2 secs

     total energy              =   -4441.67033063 Ry
     estimated scf accuracy    <       0.00000014 Ry

     iteration # 43     ecut=    60.00 Ry     beta= 0.15
     Davidson diagonalization with overlap

---- Real-time Memory Report at c_bands before calling an iterative solver
             0 MiB given to the printing process from OS
             0 MiB allocation reported by mallinfo(arena+hblkhd)
         22676 MiB available memory on the node where the printing process lives
------------------
     ethr =  3.14E-11,  avg # of iterations =  3.2

     negative rho (up, down):  7.925E-01 0.000E+00

     total cpu time spent up to now is      776.0 secs

     total energy              =   -4441.67033064 Ry
     estimated scf accuracy    <       0.00000005 Ry

     iteration # 44     ecut=    60.00 Ry     beta= 0.15
     Davidson diagonalization with overlap

---- Real-time Memory Report at c_bands before calling an iterative solver
             0 MiB given to the printing process from OS
             0 MiB allocation reported by mallinfo(arena+hblkhd)
         22678 MiB available memory on the node where the printing process lives
------------------
     ethr =  1.13E-11,  avg # of iterations =  2.2

     negative rho (up, down):  7.925E-01 0.000E+00

     total cpu time spent up to now is      793.5 secs

     total energy              =   -4441.67033065 Ry
     estimated scf accuracy    <       0.00000003 Ry

     iteration # 45     ecut=    60.00 Ry     beta= 0.15
     Davidson diagonalization with overlap

---- Real-time Memory Report at c_bands before calling an iterative solver
             0 MiB given to the printing process from OS
             0 MiB allocation reported by mallinfo(arena+hblkhd)
         22674 MiB available memory on the node where the printing process lives
------------------
     ethr =  7.86E-12,  avg # of iterations =  2.7

     negative rho (up, down):  7.925E-01 0.000E+00

     total cpu time spent up to now is      811.0 secs

     total energy              =   -4441.67033065 Ry
     estimated scf accuracy    <       0.00000002 Ry

     iteration # 46     ecut=    60.00 Ry     beta= 0.15
     Davidson diagonalization with overlap

---- Real-time Memory Report at c_bands before calling an iterative solver
             0 MiB given to the printing process from OS
             0 MiB allocation reported by mallinfo(arena+hblkhd)
         22684 MiB available memory on the node where the printing process lives
------------------
     ethr =  5.64E-12,  avg # of iterations =  2.1

     negative rho (up, down):  7.925E-01 0.000E+00

     total cpu time spent up to now is      828.5 secs

     total energy              =   -4441.67033065 Ry
     estimated scf accuracy    <       0.00000002 Ry

     iteration # 47     ecut=    60.00 Ry     beta= 0.15
     Davidson diagonalization with overlap

---- Real-time Memory Report at c_bands before calling an iterative solver
             0 MiB given to the printing process from OS
             0 MiB allocation reported by mallinfo(arena+hblkhd)
         22697 MiB available memory on the node where the printing process lives
------------------
     ethr =  4.29E-12,  avg # of iterations =  2.1

     negative rho (up, down):  7.925E-01 0.000E+00

     total cpu time spent up to now is      846.0 secs

     total energy              =   -4441.67033066 Ry
     estimated scf accuracy    <       0.00000001 Ry

     iteration # 48     ecut=    60.00 Ry     beta= 0.15
     Davidson diagonalization with overlap

---- Real-time Memory Report at c_bands before calling an iterative solver
             0 MiB given to the printing process from OS
             0 MiB allocation reported by mallinfo(arena+hblkhd)
         22708 MiB available memory on the node where the printing process lives
------------------
     ethr =  2.35E-12,  avg # of iterations =  2.4

     negative rho (up, down):  7.925E-01 0.000E+00

     total cpu time spent up to now is      863.3 secs

     End of self-consistent calculation

          k = 0.0000 0.0000 0.0000 ( 65197 PWs)   bands (ev):

   -92.7079 -92.6587 -92.5622 -92.5163 -92.4591 -92.4150 -92.3968 -92.2755
   -56.0613 -56.0457 -55.9193 -55.9086 -55.9029 -55.8954 -55.8608 -55.8312
   -55.8153 -55.8148 -55.8099 -55.7653 -55.7474 -55.7096 -55.6887 -55.6590
   -55.6517 -55.6025 -55.6023 -55.6000 -55.5915 -55.5503 -55.5272 -55.4414
   -31.2847 -31.2655 -31.1235 -31.0369 -31.0032 -30.9322 -30.7916 -30.7258
   -29.8539 -29.8118 -29.7849 -29.6770 -15.0880 -15.0417 -14.9614 -14.8323
   -14.6344 -14.5141 -14.2241 -14.2033 -14.1757 -14.1271 -14.0809 -14.0675
   -14.0610 -14.0395 -14.0228 -13.9850 -13.9640 -13.9363 -13.7825 -13.5998
   -13.5696 -13.5406 -13.5032 -13.4910 -13.4329 -13.3949 -13.3293 -13.2570
   -13.1196 -13.1114 -13.1053 -13.0816 -13.0630 -13.0144 -13.0067 -12.9952
   -12.9807 -12.9576 -12.9296 -12.9069 -12.8379 -12.8233 -12.8129 -12.7506
   -12.7382 -12.7319 -12.6258 -12.6189 -12.6089 -12.3493 -12.2035 -12.0122
   -11.9324 -11.8675 -11.7936 -11.7822 -11.7598 -11.7422 -11.6785 -11.6609
   -11.6267 -11.5967 -11.4855 -11.4060 -11.4024  -2.9472  -2.7156  -2.4858
    -2.3383  -2.2759  -2.1345  -1.8265  -1.8119  -1.7933  -1.7072  -1.6884
    -1.6202  -1.6037  -1.5627  -1.5203  -1.3379  -1.2161  -1.1123  -1.0779
    -0.9374  -0.9224  -0.8755  -0.8536  -0.8075  -0.7937  -0.7407  -0.7125
    -0.6355  -0.6275  -0.5530  -0.4204  -0.4089  -0.3781  -0.2976  -0.2715
    -0.2486  -0.2069  -0.1336  -0.0725  -0.0345  -0.0085   0.0751   0.1228
     0.1758   0.1955   0.2117   0.4687   0.4857   0.6582   0.7210   0.7885
     0.8355   0.9236   0.9331   0.9506   1.0191   1.0453   1.0797   1.1371
     1.2677   1.3264   1.3481   1.3705   1.3887   1.4480   1.5147   1.6290
     1.6439   1.7038   1.7120   1.7574   1.7730   1.7849   1.8435   1.9067
     1.9083   1.9502   1.9778   2.0238   2.1547   2.2476   2.2843   2.2954
     2.4104   2.4494   2.4632   2.4662   2.5057   2.5157   2.6180   2.6533
     2.6790   2.6981   2.7140   2.7962   2.9007   2.9364   2.9458   2.9509
     3.0185   3.0237   3.0470   3.0543   3.0634   3.0749   3.0837   3.0977
     3.1036   3.1148   3.1225   3.1308   3.1503   3.1719   3.1763   3.1890
     3.2151   3.3298   3.4087   4.1015   4.4265   4.7626   4.8617   5.0448
     5.8295   5.9415   5.9799   5.9978   6.3077   6.3542   6.4753   6.4867
     6.7554   7.0009   7.0970   7.3128   7.5237   7.6502   7.6583   7.6901
     7.7271   7.9347   7.9831   8.0710   8.1073   8.1997   8.4140   8.4631
     8.7260   8.8250   8.8687

     occupation numbers 
     1.0000   1.0000   1.0000   1.0000   1.0000   1.0000   1.0000   1.0000
     1.0000   1.0000   1.0000   1.0000   1.0000   1.0000   1.0000   1.0000
     1.0000   1.0000   1.0000   1.0000   1.0000   1.0000   1.0000   1.0000
     1.0000   1.0000   1.0000   1.0000   1.0000   1.0000   1.0000   1.0000
     1.0000   1.0000   1.0000   1.0000   1.0000   1.0000   1.0000   1.0000
     1.0000   1.0000   1.0000   1.0000   1.0000   1.0000   1.0000   1.0000
     1.0000   1.0000   1.0000   1.0000   1.0000   1.0000   1.0000   1.0000
     1.0000   1.0000   1.0000   1.0000   1.0000   1.0000   1.0000   1.0000
     1.0000   1.0000   1.0000   1.0000   1.0000   1.0000   1.0000   1.0000
     1.0000   1.0000   1.0000   1.0000   1.0000   1.0000   1.0000   1.0000
     1.0000   1.0000   1.0000   1.0000   1.0000   1.0000   1.0000   1.0000
     1.0000   1.0000   1.0000   1.0000   1.0000   1.0000   1.0000   1.0000
     1.0000   1.0000   1.0000   1.0000   1.0000   1.0000   1.0000   1.0000
     1.0000   1.0000   1.0000   1.0000   1.0000   1.0000   1.0000   1.0000
     1.0000   1.0000   1.0000   1.0000   1.0000   1.0000   1.0000   1.0000
     1.0000   1.0000   1.0000   1.0000   1.0000   1.0000   1.0000   1.0000
     1.0000   1.0000   1.0000   1.0000   1.0000   1.0000   1.0000   1.0000
     1.0000   1.0000   1.0000   1.0000   1.0000   1.0000   1.0000   1.0000
     1.0000   1.0000   1.0000   1.0000   1.0000   1.0000   1.0000   1.0000
     1.0000   1.0000   1.0000   1.0000   1.0000   1.0000   0.9999   0.9999
     0.9999   0.9998   0.9998   0.9998   0.9997   0.9996   0.9996   0.9994
     0.9988   0.9985   0.9983   0.9981   0.9979   0.9973   0.9963   0.9940
     0.9936   0.9918   0.9915   0.9898   0.9892   0.9887   0.9858   0.9821
     0.9820   0.9790   0.9769   0.9728   0.9582   0.9443   0.9379   0.9359
     0.9116   0.9019   0.8983   0.8975   0.8866   0.8838   0.8513   0.8388
     0.8293   0.8220   0.8158   0.7816   0.7331   0.7154   0.7107   0.7081
     0.6727   0.6699   0.6573   0.6533   0.6483   0.6420   0.6370   0.6292
     0.6259   0.6196   0.6152   0.6105   0.5994   0.5869   0.5844   0.5770
     0.5618   0.4940   0.4475   0.1229   0.0502   0.0161   0.0110   0.0052
     0.0001   0.0000   0.0000   0.0000   0.0000   0.0000   0.0000   0.0000
     0.0000   0.0000   0.0000   0.0000   0.0000   0.0000   0.0000   0.0000
     0.0000   0.0000   0.0000   0.0000   0.0000   0.0000   0.0000   0.0000
     0.0000   0.0000   0.0000

          k = 0.0000 0.2500 0.0000 ( 65257 PWs)   bands (ev):

   -92.7079 -92.6587 -92.5622 -92.5163 -92.4591 -92.4150 -92.3968 -92.2755
   -56.0613 -56.0457 -55.9193 -55.9086 -55.9029 -55.8954 -55.8608 -55.8312
   -55.8153 -55.8148 -55.8099 -55.7653 -55.7474 -55.7096 -55.6887 -55.6590
   -55.6517 -55.6025 -55.6023 -55.6000 -55.5915 -55.5503 -55.5272 -55.4414
   -31.2845 -31.2653 -31.1237 -31.0370 -31.0031 -30.9320 -30.7918 -30.7259
   -29.8533 -29.8115 -29.7855 -29.6773 -15.0515 -15.0156 -14.9364 -14.8026
   -14.6775 -14.5023 -14.3701 -14.1907 -14.1532 -14.1341 -14.1021 -14.0471
   -14.0362 -14.0241 -14.0031 -13.9844 -13.9353 -13.8550 -13.8139 -13.6539
   -13.6215 -13.5829 -13.5458 -13.4925 -13.4558 -13.3887 -13.3490 -13.3143
   -13.2217 -13.1602 -13.1530 -13.1155 -13.0973 -13.0053 -12.9862 -12.9666
   -12.9406 -12.9085 -12.8744 -12.8551 -12.8359 -12.8122 -12.8031 -12.7358
   -12.6453 -12.6173 -12.6116 -12.5912 -12.5007 -12.4106 -12.2547 -12.0675
   -11.9971 -11.8330 -11.7904 -11.7619 -11.7342 -11.7178 -11.6704 -11.6589
   -11.6360 -11.6023 -11.4998 -11.4475 -11.4371  -2.8118  -2.5913  -2.4532
    -2.2713  -2.2277  -2.0645  -1.8439  -1.7608  -1.7477  -1.6879  -1.5856
    -1.5708  -1.5383  -1.5102  -1.4662  -1.2711  -1.2155  -1.1354  -1.1264
    -1.0511  -1.0415  -0.9371  -0.9078  -0.8462  -0.8206  -0.7832  -0.7195
    -0.6920  -0.6591  -0.6265  -0.6106  -0.5777  -0.5049  -0.4546  -0.3828
    -0.2702  -0.2498  -0.2082  -0.0910  -0.0411   0.0022   0.0598   0.1088
     0.1268   0.1569   0.2181   0.5183   0.6048   0.6438   0.7239   0.7702
     0.7924   0.9031   0.9222   1.0255   1.0460   1.0726   1.1847   1.2820
     1.3039   1.3310   1.3458   1.3688   1.4304   1.4577   1.4873   1.5320
     1.5691   1.6037   1.6938   1.7247   1.7570   1.8072   1.8662   1.9133
     1.9315   1.9497   1.9686   2.0750   2.1979   2.2678   2.2815   2.3543
     2.3975   2.4079   2.4465   2.4545   2.4699   2.5122   2.5483   2.6323
     2.6772   2.6922   2.8588   2.8804   2.9148   2.9385   2.9525   2.9613
     2.9682   2.9761   3.0067   3.0082   3.0263   3.0318   3.0412   3.0615
     3.0720   3.0802   3.1012   3.1119   3.1170   3.1530   3.1695   3.2290
     3.6062   3.6301   3.8723   4.2935   4.4198   4.7101   5.0165   5.0626
     5.6417   5.8103   5.9716   5.9921   6.0799   6.1010   6.1778   6.5932
     6.8844   7.0961   7.1236   7.3245   7.4807   7.4951   7.6393   7.7233
     7.8794   7.9897   8.0434   8.1952   8.3523   8.3908   8.4105   8.4336
     8.5469   8.8360   8.9420

     occupation numbers 
     1.0000   1.0000   1.0000   1.0000   1.0000   1.0000   1.0000   1.0000
     1.0000   1.0000   1.0000   1.0000   1.0000   1.0000   1.0000   1.0000
     1.0000   1.0000   1.0000   1.0000   1.0000   1.0000   1.0000   1.0000
     1.0000   1.0000   1.0000   1.0000   1.0000   1.0000   1.0000   1.0000
     1.0000   1.0000   1.0000   1.0000   1.0000   1.0000   1.0000   1.0000
     1.0000   1.0000   1.0000   1.0000   1.0000   1.0000   1.0000   1.0000
     1.0000   1.0000   1.0000   1.0000   1.0000   1.0000   1.0000   1.0000
     1.0000   1.0000   1.0000   1.0000   1.0000   1.0000   1.0000   1.0000
     1.0000   1.0000   1.0000   1.0000   1.0000   1.0000   1.0000   1.0000
     1.0000   1.0000   1.0000   1.0000   1.0000   1.0000   1.0000   1.0000
     1.0000   1.0000   1.0000   1.0000   1.0000   1.0000   1.0000   1.0000
     1.0000   1.0000   1.0000   1.0000   1.0000   1.0000   1.0000   1.0000
     1.0000   1.0000   1.0000   1.0000   1.0000   1.0000   1.0000   1.0000
     1.0000   1.0000   1.0000   1.0000   1.0000   1.0000   1.0000   1.0000
     1.0000   1.0000   1.0000   1.0000   1.0000   1.0000   1.0000   1.0000
     1.0000   1.0000   1.0000   1.0000   1.0000   1.0000   1.0000   1.0000
     1.0000   1.0000   1.0000   1.0000   1.0000   1.0000   1.0000   1.0000
     1.0000   1.0000   1.0000   1.0000   1.0000   1.0000   1.0000   1.0000
     1.0000   1.0000   1.0000   1.0000   1.0000   1.0000   1.0000   1.0000
     1.0000   1.0000   1.0000   1.0000   1.0000   1.0000   0.9999   0.9999
     0.9999   0.9998   0.9998   0.9997   0.9996   0.9996   0.9992   0.9988
     0.9986   0.9984   0.9983   0.9981   0.9975   0.9972   0.9967   0.9960
     0.9953   0.9946   0.9921   0.9911   0.9898   0.9876   0.9846   0.9816
     0.9804   0.9790   0.9776   0.9677   0.9521   0.9409   0.9384   0.9242
     0.9146   0.9121   0.9026   0.9006   0.8965   0.8848   0.8740   0.8463
     0.8300   0.8243   0.7532   0.7429   0.7262   0.7144   0.7073   0.7028
     0.6992   0.6951   0.6790   0.6782   0.6685   0.6655   0.6605   0.6494
     0.6436   0.6390   0.6273   0.6212   0.6183   0.5978   0.5883   0.5536
     0.3353   0.3225   0.2060   0.0741   0.0512   0.0195   0.0059   0.0048
     0.0003   0.0001   0.0000   0.0000   0.0000   0.0000   0.0000   0.0000
     0.0000   0.0000   0.0000   0.0000   0.0000   0.0000   0.0000   0.0000
     0.0000   0.0000   0.0000   0.0000   0.0000   0.0000   0.0000   0.0000
     0.0000   0.0000   0.0000

          k = 0.0000-0.5000 0.0000 ( 65180 PWs)   bands (ev):

   -92.7079 -92.6587 -92.5622 -92.5163 -92.4591 -92.4150 -92.3968 -92.2755
   -56.0613 -56.0457 -55.9193 -55.9085 -55.9029 -55.8954 -55.8608 -55.8312
   -55.8153 -55.8148 -55.8099 -55.7653 -55.7474 -55.7096 -55.6887 -55.6590
   -55.6517 -55.6025 -55.6023 -55.6000 -55.5915 -55.5503 -55.5272 -55.4414
   -31.2843 -31.2652 -31.1239 -31.0371 -31.0030 -30.9317 -30.7921 -30.7260
   -29.8526 -29.8112 -29.7861 -29.6777 -15.0152 -14.9674 -14.9120 -14.7827
   -14.6991 -14.5653 -14.4022 -14.2880 -14.1641 -14.0814 -14.0467 -14.0367
   -13.9904 -13.9857 -13.9761 -13.9244 -13.8997 -13.8805 -13.8483 -13.7971
   -13.7500 -13.5895 -13.5308 -13.4953 -13.4634 -13.3659 -13.3580 -13.3052
   -13.2901 -13.2606 -13.2247 -13.1164 -13.0983 -12.9920 -12.9756 -12.9627
   -12.9357 -12.8921 -12.8876 -12.8384 -12.8076 -12.7286 -12.7123 -12.6591
   -12.6285 -12.6226 -12.6143 -12.5215 -12.4442 -12.3298 -12.2978 -12.1627
   -12.1117 -11.7874 -11.7844 -11.7568 -11.7200 -11.6854 -11.6741 -11.6325
   -11.6284 -11.5843 -11.5212 -11.5081 -11.4943  -2.5965  -2.5387  -2.3881
    -2.3165  -2.0327  -1.9512  -1.8225  -1.6870  -1.6457  -1.6290  -1.5520
    -1.5196  -1.4367  -1.4019  -1.3227  -1.2866  -1.2478  -1.2221  -1.2164
    -1.1592  -1.1199  -1.0729  -1.0396  -1.0057  -0.9747  -0.8634  -0.8202
    -0.7829  -0.7776  -0.6931  -0.6653  -0.6411  -0.5938  -0.5065  -0.4320
    -0.3405  -0.3105  -0.1977  -0.1776  -0.0365   0.0117   0.0417   0.0778
     0.2047   0.2851   0.3853   0.4566   0.4685   0.5913   0.6598   0.7369
     0.8748   0.9746   1.0085   1.0508   1.0617   1.0913   1.1099   1.1454
     1.1616   1.1860   1.2850   1.3438   1.3743   1.3977   1.6768   1.7035
     1.7231   1.8093   1.8266   1.8702   1.8905   1.9084   1.9318   1.9471
     1.9592   1.9998   2.0260   2.0578   2.0622   2.0925   2.1457   2.2393
     2.2828   2.4045   2.4356   2.4643   2.5970   2.6110   2.6230   2.6655
     2.6742   2.6779   2.7281   2.7390   2.7930   2.8140   2.8915   2.9066
     2.9775   2.9797   3.0056   3.0079   3.0233   3.0267   3.0309   3.0377
     3.0409   3.0538   3.0711   3.0735   3.1386   3.1415   3.1589   3.2152
     4.1180   4.1373   4.2021   4.2546   4.7270   4.9079   5.0194   5.1685
     5.4093   5.4580   5.5804   5.7277   6.0265   6.0408   6.3657   6.5181
     6.8473   6.9488   7.2182   7.3012   7.4015   7.4581   7.7454   7.8893
     7.9028   8.0621   8.2292   8.3345   8.3857   8.4239   8.4834   8.6659
     8.8055   8.8604   8.8720

     occupation numbers 
     1.0000   1.0000   1.0000   1.0000   1.0000   1.0000   1.0000   1.0000
     1.0000   1.0000   1.0000   1.0000   1.0000   1.0000   1.0000   1.0000
     1.0000   1.0000   1.0000   1.0000   1.0000   1.0000   1.0000   1.0000
     1.0000   1.0000   1.0000   1.0000   1.0000   1.0000   1.0000   1.0000
     1.0000   1.0000   1.0000   1.0000   1.0000   1.0000   1.0000   1.0000
     1.0000   1.0000   1.0000   1.0000   1.0000   1.0000   1.0000   1.0000
     1.0000   1.0000   1.0000   1.0000   1.0000   1.0000   1.0000   1.0000
     1.0000   1.0000   1.0000   1.0000   1.0000   1.0000   1.0000   1.0000
     1.0000   1.0000   1.0000   1.0000   1.0000   1.0000   1.0000   1.0000
     1.0000   1.0000   1.0000   1.0000   1.0000   1.0000   1.0000   1.0000
     1.0000   1.0000   1.0000   1.0000   1.0000   1.0000   1.0000   1.0000
     1.0000   1.0000   1.0000   1.0000   1.0000   1.0000   1.0000   1.0000
     1.0000   1.0000   1.0000   1.0000   1.0000   1.0000   1.0000   1.0000
     1.0000   1.0000   1.0000   1.0000   1.0000   1.0000   1.0000   1.0000
     1.0000   1.0000   1.0000   1.0000   1.0000   1.0000   1.0000   1.0000
     1.0000   1.0000   1.0000   1.0000   1.0000   1.0000   1.0000   1.0000
     1.0000   1.0000   1.0000   1.0000   1.0000   1.0000   1.0000   1.0000
     1.0000   1.0000   1.0000   1.0000   1.0000   1.0000   1.0000   1.0000
     1.0000   1.0000   1.0000   1.0000   1.0000   1.0000   1.0000   1.0000
     1.0000   1.0000   1.0000   1.0000   1.0000   1.0000   1.0000   0.9999
     0.9999   0.9998   0.9997   0.9996   0.9996   0.9995   0.9995   0.9994
     0.9993   0.9992   0.9987   0.9983   0.9981   0.9978   0.9926   0.9918
     0.9911   0.9875   0.9867   0.9843   0.9831   0.9819   0.9803   0.9792
     0.9783   0.9750   0.9726   0.9695   0.9691   0.9658   0.9594   0.9457
     0.9382   0.9129   0.9054   0.8980   0.8584   0.8537   0.8496   0.8344
     0.8311   0.8297   0.8102   0.8058   0.7830   0.7737   0.7376   0.7302
     0.6944   0.6932   0.6796   0.6783   0.6701   0.6683   0.6660   0.6623
     0.6606   0.6535   0.6440   0.6427   0.6061   0.6044   0.5944   0.5617
     0.1180   0.1124   0.0951   0.0826   0.0183   0.0092   0.0058   0.0030
     0.0010   0.0007   0.0004   0.0002   0.0000   0.0000   0.0000   0.0000
     0.0000   0.0000   0.0000   0.0000   0.0000   0.0000   0.0000   0.0000
     0.0000   0.0000   0.0000   0.0000   0.0000   0.0000   0.0000   0.0000
     0.0000   0.0000   0.0000

          k = 0.2500 0.2500 0.0000 ( 65198 PWs)   bands (ev):

   -92.7079 -92.6587 -92.5622 -92.5163 -92.4591 -92.4150 -92.3968 -92.2755
   -56.0613 -56.0457 -55.9193 -55.9086 -55.9029 -55.8954 -55.8608 -55.8312
   -55.8153 -55.8148 -55.8099 -55.7653 -55.7474 -55.7096 -55.6887 -55.6590
   -55.6517 -55.6025 -55.6023 -55.6000 -55.5915 -55.5503 -55.5272 -55.4414
   -31.2828 -31.2671 -31.1233 -31.0374 -31.0027 -30.9324 -30.7914 -30.7264
   -29.8523 -29.8125 -29.7851 -29.6778 -15.0226 -14.9816 -14.9081 -14.7921
   -14.6691 -14.5445 -14.4752 -14.2645 -14.1139 -14.1007 -14.0622 -14.0348
   -14.0102 -13.9861 -13.9820 -13.9468 -13.8990 -13.8437 -13.8271 -13.6682
   -13.6528 -13.6220 -13.6054 -13.5388 -13.5155 -13.4333 -13.4037 -13.2863
   -13.2538 -13.2315 -13.1488 -13.1080 -13.0559 -13.0251 -12.9839 -12.9588
   -12.9499 -12.9220 -12.8679 -12.8190 -12.7876 -12.7516 -12.7344 -12.7205
   -12.6926 -12.6664 -12.6165 -12.4692 -12.4591 -12.3887 -12.2838 -12.1056
   -12.0402 -11.8052 -11.7741 -11.7627 -11.7552 -11.6937 -11.6582 -11.6521
   -11.6165 -11.6077 -11.5166 -11.4759 -11.4585  -2.6734  -2.4656  -2.3470
    -2.2524  -2.1323  -2.0680  -1.8686  -1.7252  -1.7065  -1.6752  -1.5805
    -1.5486  -1.4532  -1.4261  -1.3762  -1.2475  -1.2129  -1.1950  -1.1213
    -1.0776  -1.0323  -1.0099  -0.9864  -0.9421  -0.9285  -0.8372  -0.7864
    -0.7180  -0.6713  -0.6402  -0.5932  -0.5777  -0.5150  -0.4651  -0.4031
    -0.3749  -0.2849  -0.2328  -0.2051  -0.1669  -0.1123  -0.0177  -0.0002
     0.0278   0.1081   0.1336   0.4071   0.5596   0.5896   0.6533   0.6979
     0.7490   0.7936   0.8683   0.9008   1.1721   1.2363   1.3095   1.3354
     1.3875   1.4135   1.4506   1.4889   1.5049   1.5332   1.5815   1.5876
     1.6027   1.6463   1.6826   1.7248   1.7948   1.8260   1.8379   1.8744
     1.9032   1.9586   1.9790   2.1112   2.1769   2.2128   2.2290   2.2975
     2.3621   2.3903   2.4050   2.4290   2.4552   2.4605   2.4761   2.5753
     2.6171   2.7046   2.8701   2.8876   2.8930   2.9097   2.9257   2.9384
     2.9502   2.9561   2.9681   2.9808   2.9941   3.0111   3.0179   3.0296
     3.0526   3.0634   3.0732   3.1040   3.4042   3.4971   3.5425   3.6144
     3.6373   3.8524   3.9473   4.3066   4.5038   4.7129   4.9826   5.1632
     5.6463   5.6994   5.7726   5.8313   5.8904   6.1377   6.1527   6.2118
     6.8927   6.9727   7.1695   7.3195   7.5464   7.6019   7.7079   7.8590
     7.9118   8.0562   8.2228   8.2580   8.3403   8.4270   8.4416   8.4523
     8.5713   8.7152   8.9286

     occupation numbers 
     1.0000   1.0000   1.0000   1.0000   1.0000   1.0000   1.0000   1.0000
     1.0000   1.0000   1.0000   1.0000   1.0000   1.0000   1.0000   1.0000
     1.0000   1.0000   1.0000   1.0000   1.0000   1.0000   1.0000   1.0000
     1.0000   1.0000   1.0000   1.0000   1.0000   1.0000   1.0000   1.0000
     1.0000   1.0000   1.0000   1.0000   1.0000   1.0000   1.0000   1.0000
     1.0000   1.0000   1.0000   1.0000   1.0000   1.0000   1.0000   1.0000
     1.0000   1.0000   1.0000   1.0000   1.0000   1.0000   1.0000   1.0000
     1.0000   1.0000   1.0000   1.0000   1.0000   1.0000   1.0000   1.0000
     1.0000   1.0000   1.0000   1.0000   1.0000   1.0000   1.0000   1.0000
     1.0000   1.0000   1.0000   1.0000   1.0000   1.0000   1.0000   1.0000
     1.0000   1.0000   1.0000   1.0000   1.0000   1.0000   1.0000   1.0000
     1.0000   1.0000   1.0000   1.0000   1.0000   1.0000   1.0000   1.0000
     1.0000   1.0000   1.0000   1.0000   1.0000   1.0000   1.0000   1.0000
     1.0000   1.0000   1.0000   1.0000   1.0000   1.0000   1.0000   1.0000
     1.0000   1.0000   1.0000   1.0000   1.0000   1.0000   1.0000   1.0000
     1.0000   1.0000   1.0000   1.0000   1.0000   1.0000   1.0000   1.0000
     1.0000   1.0000   1.0000   1.0000   1.0000   1.0000   1.0000   1.0000
     1.0000   1.0000   1.0000   1.0000   1.0000   1.0000   1.0000   1.0000
     1.0000   1.0000   1.0000   1.0000   1.0000   1.0000   1.0000   1.0000
     1.0000   1.0000   1.0000   1.0000   1.0000   1.0000   1.0000   1.0000
     0.9999   0.9999   0.9999   0.9998   0.9993   0.9990   0.9986   0.9984
     0.9979   0.9977   0.9972   0.9967   0.9965   0.9960   0.9951   0.9949
     0.9946   0.9935   0.9925   0.9911   0.9882   0.9867   0.9861   0.9841
     0.9823   0.9784   0.9768   0.9636   0.9552   0.9499   0.9473   0.9355
     0.9225   0.9162   0.9128   0.9070   0.9004   0.8990   0.8948   0.8655
     0.8516   0.8195   0.7478   0.7395   0.7369   0.7287   0.7208   0.7144
     0.7084   0.7054   0.6993   0.6927   0.6856   0.6767   0.6730   0.6667
     0.6542   0.6483   0.6429   0.6257   0.4501   0.3961   0.3704   0.3309
     0.3187   0.2145   0.1757   0.0714   0.0394   0.0193   0.0068   0.0031
     0.0003   0.0002   0.0001   0.0001   0.0001   0.0000   0.0000   0.0000
     0.0000   0.0000   0.0000   0.0000   0.0000   0.0000   0.0000   0.0000
     0.0000   0.0000   0.0000   0.0000   0.0000   0.0000   0.0000   0.0000
     0.0000   0.0000   0.0000

          k = 0.2500-0.5000 0.0000 ( 65138 PWs)   bands (ev):

   -92.7079 -92.6587 -92.5622 -92.5163 -92.4591 -92.4150 -92.3968 -92.2755
   -56.0613 -56.0457 -55.9193 -55.9085 -55.9029 -55.8954 -55.8608 -55.8312
   -55.8153 -55.8148 -55.8099 -55.7653 -55.7474 -55.7096 -55.6887 -55.6590
   -55.6517 -55.6025 -55.6023 -55.6000 -55.5915 -55.5503 -55.5272 -55.4414
   -31.2826 -31.2669 -31.1235 -31.0375 -31.0026 -30.9322 -30.7916 -30.7265
   -29.8516 -29.8122 -29.7857 -29.6781 -14.9847 -14.9407 -14.8695 -14.7541
   -14.7205 -14.6057 -14.5057 -14.3829 -14.0785 -14.0211 -13.9985 -13.9861
   -13.9726 -13.9583 -13.9481 -13.9077 -13.8880 -13.8604 -13.8260 -13.7938
   -13.7364 -13.6717 -13.6239 -13.5535 -13.5445 -13.4749 -13.4031 -13.3427
   -13.3110 -13.2139 -13.1490 -13.1265 -13.0407 -12.9966 -12.9797 -12.9503
   -12.9490 -12.9185 -12.8641 -12.8434 -12.7851 -12.7389 -12.6720 -12.6633
   -12.6587 -12.6354 -12.6193 -12.5280 -12.4011 -12.3272 -12.2548 -12.1545
   -12.1208 -11.7809 -11.7688 -11.7579 -11.7304 -11.6995 -11.6705 -11.6298
   -11.6027 -11.5805 -11.5345 -11.5090 -11.4985  -2.4542  -2.3904  -2.2619
    -2.1851  -2.0531  -1.9711  -1.8469  -1.6979  -1.6420  -1.6208  -1.5593
    -1.5462  -1.4471  -1.3814  -1.2971  -1.2457  -1.2410  -1.2115  -1.1744
    -1.1308  -1.0973  -1.0481  -1.0111  -0.9754  -0.9379  -0.9214  -0.8806
    -0.8513  -0.8065  -0.7772  -0.7109  -0.6066  -0.5703  -0.4900  -0.4226
    -0.3694  -0.3317  -0.3142  -0.2461  -0.0968  -0.0794   0.0238   0.0474
     0.0578   0.1006   0.1448   0.1743   0.2106   0.2710   0.5686   0.6623
     0.7052   0.7602   1.0433   1.0545   1.1437   1.1723   1.3339   1.3695
     1.4087   1.4365   1.4451   1.4675   1.5315   1.5817   1.6152   1.6862
     1.8019   1.8262   1.8457   1.8528   1.8938   1.9035   1.9206   1.9602
     1.9678   1.9895   2.0147   2.0334   2.0561   2.0881   2.1467   2.1934
     2.2777   2.3946   2.4124   2.4616   2.5495   2.5658   2.5840   2.6182
     2.6393   2.6668   2.6866   2.7006   2.7249   2.8195   2.8707   2.8894
     2.8945   2.9064   2.9267   2.9402   2.9600   2.9671   3.0054   3.0127
     3.0271   3.0339   3.0433   3.0538   3.5695   3.5970   3.7360   3.7938
     4.1237   4.1800   4.2028   4.3135   4.7472   4.9283   5.0553   5.1380
     5.2985   5.4281   5.6022   5.6429   5.7638   5.7875   6.3917   6.4683
     6.4885   6.6423   7.3112   7.4169   7.5775   7.6984   7.7895   7.8638
     7.9286   8.0383   8.3906   8.4455   8.5196   8.5351   8.5516   8.5614
     8.7030   8.7408   8.7727

     occupation numbers 
     1.0000   1.0000   1.0000   1.0000   1.0000   1.0000   1.0000   1.0000
     1.0000   1.0000   1.0000   1.0000   1.0000   1.0000   1.0000   1.0000
     1.0000   1.0000   1.0000   1.0000   1.0000   1.0000   1.0000   1.0000
     1.0000   1.0000   1.0000   1.0000   1.0000   1.0000   1.0000   1.0000
     1.0000   1.0000   1.0000   1.0000   1.0000   1.0000   1.0000   1.0000
     1.0000   1.0000   1.0000   1.0000   1.0000   1.0000   1.0000   1.0000
     1.0000   1.0000   1.0000   1.0000   1.0000   1.0000   1.0000   1.0000
     1.0000   1.0000   1.0000   1.0000   1.0000   1.0000   1.0000   1.0000
     1.0000   1.0000   1.0000   1.0000   1.0000   1.0000   1.0000   1.0000
     1.0000   1.0000   1.0000   1.0000   1.0000   1.0000   1.0000   1.0000
     1.0000   1.0000   1.0000   1.0000   1.0000   1.0000   1.0000   1.0000
     1.0000   1.0000   1.0000   1.0000   1.0000   1.0000   1.0000   1.0000
     1.0000   1.0000   1.0000   1.0000   1.0000   1.0000   1.0000   1.0000
     1.0000   1.0000   1.0000   1.0000   1.0000   1.0000   1.0000   1.0000
     1.0000   1.0000   1.0000   1.0000   1.0000   1.0000   1.0000   1.0000
     1.0000   1.0000   1.0000   1.0000   1.0000   1.0000   1.0000   1.0000
     1.0000   1.0000   1.0000   1.0000   1.0000   1.0000   1.0000   1.0000
     1.0000   1.0000   1.0000   1.0000   1.0000   1.0000   1.0000   1.0000
     1.0000   1.0000   1.0000   1.0000   1.0000   1.0000   1.0000   1.0000
     1.0000   1.0000   1.0000   1.0000   1.0000   1.0000   1.0000   1.0000
     0.9999   0.9999   0.9996   0.9996   0.9994   0.9993   0.9984   0.9981
     0.9977   0.9974   0.9973   0.9970   0.9960   0.9951   0.9943   0.9924
     0.9879   0.9867   0.9857   0.9853   0.9829   0.9823   0.9811   0.9782
     0.9777   0.9759   0.9737   0.9719   0.9697   0.9663   0.9592   0.9528
     0.9391   0.9152   0.9111   0.8987   0.8737   0.8685   0.8627   0.8512
     0.8438   0.8339   0.8265   0.8210   0.8115   0.7712   0.7475   0.7386
     0.7361   0.7303   0.7203   0.7135   0.7034   0.6997   0.6797   0.6758
     0.6680   0.6644   0.6593   0.6536   0.3554   0.3403   0.2683   0.2408
     0.1163   0.1007   0.0949   0.0700   0.0170   0.0085   0.0050   0.0035
     0.0017   0.0009   0.0004   0.0003   0.0001   0.0001   0.0000   0.0000
     0.0000   0.0000   0.0000   0.0000   0.0000   0.0000   0.0000   0.0000
     0.0000   0.0000   0.0000   0.0000   0.0000   0.0000   0.0000   0.0000
     0.0000   0.0000   0.0000

          k =-0.5000-0.5000 0.0000 ( 65132 PWs)   bands (ev):

   -92.7079 -92.6587 -92.5622 -92.5163 -92.4591 -92.4150 -92.3968 -92.2755
   -56.0613 -56.0457 -55.9193 -55.9085 -55.9029 -55.8954 -55.8608 -55.8312
   -55.8153 -55.8148 -55.8099 -55.7653 -55.7474 -55.7096 -55.6887 -55.6590
   -55.6517 -55.6025 -55.6023 -55.6000 -55.5915 -55.5503 -55.5272 -55.4414
   -31.2804 -31.2691 -31.1231 -31.0379 -31.0021 -30.9326 -30.7911 -30.7270
   -29.8506 -29.8132 -29.7853 -29.6785 -14.9385 -14.9135 -14.7960 -14.7824
   -14.6807 -14.6542 -14.6094 -14.4805 -13.9895 -13.9855 -13.9759 -13.9444
   -13.9235 -13.9073 -13.8844 -13.8668 -13.8547 -13.8311 -13.8301 -13.8103
   -13.7371 -13.7329 -13.6850 -13.6670 -13.6429 -13.5642 -13.4598 -13.3776
   -13.3532 -13.1653 -13.1230 -13.0557 -13.0319 -12.9956 -12.9911 -12.9812
   -12.9624 -12.9056 -12.8745 -12.7848 -12.7803 -12.7519 -12.7254 -12.6861
   -12.6384 -12.6098 -12.6042 -12.5440 -12.3672 -12.3236 -12.2104 -12.1468
   -12.1356 -11.7778 -11.7649 -11.7470 -11.7303 -11.6952 -11.6788 -11.6422
   -11.5830 -11.5625 -11.5573 -11.5068 -11.5042  -2.2287  -2.1548  -2.1464
    -2.0748  -2.0358  -1.9571  -1.8890  -1.7628  -1.6482  -1.6185  -1.5772
    -1.5217  -1.4493  -1.4334  -1.3642  -1.3216  -1.2162  -1.2014  -1.1736
    -1.1246  -1.0990  -1.0342  -0.9864  -0.9681  -0.9563  -0.9011  -0.8594
    -0.8393  -0.7282  -0.6730  -0.6266  -0.5757  -0.5475  -0.5327  -0.4994
    -0.4577  -0.4198  -0.4108  -0.3272  -0.2535  -0.2163  -0.1851  -0.1158
    -0.0469  -0.0427   0.0205   0.0449   0.0513   0.0601   0.5336   0.6054
     0.6534   0.6700   1.0680   1.0821   1.1156   1.1475   1.4194   1.4383
     1.4455   1.4844   1.6131   1.7052   1.7340   1.7705   1.8090   1.8157
     1.8258   1.8572   1.8742   1.8934   1.9041   1.9408   1.9482   1.9751
     1.9982   2.0106   2.0235   2.0664   2.0879   2.1027   2.1360   2.1675
     2.2282   2.2942   2.4030   2.4584   2.5653   2.5938   2.6156   2.6313
     2.6450   2.6731   2.6799   2.6972   2.7072   2.7225   2.7440   2.7558
     2.8206   2.8241   2.8460   2.8586   2.8753   2.8932   2.8964   2.9070
     3.0096   3.0170   3.0389   3.0509   3.9930   4.0363   4.0539   4.1077
     4.3120   4.3850   4.4114   4.6525   4.7746   4.8570   4.9866   5.0774
     5.0944   5.2016   5.2938   5.4286   5.8502   5.8825   5.9545   6.0295
     6.6727   6.8882   6.9998   7.1595   7.9169   7.9376   7.9642   7.9793
     8.0128   8.0494   8.0876   8.2686   8.5819   8.6108   8.6144   8.6484
     8.6807   8.7373   8.7522

     occupation numbers 
     1.0000   1.0000   1.0000   1.0000   1.0000   1.0000   1.0000   1.0000
     1.0000   1.0000   1.0000   1.0000   1.0000   1.0000   1.0000   1.0000
     1.0000   1.0000   1.0000   1.0000   1.0000   1.0000   1.0000   1.0000
     1.0000   1.0000   1.0000   1.0000   1.0000   1.0000   1.0000   1.0000
     1.0000   1.0000   1.0000   1.0000   1.0000   1.0000   1.0000   1.0000
     1.0000   1.0000   1.0000   1.0000   1.0000   1.0000   1.0000   1.0000
     1.0000   1.0000   1.0000   1.0000   1.0000   1.0000   1.0000   1.0000
     1.0000   1.0000   1.0000   1.0000   1.0000   1.0000   1.0000   1.0000
     1.0000   1.0000   1.0000   1.0000   1.0000   1.0000   1.0000   1.0000
     1.0000   1.0000   1.0000   1.0000   1.0000   1.0000   1.0000   1.0000
     1.0000   1.0000   1.0000   1.0000   1.0000   1.0000   1.0000   1.0000
     1.0000   1.0000   1.0000   1.0000   1.0000   1.0000   1.0000   1.0000
     1.0000   1.0000   1.0000   1.0000   1.0000   1.0000   1.0000   1.0000
     1.0000   1.0000   1.0000   1.0000   1.0000   1.0000   1.0000   1.0000
     1.0000   1.0000   1.0000   1.0000   1.0000   1.0000   1.0000   1.0000
     1.0000   1.0000   1.0000   1.0000   1.0000   1.0000   1.0000   1.0000
     1.0000   1.0000   1.0000   1.0000   1.0000   1.0000   1.0000   1.0000
     1.0000   1.0000   1.0000   1.0000   1.0000   1.0000   1.0000   1.0000
     1.0000   1.0000   1.0000   1.0000   1.0000   1.0000   1.0000   1.0000
     1.0000   1.0000   1.0000   1.0000   1.0000   1.0000   1.0000   1.0000
     1.0000   1.0000   0.9996   0.9996   0.9995   0.9994   0.9976   0.9974
     0.9973   0.9968   0.9944   0.9917   0.9907   0.9893   0.9876   0.9872
     0.9867   0.9851   0.9841   0.9829   0.9822   0.9797   0.9792   0.9771
     0.9751   0.9741   0.9729   0.9686   0.9663   0.9646   0.9606   0.9565
     0.9475   0.9361   0.9133   0.8996   0.8687   0.8595   0.8521   0.8467
     0.8418   0.8315   0.8290   0.8224   0.8185   0.8124   0.8037   0.7988
     0.7707   0.7691   0.7591   0.7533   0.7454   0.7368   0.7352   0.7300
     0.6774   0.6735   0.6617   0.6551   0.1587   0.1437   0.1378   0.1210
     0.0703   0.0568   0.0525   0.0239   0.0154   0.0112   0.0067   0.0045
     0.0042   0.0026   0.0017   0.0009   0.0001   0.0001   0.0000   0.0000
     0.0000   0.0000   0.0000   0.0000   0.0000   0.0000   0.0000   0.0000
     0.0000   0.0000   0.0000   0.0000   0.0000   0.0000   0.0000   0.0000
     0.0000   0.0000   0.0000

          k = 0.2500 0.0000 0.0000 ( 65257 PWs)   bands (ev):

   -92.7079 -92.6587 -92.5622 -92.5163 -92.4591 -92.4150 -92.3968 -92.2755
   -56.0613 -56.0457 -55.9193 -55.9086 -55.9029 -55.8954 -55.8608 -55.8312
   -55.8153 -55.8148 -55.8099 -55.7653 -55.7474 -55.7096 -55.6887 -55.6590
   -55.6517 -55.6025 -55.6023 -55.6000 -55.5915 -55.5503 -55.5272 -55.4414
   -31.2830 -31.2672 -31.1231 -31.0372 -31.0028 -30.9326 -30.7911 -30.7263
[...]
     0.3549   0.3253   0.2032   0.0772   0.0461   0.0219   0.0059   0.0047
     0.0003   0.0001   0.0000   0.0000   0.0000   0.0000   0.0000   0.0000
     0.0000   0.0000   0.0000   0.0000   0.0000   0.0000   0.0000   0.0000
     0.0000   0.0000   0.0000   0.0000   0.0000   0.0000   0.0000   0.0000
     0.0000   0.0000   0.0000

          k =-0.5000 0.0000 0.0000 ( 65180 PWs)   bands (ev):

   -92.7079 -92.6587 -92.5622 -92.5163 -92.4591 -92.4150 -92.3968 -92.2755
   -56.0613 -56.0457 -55.9193 -55.9086 -55.9029 -55.8954 -55.8608 -55.8312
   -55.8153 -55.8148 -55.8099 -55.7653 -55.7474 -55.7096 -55.6887 -55.6590
   -55.6517 -55.6025 -55.6023 -55.6000 -55.5915 -55.5503 -55.5272 -55.4414
   -31.2808 -31.2694 -31.1227 -31.0376 -31.0023 -30.9331 -30.7906 -30.7268
   -29.8518 -29.8139 -29.7841 -29.6778 -15.0212 -14.9690 -14.9072 -14.7898
   -14.6949 -14.5497 -14.4071 -14.2464 -14.1389 -14.1203 -14.1149 -14.0509
   -13.9978 -13.9863 -13.9653 -13.9150 -13.8963 -13.8852 -13.8417 -13.8023
   -13.7085 -13.5618 -13.5232 -13.5007 -13.4924 -13.3819 -13.3704 -13.3131
   -13.2745 -13.2513 -13.2192 -13.0612 -13.0486 -13.0226 -13.0148 -12.9687
   -12.9503 -12.9404 -12.9197 -12.7828 -12.7437 -12.7264 -12.7169 -12.7031
   -12.6471 -12.6381 -12.6165 -12.5477 -12.3943 -12.3337 -12.2402 -12.1754
   -12.1450 -11.7841 -11.7629 -11.7558 -11.7425 -11.7241 -11.6826 -11.6192
   -11.6007 -11.5673 -11.5247 -11.5156 -11.4997  -2.5870  -2.5487  -2.3859
    -2.3462  -2.0320  -1.9565  -1.8109  -1.6916  -1.6525  -1.6068  -1.5599
    -1.5350  -1.4109  -1.3673  -1.3511  -1.2696  -1.2344  -1.2220  -1.2111
    -1.1852  -1.1255  -1.0594  -1.0325  -0.9969  -0.9017  -0.8597  -0.8107
    -0.7776  -0.7572  -0.7246  -0.6776  -0.6528  -0.6110  -0.5115  -0.4449
    -0.3725  -0.3131  -0.1398  -0.1178  -0.0619  -0.0132   0.0483   0.0576
     0.1998   0.2304   0.2593   0.4348   0.5346   0.5857   0.6684   0.7474
     0.8537   0.8738   1.0040   1.0280   1.0806   1.1107   1.1447   1.1610
     1.2089   1.2272   1.2995   1.3438   1.3880   1.4043   1.7006   1.7194
     1.7336   1.7595   1.8600   1.8686   1.8863   1.8910   1.9200   1.9370
     1.9731   1.9910   2.0214   2.0712   2.0890   2.1413   2.1611   2.2169
     2.3207   2.4112   2.4320   2.4607   2.5011   2.5179   2.5957   2.6197
     2.6532   2.7189   2.7258   2.7336   2.7635   2.8299   2.8765   2.9277
     2.9511   2.9935   2.9991   3.0007   3.0109   3.0258   3.0375   3.0511
     3.0557   3.0778   3.0800   3.1041   3.1225   3.1280   3.2576   3.2636
     4.0535   4.1288   4.2012   4.3170   4.7859   4.8667   5.0384   5.0528
     5.4815   5.5050   5.6000   5.6509   6.0289   6.0412   6.3267   6.5494
     6.7936   6.9996   7.2732   7.3178   7.3902   7.4715   7.7645   7.7738
     7.8823   8.0587   8.2773   8.3084   8.3609   8.4491   8.5282   8.6223
     8.7560   8.8115   8.9057

     occupation numbers 
     1.0000   1.0000   1.0000   1.0000   1.0000   1.0000   1.0000   1.0000
     1.0000   1.0000   1.0000   1.0000   1.0000   1.0000   1.0000   1.0000
     1.0000   1.0000   1.0000   1.0000   1.0000   1.0000   1.0000   1.0000
     1.0000   1.0000   1.0000   1.0000   1.0000   1.0000   1.0000   1.0000
     1.0000   1.0000   1.0000   1.0000   1.0000   1.0000   1.0000   1.0000
     1.0000   1.0000   1.0000   1.0000   1.0000   1.0000   1.0000   1.0000
     1.0000   1.0000   1.0000   1.0000   1.0000   1.0000   1.0000   1.0000
     1.0000   1.0000   1.0000   1.0000   1.0000   1.0000   1.0000   1.0000
     1.0000   1.0000   1.0000   1.0000   1.0000   1.0000   1.0000   1.0000
     1.0000   1.0000   1.0000   1.0000   1.0000   1.0000   1.0000   1.0000
     1.0000   1.0000   1.0000   1.0000   1.0000   1.0000   1.0000   1.0000
     1.0000   1.0000   1.0000   1.0000   1.0000   1.0000   1.0000   1.0000
     1.0000   1.0000   1.0000   1.0000   1.0000   1.0000   1.0000   1.0000
     1.0000   1.0000   1.0000   1.0000   1.0000   1.0000   1.0000   1.0000
     1.0000   1.0000   1.0000   1.0000   1.0000   1.0000   1.0000   1.0000
     1.0000   1.0000   1.0000   1.0000   1.0000   1.0000   1.0000   1.0000
     1.0000   1.0000   1.0000   1.0000   1.0000   1.0000   1.0000   1.0000
     1.0000   1.0000   1.0000   1.0000   1.0000   1.0000   1.0000   1.0000
     1.0000   1.0000   1.0000   1.0000   1.0000   1.0000   1.0000   1.0000
     1.0000   1.0000   1.0000   1.0000   1.0000   1.0000   1.0000   0.9999
     0.9999   0.9999   0.9997   0.9997   0.9996   0.9995   0.9994   0.9993
     0.9991   0.9991   0.9986   0.9983   0.9979   0.9978   0.9919   0.9913
     0.9907   0.9897   0.9849   0.9844   0.9834   0.9831   0.9812   0.9800
     0.9772   0.9758   0.9731   0.9681   0.9662   0.9599   0.9573   0.9493
     0.9310   0.9114   0.9063   0.8990   0.8879   0.8831   0.8589   0.8507
     0.8388   0.8139   0.8111   0.8080   0.7956   0.7665   0.7448   0.7198
     0.7080   0.6860   0.6830   0.6822   0.6768   0.6688   0.6624   0.6550
     0.6525   0.6403   0.6391   0.6256   0.6152   0.6121   0.5368   0.5332
     0.1380   0.1148   0.0953   0.0693   0.0147   0.0108   0.0054   0.0050
     0.0007   0.0006   0.0004   0.0003   0.0000   0.0000   0.0000   0.0000
     0.0000   0.0000   0.0000   0.0000   0.0000   0.0000   0.0000   0.0000
     0.0000   0.0000   0.0000   0.0000   0.0000   0.0000   0.0000   0.0000
     0.0000   0.0000   0.0000

          k =-0.2500 0.2500 0.0000 ( 65198 PWs)   bands (ev):

   -92.7079 -92.6587 -92.5622 -92.5163 -92.4591 -92.4150 -92.3968 -92.2755
   -56.0613 -56.0457 -55.9193 -55.9086 -55.9029 -55.8954 -55.8608 -55.8312
   -55.8153 -55.8148 -55.8099 -55.7653 -55.7474 -55.7096 -55.6887 -55.6590
   -55.6517 -55.6025 -55.6023 -55.6000 -55.5915 -55.5503 -55.5272 -55.4414
   -31.2828 -31.2671 -31.1233 -31.0374 -31.0027 -30.9324 -30.7914 -30.7264
   -29.8523 -29.8125 -29.7851 -29.6778 -15.0239 -14.9804 -14.9069 -14.7907
   -14.6745 -14.5500 -14.4668 -14.2553 -14.1200 -14.0924 -14.0762 -14.0294
   -14.0051 -13.9881 -13.9787 -13.9607 -13.9051 -13.8389 -13.8273 -13.6782
   -13.6492 -13.6184 -13.6002 -13.5414 -13.5025 -13.4421 -13.4028 -13.2884
   -13.2467 -13.2264 -13.1532 -13.1094 -13.0468 -13.0144 -12.9915 -12.9589
   -12.9483 -12.9324 -12.8718 -12.8164 -12.7862 -12.7780 -12.7365 -12.6986
   -12.6916 -12.6751 -12.6142 -12.4909 -12.4488 -12.3633 -12.2895 -12.0966
   -12.0518 -11.8044 -11.7829 -11.7561 -11.7436 -11.7031 -11.6680 -11.6454
   -11.6229 -11.6007 -11.5164 -11.4714 -11.4616  -2.6717  -2.4644  -2.3430
    -2.2540  -2.1365  -2.0708  -1.8662  -1.7221  -1.7041  -1.6733  -1.5811
    -1.5476  -1.4532  -1.4191  -1.3932  -1.2507  -1.2211  -1.1864  -1.1252
    -1.0976  -1.0350  -1.0157  -0.9757  -0.9472  -0.9068  -0.8437  -0.7946
    -0.7294  -0.6625  -0.6364  -0.5877  -0.5597  -0.5124  -0.4548  -0.4052
    -0.3705  -0.2648  -0.2360  -0.2214  -0.1787  -0.1139  -0.0225   0.0000
     0.0378   0.1157   0.1290   0.3869   0.5620   0.5982   0.6421   0.7051
     0.7474   0.7995   0.8712   0.9004   1.1799   1.2865   1.3288   1.3609
     1.3666   1.4078   1.4245   1.4698   1.5025   1.5145   1.5401   1.5892
     1.6046   1.6419   1.6629   1.7084   1.8121   1.8145   1.8388   1.8710
     1.9029   1.9425   1.9870   2.1012   2.2096   2.2306   2.2758   2.2955
     2.3602   2.3984   2.4089   2.4299   2.4558   2.4670   2.4816   2.5751
     2.6157   2.7045   2.8774   2.8857   2.8993   2.9085   2.9199   2.9339
     2.9418   2.9594   2.9668   2.9814   2.9911   3.0030   3.0121   3.0203
     3.0538   3.0639   3.0721   3.1058   3.3975   3.4789   3.5452   3.6142
     3.6498   3.8373   3.9562   4.3059   4.5016   4.7139   4.9918   5.1632
     5.6472   5.6975   5.7764   5.8273   5.8911   6.1382   6.1638   6.1984
     6.8919   6.9849   7.1439   7.3398   7.5600   7.6082   7.6681   7.8705
     7.9198   8.0586   8.2091   8.2802   8.3346   8.3506   8.4427   8.5266
     8.6024   8.6880   8.9226

     occupation numbers 
     1.0000   1.0000   1.0000   1.0000   1.0000   1.0000   1.0000   1.0000
     1.0000   1.0000   1.0000   1.0000   1.0000   1.0000   1.0000   1.0000
     1.0000   1.0000   1.0000   1.0000   1.0000   1.0000   1.0000   1.0000
     1.0000   1.0000   1.0000   1.0000   1.0000   1.0000   1.0000   1.0000
     1.0000   1.0000   1.0000   1.0000   1.0000   1.0000   1.0000   1.0000
     1.0000   1.0000   1.0000   1.0000   1.0000   1.0000   1.0000   1.0000
     1.0000   1.0000   1.0000   1.0000   1.0000   1.0000   1.0000   1.0000
     1.0000   1.0000   1.0000   1.0000   1.0000   1.0000   1.0000   1.0000
     1.0000   1.0000   1.0000   1.0000   1.0000   1.0000   1.0000   1.0000
     1.0000   1.0000   1.0000   1.0000   1.0000   1.0000   1.0000   1.0000
     1.0000   1.0000   1.0000   1.0000   1.0000   1.0000   1.0000   1.0000
     1.0000   1.0000   1.0000   1.0000   1.0000   1.0000   1.0000   1.0000
     1.0000   1.0000   1.0000   1.0000   1.0000   1.0000   1.0000   1.0000
     1.0000   1.0000   1.0000   1.0000   1.0000   1.0000   1.0000   1.0000
     1.0000   1.0000   1.0000   1.0000   1.0000   1.0000   1.0000   1.0000
     1.0000   1.0000   1.0000   1.0000   1.0000   1.0000   1.0000   1.0000
     1.0000   1.0000   1.0000   1.0000   1.0000   1.0000   1.0000   1.0000
     1.0000   1.0000   1.0000   1.0000   1.0000   1.0000   1.0000   1.0000
     1.0000   1.0000   1.0000   1.0000   1.0000   1.0000   1.0000   1.0000
     1.0000   1.0000   1.0000   1.0000   1.0000   1.0000   1.0000   0.9999
     0.9999   0.9999   0.9999   0.9998   0.9993   0.9987   0.9984   0.9982
     0.9981   0.9977   0.9976   0.9970   0.9965   0.9963   0.9959   0.9949
     0.9946   0.9936   0.9931   0.9916   0.9874   0.9873   0.9861   0.9843
     0.9823   0.9796   0.9761   0.9648   0.9504   0.9471   0.9394   0.9359
     0.9229   0.9144   0.9119   0.9068   0.9002   0.8973   0.8934   0.8656
     0.8521   0.8195   0.7444   0.7404   0.7338   0.7293   0.7237   0.7167
     0.7127   0.7037   0.6999   0.6923   0.6873   0.6810   0.6761   0.6718
     0.6536   0.6480   0.6435   0.6246   0.4540   0.4066   0.3689   0.3310
     0.3120   0.2211   0.1723   0.0715   0.0396   0.0192   0.0065   0.0031
     0.0003   0.0002   0.0001   0.0001   0.0001   0.0000   0.0000   0.0000
     0.0000   0.0000   0.0000   0.0000   0.0000   0.0000   0.0000   0.0000
     0.0000   0.0000   0.0000   0.0000   0.0000   0.0000   0.0000   0.0000
     0.0000   0.0000   0.0000

          k =-0.5000 0.2500 0.0000 ( 65138 PWs)   bands (ev):

   -92.7079 -92.6587 -92.5622 -92.5163 -92.4591 -92.4150 -92.3968 -92.2755
   -56.0613 -56.0457 -55.9193 -55.9085 -55.9029 -55.8954 -55.8608 -55.8312
   -55.8153 -55.8148 -55.8099 -55.7653 -55.7474 -55.7096 -55.6887 -55.6590
   -55.6517 -55.6025 -55.6023 -55.6000 -55.5915 -55.5503 -55.5272 -55.4414
   -31.2806 -31.2693 -31.1229 -31.0378 -31.0022 -30.9328 -30.7909 -30.7269
   -29.8512 -29.8136 -29.7847 -29.6782 -14.9883 -14.9426 -14.8644 -14.7592
   -14.7194 -14.5975 -14.5087 -14.3696 -14.0707 -14.0402 -14.0282 -13.9866
   -13.9845 -13.9595 -13.9368 -13.9011 -13.8803 -13.8660 -13.8284 -13.8036
   -13.7026 -13.6437 -13.5943 -13.5877 -13.5672 -13.4757 -13.4217 -13.3459
   -13.2863 -13.2074 -13.1706 -13.0731 -13.0339 -13.0226 -12.9926 -12.9587
   -12.9459 -12.9213 -12.9067 -12.7950 -12.7570 -12.7322 -12.7218 -12.7019
   -12.6318 -12.6216 -12.6171 -12.5457 -12.3806 -12.3290 -12.2254 -12.1621
   -12.1396 -11.7769 -11.7646 -11.7505 -11.7380 -11.7176 -11.6874 -11.6054
   -11.5979 -11.5738 -11.5390 -11.5112 -11.5020  -2.4442  -2.4029  -2.2556
    -2.2127  -2.0514  -1.9752  -1.8350  -1.6974  -1.6411  -1.6143  -1.5760
    -1.5375  -1.4565  -1.3406  -1.2839  -1.2604  -1.2351  -1.2156  -1.1558
    -1.1289  -1.0898  -1.0729  -1.0132  -0.9801  -0.9447  -0.9100  -0.8810
    -0.8223  -0.7935  -0.7509  -0.7172  -0.6134  -0.5855  -0.4931  -0.4364
    -0.4058  -0.3456  -0.2653  -0.2276  -0.1291  -0.0804  -0.0317   0.0296
     0.0514   0.1222   0.1426   0.1750   0.2250   0.2680   0.5872   0.6749
     0.7040   0.7176   1.0175   1.0738   1.1498   1.1724   1.3475   1.3820
     1.4206   1.4303   1.4487   1.4671   1.5358   1.5837   1.6257   1.6533
     1.7883   1.8229   1.8421   1.8518   1.8945   1.9209   1.9363   1.9459
     1.9657   1.9950   2.0315   2.0466   2.0819   2.1078   2.1398   2.1923
     2.3142   2.4011   2.4162   2.4518   2.4655   2.5159   2.5470   2.6111
     2.6485   2.6543   2.6927   2.7242   2.7473   2.8293   2.8740   2.8870
     2.8925   2.9141   2.9343   2.9469   2.9622   2.9771   2.9982   3.0102
     3.0199   3.0273   3.0370   3.0493   3.5769   3.6286   3.7677   3.7896
     4.0621   4.1525   4.2024   4.4007   4.7800   4.8844   5.0356   5.0768
     5.4039   5.4268   5.5890   5.6283   5.7415   5.7927   6.3890   6.4333
     6.4934   6.6876   7.2974   7.4195   7.5857   7.7115   7.7911   7.8845
     7.9011   8.0214   8.4007   8.4231   8.4915   8.5296   8.5617   8.5824
     8.6661   8.7262   8.7826

     occupation numbers 
     1.0000   1.0000   1.0000   1.0000   1.0000   1.0000   1.0000   1.0000
     1.0000   1.0000   1.0000   1.0000   1.0000   1.0000   1.0000   1.0000
     1.0000   1.0000   1.0000   1.0000   1.0000   1.0000   1.0000   1.0000
     1.0000   1.0000   1.0000   1.0000   1.0000   1.0000   1.0000   1.0000
     1.0000   1.0000   1.0000   1.0000   1.0000   1.0000   1.0000   1.0000
     1.0000   1.0000   1.0000   1.0000   1.0000   1.0000   1.0000   1.0000
     1.0000   1.0000   1.0000   1.0000   1.0000   1.0000   1.0000   1.0000
     1.0000   1.0000   1.0000   1.0000   1.0000   1.0000   1.0000   1.0000
     1.0000   1.0000   1.0000   1.0000   1.0000   1.0000   1.0000   1.0000
     1.0000   1.0000   1.0000   1.0000   1.0000   1.0000   1.0000   1.0000
     1.0000   1.0000   1.0000   1.0000   1.0000   1.0000   1.0000   1.0000
     1.0000   1.0000   1.0000   1.0000   1.0000   1.0000   1.0000   1.0000
     1.0000   1.0000   1.0000   1.0000   1.0000   1.0000   1.0000   1.0000
     1.0000   1.0000   1.0000   1.0000   1.0000   1.0000   1.0000   1.0000
     1.0000   1.0000   1.0000   1.0000   1.0000   1.0000   1.0000   1.0000
     1.0000   1.0000   1.0000   1.0000   1.0000   1.0000   1.0000   1.0000
     1.0000   1.0000   1.0000   1.0000   1.0000   1.0000   1.0000   1.0000
     1.0000   1.0000   1.0000   1.0000   1.0000   1.0000   1.0000   1.0000
     1.0000   1.0000   1.0000   1.0000   1.0000   1.0000   1.0000   1.0000
     1.0000   1.0000   1.0000   1.0000   1.0000   1.0000   1.0000   1.0000
     0.9999   0.9999   0.9997   0.9996   0.9994   0.9993   0.9983   0.9980
     0.9976   0.9975   0.9973   0.9970   0.9960   0.9950   0.9941   0.9933
     0.9885   0.9869   0.9859   0.9854   0.9828   0.9811   0.9800   0.9793
     0.9778   0.9754   0.9721   0.9707   0.9670   0.9640   0.9601   0.9530
     0.9323   0.9137   0.9102   0.9013   0.8977   0.8837   0.8744   0.8537
     0.8406   0.8385   0.8241   0.8118   0.8023   0.7668   0.7460   0.7398
     0.7371   0.7266   0.7164   0.7101   0.7023   0.6946   0.6835   0.6771
     0.6719   0.6680   0.6627   0.6560   0.3513   0.3233   0.2530   0.2427
     0.1352   0.1081   0.0950   0.0542   0.0151   0.0101   0.0054   0.0045
     0.0010   0.0009   0.0004   0.0003   0.0002   0.0001   0.0000   0.0000
     0.0000   0.0000   0.0000   0.0000   0.0000   0.0000   0.0000   0.0000
     0.0000   0.0000   0.0000   0.0000   0.0000   0.0000   0.0000   0.0000
     0.0000   0.0000   0.0000

     the Fermi energy is     3.3198 ev

!    total energy              =   -4441.67033067 Ry
     estimated scf accuracy    <          5.3E-09 Ry
     smearing contrib. (-TS)   =      -1.15442561 Ry
     internal energy E=F+TS    =   -4440.51590506 Ry

     The total energy is F=E-TS. E is the sum of the following terms:
     one-electron contribution =  -20804.17784267 Ry
     hartree contribution      =   10533.98425885 Ry
     xc contribution           =    -694.18728973 Ry
     ewald contribution        =    6800.03344497 Ry
     one-center paw contrib.   =    -276.16847647 Ry
      -> PAW hartree energy AE =      25.09926330 Ry
      -> PAW hartree energy PS =     -24.98385634 Ry
      -> PAW xc energy AE      =     -16.50838668 Ry
      -> PAW xc energy PS      =       6.86743428 Ry
      -> total E_H with PAW    =   10534.09966581 Ry
      -> total E_XC with PAW   =    -703.82824214 Ry

     convergence has been achieved in  48 iterations

     Writing all to output data dir /bsuhome/zayahcortright/scratch/pwscf.save/
 
     init_run     :      7.60s CPU      8.60s WALL (       1 calls)
     electrons    :    772.64s CPU    854.73s WALL (       1 calls)

     Called by init_run:
     wfcinit      :      5.99s CPU      6.22s WALL (       1 calls)
     wfcinit:atom :      0.05s CPU      0.07s WALL (       5 calls)
     wfcinit:wfcr :      5.68s CPU      5.81s WALL (       5 calls)
     potinit      :      0.16s CPU      0.20s WALL (       1 calls)
     hinit0       :      0.52s CPU      0.99s WALL (       1 calls)

     Called by electrons:
     c_bands      :    621.86s CPU    633.94s WALL (      48 calls)
     sum_band     :    111.90s CPU    150.24s WALL (      48 calls)
     v_of_rho     :      5.23s CPU      5.62s WALL (      49 calls)
     v_h          :      0.45s CPU      0.46s WALL (      49 calls)
     v_xc         :      4.77s CPU      5.17s WALL (      49 calls)
     newd         :     18.30s CPU     49.04s WALL (      49 calls)
     PAW_pot      :      1.62s CPU      1.66s WALL (      49 calls)
     mix_rho      :     13.21s CPU     13.62s WALL (      48 calls)

     Called by c_bands:
     init_us_2    :      6.56s CPU      6.65s WALL (     485 calls)
     init_us_2:cp :      6.55s CPU      6.65s WALL (     485 calls)
     cegterg      :    586.61s CPU    598.34s WALL (     240 calls)

     Called by sum_band:
     sum_band:wei :      0.34s CPU      0.35s WALL (      48 calls)
     sum_band:loo :     89.60s CPU     90.31s WALL (      48 calls)
     sum_band:buf :      1.33s CPU      1.42s WALL (     240 calls)
     sum_band:ini :      2.86s CPU      2.87s WALL (     240 calls)
     sum_band:cal :     18.77s CPU     18.84s WALL (     240 calls)
     sum_band:bec :      0.60s CPU      0.62s WALL (     240 calls)
     addusdens    :     17.73s CPU     55.28s WALL (      48 calls)
                                        0.00s GPU  (      48 calls)
     addusd:skk   :      0.28s CPU      2.35s WALL (     192 calls)
                                        0.00s GPU  (     192 calls)

     Called by *egterg:
     cdiaghg      :     53.96s CPU     54.21s WALL (    1217 calls)
     cegterg:over :     45.85s CPU     46.03s WALL (     977 calls)
     cegterg:upda :     48.21s CPU     49.09s WALL (     977 calls)
     cegterg:last :     68.41s CPU     68.69s WALL (     431 calls)
     cdiaghg:chol :      3.10s CPU      3.13s WALL (    1217 calls)
     cdiaghg:inve :      3.30s CPU      3.31s WALL (    1217 calls)
     cdiaghg:para :      7.02s CPU      7.06s WALL (    2434 calls)
     h_psi        :    300.44s CPU    305.24s WALL (    1222 calls)
     s_psi        :     42.32s CPU     42.51s WALL (    1222 calls)
     g_psi        :      2.27s CPU      2.29s WALL (     977 calls)

     Called by h_psi:
     h_psi:calbec :     44.56s CPU     44.79s WALL (    1222 calls)
     vloc_psi     :    208.85s CPU    210.97s WALL (    1222 calls)
     add_vuspsi   :     41.93s CPU     42.15s WALL (    1222 calls)

     General routines
     calbec       :     63.32s CPU     63.62s WALL (    1462 calls)
     fft          :      5.76s CPU      5.82s WALL (     635 calls)
     ffts         :      4.92s CPU      4.97s WALL (    5184 calls)
     fftw         :    173.43s CPU    174.92s WALL (  325858 calls)
     interpolate  :      0.43s CPU      0.44s WALL (      49 calls)
 
     Parallel routines

     PAW routines
     PAW_pot      :      1.62s CPU      1.66s WALL (      49 calls)
 
     PWSCF        :  13m 1.92s CPU  14m29.40s WALL

 
   This run was terminated on:   0:52: 6  22Jun2024            

=------------------------------------------------------------------------------=
   JOB DONE.
=------------------------------------------------------------------------------=
