
     Program PWSCF v.7.2 starts on 21Jun2024 at 13:21:39 

     This program is part of the open-source Quantum ESPRESSO suite
     for quantum simulation of materials; please cite
         "P. Giannozzi et al., J. Phys.:Condens. Matter 21 395502 (2009);
         "P. Giannozzi et al., J. Phys.:Condens. Matter 29 465901 (2017);
         "P. Giannozzi et al., J. Chem. Phys. 152 154105 (2020);
          URL http://www.quantum-espresso.org", 
     in publications or presentations arising from this work. More details at
     http://www.quantum-espresso.org/quote

     Parallel version (MPI & OpenMP), running on      48 processor cores
     Number of MPI processes:                48
     Threads/MPI process:                     1

     MPI processes distributed on     1 nodes
     180167 MiB available memory on the printing compute node when the environment starts
 
     Reading input from espresso.pwi
Warning: card &CELL ignored
Warning: card / ignored
Warning: card &FCP ignored
Warning: card / ignored
Warning: card &RISM ignored
Warning: card / ignored

     Current dimensions of program PWSCF are:
     Max number of different atomic species (ntypx) = 10
     Max number of k-points (npk) =  40000
     Max angular momentum in pseudopotentials (lmaxx) =  4
     file O.pbe-n-kjpaw_psl.0.1.UPF: wavefunction(s)  2P renormalized
     signal trapping enabled: kill the code with -SIGUSR1 to stop cleanly the simulation 
 
     K-points division:     npool     =       2
     R & G space division:  proc/nbgrp/npool/nimage =      24
     Subspace diagonalization in iterative solution of the eigenvalue problem:
     one sub-group per band group will be used
     scalapack distributed-memory algorithm (size of sub-group:  3*  3 procs)

 
     Parallelization info
     --------------------
     sticks:   dense  smooth     PW     G-vecs:    dense   smooth      PW
     Min         350     175     47                61430    21716    3036
     Max         351     177     48                61449    21727    3041
     Sum        8421    4205   1137              1474595   521381   72913
 
     Using Slab Decomposition
 


     bravais-lattice index     =            0
     lattice parameter (alat)  =      14.8599  a.u.
     unit-cell volume          =    8305.1283 (a.u.)^3
     number of atoms/cell      =           49
     number of atomic types    =            4
     number of electrons       =       425.00
     number of Kohn-Sham states=          256
     kinetic-energy cutoff     =      60.0000  Ry
     charge density cutoff     =     480.0000  Ry
     scf convergence threshold =      1.0E-08
     mixing beta               =       0.1500
     number of iterations used =            8  local-TF  mixing
     Exchange-correlation= PBE
                           (   1   4   3   4   0   0   0)

     celldm(1)=  14.859904  celldm(2)=   0.000000  celldm(3)=   0.000000
     celldm(4)=   0.000000  celldm(5)=   0.000000  celldm(6)=   0.000000

     crystal axes: (cart. coord. in units of alat)
               a(1) = (   1.000000   0.000000   0.000000 )  
               a(2) = (   0.000000   1.000000   0.000000 )  
               a(3) = (   0.000000   0.000000   2.531036 )  

     reciprocal axes: (cart. coord. in units 2 pi/alat)
               b(1) = (  1.000000  0.000000  0.000000 )  
               b(2) = (  0.000000  1.000000  0.000000 )  
               b(3) = (  0.000000  0.000000  0.395095 )  


     PseudoPot. # 1 for Sr read from file:
     /bsuhome/zayahcortright/q-e/pseudo/Sr_pbe_v1.uspp.F.UPF
     MD5 check sum: 6b418c05fbe9db5448babca5e47b7a5b
     Pseudo is Ultrasoft + core correction, Zval = 10.0
     Generated by new atomic code, or converted to UPF format
     Using radial grid of  883 points,  6 beta functions with: 
                l(1) =   0
                l(2) =   0
                l(3) =   1
                l(4) =   1
                l(5) =   2
                l(6) =   2
     Q(r) pseudized with  6 coefficients,  rinner =    1.400   1.400   1.400
                                                       1.400   1.400

     PseudoPot. # 2 for O  read from file:
     /bsuhome/zayahcortright/q-e/pseudo/O.pbe-n-kjpaw_psl.0.1.UPF
     MD5 check sum: 0234752ac141de4415c5fc33072bef88
     Pseudo is Projector augmented-wave + core cor, Zval =  6.0
     Generated using "atomic" code by A. Dal Corso  v.5.0.99 svn rev. 10869
     Shape of augmentation charge: BESSEL
     Using radial grid of 1095 points,  4 beta functions with: 
                l(1) =   0
                l(2) =   0
                l(3) =   1
                l(4) =   1
     Q(r) pseudized with 0 coefficients 


     PseudoPot. # 3 for Co read from file:
     /bsuhome/zayahcortright/q-e/pseudo/Co_pbe_v1.2.uspp.F.UPF
     MD5 check sum: 5f91765df6ddd3222702df6e7b74a16d
     Pseudo is Ultrasoft + core correction, Zval = 17.0
     Generated by new atomic code, or converted to UPF format
     Using radial grid of  863 points,  6 beta functions with: 
                l(1) =   0
                l(2) =   0
                l(3) =   1
                l(4) =   1
                l(5) =   2
                l(6) =   2
     Q(r) pseudized with  8 coefficients,  rinner =    1.200   1.200   1.200
                                                       1.200   1.200

     PseudoPot. # 4 for H  read from file:
     /bsuhome/zayahcortright/q-e/pseudo/H.pbe-rrkjus_psl.1.0.0.UPF
     MD5 check sum: f52b6d4d1c606e5624b1dc7b2218f220
     Pseudo is Ultrasoft, Zval =  1.0
     Generated using "atomic" code by A. Dal Corso  v.5.1
     Using radial grid of  929 points,  2 beta functions with: 
                l(1) =   0
                l(2) =   0
     Q(r) pseudized with 0 coefficients 


     atomic species   valence    mass     pseudopotential
        Sr            10.00    87.62000     Sr( 1.00)
        O              6.00    15.99900     O ( 1.00)
        Co            17.00    58.93319     Co( 1.00)
        H              1.00     1.00800     H ( 1.00)

     No symmetry found


                                    s                        frac. trans.

      isym =  1     identity                                     

 cryst.   s( 1) = (     1          0          0      )
                  (     0          1          0      )
                  (     0          0          1      )

 cart.    s( 1) = (  1.0000000  0.0000000  0.0000000 )
                  (  0.0000000  1.0000000  0.0000000 )
                  (  0.0000000  0.0000000  1.0000000 )


   Cartesian axes

     site n.     atom                  positions (alat units)
         1           Sr  tau(   1) = (   0.2508693   0.7491307   1.7574407  )
         2           O   tau(   2) = (   0.4985141   0.5014859   1.7715967  )
         3           Sr  tau(   3) = (   0.7482398   0.7454518   1.7648669  )
         4           Sr  tau(   4) = (   0.7441748   0.2558252   1.7667843  )
         5           Sr  tau(   5) = (   0.2508693   0.7491307   1.2696799  )
         6           Sr  tau(   6) = (   0.2508693   0.7491307   0.7632319  )
         7           Co  tau(   7) = (   0.4998914   0.5001086   1.0164559  )
         8           Co  tau(   8) = (   0.4936915   0.5063085   1.5135603  )
         9           O   tau(   9) = (   0.4988895   0.7610401   1.0164559  )
        10           O   tau(  10) = (   0.2389599   0.5011105   1.0164559  )
        11           O   tau(  11) = (   0.0070918   0.7374880   1.0164559  )
        12           O   tau(  12) = (   0.0088340   0.7405089   1.5135603  )
        13           O   tau(  13) = (   0.5066944   0.7415376   1.5135603  )
        14           O   tau(  14) = (   0.2584624   0.4933056   1.5135603  )
        15           O   tau(  15) = (   0.4985141   0.5014859   0.7773880  )
        16           O   tau(  16) = (   0.4985141   0.5014859   1.2555238  )
        17           Sr  tau(  17) = (   0.7482398   0.7454518   0.7706582  )
        18           Sr  tau(  18) = (   0.7482398   0.7454518   1.2622536  )
        19           Sr  tau(  19) = (   0.7441748   0.2558252   0.7725755  )
        20           Sr  tau(  20) = (   0.7441748   0.2558252   1.2603363  )
        21           O   tau(  21) = (   0.7322655   0.0078049   1.5135603  )
        22           O   tau(  22) = (   0.7558175   0.4996027   1.5135603  )
        23           O   tau(  23) = (   0.5003973   0.2441825   1.5135603  )
        24           O   tau(  24) = (   0.7527966   0.4978604   1.0164559  )
        25           O   tau(  25) = (   0.5021396   0.2472034   1.0164559  )
        26           O   tau(  26) = (   0.7517679   0.0000000   1.0164559  )
        27           O   tau(  27) = (   0.0114961   0.4948124   1.7455321  )
        28           O   tau(  28) = (   0.0048226   0.0077944   1.7715967  )
        29           Sr  tau(  29) = (   0.2545482   0.2517602   1.7648669  )
        30           O   tau(  30) = (   0.5048017   0.0015068   1.7786929  )
        31           Co  tau(  31) = (   0.0056869   0.5006215   1.0164559  )
        32           Co  tau(  32) = (   0.0065315   0.4997770   1.5135603  )
        33           Co  tau(  33) = (   0.0061999   0.0064171   1.0164559  )
        34           Co  tau(  34) = (   0.0000000   0.0126169   1.5135603  )
        35           O   tau(  35) = (   0.0114961   0.4948124   1.2815885  )
        36           O   tau(  36) = (   0.0114961   0.4948124   0.7513233  )
        37           O   tau(  37) = (   0.0051979   0.2673486   1.0164559  )
        38           O   tau(  38) = (   0.0130029   0.2478461   1.5135603  )
        39           O   tau(  39) = (   0.0048226   0.0077944   0.7773880  )
        40           O   tau(  40) = (   0.0048226   0.0077944   1.2555238  )
        41           Sr  tau(  41) = (   0.2545482   0.2517602   0.7706582  )
        42           Sr  tau(  42) = (   0.2545482   0.2517602   1.2622536  )
        43           Co  tau(  43) = (   0.4989925   0.0073160   1.5135603  )
        44           Co  tau(  44) = (   0.4998370   0.0064714   1.0164559  )
        45           O   tau(  45) = (   0.5048017   0.0015068   0.7844841  )
        46           O   tau(  46) = (   0.5048017   0.0015068   1.2484277  )
        47           O   tau(  47) = (   0.2621260   0.0059111   1.5135603  )
        48           O   tau(  48) = (   0.2591051   0.0041689   1.0164559  )
        49           H   tau(  49) = (   0.0000000   0.9951520   2.1602013  )

   Crystallographic axes

     site n.     atom                  positions (cryst. coord.)
         1           Sr  tau(   1) = (  0.2508693  0.7491307  0.6943562  )
         2           O   tau(   2) = (  0.4985141  0.5014859  0.6999492  )
         3           Sr  tau(   3) = (  0.7482398  0.7454518  0.6972903  )
         4           Sr  tau(   4) = (  0.7441748  0.2558252  0.6980478  )
         5           Sr  tau(   5) = (  0.2508693  0.7491307  0.5016443  )
         6           Sr  tau(   6) = (  0.2508693  0.7491307  0.3015492  )
         7           Co  tau(   7) = (  0.4998914  0.5001086  0.4015968  )
         8           Co  tau(   8) = (  0.4936915  0.5063085  0.5980003  )
         9           O   tau(   9) = (  0.4988895  0.7610401  0.4015968  )
        10           O   tau(  10) = (  0.2389599  0.5011105  0.4015968  )
        11           O   tau(  11) = (  0.0070918  0.7374880  0.4015968  )
        12           O   tau(  12) = (  0.0088340  0.7405089  0.5980003  )
        13           O   tau(  13) = (  0.5066944  0.7415376  0.5980003  )
        14           O   tau(  14) = (  0.2584624  0.4933056  0.5980003  )
        15           O   tau(  15) = (  0.4985141  0.5014859  0.3071422  )
        16           O   tau(  16) = (  0.4985141  0.5014859  0.4960513  )
        17           Sr  tau(  17) = (  0.7482398  0.7454518  0.3044833  )
        18           Sr  tau(  18) = (  0.7482398  0.7454518  0.4987103  )
        19           Sr  tau(  19) = (  0.7441748  0.2558252  0.3052408  )
        20           Sr  tau(  20) = (  0.7441748  0.2558252  0.4979527  )
        21           O   tau(  21) = (  0.7322655  0.0078049  0.5980003  )
        22           O   tau(  22) = (  0.7558175  0.4996027  0.5980003  )
        23           O   tau(  23) = (  0.5003973  0.2441825  0.5980003  )
        24           O   tau(  24) = (  0.7527966  0.4978604  0.4015968  )
        25           O   tau(  25) = (  0.5021396  0.2472034  0.4015968  )
        26           O   tau(  26) = (  0.7517679  0.0000000  0.4015968  )
        27           O   tau(  27) = (  0.0114961  0.4948124  0.6896512  )
        28           O   tau(  28) = (  0.0048226  0.0077944  0.6999492  )
        29           Sr  tau(  29) = (  0.2545482  0.2517602  0.6972903  )
        30           O   tau(  30) = (  0.5048017  0.0015068  0.7027529  )
        31           Co  tau(  31) = (  0.0056869  0.5006215  0.4015968  )
        32           Co  tau(  32) = (  0.0065315  0.4997770  0.5980003  )
        33           Co  tau(  33) = (  0.0061999  0.0064171  0.4015968  )
        34           Co  tau(  34) = (  0.0000000  0.0126169  0.5980003  )
        35           O   tau(  35) = (  0.0114961  0.4948124  0.5063494  )
        36           O   tau(  36) = (  0.0114961  0.4948124  0.2968442  )
        37           O   tau(  37) = (  0.0051979  0.2673486  0.4015968  )
        38           O   tau(  38) = (  0.0130029  0.2478461  0.5980003  )
        39           O   tau(  39) = (  0.0048226  0.0077944  0.3071422  )
        40           O   tau(  40) = (  0.0048226  0.0077944  0.4960513  )
        41           Sr  tau(  41) = (  0.2545482  0.2517602  0.3044833  )
        42           Sr  tau(  42) = (  0.2545482  0.2517602  0.4987103  )
        43           Co  tau(  43) = (  0.4989925  0.0073160  0.5980003  )
        44           Co  tau(  44) = (  0.4998370  0.0064714  0.4015968  )
        45           O   tau(  45) = (  0.5048017  0.0015068  0.3099459  )
        46           O   tau(  46) = (  0.5048017  0.0015068  0.4932477  )
        47           O   tau(  47) = (  0.2621260  0.0059111  0.5980003  )
        48           O   tau(  48) = (  0.2591051  0.0041689  0.4015968  )
        49           H   tau(  49) = (  0.0000000  0.9951520  0.8534850  )

     number of k points=    10  Gaussian smearing, width (Ry)=  0.0700
                       cart. coord. in units 2pi/alat
        k(    1) = (   0.0000000   0.0000000   0.0000000), wk =   0.1250000
        k(    2) = (   0.0000000   0.2500000   0.0000000), wk =   0.2500000
        k(    3) = (   0.0000000  -0.5000000   0.0000000), wk =   0.1250000
        k(    4) = (   0.2500000   0.2500000   0.0000000), wk =   0.2500000
        k(    5) = (   0.2500000  -0.5000000   0.0000000), wk =   0.2500000
        k(    6) = (  -0.5000000  -0.5000000   0.0000000), wk =   0.1250000
        k(    7) = (   0.2500000   0.0000000   0.0000000), wk =   0.2500000
        k(    8) = (  -0.5000000   0.0000000   0.0000000), wk =   0.1250000
        k(    9) = (  -0.2500000   0.2500000   0.0000000), wk =   0.2500000
        k(   10) = (  -0.5000000   0.2500000   0.0000000), wk =   0.2500000

                       cryst. coord.
        k(    1) = (   0.0000000   0.0000000   0.0000000), wk =   0.1250000
        k(    2) = (   0.0000000   0.2500000   0.0000000), wk =   0.2500000
        k(    3) = (   0.0000000  -0.5000000   0.0000000), wk =   0.1250000
        k(    4) = (   0.2500000   0.2500000   0.0000000), wk =   0.2500000
        k(    5) = (   0.2500000  -0.5000000   0.0000000), wk =   0.2500000
        k(    6) = (  -0.5000000  -0.5000000   0.0000000), wk =   0.1250000
        k(    7) = (   0.2500000   0.0000000   0.0000000), wk =   0.2500000
        k(    8) = (  -0.5000000   0.0000000   0.0000000), wk =   0.1250000
        k(    9) = (  -0.2500000   0.2500000   0.0000000), wk =   0.2500000
        k(   10) = (  -0.5000000   0.2500000   0.0000000), wk =   0.2500000

     Dense  grid:  1474595 G-vectors     FFT dimensions: ( 108, 108, 270)

     Smooth grid:   521381 G-vectors     FFT dimensions: (  75,  75, 192)

     Dynamical RAM for                 wfc:      10.61 MB

     Dynamical RAM for     wfc (w. buffer):      63.63 MB

     Dynamical RAM for           str. fact:       3.75 MB

     Dynamical RAM for           local pot:       0.00 MB

     Dynamical RAM for          nlocal pot:      24.28 MB

     Dynamical RAM for                qrad:       7.03 MB

     Dynamical RAM for          rho,v,vnew:       6.02 MB

     Dynamical RAM for               rhoin:       2.01 MB

     Dynamical RAM for            rho*nmix:      15.00 MB

     Dynamical RAM for           G-vectors:       3.68 MB

     Dynamical RAM for          h,s,v(r/c):       1.32 MB

     Dynamical RAM for          <psi|beta>:       2.29 MB

     Dynamical RAM for                 psi:      21.21 MB

     Dynamical RAM for                hpsi:      21.21 MB

     Dynamical RAM for                spsi:      21.21 MB

     Dynamical RAM for      wfcinit/wfcrot:      34.09 MB

     Dynamical RAM for           addusdens:     100.79 MB

     Estimated static dynamical RAM per process >     120.42 MB

     Estimated max dynamical RAM per process >     236.21 MB

     Estimated total dynamical RAM >      10.72 GB

     Check: negative core charge=   -0.000004

     Initial potential from superposition of free atoms

     starting charge     416.5961, renormalised to     425.0000

     negative rho (up, down):  7.827E-01 0.000E+00
     Starting wfcs are  373 randomized atomic wfcs
     Checking if some PAW data can be deallocated... 
       PAW data deallocated on   20 nodes for type:  2

     total cpu time spent up to now is        8.5 secs

     Self-consistent Calculation

     iteration #  1     ecut=    60.00 Ry     beta= 0.15
     Davidson diagonalization with overlap

---- Real-time Memory Report at c_bands before calling an iterative solver
             0 MiB given to the printing process from OS
             0 MiB allocation reported by mallinfo(arena+hblkhd)
        170505 MiB available memory on the node where the printing process lives
------------------
     ethr =  1.00E-02,  avg # of iterations =  2.0

     negative rho (up, down):  7.714E-01 0.000E+00

     total cpu time spent up to now is       22.9 secs

     total energy              =   -4404.68339932 Ry
     estimated scf accuracy    <      42.16099096 Ry

     iteration #  2     ecut=    60.00 Ry     beta= 0.15
     Davidson diagonalization with overlap

---- Real-time Memory Report at c_bands before calling an iterative solver
             0 MiB given to the printing process from OS
             0 MiB allocation reported by mallinfo(arena+hblkhd)
        170717 MiB available memory on the node where the printing process lives
------------------
     ethr =  9.92E-03,  avg # of iterations =  1.0

     negative rho (up, down):  7.531E-01 0.000E+00

     total cpu time spent up to now is       35.0 secs

     total energy              =   -4400.05038006 Ry
     estimated scf accuracy    <      26.33719872 Ry

     iteration #  3     ecut=    60.00 Ry     beta= 0.15
     Davidson diagonalization with overlap

---- Real-time Memory Report at c_bands before calling an iterative solver
             0 MiB given to the printing process from OS
             0 MiB allocation reported by mallinfo(arena+hblkhd)
        169918 MiB available memory on the node where the printing process lives
------------------
     ethr =  6.20E-03,  avg # of iterations =  2.0

     negative rho (up, down):  7.543E-01 0.000E+00

     total cpu time spent up to now is       48.4 secs

     total energy              =   -4402.39145358 Ry
     estimated scf accuracy    <      49.01173761 Ry

     iteration #  4     ecut=    60.00 Ry     beta= 0.15
     Davidson diagonalization with overlap

---- Real-time Memory Report at c_bands before calling an iterative solver
             0 MiB given to the printing process from OS
             0 MiB allocation reported by mallinfo(arena+hblkhd)
        169840 MiB available memory on the node where the printing process lives
------------------
     ethr =  6.20E-03,  avg # of iterations =  1.0

     negative rho (up, down):  7.411E-01 0.000E+00

     total cpu time spent up to now is       60.6 secs

     total energy              =   -4401.65625575 Ry
     estimated scf accuracy    <      29.57631495 Ry

     iteration #  5     ecut=    60.00 Ry     beta= 0.15
     Davidson diagonalization with overlap

---- Real-time Memory Report at c_bands before calling an iterative solver
             0 MiB given to the printing process from OS
             0 MiB allocation reported by mallinfo(arena+hblkhd)
        169825 MiB available memory on the node where the printing process lives
------------------
     ethr =  6.20E-03,  avg # of iterations =  1.0

     negative rho (up, down):  7.470E-01 0.000E+00

     total cpu time spent up to now is       72.6 secs

     total energy              =   -4399.98431218 Ry
     estimated scf accuracy    <      43.93471627 Ry

     iteration #  6     ecut=    60.00 Ry     beta= 0.15
     Davidson diagonalization with overlap

---- Real-time Memory Report at c_bands before calling an iterative solver
             0 MiB given to the printing process from OS
             0 MiB allocation reported by mallinfo(arena+hblkhd)
        169807 MiB available memory on the node where the printing process lives
------------------
     ethr =  6.20E-03,  avg # of iterations =  1.0

     negative rho (up, down):  7.427E-01 0.000E+00

     total cpu time spent up to now is       84.4 secs

     total energy              =   -4400.69186055 Ry
     estimated scf accuracy    <      11.46884660 Ry

     iteration #  7     ecut=    60.00 Ry     beta= 0.15
     Davidson diagonalization with overlap

---- Real-time Memory Report at c_bands before calling an iterative solver
             0 MiB given to the printing process from OS
             0 MiB allocation reported by mallinfo(arena+hblkhd)
        169791 MiB available memory on the node where the printing process lives
------------------
     ethr =  2.70E-03,  avg # of iterations =  1.1

     negative rho (up, down):  7.446E-01 0.000E+00

     total cpu time spent up to now is       96.5 secs

     total energy              =   -4400.78831057 Ry
     estimated scf accuracy    <       4.13232131 Ry

     iteration #  8     ecut=    60.00 Ry     beta= 0.15
     Davidson diagonalization with overlap

---- Real-time Memory Report at c_bands before calling an iterative solver
             0 MiB given to the printing process from OS
             0 MiB allocation reported by mallinfo(arena+hblkhd)
        169769 MiB available memory on the node where the printing process lives
------------------
     ethr =  9.72E-04,  avg # of iterations =  2.1

     negative rho (up, down):  7.529E-01 0.000E+00

     total cpu time spent up to now is      109.1 secs

     total energy              =   -4400.40939068 Ry
     estimated scf accuracy    <       3.98635238 Ry

     iteration #  9     ecut=    60.00 Ry     beta= 0.15
     Davidson diagonalization with overlap

---- Real-time Memory Report at c_bands before calling an iterative solver
             0 MiB given to the printing process from OS
             0 MiB allocation reported by mallinfo(arena+hblkhd)
        169737 MiB available memory on the node where the printing process lives
------------------
     ethr =  9.38E-04,  avg # of iterations =  2.3

     negative rho (up, down):  7.762E-01 0.000E+00

     total cpu time spent up to now is      122.8 secs

     total energy              =   -4399.83506638 Ry
     estimated scf accuracy    <      39.73076073 Ry

     iteration # 10     ecut=    60.00 Ry     beta= 0.15
     Davidson diagonalization with overlap

---- Real-time Memory Report at c_bands before calling an iterative solver
             0 MiB given to the printing process from OS
             0 MiB allocation reported by mallinfo(arena+hblkhd)
        169671 MiB available memory on the node where the printing process lives
------------------
     ethr =  9.38E-04,  avg # of iterations =  9.4

     negative rho (up, down):  7.795E-01 0.000E+00

     total cpu time spent up to now is      140.5 secs

     total energy              =   -4399.78315226 Ry
     estimated scf accuracy    <      10.73181208 Ry

     iteration # 11     ecut=    60.00 Ry     beta= 0.15
     Davidson diagonalization with overlap

---- Real-time Memory Report at c_bands before calling an iterative solver
             0 MiB given to the printing process from OS
             0 MiB allocation reported by mallinfo(arena+hblkhd)
        169293 MiB available memory on the node where the printing process lives
------------------
     ethr =  9.38E-04,  avg # of iterations =  1.0

     negative rho (up, down):  7.817E-01 0.000E+00

     total cpu time spent up to now is      152.5 secs

     total energy              =   -4400.13748814 Ry
     estimated scf accuracy    <       1.24852510 Ry

     iteration # 12     ecut=    60.00 Ry     beta= 0.15
     Davidson diagonalization with overlap

---- Real-time Memory Report at c_bands before calling an iterative solver
             0 MiB given to the printing process from OS
             0 MiB allocation reported by mallinfo(arena+hblkhd)
        169309 MiB available memory on the node where the printing process lives
------------------
     ethr =  2.94E-04,  avg # of iterations =  1.5

     negative rho (up, down):  7.946E-01 0.000E+00

     total cpu time spent up to now is      165.2 secs

     total energy              =   -4400.06181173 Ry
     estimated scf accuracy    <       1.30099977 Ry

     iteration # 13     ecut=    60.00 Ry     beta= 0.15
     Davidson diagonalization with overlap

---- Real-time Memory Report at c_bands before calling an iterative solver
             0 MiB given to the printing process from OS
             0 MiB allocation reported by mallinfo(arena+hblkhd)
        169337 MiB available memory on the node where the printing process lives
------------------
     ethr =  2.94E-04,  avg # of iterations =  2.0

     negative rho (up, down):  7.995E-01 0.000E+00

     total cpu time spent up to now is      178.3 secs

     total energy              =   -4400.09470517 Ry
     estimated scf accuracy    <       2.06858507 Ry

     iteration # 14     ecut=    60.00 Ry     beta= 0.15
     Davidson diagonalization with overlap

---- Real-time Memory Report at c_bands before calling an iterative solver
             0 MiB given to the printing process from OS
             0 MiB allocation reported by mallinfo(arena+hblkhd)
        169337 MiB available memory on the node where the printing process lives
------------------
     ethr =  2.94E-04,  avg # of iterations =  6.4

     negative rho (up, down):  8.063E-01 0.000E+00

     total cpu time spent up to now is      193.4 secs

     total energy              =   -4399.96367331 Ry
     estimated scf accuracy    <       2.48002300 Ry

     iteration # 15     ecut=    60.00 Ry     beta= 0.15
     Davidson diagonalization with overlap

---- Real-time Memory Report at c_bands before calling an iterative solver
             0 MiB given to the printing process from OS
             0 MiB allocation reported by mallinfo(arena+hblkhd)
        169276 MiB available memory on the node where the printing process lives
------------------
     ethr =  2.94E-04,  avg # of iterations =  5.5

     negative rho (up, down):  8.061E-01 0.000E+00

     total cpu time spent up to now is      208.2 secs

     total energy              =   -4400.04313821 Ry
     estimated scf accuracy    <       0.80367790 Ry

     iteration # 16     ecut=    60.00 Ry     beta= 0.15
     Davidson diagonalization with overlap

---- Real-time Memory Report at c_bands before calling an iterative solver
             0 MiB given to the printing process from OS
             0 MiB allocation reported by mallinfo(arena+hblkhd)
        169273 MiB available memory on the node where the printing process lives
------------------
     ethr =  1.89E-04,  avg # of iterations =  1.2

     negative rho (up, down):  8.075E-01 0.000E+00

     total cpu time spent up to now is      220.4 secs

     total energy              =   -4400.00845194 Ry
     estimated scf accuracy    <       0.38591158 Ry

     iteration # 17     ecut=    60.00 Ry     beta= 0.15
     Davidson diagonalization with overlap

---- Real-time Memory Report at c_bands before calling an iterative solver
             0 MiB given to the printing process from OS
             0 MiB allocation reported by mallinfo(arena+hblkhd)
        169275 MiB available memory on the node where the printing process lives
------------------
     c_bands:  1 eigenvalues not converged
     ethr =  9.08E-05,  avg # of iterations =  7.7

     negative rho (up, down):  8.109E-01 0.000E+00

     total cpu time spent up to now is      235.9 secs

     total energy              =   -4399.99939463 Ry
     estimated scf accuracy    <       0.90197975 Ry

     iteration # 18     ecut=    60.00 Ry     beta= 0.15
     Davidson diagonalization with overlap

---- Real-time Memory Report at c_bands before calling an iterative solver
             0 MiB given to the printing process from OS
             0 MiB allocation reported by mallinfo(arena+hblkhd)
        169268 MiB available memory on the node where the printing process lives
------------------
     ethr =  9.08E-05,  avg # of iterations =  6.7

     negative rho (up, down):  8.141E-01 0.000E+00

     total cpu time spent up to now is      251.7 secs

     total energy              =   -4399.97029842 Ry
     estimated scf accuracy    <       0.26524282 Ry

     iteration # 19     ecut=    60.00 Ry     beta= 0.15
     Davidson diagonalization with overlap

---- Real-time Memory Report at c_bands before calling an iterative solver
             0 MiB given to the printing process from OS
             0 MiB allocation reported by mallinfo(arena+hblkhd)
        169332 MiB available memory on the node where the printing process lives
------------------
     ethr =  6.24E-05,  avg # of iterations =  9.1

     negative rho (up, down):  8.155E-01 0.000E+00

     total cpu time spent up to now is      268.5 secs

     total energy              =   -4399.93318315 Ry
     estimated scf accuracy    <       0.26260186 Ry

     iteration # 20     ecut=    60.00 Ry     beta= 0.15
     Davidson diagonalization with overlap

---- Real-time Memory Report at c_bands before calling an iterative solver
             0 MiB given to the printing process from OS
             0 MiB allocation reported by mallinfo(arena+hblkhd)
        169262 MiB available memory on the node where the printing process lives
------------------
     ethr =  6.18E-05,  avg # of iterations =  8.8

     negative rho (up, down):  8.353E-01 0.000E+00

     total cpu time spent up to now is      285.0 secs

     total energy              =   -4399.92866862 Ry
     estimated scf accuracy    <       0.09715396 Ry

     iteration # 21     ecut=    60.00 Ry     beta= 0.15
     Davidson diagonalization with overlap

---- Real-time Memory Report at c_bands before calling an iterative solver
             0 MiB given to the printing process from OS
             0 MiB allocation reported by mallinfo(arena+hblkhd)
        169216 MiB available memory on the node where the printing process lives
------------------
     ethr =  2.29E-05,  avg # of iterations =  7.3

     negative rho (up, down):  8.185E-01 0.000E+00

     total cpu time spent up to now is      301.5 secs

     total energy              =   -4399.92392462 Ry
     estimated scf accuracy    <       0.07220580 Ry

     iteration # 22     ecut=    60.00 Ry     beta= 0.15
     Davidson diagonalization with overlap

---- Real-time Memory Report at c_bands before calling an iterative solver
             0 MiB given to the printing process from OS
             0 MiB allocation reported by mallinfo(arena+hblkhd)
        169205 MiB available memory on the node where the printing process lives
------------------
     ethr =  1.70E-05,  avg # of iterations =  5.0

     negative rho (up, down):  8.081E-01 0.000E+00

     total cpu time spent up to now is      316.2 secs

     total energy              =   -4399.91544395 Ry
     estimated scf accuracy    <       0.05481038 Ry

     iteration # 23     ecut=    60.00 Ry     beta= 0.15
     Davidson diagonalization with overlap

---- Real-time Memory Report at c_bands before calling an iterative solver
             0 MiB given to the printing process from OS
             0 MiB allocation reported by mallinfo(arena+hblkhd)
        169209 MiB available memory on the node where the printing process lives
------------------
     c_bands:  1 eigenvalues not converged
     ethr =  1.29E-05,  avg # of iterations = 11.1

     negative rho (up, down):  8.096E-01 0.000E+00

     total cpu time spent up to now is      333.6 secs

     total energy              =   -4399.91114682 Ry
     estimated scf accuracy    <       0.03211971 Ry

     iteration # 24     ecut=    60.00 Ry     beta= 0.15
     Davidson diagonalization with overlap

---- Real-time Memory Report at c_bands before calling an iterative solver
             0 MiB given to the printing process from OS
             0 MiB allocation reported by mallinfo(arena+hblkhd)
        169203 MiB available memory on the node where the printing process lives
------------------
     ethr =  7.56E-06,  avg # of iterations = 13.7

     negative rho (up, down):  8.048E-01 0.000E+00

     total cpu time spent up to now is      352.8 secs

     total energy              =   -4399.91143931 Ry
     estimated scf accuracy    <       0.01741543 Ry

     iteration # 25     ecut=    60.00 Ry     beta= 0.15
     Davidson diagonalization with overlap

---- Real-time Memory Report at c_bands before calling an iterative solver
             0 MiB given to the printing process from OS
             0 MiB allocation reported by mallinfo(arena+hblkhd)
        169069 MiB available memory on the node where the printing process lives
------------------
     ethr =  4.10E-06,  avg # of iterations =  1.7

     negative rho (up, down):  7.996E-01 0.000E+00

     total cpu time spent up to now is      365.9 secs

     total energy              =   -4399.91049376 Ry
     estimated scf accuracy    <       0.01389758 Ry

     iteration # 26     ecut=    60.00 Ry     beta= 0.15
     Davidson diagonalization with overlap

---- Real-time Memory Report at c_bands before calling an iterative solver
             0 MiB given to the printing process from OS
             0 MiB allocation reported by mallinfo(arena+hblkhd)
        169100 MiB available memory on the node where the printing process lives
------------------
     ethr =  3.27E-06,  avg # of iterations =  7.5

     negative rho (up, down):  7.908E-01 0.000E+00

     total cpu time spent up to now is      382.3 secs

     total energy              =   -4399.91010552 Ry
     estimated scf accuracy    <       0.00875001 Ry

     iteration # 27     ecut=    60.00 Ry     beta= 0.15
     Davidson diagonalization with overlap

---- Real-time Memory Report at c_bands before calling an iterative solver
             0 MiB given to the printing process from OS
             0 MiB allocation reported by mallinfo(arena+hblkhd)
        169079 MiB available memory on the node where the printing process lives
------------------
     c_bands:  1 eigenvalues not converged
     ethr =  2.06E-06,  avg # of iterations = 10.1

     negative rho (up, down):  7.879E-01 0.000E+00

     total cpu time spent up to now is      399.7 secs

     total energy              =   -4399.90934481 Ry
     estimated scf accuracy    <       0.00592458 Ry

     iteration # 28     ecut=    60.00 Ry     beta= 0.15
     Davidson diagonalization with overlap

---- Real-time Memory Report at c_bands before calling an iterative solver
             0 MiB given to the printing process from OS
             0 MiB allocation reported by mallinfo(arena+hblkhd)
        169112 MiB available memory on the node where the printing process lives
------------------
     ethr =  1.39E-06,  avg # of iterations =  8.6

     negative rho (up, down):  7.907E-01 0.000E+00

     total cpu time spent up to now is      416.2 secs

     total energy              =   -4399.90913287 Ry
     estimated scf accuracy    <       0.00327638 Ry

     iteration # 29     ecut=    60.00 Ry     beta= 0.15
     Davidson diagonalization with overlap

---- Real-time Memory Report at c_bands before calling an iterative solver
             0 MiB given to the printing process from OS
             0 MiB allocation reported by mallinfo(arena+hblkhd)
        169024 MiB available memory on the node where the printing process lives
------------------
     c_bands:  1 eigenvalues not converged
     c_bands:  1 eigenvalues not converged
     ethr =  7.71E-07,  avg # of iterations =  9.2

     negative rho (up, down):  7.942E-01 0.000E+00

     total cpu time spent up to now is      433.0 secs

     total energy              =   -4399.90915414 Ry
     estimated scf accuracy    <       0.00151093 Ry

     iteration # 30     ecut=    60.00 Ry     beta= 0.15
     Davidson diagonalization with overlap

---- Real-time Memory Report at c_bands before calling an iterative solver
             0 MiB given to the printing process from OS
             0 MiB allocation reported by mallinfo(arena+hblkhd)
        169043 MiB available memory on the node where the printing process lives
------------------
     c_bands:  1 eigenvalues not converged
     ethr =  3.56E-07,  avg # of iterations = 11.5

     negative rho (up, down):  7.967E-01 0.000E+00

     total cpu time spent up to now is      450.5 secs

     total energy              =   -4399.90924477 Ry
     estimated scf accuracy    <       0.00046505 Ry

     iteration # 31     ecut=    60.00 Ry     beta= 0.15
     Davidson diagonalization with overlap

---- Real-time Memory Report at c_bands before calling an iterative solver
             0 MiB given to the printing process from OS
             0 MiB allocation reported by mallinfo(arena+hblkhd)
        169036 MiB available memory on the node where the printing process lives
------------------
     ethr =  1.09E-07,  avg # of iterations =  5.2

     negative rho (up, down):  7.972E-01 0.000E+00

     total cpu time spent up to now is      465.6 secs

     total energy              =   -4399.90927469 Ry
     estimated scf accuracy    <       0.00020691 Ry

     iteration # 32     ecut=    60.00 Ry     beta= 0.15
     Davidson diagonalization with overlap

---- Real-time Memory Report at c_bands before calling an iterative solver
             0 MiB given to the printing process from OS
             0 MiB allocation reported by mallinfo(arena+hblkhd)
        169068 MiB available memory on the node where the printing process lives
------------------
     ethr =  4.87E-08,  avg # of iterations =  2.1

     negative rho (up, down):  7.955E-01 0.000E+00

     total cpu time spent up to now is      479.0 secs

     total energy              =   -4399.90925031 Ry
     estimated scf accuracy    <       0.00011848 Ry

     iteration # 33     ecut=    60.00 Ry     beta= 0.15
     Davidson diagonalization with overlap

---- Real-time Memory Report at c_bands before calling an iterative solver
             0 MiB given to the printing process from OS
             0 MiB allocation reported by mallinfo(arena+hblkhd)
        169191 MiB available memory on the node where the printing process lives
------------------
     ethr =  2.79E-08,  avg # of iterations =  2.0

     negative rho (up, down):  7.935E-01 0.000E+00

     total cpu time spent up to now is      492.6 secs

     total energy              =   -4399.90924300 Ry
     estimated scf accuracy    <       0.00006854 Ry

     iteration # 34     ecut=    60.00 Ry     beta= 0.15
     Davidson diagonalization with overlap

---- Real-time Memory Report at c_bands before calling an iterative solver
             0 MiB given to the printing process from OS
             0 MiB allocation reported by mallinfo(arena+hblkhd)
        169182 MiB available memory on the node where the printing process lives
------------------
     ethr =  1.61E-08,  avg # of iterations =  3.0

     negative rho (up, down):  7.928E-01 0.000E+00

     total cpu time spent up to now is      506.9 secs

     total energy              =   -4399.90925290 Ry
     estimated scf accuracy    <       0.00002429 Ry

     iteration # 35     ecut=    60.00 Ry     beta= 0.15
     Davidson diagonalization with overlap

---- Real-time Memory Report at c_bands before calling an iterative solver
             0 MiB given to the printing process from OS
             0 MiB allocation reported by mallinfo(arena+hblkhd)
        169172 MiB available memory on the node where the printing process lives
------------------
     ethr =  5.71E-09,  avg # of iterations =  4.0

     negative rho (up, down):  7.925E-01 0.000E+00

     total cpu time spent up to now is      521.7 secs

     total energy              =   -4399.90925703 Ry
     estimated scf accuracy    <       0.00001109 Ry

     iteration # 36     ecut=    60.00 Ry     beta= 0.15
     Davidson diagonalization with overlap

---- Real-time Memory Report at c_bands before calling an iterative solver
             0 MiB given to the printing process from OS
             0 MiB allocation reported by mallinfo(arena+hblkhd)
        169144 MiB available memory on the node where the printing process lives
------------------
     ethr =  2.61E-09,  avg # of iterations =  2.7

     negative rho (up, down):  7.924E-01 0.000E+00

     total cpu time spent up to now is      535.8 secs

     total energy              =   -4399.90925881 Ry
     estimated scf accuracy    <       0.00000654 Ry

     iteration # 37     ecut=    60.00 Ry     beta= 0.15
     Davidson diagonalization with overlap

---- Real-time Memory Report at c_bands before calling an iterative solver
             0 MiB given to the printing process from OS
             0 MiB allocation reported by mallinfo(arena+hblkhd)
        169145 MiB available memory on the node where the printing process lives
------------------
     ethr =  1.54E-09,  avg # of iterations =  3.2

     negative rho (up, down):  7.923E-01 0.000E+00

     total cpu time spent up to now is      549.6 secs

     total energy              =   -4399.90925907 Ry
     estimated scf accuracy    <       0.00000437 Ry

     iteration # 38     ecut=    60.00 Ry     beta= 0.15
     Davidson diagonalization with overlap

---- Real-time Memory Report at c_bands before calling an iterative solver
             0 MiB given to the printing process from OS
             0 MiB allocation reported by mallinfo(arena+hblkhd)
        169180 MiB available memory on the node where the printing process lives
------------------
     ethr =  1.03E-09,  avg # of iterations =  2.9

     negative rho (up, down):  7.922E-01 0.000E+00

     total cpu time spent up to now is      563.3 secs

     total energy              =   -4399.90925863 Ry
     estimated scf accuracy    <       0.00000323 Ry

     iteration # 39     ecut=    60.00 Ry     beta= 0.15
     Davidson diagonalization with overlap

---- Real-time Memory Report at c_bands before calling an iterative solver
             0 MiB given to the printing process from OS
             0 MiB allocation reported by mallinfo(arena+hblkhd)
        169198 MiB available memory on the node where the printing process lives
------------------
     ethr =  7.59E-10,  avg # of iterations =  2.9

     negative rho (up, down):  7.923E-01 0.000E+00

     total cpu time spent up to now is      577.2 secs

     total energy              =   -4399.90925882 Ry
     estimated scf accuracy    <       0.00000224 Ry

     iteration # 40     ecut=    60.00 Ry     beta= 0.15
     Davidson diagonalization with overlap

---- Real-time Memory Report at c_bands before calling an iterative solver
             0 MiB given to the printing process from OS
             0 MiB allocation reported by mallinfo(arena+hblkhd)
        169174 MiB available memory on the node where the printing process lives
------------------
     ethr =  5.27E-10,  avg # of iterations =  2.2

     negative rho (up, down):  7.923E-01 0.000E+00

     total cpu time spent up to now is      590.8 secs

     total energy              =   -4399.90925971 Ry
     estimated scf accuracy    <       0.00000130 Ry

     iteration # 41     ecut=    60.00 Ry     beta= 0.15
     Davidson diagonalization with overlap

---- Real-time Memory Report at c_bands before calling an iterative solver
             0 MiB given to the printing process from OS
             0 MiB allocation reported by mallinfo(arena+hblkhd)
        169180 MiB available memory on the node where the printing process lives
------------------
     ethr =  3.07E-10,  avg # of iterations =  2.8

     negative rho (up, down):  7.924E-01 0.000E+00

     total cpu time spent up to now is      604.6 secs

     total energy              =   -4399.90926027 Ry
     estimated scf accuracy    <       0.00000089 Ry

     iteration # 42     ecut=    60.00 Ry     beta= 0.15
     Davidson diagonalization with overlap

---- Real-time Memory Report at c_bands before calling an iterative solver
             0 MiB given to the printing process from OS
             0 MiB allocation reported by mallinfo(arena+hblkhd)
        169196 MiB available memory on the node where the printing process lives
------------------
     ethr =  2.10E-10,  avg # of iterations =  2.9

     negative rho (up, down):  7.925E-01 0.000E+00

     total cpu time spent up to now is      618.4 secs

     total energy              =   -4399.90926041 Ry
     estimated scf accuracy    <       0.00000058 Ry

     iteration # 43     ecut=    60.00 Ry     beta= 0.15
     Davidson diagonalization with overlap

---- Real-time Memory Report at c_bands before calling an iterative solver
             0 MiB given to the printing process from OS
             0 MiB allocation reported by mallinfo(arena+hblkhd)
        169206 MiB available memory on the node where the printing process lives
------------------
     ethr =  1.37E-10,  avg # of iterations =  3.9

     negative rho (up, down):  7.925E-01 0.000E+00

     total cpu time spent up to now is      632.6 secs

     total energy              =   -4399.90926039 Ry
     estimated scf accuracy    <       0.00000034 Ry

     iteration # 44     ecut=    60.00 Ry     beta= 0.15
     Davidson diagonalization with overlap

---- Real-time Memory Report at c_bands before calling an iterative solver
             0 MiB given to the printing process from OS
             0 MiB allocation reported by mallinfo(arena+hblkhd)
        169197 MiB available memory on the node where the printing process lives
------------------
     ethr =  7.98E-11,  avg # of iterations =  2.8

     negative rho (up, down):  7.924E-01 0.000E+00

     total cpu time spent up to now is      646.3 secs

     total energy              =   -4399.90926041 Ry
     estimated scf accuracy    <       0.00000024 Ry

     iteration # 45     ecut=    60.00 Ry     beta= 0.15
     Davidson diagonalization with overlap

---- Real-time Memory Report at c_bands before calling an iterative solver
             0 MiB given to the printing process from OS
             0 MiB allocation reported by mallinfo(arena+hblkhd)
        169230 MiB available memory on the node where the printing process lives
------------------
     ethr =  5.73E-11,  avg # of iterations =  1.2

     negative rho (up, down):  7.924E-01 0.000E+00

     total cpu time spent up to now is      658.8 secs

     total energy              =   -4399.90926045 Ry
     estimated scf accuracy    <       0.00000022 Ry

     iteration # 46     ecut=    60.00 Ry     beta= 0.15
     Davidson diagonalization with overlap

---- Real-time Memory Report at c_bands before calling an iterative solver
             0 MiB given to the printing process from OS
             0 MiB allocation reported by mallinfo(arena+hblkhd)
        169226 MiB available memory on the node where the printing process lives
------------------
     ethr =  5.08E-11,  avg # of iterations =  2.1

     negative rho (up, down):  7.924E-01 0.000E+00

     total cpu time spent up to now is      672.2 secs

     total energy              =   -4399.90926048 Ry
     estimated scf accuracy    <       0.00000016 Ry

     iteration # 47     ecut=    60.00 Ry     beta= 0.15
     Davidson diagonalization with overlap

---- Real-time Memory Report at c_bands before calling an iterative solver
             0 MiB given to the printing process from OS
             0 MiB allocation reported by mallinfo(arena+hblkhd)
        169228 MiB available memory on the node where the printing process lives
------------------
     ethr =  3.84E-11,  avg # of iterations =  2.2

     negative rho (up, down):  7.924E-01 0.000E+00

     total cpu time spent up to now is      685.6 secs

     total energy              =   -4399.90926048 Ry
     estimated scf accuracy    <       0.00000010 Ry

     iteration # 48     ecut=    60.00 Ry     beta= 0.15
     Davidson diagonalization with overlap

---- Real-time Memory Report at c_bands before calling an iterative solver
             0 MiB given to the printing process from OS
             0 MiB allocation reported by mallinfo(arena+hblkhd)
        169232 MiB available memory on the node where the printing process lives
------------------
     ethr =  2.43E-11,  avg # of iterations =  2.3

     negative rho (up, down):  7.924E-01 0.000E+00

     total cpu time spent up to now is      699.2 secs

     total energy              =   -4399.90926050 Ry
     estimated scf accuracy    <       0.00000003 Ry

     iteration # 49     ecut=    60.00 Ry     beta= 0.15
     Davidson diagonalization with overlap

---- Real-time Memory Report at c_bands before calling an iterative solver
             0 MiB given to the printing process from OS
             0 MiB allocation reported by mallinfo(arena+hblkhd)
        169232 MiB available memory on the node where the printing process lives
------------------
     ethr =  6.04E-12,  avg # of iterations =  3.2

     negative rho (up, down):  7.924E-01 0.000E+00

     total cpu time spent up to now is      713.1 secs

     total energy              =   -4399.90926050 Ry
     estimated scf accuracy    <       0.00000001 Ry

     iteration # 50     ecut=    60.00 Ry     beta= 0.15
     Davidson diagonalization with overlap

---- Real-time Memory Report at c_bands before calling an iterative solver
             0 MiB given to the printing process from OS
             0 MiB allocation reported by mallinfo(arena+hblkhd)
        169229 MiB available memory on the node where the printing process lives
------------------
     ethr =  2.65E-12,  avg # of iterations =  2.2

     negative rho (up, down):  7.924E-01 0.000E+00

     total cpu time spent up to now is      726.5 secs

     End of self-consistent calculation

          k = 0.0000 0.0000 0.0000 ( 65197 PWs)   bands (ev):

   -92.7001 -92.6461 -92.5540 -92.5056 -92.4461 -92.4063 -92.3896 -92.2611
   -56.0535 -56.0329 -55.9114 -55.9008 -55.8941 -55.8876 -55.8516 -55.8233
   -55.8083 -55.8057 -55.7960 -55.7544 -55.7357 -55.6978 -55.6803 -55.6458
   -55.6414 -55.5951 -55.5917 -55.5887 -55.5833 -55.5317 -55.5199 -55.4310
   -31.2768 -31.2574 -31.1158 -31.0965 -31.0289 -31.0178 -30.9025 -30.7935
   -29.8491 -29.8058 -29.7800 -29.6716 -15.0814 -15.0436 -14.9590 -14.8282
   -14.6416 -14.5181 -14.2206 -14.2025 -14.1718 -14.1275 -14.0849 -14.0760
   -14.0621 -14.0466 -14.0264 -13.9889 -13.9309 -13.7819 -13.6084 -13.5706
   -13.5388 -13.5109 -13.4923 -13.4423 -13.4053 -13.3214 -13.2503 -13.1523
   -13.1144 -13.1097 -13.0947 -13.0746 -13.0568 -13.0225 -13.0044 -12.9912
   -12.9596 -12.9270 -12.9235 -12.9035 -12.8949 -12.8855 -12.8298 -12.8154
   -12.7933 -12.7328 -12.6954 -12.6829 -12.3415 -12.1960 -12.0648 -11.9917
   -11.8629 -11.7884 -11.7772 -11.7549 -11.7372 -11.6734 -11.6561 -11.6215
   -11.5924 -11.4811 -11.4008 -11.3971  -2.9429  -2.7099  -2.4800  -2.3344
    -2.2705  -2.1277  -1.8213  -1.8072  -1.7863  -1.7037  -1.6847  -1.6161
    -1.6002  -1.5586  -1.5113  -1.3333  -1.1095  -1.0805  -0.9307  -0.9170
    -0.8731  -0.8548  -0.8093  -0.7935  -0.7344  -0.7080  -0.6392  -0.6260
    -0.5473  -0.4171  -0.4032  -0.3757  -0.2944  -0.2856  -0.2726  -0.2012
    -0.1301  -0.1001  -0.0347  -0.0122   0.0439   0.1315   0.1786   0.2019
     0.2099   0.4661   0.4812   0.6520   0.7201   0.7829   0.8265   0.9190
     0.9336   0.9524   1.0189   1.0464   1.0808   1.1391   1.2729   1.3272
     1.3496   1.3703   1.3793   1.4462   1.5216   1.6199   1.6336   1.6918
     1.7105   1.7520   1.7733   1.7788   1.8307   1.8848   1.8961   1.9292
     1.9669   2.0228   2.1540   2.2335   2.2814   2.3039   2.4471   2.4627
     2.5067   2.5133   2.6224   2.6555   2.6828   2.7007   2.7156   2.7710
     2.8256   2.9050   2.9385   2.9512   2.9585   3.0249   3.0286   3.0538
     3.0619   3.0707   3.0876   3.0898   3.1038   3.1084   3.1248   3.1323
     3.1407   3.1569   3.1777   3.1838   3.1950   3.2212   3.3360   3.4586
     4.1172   4.4220   4.7653   4.8727   5.0374   5.8325   5.9267   5.9849
     6.0481   6.3153   6.3620   6.4862   6.4964   6.7269   7.0137   7.0978
     7.1025   7.1111   7.3146   7.5591   7.6560   7.6651   7.6974   7.9390
     8.0646   8.1178   8.1227   8.1406   8.3749   8.6299   8.7160   8.8246

     occupation numbers 
     1.0000   1.0000   1.0000   1.0000   1.0000   1.0000   1.0000   1.0000
     1.0000   1.0000   1.0000   1.0000   1.0000   1.0000   1.0000   1.0000
     1.0000   1.0000   1.0000   1.0000   1.0000   1.0000   1.0000   1.0000
     1.0000   1.0000   1.0000   1.0000   1.0000   1.0000   1.0000   1.0000
     1.0000   1.0000   1.0000   1.0000   1.0000   1.0000   1.0000   1.0000
     1.0000   1.0000   1.0000   1.0000   1.0000   1.0000   1.0000   1.0000
     1.0000   1.0000   1.0000   1.0000   1.0000   1.0000   1.0000   1.0000
     1.0000   1.0000   1.0000   1.0000   1.0000   1.0000   1.0000   1.0000
     1.0000   1.0000   1.0000   1.0000   1.0000   1.0000   1.0000   1.0000
     1.0000   1.0000   1.0000   1.0000   1.0000   1.0000   1.0000   1.0000
     1.0000   1.0000   1.0000   1.0000   1.0000   1.0000   1.0000   1.0000
     1.0000   1.0000   1.0000   1.0000   1.0000   1.0000   1.0000   1.0000
     1.0000   1.0000   1.0000   1.0000   1.0000   1.0000   1.0000   1.0000
     1.0000   1.0000   1.0000   1.0000   1.0000   1.0000   1.0000   1.0000
     1.0000   1.0000   1.0000   1.0000   1.0000   1.0000   1.0000   1.0000
     1.0000   1.0000   1.0000   1.0000   1.0000   1.0000   1.0000   1.0000
     1.0000   1.0000   1.0000   1.0000   1.0000   1.0000   1.0000   1.0000
     1.0000   1.0000   1.0000   1.0000   1.0000   1.0000   1.0000   1.0000
     1.0000   1.0000   1.0000   1.0000   1.0000   1.0000   1.0000   1.0000
     1.0000   1.0000   1.0000   1.0000   0.9999   0.9999   0.9999   0.9998
     0.9998   0.9998   0.9997   0.9996   0.9996   0.9994   0.9989   0.9985
     0.9983   0.9982   0.9981   0.9974   0.9963   0.9944   0.9941   0.9924
     0.9918   0.9903   0.9895   0.9893   0.9869   0.9839   0.9832   0.9811
     0.9783   0.9736   0.9593   0.9479   0.9398   0.9357   0.9044   0.9004
     0.8885   0.8867   0.8524   0.8408   0.8308   0.8240   0.8182   0.7957
     0.7719   0.7348   0.7182   0.7118   0.7081   0.6734   0.6714   0.6577
     0.6533   0.6485   0.6391   0.6379   0.6301   0.6275   0.6182   0.6140
     0.6092   0.5999   0.5879   0.5844   0.5779   0.5627   0.4949   0.4228
     0.1204   0.0520   0.0164   0.0109   0.0056   0.0001   0.0001   0.0000
     0.0000   0.0000   0.0000   0.0000   0.0000   0.0000   0.0000   0.0000
     0.0000   0.0000   0.0000   0.0000   0.0000   0.0000   0.0000   0.0000
     0.0000   0.0000   0.0000   0.0000   0.0000   0.0000   0.0000   0.0000

          k = 0.0000 0.2500 0.0000 ( 65257 PWs)   bands (ev):

   -92.7001 -92.6461 -92.5540 -92.5056 -92.4461 -92.4063 -92.3896 -92.2611
   -56.0535 -56.0329 -55.9114 -55.9008 -55.8941 -55.8876 -55.8516 -55.8233
   -55.8083 -55.8057 -55.7960 -55.7544 -55.7357 -55.6978 -55.6803 -55.6458
   -55.6414 -55.5951 -55.5917 -55.5887 -55.5833 -55.5317 -55.5199 -55.4310
   -31.2766 -31.2573 -31.1160 -31.0961 -31.0290 -31.0182 -30.9022 -30.7938
   -29.8485 -29.8054 -29.7806 -29.6720 -15.0445 -15.0175 -14.9340 -14.7989
   -14.6815 -14.5084 -14.3664 -14.1862 -14.1550 -14.1321 -14.1036 -14.0474
   -14.0412 -14.0265 -14.0099 -13.9682 -13.8505 -13.8128 -13.6481 -13.6342
   -13.5799 -13.5448 -13.5027 -13.4590 -13.4224 -13.3433 -13.3076 -13.2644
   -13.1982 -13.1470 -13.1089 -13.0996 -13.0796 -12.9956 -12.9727 -12.9477
   -12.9321 -12.9023 -12.8706 -12.8663 -12.8473 -12.8260 -12.7960 -12.7837
   -12.7626 -12.7259 -12.6055 -12.5308 -12.4028 -12.2472 -12.1214 -12.0587
   -11.8283 -11.7852 -11.7575 -11.7291 -11.7125 -11.6653 -11.6539 -11.6314
   -11.5974 -11.4954 -11.4424 -11.4318  -2.8077  -2.5856  -2.4480  -2.2662
    -2.2227  -2.0584  -1.8401  -1.7544  -1.7413  -1.6847  -1.5817  -1.5664
    -1.5301  -1.5057  -1.4619  -1.2645  -1.1361  -1.1242  -1.0476  -1.0373
    -0.9328  -0.9019  -0.8463  -0.8213  -0.7786  -0.7155  -0.6898  -0.6573
    -0.6273  -0.6101  -0.5768  -0.5026  -0.4509  -0.3878  -0.2767  -0.2567
    -0.2147  -0.0986  -0.0650   0.0013   0.0484   0.1131   0.1294   0.1574
     0.2132   0.5121   0.6012   0.6301   0.7201   0.7646   0.7822   0.9090
     0.9265   1.0190   1.0456   1.0738   1.1898   1.2789   1.3031   1.3265
     1.3459   1.3732   1.4325   1.4598   1.4861   1.5354   1.5682   1.5966
     1.6753   1.7091   1.7454   1.8025   1.8512   1.8889   1.9197   1.9523
     1.9701   2.0531   2.1874   2.2613   2.2858   2.3582   2.4032   2.4404
     2.4496   2.5139   2.5544   2.6400   2.6721   2.6906   2.7971   2.8663
     2.8966   2.9194   2.9420   2.9611   2.9689   2.9741   2.9876   3.0140
     3.0164   3.0352   3.0419   3.0517   3.0687   3.0838   3.0892   3.1085
     3.1188   3.1239   3.1584   3.1755   3.2410   3.5948   3.6625   3.8883
     4.3087   4.4185   4.7028   5.0197   5.0724   5.6338   5.7745   5.9240
     5.9762   6.0893   6.1295   6.1866   6.6039   6.8841   6.9071   7.1192
     7.2032   7.3346   7.4853   7.5003   7.6471   7.7413   7.8339   7.9153
     8.0356   8.0732   8.1731   8.2963   8.4114   8.4631   8.7505   8.8855

     occupation numbers 
     1.0000   1.0000   1.0000   1.0000   1.0000   1.0000   1.0000   1.0000
     1.0000   1.0000   1.0000   1.0000   1.0000   1.0000   1.0000   1.0000
     1.0000   1.0000   1.0000   1.0000   1.0000   1.0000   1.0000   1.0000
     1.0000   1.0000   1.0000   1.0000   1.0000   1.0000   1.0000   1.0000
     1.0000   1.0000   1.0000   1.0000   1.0000   1.0000   1.0000   1.0000
     1.0000   1.0000   1.0000   1.0000   1.0000   1.0000   1.0000   1.0000
     1.0000   1.0000   1.0000   1.0000   1.0000   1.0000   1.0000   1.0000
     1.0000   1.0000   1.0000   1.0000   1.0000   1.0000   1.0000   1.0000
     1.0000   1.0000   1.0000   1.0000   1.0000   1.0000   1.0000   1.0000
     1.0000   1.0000   1.0000   1.0000   1.0000   1.0000   1.0000   1.0000
     1.0000   1.0000   1.0000   1.0000   1.0000   1.0000   1.0000   1.0000
     1.0000   1.0000   1.0000   1.0000   1.0000   1.0000   1.0000   1.0000
     1.0000   1.0000   1.0000   1.0000   1.0000   1.0000   1.0000   1.0000
     1.0000   1.0000   1.0000   1.0000   1.0000   1.0000   1.0000   1.0000
     1.0000   1.0000   1.0000   1.0000   1.0000   1.0000   1.0000   1.0000
     1.0000   1.0000   1.0000   1.0000   1.0000   1.0000   1.0000   1.0000
     1.0000   1.0000   1.0000   1.0000   1.0000   1.0000   1.0000   1.0000
     1.0000   1.0000   1.0000   1.0000   1.0000   1.0000   1.0000   1.0000
     1.0000   1.0000   1.0000   1.0000   1.0000   1.0000   1.0000   1.0000
     1.0000   1.0000   1.0000   1.0000   0.9999   0.9999   0.9999   0.9998
     0.9998   0.9997   0.9996   0.9996   0.9992   0.9988   0.9987   0.9985
     0.9984   0.9981   0.9976   0.9972   0.9969   0.9961   0.9955   0.9949
     0.9929   0.9919   0.9906   0.9882   0.9858   0.9837   0.9817   0.9794
     0.9781   0.9708   0.9548   0.9433   0.9390   0.9250   0.9150   0.9061
     0.9038   0.8865   0.8745   0.8463   0.8347   0.8278   0.7845   0.7532
     0.7388   0.7277   0.7165   0.7067   0.7028   0.7001   0.6931   0.6792
     0.6779   0.6678   0.6642   0.6589   0.6496   0.6412   0.6382   0.6274
     0.6216   0.6188   0.5991   0.5893   0.5511   0.3457   0.3094   0.2025
     0.0725   0.0526   0.0206   0.0060   0.0048   0.0003   0.0001   0.0001
     0.0000   0.0000   0.0000   0.0000   0.0000   0.0000   0.0000   0.0000
     0.0000   0.0000   0.0000   0.0000   0.0000   0.0000   0.0000   0.0000
     0.0000   0.0000   0.0000   0.0000   0.0000   0.0000   0.0000   0.0000

          k = 0.0000-0.5000 0.0000 ( 65180 PWs)   bands (ev):

   -92.7001 -92.6461 -92.5540 -92.5056 -92.4461 -92.4063 -92.3896 -92.2611
   -56.0535 -56.0329 -55.9114 -55.9008 -55.8941 -55.8876 -55.8516 -55.8233
   -55.8083 -55.8057 -55.7960 -55.7544 -55.7357 -55.6978 -55.6803 -55.6458
   -55.6414 -55.5951 -55.5917 -55.5887 -55.5833 -55.5317 -55.5199 -55.4310
   -31.2765 -31.2571 -31.1162 -31.0957 -31.0292 -31.0186 -30.9019 -30.7941
   -29.8478 -29.8051 -29.7812 -29.6723 -15.0118 -14.9630 -14.9110 -14.7855
   -14.6976 -14.5602 -14.4116 -14.2879 -14.1569 -14.0923 -14.0493 -14.0380
   -13.9902 -13.9717 -13.9251 -13.9065 -13.8804 -13.8438 -13.8187 -13.7765
   -13.5833 -13.5263 -13.5110 -13.4558 -13.4305 -13.3581 -13.3326 -13.2822
   -13.2813 -13.2169 -13.1099 -13.0992 -13.0631 -13.0201 -12.9682 -12.9540
   -12.9280 -12.8817 -12.8671 -12.8445 -12.8226 -12.7711 -12.7429 -12.7335
   -12.7043 -12.6511 -12.5139 -12.4648 -12.3223 -12.3145 -12.2295 -12.1866
   -11.7821 -11.7800 -11.7526 -11.7149 -11.6807 -11.6696 -11.6271 -11.6231
   -11.5790 -11.5169 -11.5032 -11.4889  -2.5932  -2.5333  -2.3825  -2.3101
    -2.0296  -1.9454  -1.8184  -1.6801  -1.6442  -1.6241  -1.5435  -1.5140
    -1.4325  -1.3970  -1.3207  -1.2795  -1.2405  -1.2135  -1.1570  -1.1193
    -1.0735  -1.0370  -1.0032  -0.9696  -0.8592  -0.8140  -0.7807  -0.7796
    -0.6938  -0.6594  -0.6390  -0.5899  -0.5040  -0.4350  -0.3526  -0.3266
    -0.2200  -0.1751  -0.0293   0.0044   0.0301   0.0896   0.2009   0.2524
     0.3920   0.4578   0.4648   0.5938   0.6358   0.7391   0.8713   0.9804
     1.0109   1.0479   1.0520   1.0960   1.1098   1.1460   1.1614   1.1726
     1.2823   1.3430   1.3733   1.3989   1.6570   1.6885   1.7034   1.8060
     1.8319   1.8597   1.8745   1.9074   1.9156   1.9295   1.9607   1.9999
     2.0292   2.0552   2.0665   2.0952   2.1500   2.2291   2.2568   2.4428
     2.6029   2.6127   2.6333   2.6633   2.6685   2.6804   2.7312   2.7442
     2.7727   2.8018   2.8391   2.9045   2.9156   2.9772   2.9984   3.0093
     3.0126   3.0312   3.0392   3.0422   3.0450   3.0517   3.0737   3.0788
     3.0939   3.1434   3.1533   3.1651   3.2188   4.1278   4.1661   4.1733
     4.2559   4.7604   4.8950   5.0295   5.1497   5.4166   5.4664   5.5925
     5.6976   5.9840   6.0353   6.0476   6.7714   6.8603   6.9564   7.2249
     7.3130   7.3327   7.4122   7.4763   7.5988   7.7547   7.8073   7.9105
     8.0848   8.1820   8.3452   8.4934   8.6676   8.7013   8.8117   8.8334

     occupation numbers 
     1.0000   1.0000   1.0000   1.0000   1.0000   1.0000   1.0000   1.0000
     1.0000   1.0000   1.0000   1.0000   1.0000   1.0000   1.0000   1.0000
     1.0000   1.0000   1.0000   1.0000   1.0000   1.0000   1.0000   1.0000
     1.0000   1.0000   1.0000   1.0000   1.0000   1.0000   1.0000   1.0000
     1.0000   1.0000   1.0000   1.0000   1.0000   1.0000   1.0000   1.0000
     1.0000   1.0000   1.0000   1.0000   1.0000   1.0000   1.0000   1.0000
     1.0000   1.0000   1.0000   1.0000   1.0000   1.0000   1.0000   1.0000
     1.0000   1.0000   1.0000   1.0000   1.0000   1.0000   1.0000   1.0000
     1.0000   1.0000   1.0000   1.0000   1.0000   1.0000   1.0000   1.0000
     1.0000   1.0000   1.0000   1.0000   1.0000   1.0000   1.0000   1.0000
     1.0000   1.0000   1.0000   1.0000   1.0000   1.0000   1.0000   1.0000
     1.0000   1.0000   1.0000   1.0000   1.0000   1.0000   1.0000   1.0000
     1.0000   1.0000   1.0000   1.0000   1.0000   1.0000   1.0000   1.0000
     1.0000   1.0000   1.0000   1.0000   1.0000   1.0000   1.0000   1.0000
     1.0000   1.0000   1.0000   1.0000   1.0000   1.0000   1.0000   1.0000
     1.0000   1.0000   1.0000   1.0000   1.0000   1.0000   1.0000   1.0000
     1.0000   1.0000   1.0000   1.0000   1.0000   1.0000   1.0000   1.0000
     1.0000   1.0000   1.0000   1.0000   1.0000   1.0000   1.0000   1.0000
     1.0000   1.0000   1.0000   1.0000   1.0000   1.0000   1.0000   1.0000
     1.0000   1.0000   1.0000   1.0000   1.0000   0.9999   0.9999   0.9998
     0.9997   0.9996   0.9996   0.9995   0.9995   0.9994   0.9994   0.9993
     0.9988   0.9984   0.9981   0.9979   0.9934   0.9925   0.9921   0.9881
     0.9868   0.9854   0.9845   0.9825   0.9820   0.9810   0.9788   0.9756
     0.9731   0.9706   0.9694   0.9664   0.9598   0.9485   0.9441   0.9055
     0.8590   0.8557   0.8487   0.8380   0.8361   0.8317   0.8120   0.8067
     0.7950   0.7825   0.7658   0.7350   0.7296   0.6985   0.6874   0.6817
     0.6799   0.6700   0.6657   0.6641   0.6625   0.6589   0.6468   0.6440
     0.6356   0.6076   0.6020   0.5953   0.5641   0.1173   0.1065   0.1046
     0.0840   0.0167   0.0100   0.0057   0.0034   0.0010   0.0007   0.0004
     0.0002   0.0000   0.0000   0.0000   0.0000   0.0000   0.0000   0.0000
     0.0000   0.0000   0.0000   0.0000   0.0000   0.0000   0.0000   0.0000
     0.0000   0.0000   0.0000   0.0000   0.0000   0.0000   0.0000   0.0000

          k = 0.2500 0.2500 0.0000 ( 65198 PWs)   bands (ev):

   -92.7001 -92.6461 -92.5540 -92.5056 -92.4461 -92.4063 -92.3896 -92.2611
   -56.0535 -56.0329 -55.9114 -55.9008 -55.8941 -55.8876 -55.8516 -55.8233
   -55.8083 -55.8057 -55.7960 -55.7544 -55.7357 -55.6978 -55.6803 -55.6458
   -55.6414 -55.5951 -55.5917 -55.5887 -55.5833 -55.5317 -55.5199 -55.4310
   -31.2750 -31.2590 -31.1156 -31.0960 -31.0294 -31.0181 -30.9023 -30.7939
   -29.8475 -29.8064 -29.7802 -29.6724 -15.0163 -14.9820 -14.9062 -14.7887
   -14.6732 -14.5486 -14.4717 -14.2693 -14.1094 -14.0972 -14.0626 -14.0329
   -14.0118 -13.9868 -13.9559 -13.9299 -13.8424 -13.8266 -13.6643 -13.6516
   -13.6222 -13.6009 -13.5588 -13.5118 -13.4668 -13.4260 -13.3228 -13.2828
   -13.2292 -13.1419 -13.1016 -13.0585 -13.0418 -13.0184 -12.9890 -12.9527
   -12.9460 -12.9208 -12.8877 -12.8449 -12.8223 -12.7886 -12.7449 -12.7345
   -12.7250 -12.7122 -12.5485 -12.4514 -12.4283 -12.2763 -12.1519 -12.1075
   -11.8005 -11.7687 -11.7580 -11.7507 -11.6884 -11.6534 -11.6469 -11.6116
   -11.6036 -11.5120 -11.4706 -11.4532  -2.6695  -2.4598  -2.3420  -2.2487
    -2.1270  -2.0617  -1.8649  -1.7197  -1.6994  -1.6714  -1.5766  -1.5402
    -1.4488  -1.4217  -1.3713  -1.2397  -1.1922  -1.1195  -1.0745  -1.0303
    -1.0061  -0.9811  -0.9394  -0.9237  -0.8333  -0.7838  -0.7198  -0.6703
    -0.6411  -0.5890  -0.5773  -0.5139  -0.4637  -0.4088  -0.3720  -0.2882
    -0.2363  -0.2069  -0.1665  -0.1114  -0.0474  -0.0028   0.0246   0.0934
     0.1380   0.4054   0.5512   0.5893   0.6418   0.6854   0.7417   0.7967
     0.8581   0.8954   1.1690   1.2373   1.3111   1.3368   1.3839   1.4168
     1.4516   1.4881   1.5064   1.5342   1.5742   1.5853   1.6013   1.6452
     1.6873   1.7243   1.7714   1.8133   1.8234   1.8567   1.8913   1.9480
     1.9756   2.0965   2.1692   2.2066   2.2351   2.2996   2.3644   2.3932
     2.4305   2.4527   2.4662   2.5823   2.6158   2.7017   2.8299   2.8773
     2.8949   2.8994   2.9151   2.9302   2.9437   2.9554   2.9627   2.9741
     2.9874   2.9994   3.0207   3.0265   3.0381   3.0565   3.0701   3.0788
     3.1112   3.4122   3.5063   3.5465   3.6113   3.6631   3.8710   3.9558
     4.3062   4.5111   4.7147   4.9795   5.1750   5.6429   5.6943   5.7439
     5.8339   5.8942   6.0210   6.1732   6.2204   6.7140   6.9038   7.0523
     7.1309   7.5556   7.6036   7.6411   7.7157   7.8716   7.9102   8.1135
     8.1361   8.1774   8.3150   8.3427   8.4058   8.4511   8.5255   8.8433

     occupation numbers 
     1.0000   1.0000   1.0000   1.0000   1.0000   1.0000   1.0000   1.0000
     1.0000   1.0000   1.0000   1.0000   1.0000   1.0000   1.0000   1.0000
     1.0000   1.0000   1.0000   1.0000   1.0000   1.0000   1.0000   1.0000
     1.0000   1.0000   1.0000   1.0000   1.0000   1.0000   1.0000   1.0000
     1.0000   1.0000   1.0000   1.0000   1.0000   1.0000   1.0000   1.0000
     1.0000   1.0000   1.0000   1.0000   1.0000   1.0000   1.0000   1.0000
     1.0000   1.0000   1.0000   1.0000   1.0000   1.0000   1.0000   1.0000
     1.0000   1.0000   1.0000   1.0000   1.0000   1.0000   1.0000   1.0000
     1.0000   1.0000   1.0000   1.0000   1.0000   1.0000   1.0000   1.0000
     1.0000   1.0000   1.0000   1.0000   1.0000   1.0000   1.0000   1.0000
     1.0000   1.0000   1.0000   1.0000   1.0000   1.0000   1.0000   1.0000
     1.0000   1.0000   1.0000   1.0000   1.0000   1.0000   1.0000   1.0000
     1.0000   1.0000   1.0000   1.0000   1.0000   1.0000   1.0000   1.0000
     1.0000   1.0000   1.0000   1.0000   1.0000   1.0000   1.0000   1.0000
     1.0000   1.0000   1.0000   1.0000   1.0000   1.0000   1.0000   1.0000
     1.0000   1.0000   1.0000   1.0000   1.0000   1.0000   1.0000   1.0000
     1.0000   1.0000   1.0000   1.0000   1.0000   1.0000   1.0000   1.0000
     1.0000   1.0000   1.0000   1.0000   1.0000   1.0000   1.0000   1.0000
     1.0000   1.0000   1.0000   1.0000   1.0000   1.0000   1.0000   1.0000
     1.0000   1.0000   1.0000   1.0000   1.0000   1.0000   0.9999   0.9999
     0.9999   0.9998   0.9993   0.9990   0.9986   0.9984   0.9980   0.9977
     0.9973   0.9968   0.9966   0.9961   0.9954   0.9952   0.9948   0.9938
     0.9926   0.9914   0.9896   0.9877   0.9872   0.9855   0.9835   0.9797
     0.9776   0.9662   0.9573   0.9520   0.9476   0.9365   0.9236   0.9173
     0.9085   0.9030   0.8995   0.8657   0.8547   0.8236   0.7700   0.7481
     0.7396   0.7375   0.7298   0.7223   0.7156   0.7097   0.7060   0.7001
     0.6932   0.6869   0.6756   0.6725   0.6663   0.6562   0.6488   0.6440
     0.6259   0.4499   0.3953   0.3725   0.3367   0.3091   0.2098   0.1754
     0.0731   0.0394   0.0197   0.0071   0.0030   0.0003   0.0002   0.0002
     0.0001   0.0001   0.0000   0.0000   0.0000   0.0000   0.0000   0.0000
     0.0000   0.0000   0.0000   0.0000   0.0000   0.0000   0.0000   0.0000
     0.0000   0.0000   0.0000   0.0000   0.0000   0.0000   0.0000   0.0000

          k = 0.2500-0.5000 0.0000 ( 65138 PWs)   bands (ev):

   -92.7001 -92.6461 -92.5540 -92.5056 -92.4461 -92.4063 -92.3896 -92.2611
   -56.0535 -56.0329 -55.9114 -55.9008 -55.8941 -55.8876 -55.8516 -55.8233
   -55.8083 -55.8057 -55.7960 -55.7544 -55.7357 -55.6978 -55.6803 -55.6458
   -55.6414 -55.5951 -55.5917 -55.5887 -55.5833 -55.5317 -55.5199 -55.4310
   -31.2748 -31.2588 -31.1158 -31.0956 -31.0296 -31.0184 -30.9021 -30.7942
   -29.8469 -29.8061 -29.7808 -29.6727 -14.9815 -14.9361 -14.8679 -14.7544
   -14.7213 -14.6004 -14.5138 -14.3852 -14.0735 -14.0246 -13.9962 -13.9754
   -13.9590 -13.9437 -13.9102 -13.8946 -13.8610 -13.8194 -13.8019 -13.7694
   -13.6662 -13.6173 -13.5761 -13.5375 -13.4872 -13.4656 -13.3764 -13.3378
   -13.2060 -13.1414 -13.1216 -13.0405 -13.0207 -13.0007 -12.9844 -12.9642
   -12.9424 -12.9115 -12.8721 -12.8398 -12.8240 -12.7891 -12.7570 -12.7392
   -12.6546 -12.6232 -12.5206 -12.4425 -12.3198 -12.2877 -12.2204 -12.1902
   -11.7760 -11.7641 -11.7531 -11.7259 -11.6945 -11.6660 -11.6249 -11.5973
   -11.5752 -11.5301 -11.5042 -11.4930  -2.4516  -2.3853  -2.2564  -2.1789
    -2.0501  -1.9653  -1.8429  -1.6916  -1.6389  -1.6164  -1.5527  -1.5393
    -1.4432  -1.3763  -1.2907  -1.2423  -1.2328  -1.1683  -1.1270  -1.0917
    -1.0447  -1.0079  -0.9732  -0.9327  -0.9220  -0.8762  -0.8475  -0.8061
    -0.7755  -0.7073  -0.6065  -0.5668  -0.4891  -0.4251  -0.3779  -0.3335
    -0.3114  -0.2635  -0.0998  -0.0900   0.0165   0.0536   0.0623   0.1081
     0.1336   0.1732   0.2002   0.2742   0.5389   0.6304   0.7052   0.7636
     1.0261   1.0534   1.1412   1.1670   1.3345   1.3678   1.4106   1.4324
     1.4494   1.4698   1.5307   1.5769   1.6130   1.6944   1.7746   1.8158
     1.8408   1.8497   1.8845   1.8998   1.9055   1.9481   1.9625   1.9786
     2.0203   2.0312   2.0577   2.0897   2.1486   2.1835   2.2635   2.4045
     2.5559   2.5734   2.5916   2.6165   2.6417   2.6673   2.6914   2.7023
     2.7278   2.7906   2.8521   2.8794   2.8949   2.9106   2.9256   2.9332
     2.9481   2.9659   2.9732   3.0039   3.0173   3.0319   3.0415   3.0514
     3.0621   3.5883   3.6099   3.7433   3.7918   4.1347   4.1770   4.2073
     4.3135   4.7774   4.9184   5.0659   5.1252   5.3050   5.4332   5.6060
     5.6244   5.7657   5.7864   6.0944   6.4011   6.4923   6.6734   6.9557
     7.4373   7.5155   7.6257   7.7081   7.8150   7.8808   8.0436   8.1137
     8.2820   8.3709   8.4203   8.5214   8.5441   8.5502   8.7149   8.7703

     occupation numbers 
     1.0000   1.0000   1.0000   1.0000   1.0000   1.0000   1.0000   1.0000
     1.0000   1.0000   1.0000   1.0000   1.0000   1.0000   1.0000   1.0000
     1.0000   1.0000   1.0000   1.0000   1.0000   1.0000   1.0000   1.0000
     1.0000   1.0000   1.0000   1.0000   1.0000   1.0000   1.0000   1.0000
     1.0000   1.0000   1.0000   1.0000   1.0000   1.0000   1.0000   1.0000
     1.0000   1.0000   1.0000   1.0000   1.0000   1.0000   1.0000   1.0000
     1.0000   1.0000   1.0000   1.0000   1.0000   1.0000   1.0000   1.0000
     1.0000   1.0000   1.0000   1.0000   1.0000   1.0000   1.0000   1.0000
     1.0000   1.0000   1.0000   1.0000   1.0000   1.0000   1.0000   1.0000
     1.0000   1.0000   1.0000   1.0000   1.0000   1.0000   1.0000   1.0000
     1.0000   1.0000   1.0000   1.0000   1.0000   1.0000   1.0000   1.0000
     1.0000   1.0000   1.0000   1.0000   1.0000   1.0000   1.0000   1.0000
     1.0000   1.0000   1.0000   1.0000   1.0000   1.0000   1.0000   1.0000
     1.0000   1.0000   1.0000   1.0000   1.0000   1.0000   1.0000   1.0000
     1.0000   1.0000   1.0000   1.0000   1.0000   1.0000   1.0000   1.0000
     1.0000   1.0000   1.0000   1.0000   1.0000   1.0000   1.0000   1.0000
     1.0000   1.0000   1.0000   1.0000   1.0000   1.0000   1.0000   1.0000
     1.0000   1.0000   1.0000   1.0000   1.0000   1.0000   1.0000   1.0000
     1.0000   1.0000   1.0000   1.0000   1.0000   1.0000   1.0000   1.0000
     1.0000   1.0000   1.0000   1.0000   1.0000   1.0000   1.0000   0.9999
     0.9997   0.9996   0.9994   0.9993   0.9985   0.9982   0.9978   0.9976
     0.9974   0.9971   0.9962   0.9953   0.9945   0.9923   0.9894   0.9876
     0.9864   0.9859   0.9839   0.9830   0.9826   0.9797   0.9787   0.9774
     0.9739   0.9729   0.9703   0.9670   0.9600   0.9553   0.9429   0.9147
     0.8740   0.8686   0.8627   0.8544   0.8457   0.8365   0.8275   0.8233
     0.8134   0.7873   0.7598   0.7471   0.7396   0.7320   0.7247   0.7208
     0.7134   0.7043   0.7005   0.6845   0.6774   0.6696   0.6644   0.6590
     0.6532   0.3493   0.3375   0.2684   0.2452   0.1153   0.1036   0.0957
     0.0716   0.0157   0.0091   0.0049   0.0038   0.0017   0.0009   0.0004
     0.0003   0.0001   0.0001   0.0000   0.0000   0.0000   0.0000   0.0000
     0.0000   0.0000   0.0000   0.0000   0.0000   0.0000   0.0000   0.0000
     0.0000   0.0000   0.0000   0.0000   0.0000   0.0000   0.0000   0.0000

          k =-0.5000-0.5000 0.0000 ( 65132 PWs)   bands (ev):

   -92.7001 -92.6461 -92.5540 -92.5056 -92.4461 -92.4063 -92.3896 -92.2611
   -56.0535 -56.0329 -55.9114 -55.9008 -55.8941 -55.8876 -55.8516 -55.8233
   -55.8083 -55.8057 -55.7960 -55.7544 -55.7357 -55.6978 -55.6803 -55.6458
   -55.6414 -55.5951 -55.5917 -55.5887 -55.5833 -55.5317 -55.5199 -55.4310
   -31.2726 -31.2610 -31.1154 -31.0954 -31.0300 -31.0183 -30.9022 -30.7944
   -29.8458 -29.8072 -29.7804 -29.6731 -14.9356 -14.9087 -14.7914 -14.7799
   -14.6866 -14.6477 -14.6173 -14.4850 -13.9863 -13.9748 -13.9396 -13.9214
   -13.9035 -13.8929 -13.8608 -13.8503 -13.8371 -13.8291 -13.8133 -13.7346
   -13.7270 -13.7016 -13.6712 -13.6627 -13.5616 -13.5532 -13.4218 -13.3834
   -13.1571 -13.1189 -13.0496 -13.0249 -13.0017 -12.9944 -12.9835 -12.9749
   -12.9579 -12.9454 -12.8574 -12.8381 -12.8292 -12.8074 -12.7692 -12.7551
   -12.6045 -12.5963 -12.5370 -12.4221 -12.3162 -12.2573 -12.2142 -12.1950
   -11.7725 -11.7602 -11.7424 -11.7257 -11.6908 -11.6732 -11.6383 -11.5776
   -11.5574 -11.5522 -11.5019 -11.4989  -2.2280  -2.1519  -2.1421  -2.0675
    -2.0302  -1.9523  -1.8845  -1.7586  -1.6420  -1.6125  -1.5731  -1.5154
    -1.4436  -1.4296  -1.3582  -1.3148  -1.1992  -1.1712  -1.1226  -1.0919
    -1.0280  -0.9832  -0.9644  -0.9525  -0.8997  -0.8526  -0.8394  -0.7261
    -0.6686  -0.6222  -0.5721  -0.5459  -0.5346  -0.4988  -0.4576  -0.4238
    -0.4114  -0.3252  -0.2604  -0.2104  -0.1894  -0.1125  -0.0615  -0.0459
     0.0105   0.0370   0.0484   0.0669   0.5090   0.5456   0.6544   0.6717
     1.0597   1.0728   1.1041   1.1440   1.4191   1.4391   1.4457   1.4836
     1.6147   1.7106   1.7370   1.7721   1.7860   1.8145   1.8236   1.8556
     1.8629   1.8735   1.8882   1.9469   1.9479   1.9773   1.9852   2.0089
     2.0210   2.0586   2.0888   2.1006   2.1328   2.1624   2.2301   2.2939
     2.5689   2.5997   2.6187   2.6378   2.6494   2.6766   2.6808   2.7000
     2.7122   2.7274   2.7394   2.7602   2.7931   2.8298   2.8364   2.8570
     2.8699   2.8868   2.9008   2.9079   2.9438   3.0126   3.0167   3.0470
     3.0571   4.0238   4.0487   4.0570   4.0704   4.3232   4.4022   4.4191
     4.6593   4.7814   4.8648   4.9931   5.0755   5.1056   5.2054   5.2995
     5.3834   5.8534   5.8988   5.9584   6.0336   6.3645   6.4993   6.5833
     7.5969   7.8395   7.8723   7.8950   7.9135   7.9796   8.0157   8.0884
     8.2638   8.2871   8.5153   8.5766   8.5983   8.6229   8.6423   8.6627

     occupation numbers 
     1.0000   1.0000   1.0000   1.0000   1.0000   1.0000   1.0000   1.0000
     1.0000   1.0000   1.0000   1.0000   1.0000   1.0000   1.0000   1.0000
     1.0000   1.0000   1.0000   1.0000   1.0000   1.0000   1.0000   1.0000
     1.0000   1.0000   1.0000   1.0000   1.0000   1.0000   1.0000   1.0000
     1.0000   1.0000   1.0000   1.0000   1.0000   1.0000   1.0000   1.0000
     1.0000   1.0000   1.0000   1.0000   1.0000   1.0000   1.0000   1.0000
     1.0000   1.0000   1.0000   1.0000   1.0000   1.0000   1.0000   1.0000
     1.0000   1.0000   1.0000   1.0000   1.0000   1.0000   1.0000   1.0000
     1.0000   1.0000   1.0000   1.0000   1.0000   1.0000   1.0000   1.0000
     1.0000   1.0000   1.0000   1.0000   1.0000   1.0000   1.0000   1.0000
     1.0000   1.0000   1.0000   1.0000   1.0000   1.0000   1.0000   1.0000
     1.0000   1.0000   1.0000   1.0000   1.0000   1.0000   1.0000   1.0000
     1.0000   1.0000   1.0000   1.0000   1.0000   1.0000   1.0000   1.0000
     1.0000   1.0000   1.0000   1.0000   1.0000   1.0000   1.0000   1.0000
     1.0000   1.0000   1.0000   1.0000   1.0000   1.0000   1.0000   1.0000
     1.0000   1.0000   1.0000   1.0000   1.0000   1.0000   1.0000   1.0000
     1.0000   1.0000   1.0000   1.0000   1.0000   1.0000   1.0000   1.0000
     1.0000   1.0000   1.0000   1.0000   1.0000   1.0000   1.0000   1.0000
     1.0000   1.0000   1.0000   1.0000   1.0000   1.0000   1.0000   1.0000
     1.0000   1.0000   1.0000   1.0000   1.0000   1.0000   1.0000   1.0000
     0.9996   0.9996   0.9995   0.9994   0.9977   0.9975   0.9974   0.9969
     0.9945   0.9918   0.9909   0.9895   0.9890   0.9877   0.9872   0.9856
     0.9852   0.9846   0.9837   0.9798   0.9797   0.9775   0.9769   0.9749
     0.9738   0.9702   0.9671   0.9657   0.9620   0.9582   0.9484   0.9376
     0.8700   0.8600   0.8537   0.8471   0.8430   0.8331   0.8315   0.8242
     0.8195   0.8135   0.8087   0.8002   0.7862   0.7700   0.7670   0.7576
[...]
     0.7424   0.7308   0.7180   0.7152   0.7044   0.6988   0.6912   0.6805
     0.6778   0.6624   0.6587   0.6538   0.6472   0.6354   0.6210   0.6197
     0.6154   0.6099   0.6056   0.5992   0.5281   0.3499   0.3100   0.2052
     0.0780   0.0472   0.0221   0.0056   0.0050   0.0003   0.0001   0.0001
     0.0000   0.0000   0.0000   0.0000   0.0000   0.0000   0.0000   0.0000
     0.0000   0.0000   0.0000   0.0000   0.0000   0.0000   0.0000   0.0000
     0.0000   0.0000   0.0000   0.0000   0.0000   0.0000   0.0000   0.0000

          k =-0.5000 0.0000 0.0000 ( 65180 PWs)   bands (ev):

   -92.7001 -92.6461 -92.5540 -92.5056 -92.4461 -92.4063 -92.3896 -92.2611
   -56.0535 -56.0329 -55.9114 -55.9008 -55.8941 -55.8876 -55.8516 -55.8233
   -55.8083 -55.8057 -55.7960 -55.7544 -55.7357 -55.6978 -55.6803 -55.6458
   -55.6414 -55.5951 -55.5917 -55.5887 -55.5833 -55.5317 -55.5199 -55.4310
   -31.2730 -31.2613 -31.1150 -31.0962 -31.0297 -31.0175 -30.9028 -30.7938
   -29.8471 -29.8078 -29.7792 -29.6725 -15.0158 -14.9667 -14.9041 -14.7975
   -14.6905 -14.5460 -14.4054 -14.2633 -14.1331 -14.1264 -14.1077 -14.0554
   -13.9931 -13.9614 -13.9143 -13.9101 -13.8921 -13.8385 -13.8273 -13.7290
   -13.5545 -13.5360 -13.4947 -13.4871 -13.4461 -13.3640 -13.3288 -13.2672
   -13.2439 -13.2425 -13.0902 -13.0535 -13.0421 -13.0194 -13.0093 -13.0019
   -12.9459 -12.9270 -12.9015 -12.8870 -12.8080 -12.7415 -12.7091 -12.6963
   -12.6394 -12.6301 -12.5401 -12.4948 -12.3505 -12.3261 -12.2141 -12.1770
   -11.7794 -11.7581 -11.7513 -11.7366 -11.7186 -11.6774 -11.6142 -11.5967
   -11.5641 -11.5194 -11.5100 -11.4943  -2.5829  -2.5440  -2.3799  -2.3409
    -2.0286  -1.9531  -1.8044  -1.6869  -1.6479  -1.6007  -1.5536  -1.5282
    -1.4061  -1.3611  -1.3466  -1.2635  -1.2280  -1.2145  -1.1811  -1.1249
    -1.0558  -1.0254  -0.9988  -0.9047  -0.8553  -0.8071  -0.7739  -0.7526
    -0.7230  -0.6744  -0.6501  -0.6132  -0.5159  -0.4427  -0.3786  -0.3156
    -0.1613  -0.1122  -0.0571  -0.0292   0.0263   0.0539   0.1856   0.2215
     0.2666   0.4397   0.5385   0.5840   0.6652   0.7263   0.8559   0.8669
     0.9992   1.0283   1.0826   1.1099   1.1489   1.1589   1.2044   1.2298
     1.2936   1.3439   1.3910   1.3994   1.6924   1.6992   1.7141   1.7361
     1.8503   1.8638   1.8717   1.8856   1.9183   1.9313   1.9664   1.9959
     2.0128   2.0775   2.0861   2.1406   2.1594   2.2177   2.3334   2.4211
     2.5003   2.5144   2.6004   2.6270   2.6527   2.7101   2.7296   2.7385
     2.7670   2.7978   2.8612   2.8984   2.9253   2.9536   3.0025   3.0040
     3.0115   3.0205   3.0327   3.0439   3.0577   3.0658   3.0840   3.0925
     3.1095   3.1299   3.1342   3.2615   3.2787   4.1095   4.1309   4.1812
     4.3106   4.7911   4.8592   5.0457   5.0551   5.4969   5.5097   5.5975
     5.6434   6.0213   6.0298   6.0702   6.5949   6.8007   7.0115   7.2806
     7.3061   7.3519   7.4000   7.4571   7.5712   7.7766   7.8507   7.8894
     8.1187   8.2897   8.3102   8.5157   8.6317   8.7107   8.7629   8.8179

     occupation numbers 
     1.0000   1.0000   1.0000   1.0000   1.0000   1.0000   1.0000   1.0000
     1.0000   1.0000   1.0000   1.0000   1.0000   1.0000   1.0000   1.0000
     1.0000   1.0000   1.0000   1.0000   1.0000   1.0000   1.0000   1.0000
     1.0000   1.0000   1.0000   1.0000   1.0000   1.0000   1.0000   1.0000
     1.0000   1.0000   1.0000   1.0000   1.0000   1.0000   1.0000   1.0000
     1.0000   1.0000   1.0000   1.0000   1.0000   1.0000   1.0000   1.0000
     1.0000   1.0000   1.0000   1.0000   1.0000   1.0000   1.0000   1.0000
     1.0000   1.0000   1.0000   1.0000   1.0000   1.0000   1.0000   1.0000
     1.0000   1.0000   1.0000   1.0000   1.0000   1.0000   1.0000   1.0000
     1.0000   1.0000   1.0000   1.0000   1.0000   1.0000   1.0000   1.0000
     1.0000   1.0000   1.0000   1.0000   1.0000   1.0000   1.0000   1.0000
     1.0000   1.0000   1.0000   1.0000   1.0000   1.0000   1.0000   1.0000
     1.0000   1.0000   1.0000   1.0000   1.0000   1.0000   1.0000   1.0000
     1.0000   1.0000   1.0000   1.0000   1.0000   1.0000   1.0000   1.0000
     1.0000   1.0000   1.0000   1.0000   1.0000   1.0000   1.0000   1.0000
     1.0000   1.0000   1.0000   1.0000   1.0000   1.0000   1.0000   1.0000
     1.0000   1.0000   1.0000   1.0000   1.0000   1.0000   1.0000   1.0000
     1.0000   1.0000   1.0000   1.0000   1.0000   1.0000   1.0000   1.0000
     1.0000   1.0000   1.0000   1.0000   1.0000   1.0000   1.0000   1.0000
     1.0000   1.0000   1.0000   1.0000   1.0000   0.9999   0.9999   0.9999
     0.9997   0.9997   0.9996   0.9995   0.9994   0.9994   0.9992   0.9991
     0.9987   0.9984   0.9980   0.9979   0.9924   0.9922   0.9917   0.9909
     0.9859   0.9851   0.9847   0.9839   0.9818   0.9809   0.9784   0.9760
     0.9745   0.9683   0.9674   0.9610   0.9586   0.9503   0.9300   0.9108
     0.8903   0.8863   0.8598   0.8508   0.8418   0.8203   0.8127   0.8091
     0.7973   0.7842   0.7556   0.7379   0.7248   0.7106   0.6853   0.6845
     0.6805   0.6757   0.6691   0.6631   0.6556   0.6512   0.6411   0.6364
     0.6269   0.6154   0.6129   0.5390   0.5288   0.1228   0.1164   0.1025
     0.0722   0.0149   0.0115   0.0054   0.0052   0.0006   0.0006   0.0004
     0.0003   0.0000   0.0000   0.0000   0.0000   0.0000   0.0000   0.0000
     0.0000   0.0000   0.0000   0.0000   0.0000   0.0000   0.0000   0.0000
     0.0000   0.0000   0.0000   0.0000   0.0000   0.0000   0.0000   0.0000

          k =-0.2500 0.2500 0.0000 ( 65198 PWs)   bands (ev):

   -92.7001 -92.6461 -92.5540 -92.5056 -92.4461 -92.4063 -92.3896 -92.2611
   -56.0535 -56.0329 -55.9114 -55.9008 -55.8941 -55.8876 -55.8516 -55.8233
   -55.8083 -55.8057 -55.7960 -55.7544 -55.7357 -55.6978 -55.6803 -55.6458
   -55.6414 -55.5951 -55.5917 -55.5887 -55.5833 -55.5317 -55.5199 -55.4310
   -31.2750 -31.2590 -31.1156 -31.0960 -31.0294 -31.0181 -30.9023 -30.7939
   -29.8475 -29.8064 -29.7802 -29.6724 -15.0178 -14.9808 -14.9047 -14.7867
   -14.6796 -14.5532 -14.4635 -14.2607 -14.1169 -14.0868 -14.0752 -14.0286
   -14.0044 -13.9865 -13.9748 -13.9307 -13.8383 -13.8272 -13.6725 -13.6479
   -13.6205 -13.5980 -13.5615 -13.4983 -13.4585 -13.4349 -13.3302 -13.2830
   -13.2229 -13.1459 -13.1037 -13.0479 -13.0390 -13.0103 -12.9887 -12.9582
   -12.9337 -12.9273 -12.9096 -12.8509 -12.8318 -12.7826 -12.7692 -12.7368
   -12.7141 -12.6907 -12.5297 -12.4471 -12.4411 -12.2820 -12.1548 -12.1034
   -11.7998 -11.7780 -11.7510 -11.7387 -11.6980 -11.6631 -11.6402 -11.6186
   -11.5961 -11.5117 -11.4661 -11.4564  -2.6678  -2.4588  -2.3377  -2.2506
    -2.1312  -2.0643  -1.8625  -1.7165  -1.6971  -1.6694  -1.5772  -1.5389
    -1.4487  -1.4149  -1.3889  -1.2454  -1.1903  -1.1223  -1.0941  -1.0340
    -1.0116  -0.9713  -0.9423  -0.9026  -0.8398  -0.7928  -0.7309  -0.6617
    -0.6372  -0.5846  -0.5560  -0.5110  -0.4539  -0.4119  -0.3665  -0.2698
    -0.2351  -0.2269  -0.1795  -0.1140  -0.0487  -0.0006   0.0309   0.0961
     0.1363   0.3868   0.5538   0.5971   0.6335   0.6902   0.7417   0.7993
     0.8648   0.8934   1.1766   1.2880   1.3271   1.3603   1.3672   1.4092
     1.4266   1.4707   1.5013   1.5171   1.5431   1.5843   1.5980   1.6456
     1.6617   1.7074   1.7823   1.8050   1.8233   1.8624   1.8887   1.9282
     1.9830   2.0865   2.1968   2.2319   2.2793   2.2984   2.3622   2.4056
     2.4317   2.4531   2.4776   2.5836   2.6140   2.7021   2.8306   2.8830
     2.8916   2.9063   2.9160   2.9254   2.9389   2.9458   2.9633   2.9736
     2.9873   2.9987   3.0099   3.0206   3.0314   3.0584   3.0697   3.0784
     3.1128   3.4056   3.4884   3.5484   3.6233   3.6617   3.8584   3.9645
     4.3057   4.5084   4.7156   4.9894   5.1753   5.6440   5.6914   5.7460
     5.8314   5.8954   6.0232   6.1895   6.2020   6.7123   6.9026   7.0584
     7.1270   7.5691   7.6116   7.6426   7.6773   7.8776   7.9040   8.1334
     8.1412   8.1842   8.2999   8.3445   8.4177   8.4533   8.5209   8.8400

     occupation numbers 
     1.0000   1.0000   1.0000   1.0000   1.0000   1.0000   1.0000   1.0000
     1.0000   1.0000   1.0000   1.0000   1.0000   1.0000   1.0000   1.0000
     1.0000   1.0000   1.0000   1.0000   1.0000   1.0000   1.0000   1.0000
     1.0000   1.0000   1.0000   1.0000   1.0000   1.0000   1.0000   1.0000
     1.0000   1.0000   1.0000   1.0000   1.0000   1.0000   1.0000   1.0000
     1.0000   1.0000   1.0000   1.0000   1.0000   1.0000   1.0000   1.0000
     1.0000   1.0000   1.0000   1.0000   1.0000   1.0000   1.0000   1.0000
     1.0000   1.0000   1.0000   1.0000   1.0000   1.0000   1.0000   1.0000
     1.0000   1.0000   1.0000   1.0000   1.0000   1.0000   1.0000   1.0000
     1.0000   1.0000   1.0000   1.0000   1.0000   1.0000   1.0000   1.0000
     1.0000   1.0000   1.0000   1.0000   1.0000   1.0000   1.0000   1.0000
     1.0000   1.0000   1.0000   1.0000   1.0000   1.0000   1.0000   1.0000
     1.0000   1.0000   1.0000   1.0000   1.0000   1.0000   1.0000   1.0000
     1.0000   1.0000   1.0000   1.0000   1.0000   1.0000   1.0000   1.0000
     1.0000   1.0000   1.0000   1.0000   1.0000   1.0000   1.0000   1.0000
     1.0000   1.0000   1.0000   1.0000   1.0000   1.0000   1.0000   1.0000
     1.0000   1.0000   1.0000   1.0000   1.0000   1.0000   1.0000   1.0000
     1.0000   1.0000   1.0000   1.0000   1.0000   1.0000   1.0000   1.0000
     1.0000   1.0000   1.0000   1.0000   1.0000   1.0000   1.0000   1.0000
     1.0000   1.0000   1.0000   1.0000   1.0000   1.0000   0.9999   0.9999
     0.9999   0.9998   0.9993   0.9988   0.9985   0.9983   0.9982   0.9978
     0.9976   0.9971   0.9967   0.9964   0.9960   0.9952   0.9949   0.9937
     0.9933   0.9919   0.9891   0.9881   0.9872   0.9852   0.9837   0.9811
     0.9771   0.9673   0.9534   0.9481   0.9402   0.9367   0.9241   0.9145
     0.9082   0.9029   0.8965   0.8653   0.8553   0.8234   0.7697   0.7454
     0.7413   0.7341   0.7294   0.7248   0.7180   0.7145   0.7056   0.7003
     0.6932   0.6873   0.6813   0.6757   0.6699   0.6552   0.6490   0.6442
     0.6250   0.4538   0.4056   0.3714   0.3302   0.3098   0.2152   0.1721
     0.0732   0.0397   0.0196   0.0068   0.0030   0.0003   0.0002   0.0002
     0.0001   0.0001   0.0000   0.0000   0.0000   0.0000   0.0000   0.0000
     0.0000   0.0000   0.0000   0.0000   0.0000   0.0000   0.0000   0.0000
     0.0000   0.0000   0.0000   0.0000   0.0000   0.0000   0.0000   0.0000

          k =-0.5000 0.2500 0.0000 ( 65138 PWs)   bands (ev):

   -92.7001 -92.6461 -92.5540 -92.5056 -92.4461 -92.4063 -92.3896 -92.2611
   -56.0535 -56.0329 -55.9114 -55.9008 -55.8941 -55.8876 -55.8516 -55.8233
   -55.8083 -55.8057 -55.7960 -55.7544 -55.7357 -55.6978 -55.6803 -55.6458
   -55.6414 -55.5951 -55.5917 -55.5887 -55.5833 -55.5317 -55.5199 -55.4310
   -31.2728 -31.2611 -31.1152 -31.0958 -31.0298 -31.0179 -30.9025 -30.7941
   -29.8465 -29.8075 -29.7798 -29.6728 -14.9834 -14.9400 -14.8611 -14.7631
   -14.7199 -14.5926 -14.5089 -14.3796 -14.0675 -14.0373 -14.0255 -13.9812
   -13.9623 -13.9340 -13.9001 -13.8955 -13.8698 -13.8304 -13.8185 -13.7178
   -13.6376 -13.5946 -13.5874 -13.5754 -13.5026 -13.4682 -13.3721 -13.3193
   -13.1995 -13.1637 -13.0686 -13.0419 -13.0251 -13.0150 -12.9904 -12.9614
   -12.9467 -12.9379 -12.9189 -12.8453 -12.8206 -12.7710 -12.7374 -12.7253
   -12.6215 -12.6136 -12.5383 -12.4550 -12.3215 -12.3073 -12.2092 -12.1857
   -11.7722 -11.7596 -11.7454 -11.7336 -11.7123 -11.6822 -11.6014 -11.5928
   -11.5695 -11.5338 -11.5057 -11.4968  -2.4409  -2.3984  -2.2497  -2.2077
    -2.0478  -1.9716  -1.8286  -1.6930  -1.6364  -1.6082  -1.5700  -1.5306
    -1.4508  -1.3356  -1.2785  -1.2552  -1.2300  -1.1545  -1.1246  -1.0875
    -1.0687  -1.0083  -0.9804  -0.9402  -0.9048  -0.8763  -0.8186  -0.7924
    -0.7507  -0.7159  -0.6118  -0.5861  -0.4990  -0.4357  -0.4044  -0.3484
    -0.2617  -0.2311  -0.1288  -0.0968  -0.0327   0.0113   0.0375   0.1156
     0.1467   0.1790   0.2314   0.2680   0.5777   0.6260   0.7030   0.7182
     1.0083   1.0694   1.1422   1.1678   1.3476   1.3839   1.4211   1.4345
     1.4520   1.4702   1.5389   1.5819   1.6205   1.6493   1.7605   1.7995
     1.8405   1.8520   1.8831   1.9107   1.9260   1.9409   1.9613   1.9846
     2.0279   2.0505   2.0835   2.1066   2.1339   2.1983   2.3197   2.4168
     2.4450   2.5133   2.5534   2.6176   2.6499   2.6589   2.6929   2.7283
     2.7509   2.7908   2.8612   2.8904   2.8953   2.9081   2.9182   2.9429
     2.9538   2.9690   2.9814   3.0016   3.0150   3.0255   3.0344   3.0446
     3.0583   3.5968   3.6166   3.7791   3.7953   4.1088   4.1472   4.1972
     4.3988   4.7858   4.8775   5.0473   5.0787   5.4028   5.4319   5.5844
     5.6319   5.7447   5.7803   6.1691   6.3948   6.4487   6.5484   7.0620
     7.4372   7.5176   7.5812   7.7190   7.8004   7.8922   8.0271   8.1128
     8.3372   8.3855   8.4307   8.5009   8.5441   8.5802   8.6707   8.7481

     occupation numbers 
     1.0000   1.0000   1.0000   1.0000   1.0000   1.0000   1.0000   1.0000
     1.0000   1.0000   1.0000   1.0000   1.0000   1.0000   1.0000   1.0000
     1.0000   1.0000   1.0000   1.0000   1.0000   1.0000   1.0000   1.0000
     1.0000   1.0000   1.0000   1.0000   1.0000   1.0000   1.0000   1.0000
     1.0000   1.0000   1.0000   1.0000   1.0000   1.0000   1.0000   1.0000
     1.0000   1.0000   1.0000   1.0000   1.0000   1.0000   1.0000   1.0000
     1.0000   1.0000   1.0000   1.0000   1.0000   1.0000   1.0000   1.0000
     1.0000   1.0000   1.0000   1.0000   1.0000   1.0000   1.0000   1.0000
     1.0000   1.0000   1.0000   1.0000   1.0000   1.0000   1.0000   1.0000
     1.0000   1.0000   1.0000   1.0000   1.0000   1.0000   1.0000   1.0000
     1.0000   1.0000   1.0000   1.0000   1.0000   1.0000   1.0000   1.0000
     1.0000   1.0000   1.0000   1.0000   1.0000   1.0000   1.0000   1.0000
     1.0000   1.0000   1.0000   1.0000   1.0000   1.0000   1.0000   1.0000
     1.0000   1.0000   1.0000   1.0000   1.0000   1.0000   1.0000   1.0000
     1.0000   1.0000   1.0000   1.0000   1.0000   1.0000   1.0000   1.0000
     1.0000   1.0000   1.0000   1.0000   1.0000   1.0000   1.0000   1.0000
     1.0000   1.0000   1.0000   1.0000   1.0000   1.0000   1.0000   1.0000
     1.0000   1.0000   1.0000   1.0000   1.0000   1.0000   1.0000   1.0000
     1.0000   1.0000   1.0000   1.0000   1.0000   1.0000   1.0000   1.0000
     1.0000   1.0000   1.0000   1.0000   1.0000   1.0000   1.0000   0.9999
     0.9997   0.9996   0.9994   0.9993   0.9984   0.9980   0.9977   0.9975
     0.9973   0.9971   0.9960   0.9952   0.9944   0.9936   0.9900   0.9884
     0.9864   0.9858   0.9840   0.9823   0.9813   0.9802   0.9787   0.9769
     0.9732   0.9710   0.9676   0.9651   0.9618   0.9532   0.9327   0.9119
     0.9050   0.8866   0.8748   0.8541   0.8428   0.8396   0.8270   0.8132
     0.8040   0.7872   0.7556   0.7418   0.7395   0.7332   0.7283   0.7160
     0.7105   0.7027   0.6963   0.6857   0.6787   0.6731   0.6683   0.6627
     0.6553   0.3446   0.3338   0.2512   0.2436   0.1230   0.1118   0.0982
     0.0558   0.0152   0.0107   0.0053   0.0047   0.0010   0.0009   0.0004
     0.0003   0.0002   0.0001   0.0000   0.0000   0.0000   0.0000   0.0000
     0.0000   0.0000   0.0000   0.0000   0.0000   0.0000   0.0000   0.0000
     0.0000   0.0000   0.0000   0.0000   0.0000   0.0000   0.0000   0.0000

     the Fermi energy is     3.3274 ev

!    total energy              =   -4399.90926049 Ry
     estimated scf accuracy    <          7.3E-09 Ry
     smearing contrib. (-TS)   =      -1.14481076 Ry
     internal energy E=F+TS    =   -4398.76444973 Ry

     The total energy is F=E-TS. E is the sum of the following terms:
     one-electron contribution =  -21253.19108414 Ry
     hartree contribution      =   10754.67703928 Ry
     xc contribution           =    -686.72704138 Ry
     ewald contribution        =    7053.12196428 Ry
     one-center paw contrib.   =    -266.64532776 Ry
      -> PAW hartree energy AE =      25.18356259 Ry
      -> PAW hartree energy PS =     -25.06726583 Ry
      -> PAW xc energy AE      =     -16.52038099 Ry
      -> PAW xc energy PS      =       6.88000086 Ry
      -> total E_H with PAW    =   10754.79333604 Ry
      -> total E_XC with PAW   =    -696.36742152 Ry

     convergence has been achieved in  50 iterations

     Writing all to output data dir /bsuhome/zayahcortright/scratch/pwscf.save/
 
     init_run     :      7.33s CPU      8.11s WALL (       1 calls)
     electrons    :    705.99s CPU    718.16s WALL (       1 calls)

     Called by init_run:
     wfcinit      :      5.98s CPU      6.10s WALL (       1 calls)
     wfcinit:atom :      0.06s CPU      0.08s WALL (       5 calls)
     wfcinit:wfcr :      5.62s CPU      5.69s WALL (       5 calls)
     potinit      :      0.19s CPU      0.20s WALL (       1 calls)
     hinit0       :      0.30s CPU      0.86s WALL (       1 calls)

     Called by electrons:
     c_bands      :    557.73s CPU    562.35s WALL (      50 calls)
     sum_band     :    110.87s CPU    115.32s WALL (      50 calls)
     v_of_rho     :      5.50s CPU      5.73s WALL (      51 calls)
     v_h          :      0.49s CPU      0.49s WALL (      51 calls)
     v_xc         :      5.01s CPU      5.24s WALL (      51 calls)
     newd         :     17.13s CPU     19.63s WALL (      51 calls)
     PAW_pot      :      1.62s CPU      1.65s WALL (      51 calls)
     mix_rho      :     12.66s CPU     12.92s WALL (      50 calls)

     Called by c_bands:
     init_us_2    :      7.13s CPU      7.17s WALL (     505 calls)
     init_us_2:cp :      7.12s CPU      7.17s WALL (     505 calls)
     cegterg      :    523.83s CPU    528.29s WALL (     250 calls)

     Called by sum_band:
     sum_band:wei :      0.35s CPU      0.35s WALL (      50 calls)
     sum_band:loo :     90.46s CPU     91.12s WALL (      50 calls)
     sum_band:buf :      1.47s CPU      1.49s WALL (     250 calls)
     sum_band:ini :      3.42s CPU      3.44s WALL (     250 calls)
     sum_band:cal :     18.81s CPU     18.86s WALL (     250 calls)
     sum_band:bec :      0.55s CPU      0.56s WALL (     250 calls)
     addusdens    :     18.63s CPU     22.39s WALL (      50 calls)
                                        0.00s GPU  (      50 calls)
     addusd:skk   :      0.34s CPU      0.68s WALL (     200 calls)
                                        0.00s GPU  (     200 calls)

     Called by *egterg:
     cdiaghg      :     56.37s CPU     56.58s WALL (    1367 calls)
     cegterg:over :     38.08s CPU     38.20s WALL (    1117 calls)
     cegterg:upda :     27.83s CPU     28.15s WALL (    1117 calls)
     cegterg:last :     57.46s CPU     57.62s WALL (     452 calls)
     cdiaghg:chol :      3.12s CPU      3.14s WALL (    1367 calls)
     cdiaghg:inve :      3.60s CPU      3.61s WALL (    1367 calls)
     cdiaghg:para :      7.31s CPU      7.34s WALL (    2734 calls)
     h_psi        :    289.20s CPU    291.77s WALL (    1372 calls)
     s_psi        :     39.15s CPU     39.26s WALL (    1372 calls)
     g_psi        :      1.15s CPU      1.16s WALL (    1117 calls)

     Called by h_psi:
     h_psi:calbec :     43.26s CPU     43.40s WALL (    1372 calls)
     vloc_psi     :    203.65s CPU    205.54s WALL (    1372 calls)
     add_vuspsi   :     38.90s CPU     39.03s WALL (    1372 calls)

     General routines
     calbec       :     62.07s CPU     62.26s WALL (    1622 calls)
     fft          :      3.68s CPU      3.72s WALL (     661 calls)
     ffts         :      4.57s CPU      4.60s WALL (    5192 calls)
     fftw         :    173.07s CPU    174.44s WALL (  333288 calls)
     interpolate  :      0.41s CPU      0.41s WALL (      51 calls)
 
     Parallel routines

     PAW routines
     PAW_pot      :      1.62s CPU      1.65s WALL (      51 calls)
 
     PWSCF        :  11m54.70s CPU  12m10.67s WALL

 
   This run was terminated on:  13:33:50  21Jun2024            

=------------------------------------------------------------------------------=
   JOB DONE.
=------------------------------------------------------------------------------=
