
     Program PWSCF v.7.2 starts on 21Jun2024 at 17: 9:49 

     This program is part of the open-source Quantum ESPRESSO suite
     for quantum simulation of materials; please cite
         "P. Giannozzi et al., J. Phys.:Condens. Matter 21 395502 (2009);
         "P. Giannozzi et al., J. Phys.:Condens. Matter 29 465901 (2017);
         "P. Giannozzi et al., J. Chem. Phys. 152 154105 (2020);
          URL http://www.quantum-espresso.org", 
     in publications or presentations arising from this work. More details at
     http://www.quantum-espresso.org/quote

     Parallel version (MPI & OpenMP), running on      48 processor cores
     Number of MPI processes:                48
     Threads/MPI process:                     1

     MPI processes distributed on     1 nodes
     33226 MiB available memory on the printing compute node when the environment starts
 
     Reading input from espresso.pwi
Warning: card &CELL ignored
Warning: card / ignored
Warning: card &FCP ignored
Warning: card / ignored
Warning: card &RISM ignored
Warning: card / ignored

     Current dimensions of program PWSCF are:
     Max number of different atomic species (ntypx) = 10
     Max number of k-points (npk) =  40000
     Max angular momentum in pseudopotentials (lmaxx) =  4
     file O.pbe-n-kjpaw_psl.0.1.UPF: wavefunction(s)  2P renormalized
     signal trapping enabled: kill the code with -SIGUSR1 to stop cleanly the simulation 
 
     K-points division:     npool     =       2
     R & G space division:  proc/nbgrp/npool/nimage =      24
     Subspace diagonalization in iterative solution of the eigenvalue problem:
     one sub-group per band group will be used
     scalapack distributed-memory algorithm (size of sub-group:  3*  3 procs)

 
     Parallelization info
     --------------------
     sticks:   dense  smooth     PW     G-vecs:    dense   smooth      PW
     Min         350     175     47                61430    21716    3036
     Max         351     177     48                61449    21727    3041
     Sum        8421    4205   1137              1474595   521381   72913
 
     Using Slab Decomposition
 


     bravais-lattice index     =            0
     lattice parameter (alat)  =      14.8599  a.u.
     unit-cell volume          =    8305.1283 (a.u.)^3
     number of atoms/cell      =           50
     number of atomic types    =            4
     number of electrons       =       431.00
     number of Kohn-Sham states=          259
     kinetic-energy cutoff     =      60.0000  Ry
     charge density cutoff     =     480.0000  Ry
     scf convergence threshold =      1.0E-08
     mixing beta               =       0.1500
     number of iterations used =            8  local-TF  mixing
     Exchange-correlation= PBE
                           (   1   4   3   4   0   0   0)

     celldm(1)=  14.859904  celldm(2)=   0.000000  celldm(3)=   0.000000
     celldm(4)=   0.000000  celldm(5)=   0.000000  celldm(6)=   0.000000

     crystal axes: (cart. coord. in units of alat)
               a(1) = (   1.000000   0.000000   0.000000 )  
               a(2) = (   0.000000   1.000000   0.000000 )  
               a(3) = (   0.000000   0.000000   2.531036 )  

     reciprocal axes: (cart. coord. in units 2 pi/alat)
               b(1) = (  1.000000  0.000000  0.000000 )  
               b(2) = (  0.000000  1.000000  0.000000 )  
               b(3) = (  0.000000  0.000000  0.395095 )  


     PseudoPot. # 1 for Sr read from file:
     /bsuhome/zayahcortright/q-e/pseudo/Sr_pbe_v1.uspp.F.UPF
     MD5 check sum: 6b418c05fbe9db5448babca5e47b7a5b
     Pseudo is Ultrasoft + core correction, Zval = 10.0
     Generated by new atomic code, or converted to UPF format
     Using radial grid of  883 points,  6 beta functions with: 
                l(1) =   0
                l(2) =   0
                l(3) =   1
                l(4) =   1
                l(5) =   2
                l(6) =   2
     Q(r) pseudized with  6 coefficients,  rinner =    1.400   1.400   1.400
                                                       1.400   1.400

     PseudoPot. # 2 for O  read from file:
     /bsuhome/zayahcortright/q-e/pseudo/O.pbe-n-kjpaw_psl.0.1.UPF
     MD5 check sum: 0234752ac141de4415c5fc33072bef88
     Pseudo is Projector augmented-wave + core cor, Zval =  6.0
     Generated using "atomic" code by A. Dal Corso  v.5.0.99 svn rev. 10869
     Shape of augmentation charge: BESSEL
     Using radial grid of 1095 points,  4 beta functions with: 
                l(1) =   0
                l(2) =   0
                l(3) =   1
                l(4) =   1
     Q(r) pseudized with 0 coefficients 


     PseudoPot. # 3 for Co read from file:
     /bsuhome/zayahcortright/q-e/pseudo/Co_pbe_v1.2.uspp.F.UPF
     MD5 check sum: 5f91765df6ddd3222702df6e7b74a16d
     Pseudo is Ultrasoft + core correction, Zval = 17.0
     Generated by new atomic code, or converted to UPF format
     Using radial grid of  863 points,  6 beta functions with: 
                l(1) =   0
                l(2) =   0
                l(3) =   1
                l(4) =   1
                l(5) =   2
                l(6) =   2
     Q(r) pseudized with  8 coefficients,  rinner =    1.200   1.200   1.200
                                                       1.200   1.200

     PseudoPot. # 4 for H  read from file:
     /bsuhome/zayahcortright/q-e/pseudo/H.pbe-rrkjus_psl.1.0.0.UPF
     MD5 check sum: f52b6d4d1c606e5624b1dc7b2218f220
     Pseudo is Ultrasoft, Zval =  1.0
     Generated using "atomic" code by A. Dal Corso  v.5.1
     Using radial grid of  929 points,  2 beta functions with: 
                l(1) =   0
                l(2) =   0
     Q(r) pseudized with 0 coefficients 


     atomic species   valence    mass     pseudopotential
        Sr            10.00    87.62000     Sr( 1.00)
        O              6.00    15.99900     O ( 1.00)
        Co            17.00    58.93319     Co( 1.00)
        H              1.00     1.00800     H ( 1.00)

     No symmetry found


                                    s                        frac. trans.

      isym =  1     identity                                     

 cryst.   s( 1) = (     1          0          0      )
                  (     0          1          0      )
                  (     0          0          1      )

 cart.    s( 1) = (  1.0000000  0.0000000  0.0000000 )
                  (  0.0000000  1.0000000  0.0000000 )
                  (  0.0000000  0.0000000  1.0000000 )


   Cartesian axes

     site n.     atom                  positions (alat units)
         1           Sr  tau(   1) = (   0.2508693   0.7491307   1.7574407  )
         2           O   tau(   2) = (   0.4985141   0.5014859   1.7715967  )
         3           Sr  tau(   3) = (   0.7482398   0.7454518   1.7648669  )
         4           Sr  tau(   4) = (   0.7441748   0.2558252   1.7667843  )
         5           Sr  tau(   5) = (   0.2508693   0.7491307   1.2696799  )
         6           Sr  tau(   6) = (   0.2508693   0.7491307   0.7632319  )
         7           Co  tau(   7) = (   0.4998914   0.5001086   1.0164559  )
         8           Co  tau(   8) = (   0.4936915   0.5063085   1.5135603  )
         9           O   tau(   9) = (   0.4988895   0.7610401   1.0164559  )
        10           O   tau(  10) = (   0.2389599   0.5011105   1.0164559  )
        11           O   tau(  11) = (   0.0070918   0.7374880   1.0164559  )
        12           O   tau(  12) = (   0.0088340   0.7405089   1.5135603  )
        13           O   tau(  13) = (   0.5066944   0.7415376   1.5135603  )
        14           O   tau(  14) = (   0.2584624   0.4933056   1.5135603  )
        15           O   tau(  15) = (   0.4985141   0.5014859   0.7773880  )
        16           O   tau(  16) = (   0.4985141   0.5014859   1.2555238  )
        17           Sr  tau(  17) = (   0.7482398   0.7454518   0.7706582  )
        18           Sr  tau(  18) = (   0.7482398   0.7454518   1.2622536  )
        19           Sr  tau(  19) = (   0.7441748   0.2558252   0.7725755  )
        20           Sr  tau(  20) = (   0.7441748   0.2558252   1.2603363  )
        21           O   tau(  21) = (   0.7322655   0.0078049   1.5135603  )
        22           O   tau(  22) = (   0.7558175   0.4996027   1.5135603  )
        23           O   tau(  23) = (   0.5003973   0.2441825   1.5135603  )
        24           O   tau(  24) = (   0.7527966   0.4978604   1.0164559  )
        25           O   tau(  25) = (   0.5021396   0.2472034   1.0164559  )
        26           O   tau(  26) = (   0.7517679   0.0000000   1.0164559  )
        27           O   tau(  27) = (   0.0114961   0.4948124   1.7455321  )
        28           O   tau(  28) = (   0.0048226   0.0077944   1.7715967  )
        29           Sr  tau(  29) = (   0.2545482   0.2517602   1.7648669  )
        30           O   tau(  30) = (   0.5048017   0.0015068   1.7786929  )
        31           Co  tau(  31) = (   0.0056869   0.5006215   1.0164559  )
        32           Co  tau(  32) = (   0.0065315   0.4997770   1.5135603  )
        33           Co  tau(  33) = (   0.0061999   0.0064171   1.0164559  )
        34           Co  tau(  34) = (   0.0000000   0.0126169   1.5135603  )
        35           O   tau(  35) = (   0.0114961   0.4948124   1.2815885  )
        36           O   tau(  36) = (   0.0114961   0.4948124   0.7513233  )
        37           O   tau(  37) = (   0.0051979   0.2673486   1.0164559  )
        38           O   tau(  38) = (   0.0130029   0.2478461   1.5135603  )
        39           O   tau(  39) = (   0.0048226   0.0077944   0.7773880  )
        40           O   tau(  40) = (   0.0048226   0.0077944   1.2555238  )
        41           Sr  tau(  41) = (   0.2545482   0.2517602   0.7706582  )
        42           Sr  tau(  42) = (   0.2545482   0.2517602   1.2622536  )
        43           Co  tau(  43) = (   0.4989925   0.0073160   1.5135603  )
        44           Co  tau(  44) = (   0.4998370   0.0064714   1.0164559  )
        45           O   tau(  45) = (   0.5048017   0.0015068   0.7844841  )
        46           O   tau(  46) = (   0.5048017   0.0015068   1.2484277  )
        47           O   tau(  47) = (   0.2621260   0.0059111   1.5135603  )
        48           O   tau(  48) = (   0.2591051   0.0041689   1.0164559  )
        49           O   tau(  49) = (   0.1421646   0.5686583   2.1602013  )
        50           H   tau(  50) = (   0.1421646   0.5686583   2.2847091  )

   Crystallographic axes

     site n.     atom                  positions (cryst. coord.)
         1           Sr  tau(   1) = (  0.2508693  0.7491307  0.6943562  )
         2           O   tau(   2) = (  0.4985141  0.5014859  0.6999492  )
         3           Sr  tau(   3) = (  0.7482398  0.7454518  0.6972903  )
         4           Sr  tau(   4) = (  0.7441748  0.2558252  0.6980478  )
         5           Sr  tau(   5) = (  0.2508693  0.7491307  0.5016443  )
         6           Sr  tau(   6) = (  0.2508693  0.7491307  0.3015492  )
         7           Co  tau(   7) = (  0.4998914  0.5001086  0.4015968  )
         8           Co  tau(   8) = (  0.4936915  0.5063085  0.5980003  )
         9           O   tau(   9) = (  0.4988895  0.7610401  0.4015968  )
        10           O   tau(  10) = (  0.2389599  0.5011105  0.4015968  )
        11           O   tau(  11) = (  0.0070918  0.7374880  0.4015968  )
        12           O   tau(  12) = (  0.0088340  0.7405089  0.5980003  )
        13           O   tau(  13) = (  0.5066944  0.7415376  0.5980003  )
        14           O   tau(  14) = (  0.2584624  0.4933056  0.5980003  )
        15           O   tau(  15) = (  0.4985141  0.5014859  0.3071422  )
        16           O   tau(  16) = (  0.4985141  0.5014859  0.4960513  )
        17           Sr  tau(  17) = (  0.7482398  0.7454518  0.3044833  )
        18           Sr  tau(  18) = (  0.7482398  0.7454518  0.4987103  )
        19           Sr  tau(  19) = (  0.7441748  0.2558252  0.3052408  )
        20           Sr  tau(  20) = (  0.7441748  0.2558252  0.4979527  )
        21           O   tau(  21) = (  0.7322655  0.0078049  0.5980003  )
        22           O   tau(  22) = (  0.7558175  0.4996027  0.5980003  )
        23           O   tau(  23) = (  0.5003973  0.2441825  0.5980003  )
        24           O   tau(  24) = (  0.7527966  0.4978604  0.4015968  )
        25           O   tau(  25) = (  0.5021396  0.2472034  0.4015968  )
        26           O   tau(  26) = (  0.7517679  0.0000000  0.4015968  )
        27           O   tau(  27) = (  0.0114961  0.4948124  0.6896512  )
        28           O   tau(  28) = (  0.0048226  0.0077944  0.6999492  )
        29           Sr  tau(  29) = (  0.2545482  0.2517602  0.6972903  )
        30           O   tau(  30) = (  0.5048017  0.0015068  0.7027529  )
        31           Co  tau(  31) = (  0.0056869  0.5006215  0.4015968  )
        32           Co  tau(  32) = (  0.0065315  0.4997770  0.5980003  )
        33           Co  tau(  33) = (  0.0061999  0.0064171  0.4015968  )
        34           Co  tau(  34) = (  0.0000000  0.0126169  0.5980003  )
        35           O   tau(  35) = (  0.0114961  0.4948124  0.5063494  )
        36           O   tau(  36) = (  0.0114961  0.4948124  0.2968442  )
        37           O   tau(  37) = (  0.0051979  0.2673486  0.4015968  )
        38           O   tau(  38) = (  0.0130029  0.2478461  0.5980003  )
        39           O   tau(  39) = (  0.0048226  0.0077944  0.3071422  )
        40           O   tau(  40) = (  0.0048226  0.0077944  0.4960513  )
        41           Sr  tau(  41) = (  0.2545482  0.2517602  0.3044833  )
        42           Sr  tau(  42) = (  0.2545482  0.2517602  0.4987103  )
        43           Co  tau(  43) = (  0.4989925  0.0073160  0.5980003  )
        44           Co  tau(  44) = (  0.4998370  0.0064714  0.4015968  )
        45           O   tau(  45) = (  0.5048017  0.0015068  0.3099459  )
        46           O   tau(  46) = (  0.5048017  0.0015068  0.4932477  )
        47           O   tau(  47) = (  0.2621260  0.0059111  0.5980003  )
        48           O   tau(  48) = (  0.2591051  0.0041689  0.4015968  )
        49           O   tau(  49) = (  0.1421646  0.5686583  0.8534850  )
        50           H   tau(  50) = (  0.1421646  0.5686583  0.9026774  )

     number of k points=    10  Gaussian smearing, width (Ry)=  0.0700
                       cart. coord. in units 2pi/alat
        k(    1) = (   0.0000000   0.0000000   0.0000000), wk =   0.1250000
        k(    2) = (   0.0000000   0.2500000   0.0000000), wk =   0.2500000
        k(    3) = (   0.0000000  -0.5000000   0.0000000), wk =   0.1250000
        k(    4) = (   0.2500000   0.2500000   0.0000000), wk =   0.2500000
        k(    5) = (   0.2500000  -0.5000000   0.0000000), wk =   0.2500000
        k(    6) = (  -0.5000000  -0.5000000   0.0000000), wk =   0.1250000
        k(    7) = (   0.2500000   0.0000000   0.0000000), wk =   0.2500000
        k(    8) = (  -0.5000000   0.0000000   0.0000000), wk =   0.1250000
        k(    9) = (  -0.2500000   0.2500000   0.0000000), wk =   0.2500000
        k(   10) = (  -0.5000000   0.2500000   0.0000000), wk =   0.2500000

                       cryst. coord.
        k(    1) = (   0.0000000   0.0000000   0.0000000), wk =   0.1250000
        k(    2) = (   0.0000000   0.2500000   0.0000000), wk =   0.2500000
        k(    3) = (   0.0000000  -0.5000000   0.0000000), wk =   0.1250000
        k(    4) = (   0.2500000   0.2500000   0.0000000), wk =   0.2500000
        k(    5) = (   0.2500000  -0.5000000   0.0000000), wk =   0.2500000
        k(    6) = (  -0.5000000  -0.5000000   0.0000000), wk =   0.1250000
        k(    7) = (   0.2500000   0.0000000   0.0000000), wk =   0.2500000
        k(    8) = (  -0.5000000   0.0000000   0.0000000), wk =   0.1250000
        k(    9) = (  -0.2500000   0.2500000   0.0000000), wk =   0.2500000
        k(   10) = (  -0.5000000   0.2500000   0.0000000), wk =   0.2500000

     Dense  grid:  1474595 G-vectors     FFT dimensions: ( 108, 108, 270)

     Smooth grid:   521381 G-vectors     FFT dimensions: (  75,  75, 192)

     Dynamical RAM for                 wfc:      10.73 MB

     Dynamical RAM for     wfc (w. buffer):      64.38 MB

     Dynamical RAM for           str. fact:       3.75 MB

     Dynamical RAM for           local pot:       0.00 MB

     Dynamical RAM for          nlocal pot:      24.61 MB

     Dynamical RAM for                qrad:       7.03 MB

     Dynamical RAM for          rho,v,vnew:       6.02 MB

     Dynamical RAM for               rhoin:       2.01 MB

     Dynamical RAM for            rho*nmix:      15.00 MB

     Dynamical RAM for           G-vectors:       3.68 MB

     Dynamical RAM for          h,s,v(r/c):       1.35 MB

     Dynamical RAM for          <psi|beta>:       2.35 MB

     Dynamical RAM for                 psi:      21.46 MB

     Dynamical RAM for                hpsi:      21.46 MB

     Dynamical RAM for                spsi:      21.46 MB

     Dynamical RAM for      wfcinit/wfcrot:      34.49 MB

     Dynamical RAM for           addusdens:     101.26 MB

     Estimated static dynamical RAM per process >     121.50 MB

     Estimated max dynamical RAM per process >     237.76 MB

     Estimated total dynamical RAM >      10.79 GB

     Check: negative core charge=   -0.000004

     Initial potential from superposition of free atoms

     starting charge     422.5961, renormalised to     431.0000

     negative rho (up, down):  7.820E-01 0.000E+00
     Starting wfcs are  377 randomized atomic wfcs
     Checking if some PAW data can be deallocated... 
       PAW data deallocated on   19 nodes for type:  2

     total cpu time spent up to now is        8.8 secs

     Self-consistent Calculation

     iteration #  1     ecut=    60.00 Ry     beta= 0.15
     Davidson diagonalization with overlap

---- Real-time Memory Report at c_bands before calling an iterative solver
             0 MiB given to the printing process from OS
             0 MiB allocation reported by mallinfo(arena+hblkhd)
         23986 MiB available memory on the node where the printing process lives
------------------
     ethr =  1.00E-02,  avg # of iterations =  2.0

     negative rho (up, down):  7.717E-01 0.000E+00

     total cpu time spent up to now is       25.9 secs

     total energy              =   -4446.66078955 Ry
     estimated scf accuracy    <      44.79598146 Ry

     iteration #  2     ecut=    60.00 Ry     beta= 0.15
     Davidson diagonalization with overlap

---- Real-time Memory Report at c_bands before calling an iterative solver
             0 MiB given to the printing process from OS
             0 MiB allocation reported by mallinfo(arena+hblkhd)
         24259 MiB available memory on the node where the printing process lives
------------------
     ethr =  1.00E-02,  avg # of iterations =  1.0

     negative rho (up, down):  7.585E-01 0.000E+00

     total cpu time spent up to now is       40.9 secs

     total energy              =   -4443.32669261 Ry
     estimated scf accuracy    <      29.85729162 Ry

     iteration #  3     ecut=    60.00 Ry     beta= 0.15
     Davidson diagonalization with overlap

---- Real-time Memory Report at c_bands before calling an iterative solver
             0 MiB given to the printing process from OS
             0 MiB allocation reported by mallinfo(arena+hblkhd)
         23419 MiB available memory on the node where the printing process lives
------------------
     ethr =  6.93E-03,  avg # of iterations =  1.0

     negative rho (up, down):  7.554E-01 0.000E+00

     total cpu time spent up to now is       55.8 secs

     total energy              =   -4444.26277133 Ry
     estimated scf accuracy    <      28.00377214 Ry

     iteration #  4     ecut=    60.00 Ry     beta= 0.15
     Davidson diagonalization with overlap

---- Real-time Memory Report at c_bands before calling an iterative solver
             0 MiB given to the printing process from OS
             0 MiB allocation reported by mallinfo(arena+hblkhd)
         23394 MiB available memory on the node where the printing process lives
------------------
     ethr =  6.50E-03,  avg # of iterations =  1.0

     negative rho (up, down):  7.504E-01 0.000E+00

     total cpu time spent up to now is       70.9 secs

     total energy              =   -4443.06742881 Ry
     estimated scf accuracy    <      20.71660967 Ry

     iteration #  5     ecut=    60.00 Ry     beta= 0.15
     Davidson diagonalization with overlap

---- Real-time Memory Report at c_bands before calling an iterative solver
             0 MiB given to the printing process from OS
             0 MiB allocation reported by mallinfo(arena+hblkhd)
         23381 MiB available memory on the node where the printing process lives
------------------
     ethr =  4.81E-03,  avg # of iterations =  1.0

     negative rho (up, down):  7.396E-01 0.000E+00

     total cpu time spent up to now is       85.6 secs

     total energy              =   -4442.47284404 Ry
     estimated scf accuracy    <      12.20423533 Ry

     iteration #  6     ecut=    60.00 Ry     beta= 0.15
     Davidson diagonalization with overlap

---- Real-time Memory Report at c_bands before calling an iterative solver
             0 MiB given to the printing process from OS
             0 MiB allocation reported by mallinfo(arena+hblkhd)
         23361 MiB available memory on the node where the printing process lives
------------------
     ethr =  2.83E-03,  avg # of iterations =  1.1

     negative rho (up, down):  7.424E-01 0.000E+00

     total cpu time spent up to now is      100.5 secs

     total energy              =   -4442.82446415 Ry
     estimated scf accuracy    <       5.08828624 Ry

     iteration #  7     ecut=    60.00 Ry     beta= 0.15
     Davidson diagonalization with overlap

---- Real-time Memory Report at c_bands before calling an iterative solver
             0 MiB given to the printing process from OS
             0 MiB allocation reported by mallinfo(arena+hblkhd)
         23343 MiB available memory on the node where the printing process lives
------------------
     ethr =  1.18E-03,  avg # of iterations =  1.8

     negative rho (up, down):  7.643E-01 0.000E+00

     total cpu time spent up to now is      115.9 secs

     total energy              =   -4441.68844614 Ry
     estimated scf accuracy    <       3.99536518 Ry

     iteration #  8     ecut=    60.00 Ry     beta= 0.15
     Davidson diagonalization with overlap

---- Real-time Memory Report at c_bands before calling an iterative solver
             0 MiB given to the printing process from OS
             0 MiB allocation reported by mallinfo(arena+hblkhd)
         23323 MiB available memory on the node where the printing process lives
------------------
     ethr =  9.27E-04,  avg # of iterations =  4.0

     negative rho (up, down):  7.734E-01 0.000E+00

     total cpu time spent up to now is      135.0 secs

     total energy              =   -4441.28249172 Ry
     estimated scf accuracy    <      22.38692256 Ry

     iteration #  9     ecut=    60.00 Ry     beta= 0.15
     Davidson diagonalization with overlap

---- Real-time Memory Report at c_bands before calling an iterative solver
             0 MiB given to the printing process from OS
             0 MiB allocation reported by mallinfo(arena+hblkhd)
         23214 MiB available memory on the node where the printing process lives
------------------
     ethr =  9.27E-04,  avg # of iterations = 10.5

     negative rho (up, down):  7.704E-01 0.000E+00

     total cpu time spent up to now is      157.5 secs

     total energy              =   -4441.71183431 Ry
     estimated scf accuracy    <       4.02367811 Ry

     iteration # 10     ecut=    60.00 Ry     beta= 0.15
     Davidson diagonalization with overlap

---- Real-time Memory Report at c_bands before calling an iterative solver
             0 MiB given to the printing process from OS
             0 MiB allocation reported by mallinfo(arena+hblkhd)
         22816 MiB available memory on the node where the printing process lives
------------------
     ethr =  9.27E-04,  avg # of iterations =  1.1

     negative rho (up, down):  7.741E-01 0.000E+00

     total cpu time spent up to now is      172.5 secs

     total energy              =   -4441.88449661 Ry
     estimated scf accuracy    <       1.66184315 Ry

     iteration # 11     ecut=    60.00 Ry     beta= 0.15
     Davidson diagonalization with overlap

---- Real-time Memory Report at c_bands before calling an iterative solver
             0 MiB given to the printing process from OS
             0 MiB allocation reported by mallinfo(arena+hblkhd)
         22803 MiB available memory on the node where the printing process lives
------------------
     ethr =  3.86E-04,  avg # of iterations =  1.5

     negative rho (up, down):  8.006E-01 0.000E+00

     total cpu time spent up to now is      188.2 secs

     total energy              =   -4441.77109159 Ry
     estimated scf accuracy    <       0.98476613 Ry

     iteration # 12     ecut=    60.00 Ry     beta= 0.15
     Davidson diagonalization with overlap

---- Real-time Memory Report at c_bands before calling an iterative solver
             0 MiB given to the printing process from OS
             0 MiB allocation reported by mallinfo(arena+hblkhd)
         22823 MiB available memory on the node where the printing process lives
------------------
     ethr =  2.28E-04,  avg # of iterations =  3.8

     negative rho (up, down):  8.172E-01 0.000E+00

     total cpu time spent up to now is      206.3 secs

     total energy              =   -4441.88551496 Ry
     estimated scf accuracy    <       1.57271554 Ry

     iteration # 13     ecut=    60.00 Ry     beta= 0.15
     Davidson diagonalization with overlap

---- Real-time Memory Report at c_bands before calling an iterative solver
             0 MiB given to the printing process from OS
             0 MiB allocation reported by mallinfo(arena+hblkhd)
         22811 MiB available memory on the node where the printing process lives
------------------
     c_bands:  1 eigenvalues not converged
     ethr =  2.28E-04,  avg # of iterations =  9.9

     negative rho (up, down):  8.189E-01 0.000E+00

     total cpu time spent up to now is      226.9 secs

     total energy              =   -4441.80066743 Ry
     estimated scf accuracy    <       1.22080247 Ry

     iteration # 14     ecut=    60.00 Ry     beta= 0.15
     Davidson diagonalization with overlap

---- Real-time Memory Report at c_bands before calling an iterative solver
             0 MiB given to the printing process from OS
             0 MiB allocation reported by mallinfo(arena+hblkhd)
         22776 MiB available memory on the node where the printing process lives
------------------
     ethr =  2.28E-04,  avg # of iterations =  2.2

     negative rho (up, down):  8.145E-01 0.000E+00

     total cpu time spent up to now is      243.5 secs

     total energy              =   -4441.74864641 Ry
     estimated scf accuracy    <       0.45513107 Ry

     iteration # 15     ecut=    60.00 Ry     beta= 0.15
     Davidson diagonalization with overlap

---- Real-time Memory Report at c_bands before calling an iterative solver
             0 MiB given to the printing process from OS
             0 MiB allocation reported by mallinfo(arena+hblkhd)
         22789 MiB available memory on the node where the printing process lives
------------------
     ethr =  1.06E-04,  avg # of iterations =  4.4

     negative rho (up, down):  8.255E-01 0.000E+00

     total cpu time spent up to now is      261.9 secs

     total energy              =   -4441.73461830 Ry
     estimated scf accuracy    <       0.31904050 Ry

     iteration # 16     ecut=    60.00 Ry     beta= 0.15
     Davidson diagonalization with overlap

---- Real-time Memory Report at c_bands before calling an iterative solver
             0 MiB given to the printing process from OS
             0 MiB allocation reported by mallinfo(arena+hblkhd)
         22780 MiB available memory on the node where the printing process lives
------------------
     ethr =  7.40E-05,  avg # of iterations = 13.5

     negative rho (up, down):  8.298E-01 0.000E+00

     total cpu time spent up to now is      285.3 secs

     total energy              =   -4441.72840701 Ry
     estimated scf accuracy    <       0.30606569 Ry

     iteration # 17     ecut=    60.00 Ry     beta= 0.15
     Davidson diagonalization with overlap

---- Real-time Memory Report at c_bands before calling an iterative solver
             0 MiB given to the printing process from OS
             0 MiB allocation reported by mallinfo(arena+hblkhd)
         22744 MiB available memory on the node where the printing process lives
------------------
     c_bands:  1 eigenvalues not converged
     ethr =  7.10E-05,  avg # of iterations =  4.8

     negative rho (up, down):  8.270E-01 0.000E+00

     total cpu time spent up to now is      302.6 secs

     total energy              =   -4441.71437808 Ry
     estimated scf accuracy    <       0.23894809 Ry

     iteration # 18     ecut=    60.00 Ry     beta= 0.15
     Davidson diagonalization with overlap

---- Real-time Memory Report at c_bands before calling an iterative solver
             0 MiB given to the printing process from OS
             0 MiB allocation reported by mallinfo(arena+hblkhd)
         22747 MiB available memory on the node where the printing process lives
------------------
     ethr =  5.54E-05,  avg # of iterations =  5.2

     negative rho (up, down):  8.126E-01 0.000E+00

     total cpu time spent up to now is      321.1 secs

     total energy              =   -4441.68544064 Ry
     estimated scf accuracy    <       0.15560178 Ry

     iteration # 19     ecut=    60.00 Ry     beta= 0.15
     Davidson diagonalization with overlap

---- Real-time Memory Report at c_bands before calling an iterative solver
             0 MiB given to the printing process from OS
             0 MiB allocation reported by mallinfo(arena+hblkhd)
         22759 MiB available memory on the node where the printing process lives
------------------
     ethr =  3.61E-05,  avg # of iterations =  9.2

     negative rho (up, down):  8.264E-01 0.000E+00

     total cpu time spent up to now is      342.3 secs

     total energy              =   -4441.67316179 Ry
     estimated scf accuracy    <       0.10841556 Ry

     iteration # 20     ecut=    60.00 Ry     beta= 0.15
     Davidson diagonalization with overlap

---- Real-time Memory Report at c_bands before calling an iterative solver
             0 MiB given to the printing process from OS
             0 MiB allocation reported by mallinfo(arena+hblkhd)
         22681 MiB available memory on the node where the printing process lives
------------------
     ethr =  2.52E-05,  avg # of iterations =  6.0

     negative rho (up, down):  8.183E-01 0.000E+00

     total cpu time spent up to now is      361.7 secs

     total energy              =   -4441.67046477 Ry
     estimated scf accuracy    <       0.05509081 Ry

     iteration # 21     ecut=    60.00 Ry     beta= 0.15
     Davidson diagonalization with overlap

---- Real-time Memory Report at c_bands before calling an iterative solver
             0 MiB given to the printing process from OS
             0 MiB allocation reported by mallinfo(arena+hblkhd)
         22704 MiB available memory on the node where the printing process lives
------------------
     ethr =  1.28E-05,  avg # of iterations =  9.9

     negative rho (up, down):  8.141E-01 0.000E+00

     total cpu time spent up to now is      383.6 secs

     total energy              =   -4441.66880079 Ry
     estimated scf accuracy    <       0.03400920 Ry

     iteration # 22     ecut=    60.00 Ry     beta= 0.15
     Davidson diagonalization with overlap

---- Real-time Memory Report at c_bands before calling an iterative solver
             0 MiB given to the printing process from OS
             0 MiB allocation reported by mallinfo(arena+hblkhd)
         22683 MiB available memory on the node where the printing process lives
------------------
     ethr =  7.89E-06,  avg # of iterations = 10.9

     negative rho (up, down):  8.081E-01 0.000E+00

     total cpu time spent up to now is      405.4 secs

     total energy              =   -4441.66855104 Ry
     estimated scf accuracy    <       0.02280166 Ry

     iteration # 23     ecut=    60.00 Ry     beta= 0.15
     Davidson diagonalization with overlap

---- Real-time Memory Report at c_bands before calling an iterative solver
             0 MiB given to the printing process from OS
             0 MiB allocation reported by mallinfo(arena+hblkhd)
         22673 MiB available memory on the node where the printing process lives
------------------
     ethr =  5.29E-06,  avg # of iterations =  1.5

     negative rho (up, down):  7.892E-01 0.000E+00

     total cpu time spent up to now is      421.5 secs

     total energy              =   -4441.66469701 Ry
     estimated scf accuracy    <       0.01843155 Ry

     iteration # 24     ecut=    60.00 Ry     beta= 0.15
     Davidson diagonalization with overlap

---- Real-time Memory Report at c_bands before calling an iterative solver
             0 MiB given to the printing process from OS
             0 MiB allocation reported by mallinfo(arena+hblkhd)
         22693 MiB available memory on the node where the printing process lives
------------------
     ethr =  4.28E-06,  avg # of iterations =  8.7

     negative rho (up, down):  7.931E-01 0.000E+00

     total cpu time spent up to now is      442.3 secs

     total energy              =   -4441.66369805 Ry
     estimated scf accuracy    <       0.01232255 Ry

     iteration # 25     ecut=    60.00 Ry     beta= 0.15
     Davidson diagonalization with overlap

---- Real-time Memory Report at c_bands before calling an iterative solver
             0 MiB given to the printing process from OS
             0 MiB allocation reported by mallinfo(arena+hblkhd)
         22704 MiB available memory on the node where the printing process lives
------------------
     c_bands:  1 eigenvalues not converged
     ethr =  2.86E-06,  avg # of iterations = 11.4

     negative rho (up, down):  7.965E-01 0.000E+00

     total cpu time spent up to now is      465.0 secs

     total energy              =   -4441.66356110 Ry
     estimated scf accuracy    <       0.00516119 Ry

     iteration # 26     ecut=    60.00 Ry     beta= 0.15
     Davidson diagonalization with overlap

---- Real-time Memory Report at c_bands before calling an iterative solver
             0 MiB given to the printing process from OS
             0 MiB allocation reported by mallinfo(arena+hblkhd)
         22620 MiB available memory on the node where the printing process lives
------------------
     c_bands:  1 eigenvalues not converged
     ethr =  1.20E-06,  avg # of iterations =  7.3

     negative rho (up, down):  7.971E-01 0.000E+00

     total cpu time spent up to now is      485.3 secs

     total energy              =   -4441.66341755 Ry
     estimated scf accuracy    <       0.00321366 Ry

     iteration # 27     ecut=    60.00 Ry     beta= 0.15
     Davidson diagonalization with overlap

---- Real-time Memory Report at c_bands before calling an iterative solver
             0 MiB given to the printing process from OS
             0 MiB allocation reported by mallinfo(arena+hblkhd)
         22604 MiB available memory on the node where the printing process lives
------------------
     ethr =  7.46E-07,  avg # of iterations =  7.2

     negative rho (up, down):  7.956E-01 0.000E+00

     total cpu time spent up to now is      505.1 secs

     total energy              =   -4441.66340023 Ry
     estimated scf accuracy    <       0.00138607 Ry

     iteration # 28     ecut=    60.00 Ry     beta= 0.15
     Davidson diagonalization with overlap

---- Real-time Memory Report at c_bands before calling an iterative solver
             0 MiB given to the printing process from OS
             0 MiB allocation reported by mallinfo(arena+hblkhd)
         22609 MiB available memory on the node where the printing process lives
------------------
     c_bands:  1 eigenvalues not converged
     ethr =  3.22E-07,  avg # of iterations = 10.8

     negative rho (up, down):  7.940E-01 0.000E+00

     total cpu time spent up to now is      528.5 secs

     total energy              =   -4441.66351547 Ry
     estimated scf accuracy    <       0.00046229 Ry

     iteration # 29     ecut=    60.00 Ry     beta= 0.15
     Davidson diagonalization with overlap

---- Real-time Memory Report at c_bands before calling an iterative solver
             0 MiB given to the printing process from OS
             0 MiB allocation reported by mallinfo(arena+hblkhd)
         22583 MiB available memory on the node where the printing process lives
------------------
     ethr =  1.07E-07,  avg # of iterations =  3.9

     negative rho (up, down):  7.929E-01 0.000E+00

     total cpu time spent up to now is      546.4 secs

     total energy              =   -4441.66353040 Ry
     estimated scf accuracy    <       0.00021911 Ry

     iteration # 30     ecut=    60.00 Ry     beta= 0.15
     Davidson diagonalization with overlap

---- Real-time Memory Report at c_bands before calling an iterative solver
             0 MiB given to the printing process from OS
             0 MiB allocation reported by mallinfo(arena+hblkhd)
         22599 MiB available memory on the node where the printing process lives
------------------
     ethr =  5.08E-08,  avg # of iterations =  5.3

     negative rho (up, down):  7.928E-01 0.000E+00

     total cpu time spent up to now is      565.2 secs

     total energy              =   -4441.66354029 Ry
     estimated scf accuracy    <       0.00008142 Ry

     iteration # 31     ecut=    60.00 Ry     beta= 0.15
     Davidson diagonalization with overlap

---- Real-time Memory Report at c_bands before calling an iterative solver
             0 MiB given to the printing process from OS
             0 MiB allocation reported by mallinfo(arena+hblkhd)
         22605 MiB available memory on the node where the printing process lives
------------------
     ethr =  1.89E-08,  avg # of iterations =  3.3

     negative rho (up, down):  7.927E-01 0.000E+00

     total cpu time spent up to now is      582.7 secs

     total energy              =   -4441.66354560 Ry
     estimated scf accuracy    <       0.00003865 Ry

     iteration # 32     ecut=    60.00 Ry     beta= 0.15
     Davidson diagonalization with overlap

---- Real-time Memory Report at c_bands before calling an iterative solver
             0 MiB given to the printing process from OS
             0 MiB allocation reported by mallinfo(arena+hblkhd)
         22632 MiB available memory on the node where the printing process lives
------------------
     ethr =  8.97E-09,  avg # of iterations =  1.4

     negative rho (up, down):  7.926E-01 0.000E+00

     total cpu time spent up to now is      598.6 secs

     total energy              =   -4441.66354515 Ry
     estimated scf accuracy    <       0.00002458 Ry

     iteration # 33     ecut=    60.00 Ry     beta= 0.15
     Davidson diagonalization with overlap

---- Real-time Memory Report at c_bands before calling an iterative solver
             0 MiB given to the printing process from OS
             0 MiB allocation reported by mallinfo(arena+hblkhd)
         22637 MiB available memory on the node where the printing process lives
------------------
     ethr =  5.70E-09,  avg # of iterations =  2.8

     negative rho (up, down):  7.926E-01 0.000E+00

     total cpu time spent up to now is      616.2 secs

     total energy              =   -4441.66355108 Ry
     estimated scf accuracy    <       0.00001204 Ry

     iteration # 34     ecut=    60.00 Ry     beta= 0.15
     Davidson diagonalization with overlap

---- Real-time Memory Report at c_bands before calling an iterative solver
             0 MiB given to the printing process from OS
             0 MiB allocation reported by mallinfo(arena+hblkhd)
         22636 MiB available memory on the node where the printing process lives
------------------
     ethr =  2.79E-09,  avg # of iterations =  2.2

     negative rho (up, down):  7.927E-01 0.000E+00

     total cpu time spent up to now is      633.3 secs

     total energy              =   -4441.66355373 Ry
     estimated scf accuracy    <       0.00000757 Ry

     iteration # 35     ecut=    60.00 Ry     beta= 0.15
     Davidson diagonalization with overlap

---- Real-time Memory Report at c_bands before calling an iterative solver
             0 MiB given to the printing process from OS
             0 MiB allocation reported by mallinfo(arena+hblkhd)
         22638 MiB available memory on the node where the printing process lives
------------------
     ethr =  1.76E-09,  avg # of iterations =  3.4

     negative rho (up, down):  7.928E-01 0.000E+00

     total cpu time spent up to now is      651.1 secs

     total energy              =   -4441.66355495 Ry
     estimated scf accuracy    <       0.00000455 Ry

     iteration # 36     ecut=    60.00 Ry     beta= 0.15
     Davidson diagonalization with overlap

---- Real-time Memory Report at c_bands before calling an iterative solver
             0 MiB given to the printing process from OS
             0 MiB allocation reported by mallinfo(arena+hblkhd)
         22637 MiB available memory on the node where the printing process lives
------------------
     ethr =  1.06E-09,  avg # of iterations =  2.9

     negative rho (up, down):  7.927E-01 0.000E+00

     total cpu time spent up to now is      668.6 secs

     total energy              =   -4441.66355570 Ry
     estimated scf accuracy    <       0.00000295 Ry

     iteration # 37     ecut=    60.00 Ry     beta= 0.15
     Davidson diagonalization with overlap

---- Real-time Memory Report at c_bands before calling an iterative solver
             0 MiB given to the printing process from OS
             0 MiB allocation reported by mallinfo(arena+hblkhd)
         22656 MiB available memory on the node where the printing process lives
------------------
     ethr =  6.85E-10,  avg # of iterations =  2.2

     negative rho (up, down):  7.926E-01 0.000E+00

     total cpu time spent up to now is      685.7 secs

     total energy              =   -4441.66355631 Ry
     estimated scf accuracy    <       0.00000154 Ry

     iteration # 38     ecut=    60.00 Ry     beta= 0.15
     Davidson diagonalization with overlap

---- Real-time Memory Report at c_bands before calling an iterative solver
             0 MiB given to the printing process from OS
             0 MiB allocation reported by mallinfo(arena+hblkhd)
         22659 MiB available memory on the node where the printing process lives
------------------
     ethr =  3.57E-10,  avg # of iterations =  3.0

     negative rho (up, down):  7.925E-01 0.000E+00

     total cpu time spent up to now is      703.1 secs

     total energy              =   -4441.66355653 Ry
     estimated scf accuracy    <       0.00000089 Ry

     iteration # 39     ecut=    60.00 Ry     beta= 0.15
     Davidson diagonalization with overlap

---- Real-time Memory Report at c_bands before calling an iterative solver
             0 MiB given to the printing process from OS
             0 MiB allocation reported by mallinfo(arena+hblkhd)
         22662 MiB available memory on the node where the printing process lives
------------------
     ethr =  2.06E-10,  avg # of iterations =  2.9

     negative rho (up, down):  7.925E-01 0.000E+00

     total cpu time spent up to now is      720.4 secs

     total energy              =   -4441.66355657 Ry
     estimated scf accuracy    <       0.00000055 Ry

     iteration # 40     ecut=    60.00 Ry     beta= 0.15
     Davidson diagonalization with overlap

---- Real-time Memory Report at c_bands before calling an iterative solver
             0 MiB given to the printing process from OS
             0 MiB allocation reported by mallinfo(arena+hblkhd)
         22661 MiB available memory on the node where the printing process lives
------------------
     ethr =  1.27E-10,  avg # of iterations =  2.2

     negative rho (up, down):  7.925E-01 0.000E+00

     total cpu time spent up to now is      737.4 secs

     total energy              =   -4441.66355656 Ry
     estimated scf accuracy    <       0.00000036 Ry

     iteration # 41     ecut=    60.00 Ry     beta= 0.15
     Davidson diagonalization with overlap

---- Real-time Memory Report at c_bands before calling an iterative solver
             0 MiB given to the printing process from OS
             0 MiB allocation reported by mallinfo(arena+hblkhd)
         22659 MiB available memory on the node where the printing process lives
------------------
     ethr =  8.24E-11,  avg # of iterations =  2.2

     negative rho (up, down):  7.925E-01 0.000E+00

     total cpu time spent up to now is      754.4 secs

     total energy              =   -4441.66355656 Ry
     estimated scf accuracy    <       0.00000022 Ry

     iteration # 42     ecut=    60.00 Ry     beta= 0.15
     Davidson diagonalization with overlap

---- Real-time Memory Report at c_bands before calling an iterative solver
             0 MiB given to the printing process from OS
             0 MiB allocation reported by mallinfo(arena+hblkhd)
         22663 MiB available memory on the node where the printing process lives
------------------
     ethr =  5.13E-11,  avg # of iterations =  2.1

     negative rho (up, down):  7.925E-01 0.000E+00

     total cpu time spent up to now is      771.4 secs

     total energy              =   -4441.66355655 Ry
     estimated scf accuracy    <       0.00000010 Ry

     iteration # 43     ecut=    60.00 Ry     beta= 0.15
     Davidson diagonalization with overlap

---- Real-time Memory Report at c_bands before calling an iterative solver
             0 MiB given to the printing process from OS
             0 MiB allocation reported by mallinfo(arena+hblkhd)
         22666 MiB available memory on the node where the printing process lives
------------------
     ethr =  2.26E-11,  avg # of iterations =  2.3

     negative rho (up, down):  7.925E-01 0.000E+00

     total cpu time spent up to now is      788.5 secs

     total energy              =   -4441.66355656 Ry
     estimated scf accuracy    <       0.00000004 Ry

     iteration # 44     ecut=    60.00 Ry     beta= 0.15
     Davidson diagonalization with overlap

---- Real-time Memory Report at c_bands before calling an iterative solver
             0 MiB given to the printing process from OS
             0 MiB allocation reported by mallinfo(arena+hblkhd)
         22669 MiB available memory on the node where the printing process lives
------------------
     ethr =  9.67E-12,  avg # of iterations =  2.4

     negative rho (up, down):  7.925E-01 0.000E+00

     total cpu time spent up to now is      805.7 secs

     total energy              =   -4441.66355655 Ry
     estimated scf accuracy    <       0.00000002 Ry

     iteration # 45     ecut=    60.00 Ry     beta= 0.15
     Davidson diagonalization with overlap

---- Real-time Memory Report at c_bands before calling an iterative solver
             0 MiB given to the printing process from OS
             0 MiB allocation reported by mallinfo(arena+hblkhd)
         22681 MiB available memory on the node where the printing process lives
------------------
     ethr =  4.61E-12,  avg # of iterations =  2.8

     negative rho (up, down):  7.925E-01 0.000E+00

     total cpu time spent up to now is      823.1 secs

     total energy              =   -4441.66355655 Ry
     estimated scf accuracy    <       0.00000001 Ry

     iteration # 46     ecut=    60.00 Ry     beta= 0.15
     Davidson diagonalization with overlap

---- Real-time Memory Report at c_bands before calling an iterative solver
             0 MiB given to the printing process from OS
             0 MiB allocation reported by mallinfo(arena+hblkhd)
         22684 MiB available memory on the node where the printing process lives
------------------
     ethr =  3.24E-12,  avg # of iterations =  2.0

     negative rho (up, down):  7.925E-01 0.000E+00

     total cpu time spent up to now is      839.9 secs

     total energy              =   -4441.66355656 Ry
     estimated scf accuracy    <       0.00000001 Ry

     iteration # 47     ecut=    60.00 Ry     beta= 0.15
     Davidson diagonalization with overlap

---- Real-time Memory Report at c_bands before calling an iterative solver
             0 MiB given to the printing process from OS
             0 MiB allocation reported by mallinfo(arena+hblkhd)
         22682 MiB available memory on the node where the printing process lives
------------------
     ethr =  2.37E-12,  avg # of iterations =  1.1

     negative rho (up, down):  7.925E-01 0.000E+00

     total cpu time spent up to now is      855.0 secs

     End of self-consistent calculation

          k = 0.0000 0.0000 0.0000 ( 65197 PWs)   bands (ev):

   -92.7051 -92.6574 -92.5600 -92.5120 -92.4564 -92.4118 -92.3942 -92.2734
   -56.0585 -56.0440 -55.9170 -55.9058 -55.8996 -55.8926 -55.8603 -55.8289
   -55.8128 -55.8114 -55.8075 -55.7630 -55.7427 -55.7074 -55.6869 -55.6563
   -55.6474 -55.5999 -55.5999 -55.5970 -55.5886 -55.5485 -55.5245 -55.4389
   -31.2822 -31.2626 -31.1213 -31.0825 -31.0342 -31.0299 -30.7112 -30.6912
   -29.8518 -29.8080 -29.7837 -29.6742 -15.0853 -15.0355 -14.9594 -14.8301
   -14.6307 -14.5109 -14.2217 -14.2015 -14.1723 -14.1278 -14.0810 -14.0682
   -14.0576 -14.0374 -14.0119 -13.9880 -13.9662 -13.9335 -13.7812 -13.5953
   -13.5691 -13.5392 -13.5007 -13.4824 -13.4360 -13.4017 -13.3267 -13.2542
   -13.1333 -13.1142 -13.1077 -13.0798 -13.0787 -13.0611 -13.0139 -13.0062
   -12.9852 -12.9612 -12.9272 -12.9151 -12.9015 -12.8947 -12.8749 -12.7646
   -12.7349 -12.6816 -12.6027 -12.5721 -12.5525 -12.3468 -12.2007 -12.0072
   -11.9328 -11.8649 -11.7908 -11.7802 -11.7567 -11.7395 -11.6757 -11.6588
   -11.6235 -11.5952 -11.4829 -11.4034 -11.3998  -2.9444  -2.7130  -2.4836
    -2.3344  -2.2735  -2.1317  -1.8233  -1.8087  -1.7904  -1.7019  -1.6855
    -1.6174  -1.6008  -1.5606  -1.5168  -1.3348  -1.1491  -1.1046  -1.0768
    -0.9349  -0.9200  -0.8709  -0.8534  -0.8078  -0.7901  -0.7375  -0.7105
    -0.6354  -0.6240  -0.5507  -0.4187  -0.4064  -0.3758  -0.2954  -0.2727
    -0.2167  -0.1871  -0.1286  -0.0838  -0.0290  -0.0075   0.0604   0.1276
     0.1770   0.1999   0.2116   0.4701   0.4882   0.6628   0.7233   0.7871
     0.8382   0.9215   0.9346   0.9507   1.0210   1.0478   1.0822   1.1387
     1.2700   1.3284   1.3504   1.3765   1.3871   1.4472   1.5171   1.6296
     1.6471   1.7032   1.7124   1.7556   1.7764   1.7886   1.8402   1.9039
     1.9118   1.9512   1.9736   2.0250   2.1556   2.2451   2.2849   2.2992
     2.4371   2.4491   2.4560   2.4764   2.5084   2.5140   2.6213   2.6543
     2.6821   2.7016   2.7206   2.8028   2.9043   2.9401   2.9480   2.9536
     3.0214   3.0272   3.0488   3.0569   3.0660   3.0773   3.0861   3.1005
     3.1068   3.1161   3.1252   3.1331   3.1529   3.1739   3.1788   3.1915
     3.2140   3.3313   3.4134   4.1017   4.4257   4.7663   4.8647   5.0394
     5.8038   5.9522   5.9860   6.0061   6.3099   6.3569   6.4788   6.4879
     6.7517   7.0051   7.1011   7.3135   7.5088   7.6286   7.6593   7.6680
     7.7161   7.8840   7.9745   8.0261   8.1095   8.1608   8.3847   8.4987
     8.7433   8.8515   8.8992

     occupation numbers 
     1.0000   1.0000   1.0000   1.0000   1.0000   1.0000   1.0000   1.0000
     1.0000   1.0000   1.0000   1.0000   1.0000   1.0000   1.0000   1.0000
     1.0000   1.0000   1.0000   1.0000   1.0000   1.0000   1.0000   1.0000
     1.0000   1.0000   1.0000   1.0000   1.0000   1.0000   1.0000   1.0000
     1.0000   1.0000   1.0000   1.0000   1.0000   1.0000   1.0000   1.0000
     1.0000   1.0000   1.0000   1.0000   1.0000   1.0000   1.0000   1.0000
     1.0000   1.0000   1.0000   1.0000   1.0000   1.0000   1.0000   1.0000
     1.0000   1.0000   1.0000   1.0000   1.0000   1.0000   1.0000   1.0000
     1.0000   1.0000   1.0000   1.0000   1.0000   1.0000   1.0000   1.0000
     1.0000   1.0000   1.0000   1.0000   1.0000   1.0000   1.0000   1.0000
     1.0000   1.0000   1.0000   1.0000   1.0000   1.0000   1.0000   1.0000
     1.0000   1.0000   1.0000   1.0000   1.0000   1.0000   1.0000   1.0000
     1.0000   1.0000   1.0000   1.0000   1.0000   1.0000   1.0000   1.0000
     1.0000   1.0000   1.0000   1.0000   1.0000   1.0000   1.0000   1.0000
     1.0000   1.0000   1.0000   1.0000   1.0000   1.0000   1.0000   1.0000
     1.0000   1.0000   1.0000   1.0000   1.0000   1.0000   1.0000   1.0000
     1.0000   1.0000   1.0000   1.0000   1.0000   1.0000   1.0000   1.0000
     1.0000   1.0000   1.0000   1.0000   1.0000   1.0000   1.0000   1.0000
     1.0000   1.0000   1.0000   1.0000   1.0000   1.0000   1.0000   1.0000
     1.0000   1.0000   1.0000   1.0000   1.0000   1.0000   0.9999   0.9999
     0.9999   0.9998   0.9998   0.9998   0.9997   0.9996   0.9996   0.9994
     0.9988   0.9985   0.9983   0.9981   0.9980   0.9973   0.9963   0.9940
     0.9936   0.9919   0.9916   0.9900   0.9892   0.9886   0.9861   0.9824
     0.9819   0.9791   0.9774   0.9730   0.9584   0.9452   0.9383   0.9357
     0.9057   0.9027   0.9009   0.8955   0.8866   0.8850   0.8511   0.8394
     0.8292   0.8217   0.8142   0.7798   0.7327   0.7149   0.7109   0.7081
     0.6725   0.6695   0.6577   0.6533   0.6483   0.6421   0.6372   0.6291
     0.6256   0.6203   0.6152   0.6107   0.5994   0.5873   0.5844   0.5771
     0.5640   0.4948   0.4463   0.1236   0.0507   0.0160   0.0110   0.0054
     0.0001   0.0000   0.0000   0.0000   0.0000   0.0000   0.0000   0.0000
     0.0000   0.0000   0.0000   0.0000   0.0000   0.0000   0.0000   0.0000
     0.0000   0.0000   0.0000   0.0000   0.0000   0.0000   0.0000   0.0000
     0.0000   0.0000   0.0000

          k = 0.0000 0.2500 0.0000 ( 65257 PWs)   bands (ev):

   -92.7051 -92.6574 -92.5600 -92.5120 -92.4564 -92.4118 -92.3942 -92.2734
   -56.0585 -56.0440 -55.9170 -55.9058 -55.8996 -55.8926 -55.8603 -55.8289
   -55.8128 -55.8114 -55.8075 -55.7630 -55.7427 -55.7074 -55.6869 -55.6563
   -55.6474 -55.5999 -55.5999 -55.5970 -55.5886 -55.5485 -55.5246 -55.4389
   -31.2820 -31.2625 -31.1215 -31.0819 -31.0344 -31.0305 -30.7095 -30.6929
   -29.8512 -29.8077 -29.7843 -29.6745 -15.0489 -15.0090 -14.9345 -14.8003
   -14.6731 -14.5004 -14.3677 -14.1886 -14.1492 -14.1327 -14.1039 -14.0430
   -14.0378 -14.0207 -13.9993 -13.9694 -13.9495 -13.8521 -13.8109 -13.6515
   -13.6193 -13.5810 -13.5435 -13.4815 -13.4558 -13.4076 -13.3466 -13.3122
   -13.2496 -13.1788 -13.1518 -13.1134 -13.0989 -13.0559 -12.9961 -12.9733
   -12.9428 -12.9279 -12.9052 -12.8708 -12.8289 -12.8070 -12.8024 -12.7482
   -12.7347 -12.6643 -12.5951 -12.4928 -12.4318 -12.4081 -12.2519 -12.0657
   -11.9996 -11.8303 -11.7876 -11.7599 -11.7320 -11.7153 -11.6674 -11.6564
   -11.6340 -11.5991 -11.4974 -11.4450 -11.4344  -2.8089  -2.5887  -2.4505
    -2.2679  -2.2248  -2.0620  -1.8400  -1.7582  -1.7451  -1.6822  -1.5839
    -1.5679  -1.5349  -1.5070  -1.4632  -1.2663  -1.1503  -1.1353  -1.1211
    -1.0466  -1.0364  -0.9339  -0.9053  -0.8468  -0.8196  -0.7814  -0.7150
    -0.6880  -0.6565  -0.6262  -0.6090  -0.5754  -0.5041  -0.4519  -0.3708
    -0.2706  -0.2370  -0.1883  -0.0929  -0.0494   0.0146   0.0557   0.1137
     0.1289   0.1558   0.2166   0.5210   0.6068   0.6425   0.7260   0.7719
     0.7950   0.9067   0.9249   1.0205   1.0481   1.0739   1.1880   1.2861
     1.3038   1.3311   1.3507   1.3718   1.4321   1.4600   1.4878   1.5341
     1.5700   1.6035   1.6930   1.7318   1.7543   1.8098   1.8623   1.8995
     1.9297   1.9569   1.9699   2.0763   2.1965   2.2687   2.2844   2.3564
     2.4011   2.4369   2.4429   2.4495   2.4724   2.5154   2.5507   2.6355
     2.6836   2.7000   2.8623   2.8825   2.9168   2.9413   2.9552   2.9640
     2.9703   2.9790   3.0092   3.0116   3.0290   3.0383   3.0432   3.0627
     3.0753   3.0820   3.1034   3.1147   3.1203   3.1554   3.1719   3.2305
     3.5997   3.6349   3.8770   4.2925   4.4194   4.7135   5.0175   5.0617
     5.6431   5.8264   5.9551   5.9927   6.0825   6.1036   6.1801   6.5942
     6.8876   7.0529   7.1170   7.3277   7.4831   7.4959   7.6420   7.7022
     7.8693   7.9713   8.0719   8.1936   8.2125   8.3539   8.4056   8.4148
     8.6066   8.8299   8.9431

     occupation numbers 
     1.0000   1.0000   1.0000   1.0000   1.0000   1.0000   1.0000   1.0000
     1.0000   1.0000   1.0000   1.0000   1.0000   1.0000   1.0000   1.0000
     1.0000   1.0000   1.0000   1.0000   1.0000   1.0000   1.0000   1.0000
     1.0000   1.0000   1.0000   1.0000   1.0000   1.0000   1.0000   1.0000
     1.0000   1.0000   1.0000   1.0000   1.0000   1.0000   1.0000   1.0000
     1.0000   1.0000   1.0000   1.0000   1.0000   1.0000   1.0000   1.0000
     1.0000   1.0000   1.0000   1.0000   1.0000   1.0000   1.0000   1.0000
     1.0000   1.0000   1.0000   1.0000   1.0000   1.0000   1.0000   1.0000
     1.0000   1.0000   1.0000   1.0000   1.0000   1.0000   1.0000   1.0000
     1.0000   1.0000   1.0000   1.0000   1.0000   1.0000   1.0000   1.0000
     1.0000   1.0000   1.0000   1.0000   1.0000   1.0000   1.0000   1.0000
     1.0000   1.0000   1.0000   1.0000   1.0000   1.0000   1.0000   1.0000
     1.0000   1.0000   1.0000   1.0000   1.0000   1.0000   1.0000   1.0000
     1.0000   1.0000   1.0000   1.0000   1.0000   1.0000   1.0000   1.0000
     1.0000   1.0000   1.0000   1.0000   1.0000   1.0000   1.0000   1.0000
     1.0000   1.0000   1.0000   1.0000   1.0000   1.0000   1.0000   1.0000
     1.0000   1.0000   1.0000   1.0000   1.0000   1.0000   1.0000   1.0000
     1.0000   1.0000   1.0000   1.0000   1.0000   1.0000   1.0000   1.0000
     1.0000   1.0000   1.0000   1.0000   1.0000   1.0000   1.0000   1.0000
     1.0000   1.0000   1.0000   1.0000   1.0000   1.0000   0.9999   0.9999
     0.9999   0.9998   0.9998   0.9997   0.9996   0.9996   0.9992   0.9988
     0.9986   0.9984   0.9983   0.9981   0.9975   0.9972   0.9968   0.9960
     0.9954   0.9947   0.9922   0.9909   0.9901   0.9877   0.9849   0.9827
     0.9807   0.9787   0.9777   0.9679   0.9527   0.9412   0.9384   0.9243
     0.9144   0.9057   0.9042   0.9026   0.8966   0.8846   0.8741   0.8461
     0.8286   0.8223   0.7528   0.7432   0.7265   0.7143   0.7072   0.7027
     0.6994   0.6950   0.6791   0.6778   0.6685   0.6634   0.6608   0.6501
     0.6432   0.6394   0.6275   0.6211   0.6180   0.5979   0.5885   0.5543
     0.3403   0.3214   0.2051   0.0749   0.0517   0.0194   0.0059   0.0049
     0.0003   0.0001   0.0000   0.0000   0.0000   0.0000   0.0000   0.0000
     0.0000   0.0000   0.0000   0.0000   0.0000   0.0000   0.0000   0.0000
     0.0000   0.0000   0.0000   0.0000   0.0000   0.0000   0.0000   0.0000
     0.0000   0.0000   0.0000

          k = 0.0000-0.5000 0.0000 ( 65180 PWs)   bands (ev):

   -92.7051 -92.6574 -92.5600 -92.5120 -92.4564 -92.4118 -92.3942 -92.2734
   -56.0585 -56.0440 -55.9170 -55.9058 -55.8996 -55.8926 -55.8603 -55.8289
   -55.8128 -55.8114 -55.8075 -55.7630 -55.7427 -55.7074 -55.6869 -55.6563
   -55.6474 -55.5999 -55.5999 -55.5970 -55.5886 -55.5485 -55.5245 -55.4389
   -31.2818 -31.2624 -31.1217 -31.0813 -31.0345 -31.0311 -30.7072 -30.6952
   -29.8505 -29.8074 -29.7850 -29.6748 -15.0112 -14.9629 -14.9092 -14.7781
   -14.6987 -14.5597 -14.4059 -14.2795 -14.1615 -14.0891 -14.0444 -14.0384
   -13.9883 -13.9742 -13.9671 -13.9269 -13.8946 -13.8797 -13.8417 -13.7885
   -13.7650 -13.5876 -13.5281 -13.4823 -13.4608 -13.4033 -13.3621 -13.3243
   -13.2875 -13.2668 -13.2223 -13.1143 -13.1004 -13.0226 -13.0103 -12.9707
   -12.9529 -12.9330 -12.8862 -12.8062 -12.7985 -12.7424 -12.7301 -12.7098
   -12.6567 -12.6478 -12.5971 -12.5191 -12.3514 -12.3268 -12.2305 -12.1757
   -12.1415 -11.7845 -11.7819 -11.7548 -11.7183 -11.6836 -11.6726 -11.6290
   -11.6253 -11.5801 -11.5194 -11.5058 -11.4915  -2.5934  -2.5360  -2.3852
    -2.3138  -2.0287  -1.9483  -1.8204  -1.6843  -1.6402  -1.6265  -1.5491
    -1.5162  -1.4351  -1.3997  -1.3196  -1.2821  -1.2441  -1.2170  -1.1554
    -1.1501  -1.1222  -1.0656  -1.0368  -1.0060  -0.9702  -0.8617  -0.8176
    -0.7801  -0.7767  -0.6908  -0.6610  -0.6387  -0.5917  -0.4989  -0.4332
    -0.3389  -0.2843  -0.2063  -0.1784  -0.0338   0.0365   0.0390   0.0822
     0.2031   0.2740   0.3878   0.4589   0.4691   0.5941   0.6642   0.7398
     0.8764   0.9765   1.0110   1.0507   1.0661   1.0964   1.1116   1.1457
     1.1630   1.1752   1.2847   1.3439   1.3798   1.4105   1.6792   1.7007
     1.7185   1.8064   1.8310   1.8687   1.8871   1.9092   1.9327   1.9340
     1.9585   2.0049   2.0281   2.0612   2.0655   2.0959   2.1485   2.2414
     2.2774   2.4327   2.4389   2.4685   2.6006   2.6133   2.6265   2.6675
     2.6772   2.6810   2.7300   2.7406   2.7948   2.8157   2.8957   2.9129
     2.9796   2.9829   3.0078   3.0132   3.0261   3.0296   3.0335   3.0409
     3.0445   3.0555   3.0737   3.0751   3.1402   3.1451   3.1613   3.2157
     4.1215   4.1339   4.1875   4.2640   4.7333   4.9027   5.0217   5.1795
     5.4110   5.4610   5.5826   5.7410   6.0357   6.0422   6.3664   6.4587
     6.8495   6.9495   7.2093   7.2812   7.3972   7.4817   7.7461   7.8842
     7.9052   8.0720   8.1253   8.3022   8.3405   8.4306   8.5004   8.6630
     8.8106   8.8439   8.8622

     occupation numbers 
     1.0000   1.0000   1.0000   1.0000   1.0000   1.0000   1.0000   1.0000
     1.0000   1.0000   1.0000   1.0000   1.0000   1.0000   1.0000   1.0000
     1.0000   1.0000   1.0000   1.0000   1.0000   1.0000   1.0000   1.0000
     1.0000   1.0000   1.0000   1.0000   1.0000   1.0000   1.0000   1.0000
     1.0000   1.0000   1.0000   1.0000   1.0000   1.0000   1.0000   1.0000
     1.0000   1.0000   1.0000   1.0000   1.0000   1.0000   1.0000   1.0000
     1.0000   1.0000   1.0000   1.0000   1.0000   1.0000   1.0000   1.0000
     1.0000   1.0000   1.0000   1.0000   1.0000   1.0000   1.0000   1.0000
     1.0000   1.0000   1.0000   1.0000   1.0000   1.0000   1.0000   1.0000
     1.0000   1.0000   1.0000   1.0000   1.0000   1.0000   1.0000   1.0000
     1.0000   1.0000   1.0000   1.0000   1.0000   1.0000   1.0000   1.0000
     1.0000   1.0000   1.0000   1.0000   1.0000   1.0000   1.0000   1.0000
     1.0000   1.0000   1.0000   1.0000   1.0000   1.0000   1.0000   1.0000
     1.0000   1.0000   1.0000   1.0000   1.0000   1.0000   1.0000   1.0000
     1.0000   1.0000   1.0000   1.0000   1.0000   1.0000   1.0000   1.0000
     1.0000   1.0000   1.0000   1.0000   1.0000   1.0000   1.0000   1.0000
     1.0000   1.0000   1.0000   1.0000   1.0000   1.0000   1.0000   1.0000
     1.0000   1.0000   1.0000   1.0000   1.0000   1.0000   1.0000   1.0000
     1.0000   1.0000   1.0000   1.0000   1.0000   1.0000   1.0000   1.0000
     1.0000   1.0000   1.0000   1.0000   1.0000   1.0000   1.0000   0.9999
     0.9999   0.9998   0.9997   0.9996   0.9996   0.9995   0.9995   0.9994
     0.9993   0.9993   0.9988   0.9983   0.9980   0.9977   0.9927   0.9920
     0.9914   0.9878   0.9866   0.9846   0.9835   0.9821   0.9805   0.9804
     0.9786   0.9748   0.9727   0.9695   0.9690   0.9657   0.9593   0.9458
     0.9396   0.9068   0.9052   0.8976   0.8581   0.8538   0.8493   0.8346
     0.8310   0.8296   0.8105   0.8062   0.7833   0.7741   0.7369   0.7284
     0.6947   0.6929   0.6798   0.6769   0.6701   0.6682   0.6660   0.6621
     0.6601   0.6541   0.6441   0.6433   0.6066   0.6039   0.5945   0.5629
     0.1177   0.1141   0.0995   0.0810   0.0181   0.0095   0.0058   0.0029
     0.0010   0.0007   0.0004   0.0002   0.0000   0.0000   0.0000   0.0000
     0.0000   0.0000   0.0000   0.0000   0.0000   0.0000   0.0000   0.0000
     0.0000   0.0000   0.0000   0.0000   0.0000   0.0000   0.0000   0.0000
     0.0000   0.0000   0.0000

          k = 0.2500 0.2500 0.0000 ( 65198 PWs)   bands (ev):

   -92.7051 -92.6574 -92.5600 -92.5120 -92.4564 -92.4118 -92.3942 -92.2734
   -56.0585 -56.0440 -55.9170 -55.9058 -55.8996 -55.8926 -55.8603 -55.8289
   -55.8128 -55.8114 -55.8075 -55.7630 -55.7427 -55.7074 -55.6869 -55.6563
   -55.6474 -55.5999 -55.5999 -55.5970 -55.5886 -55.5485 -55.5245 -55.4389
   -31.2803 -31.2642 -31.1211 -31.0819 -31.0347 -31.0304 -30.7096 -30.6930
   -29.8502 -29.8087 -29.7839 -29.6749 -15.0198 -14.9739 -14.9066 -14.7900
   -14.6661 -14.5419 -14.4736 -14.2636 -14.1119 -14.0985 -14.0615 -14.0317
   -14.0084 -13.9788 -13.9665 -13.9448 -13.9142 -13.8430 -13.8244 -13.6674
   -13.6515 -13.6211 -13.6034 -13.5231 -13.5108 -13.4355 -13.4300 -13.3033
   -13.2644 -13.2336 -13.1461 -13.1064 -13.0567 -13.0341 -13.0213 -12.9895
   -12.9513 -12.9398 -12.9187 -12.8626 -12.8274 -12.7486 -12.7203 -12.7122
   -12.6792 -12.6497 -12.5916 -12.4566 -12.4443 -12.3687 -12.2810 -12.0986
   -12.0408 -11.8027 -11.7711 -11.7601 -11.7534 -11.6903 -11.6563 -11.6494
   -11.6135 -11.6064 -11.5139 -11.4733 -11.4557  -2.6705  -2.4629  -2.3448
    -2.2486  -2.1297  -2.0652  -1.8645  -1.7224  -1.7039  -1.6700  -1.5782
    -1.5453  -1.4507  -1.4224  -1.3727  -1.2428  -1.1940  -1.1501  -1.1132
    -1.0742  -1.0294  -1.0070  -0.9838  -0.9413  -0.9255  -0.8348  -0.7849
    -0.7143  -0.6675  -0.6394  -0.5918  -0.5767  -0.5125  -0.4621  -0.3940
    -0.3692  -0.2736  -0.2311  -0.1960  -0.1637  -0.1096  -0.0307   0.0029
     0.0393   0.1048   0.1387   0.4085   0.5624   0.5907   0.6561   0.6927
     0.7517   0.7966   0.8671   0.9026   1.1762   1.2390   1.3130   1.3354
     1.3907   1.4159   1.4543   1.4911   1.5067   1.5347   1.5812   1.5887
     1.6067   1.6531   1.6870   1.7264   1.7871   1.8228   1.8403   1.8641
     1.9011   1.9564   1.9807   2.1131   2.1757   2.2117   2.2312   2.3012
     2.3624   2.3913   2.4259   2.4420   2.4506   2.4601   2.4771   2.5788
     2.6221   2.7136   2.8729   2.8908   2.8953   2.9121   2.9273   2.9409
     2.9531   2.9589   2.9709   2.9846   3.0000   3.0140   3.0201   3.0326
     3.0571   3.0660   3.0754   3.1065   3.4069   3.4990   3.5481   3.6149
     3.6279   3.8593   3.9496   4.3023   4.5056   4.7185   4.9786   5.1655
     5.6453   5.7030   5.7915   5.8342   5.8933   6.1150   6.1589   6.2090
     6.8904   6.9873   7.1143   7.3154   7.5495   7.6032   7.7105   7.8605
     7.8857   8.0112   8.1964   8.2202   8.3327   8.3505   8.4406   8.4873
     8.5585   8.7690   8.9089

     occupation numbers 
     1.0000   1.0000   1.0000   1.0000   1.0000   1.0000   1.0000   1.0000
     1.0000   1.0000   1.0000   1.0000   1.0000   1.0000   1.0000   1.0000
     1.0000   1.0000   1.0000   1.0000   1.0000   1.0000   1.0000   1.0000
     1.0000   1.0000   1.0000   1.0000   1.0000   1.0000   1.0000   1.0000
     1.0000   1.0000   1.0000   1.0000   1.0000   1.0000   1.0000   1.0000
     1.0000   1.0000   1.0000   1.0000   1.0000   1.0000   1.0000   1.0000
     1.0000   1.0000   1.0000   1.0000   1.0000   1.0000   1.0000   1.0000
     1.0000   1.0000   1.0000   1.0000   1.0000   1.0000   1.0000   1.0000
     1.0000   1.0000   1.0000   1.0000   1.0000   1.0000   1.0000   1.0000
     1.0000   1.0000   1.0000   1.0000   1.0000   1.0000   1.0000   1.0000
     1.0000   1.0000   1.0000   1.0000   1.0000   1.0000   1.0000   1.0000
     1.0000   1.0000   1.0000   1.0000   1.0000   1.0000   1.0000   1.0000
     1.0000   1.0000   1.0000   1.0000   1.0000   1.0000   1.0000   1.0000
     1.0000   1.0000   1.0000   1.0000   1.0000   1.0000   1.0000   1.0000
     1.0000   1.0000   1.0000   1.0000   1.0000   1.0000   1.0000   1.0000
     1.0000   1.0000   1.0000   1.0000   1.0000   1.0000   1.0000   1.0000
     1.0000   1.0000   1.0000   1.0000   1.0000   1.0000   1.0000   1.0000
     1.0000   1.0000   1.0000   1.0000   1.0000   1.0000   1.0000   1.0000
     1.0000   1.0000   1.0000   1.0000   1.0000   1.0000   1.0000   1.0000
     1.0000   1.0000   1.0000   1.0000   1.0000   1.0000   1.0000   1.0000
     0.9999   0.9999   0.9999   0.9998   0.9993   0.9990   0.9986   0.9984
     0.9979   0.9977   0.9972   0.9967   0.9965   0.9960   0.9951   0.9950
     0.9946   0.9934   0.9924   0.9911   0.9887   0.9870   0.9861   0.9848
     0.9826   0.9787   0.9768   0.9637   0.9557   0.9505   0.9474   0.9353
     0.9230   0.9166   0.9084   0.9045   0.9023   0.8998   0.8953   0.8653
     0.8508   0.8170   0.7478   0.7392   0.7371   0.7288   0.7213   0.7145
     0.7083   0.7053   0.6991   0.6921   0.6840   0.6765   0.6733   0.6665
     0.6532   0.6483   0.6431   0.6257   0.4501   0.3966   0.3688   0.3321
     0.3251   0.2127   0.1758   0.0728   0.0395   0.0191   0.0070   0.0031
     0.0003   0.0002   0.0001   0.0001   0.0001   0.0000   0.0000   0.0000
     0.0000   0.0000   0.0000   0.0000   0.0000   0.0000   0.0000   0.0000
     0.0000   0.0000   0.0000   0.0000   0.0000   0.0000   0.0000   0.0000
     0.0000   0.0000   0.0000

          k = 0.2500-0.5000 0.0000 ( 65138 PWs)   bands (ev):

   -92.7051 -92.6574 -92.5600 -92.5120 -92.4564 -92.4118 -92.3942 -92.2734
   -56.0585 -56.0440 -55.9170 -55.9058 -55.8996 -55.8926 -55.8603 -55.8289
   -55.8128 -55.8114 -55.8075 -55.7630 -55.7427 -55.7074 -55.6869 -55.6563
   -55.6474 -55.5999 -55.5999 -55.5970 -55.5886 -55.5485 -55.5245 -55.4389
   -31.2801 -31.2641 -31.1213 -31.0813 -31.0349 -31.0310 -30.7074 -30.6953
   -29.8496 -29.8083 -29.7846 -29.6753 -14.9803 -14.9359 -14.8658 -14.7491
   -14.7210 -14.6012 -14.5094 -14.3778 -14.0771 -14.0218 -13.9958 -13.9739
   -13.9673 -13.9579 -13.9460 -13.9100 -13.8838 -13.8547 -13.8227 -13.7882
   -13.7486 -13.6695 -13.6213 -13.5433 -13.5365 -13.4730 -13.4477 -13.3625
   -13.3217 -13.2110 -13.1465 -13.1251 -13.0406 -13.0060 -12.9939 -12.9869
   -12.9631 -12.9455 -12.9154 -12.8148 -12.8001 -12.7416 -12.7260 -12.6636
   -12.6532 -12.6282 -12.6036 -12.5255 -12.3369 -12.3239 -12.2111 -12.1645
   -12.1417 -11.7783 -11.7662 -11.7556 -11.7288 -11.6967 -11.6690 -11.6267
   -11.5998 -11.5772 -11.5323 -11.5070 -11.4954  -2.4509  -2.3879  -2.2589
    -2.1825  -2.0493  -1.9680  -1.8447  -1.6949  -1.6377  -1.6170  -1.5560
    -1.5435  -1.4460  -1.3784  -1.2943  -1.2423  -1.2330  -1.1720  -1.1481
    -1.1257  -1.0950  -1.0461  -1.0066  -0.9734  -0.9352  -0.9220  -0.8779
    -0.8481  -0.8040  -0.7744  -0.7072  -0.6011  -0.5682  -0.4853  -0.4192
    -0.3627  -0.3261  -0.3106  -0.2421  -0.0975  -0.0866   0.0435   0.0513
     0.0605   0.1043   0.1437   0.1744   0.2104   0.2744   0.5620   0.6657
     0.7057   0.7617   1.0441   1.0555   1.1485   1.1726   1.3366   1.3759
     1.4106   1.4342   1.4473   1.4701   1.5349   1.5873   1.6202   1.6894
     1.7947   1.8232   1.8449   1.8525   1.8914   1.9048   1.9134   1.9569
     1.9665   1.9887   2.0210   2.0335   2.0568   2.0909   2.1486   2.1959
     2.2752   2.4026   2.4365   2.4640   2.5527   2.5692   2.5878   2.6211
     2.6433   2.6675   2.6880   2.7023   2.7255   2.8216   2.8745   2.8912
     2.9008   2.9093   2.9292   2.9428   2.9622   2.9707   3.0103   3.0184
     3.0300   3.0367   3.0463   3.0561   3.5717   3.5983   3.7386   3.7923
     4.1231   4.1820   4.1938   4.3185   4.7530   4.9241   5.0580   5.1439
     5.3011   5.4321   5.6061   5.6584   5.7679   5.7904   6.3924   6.4689
     6.4893   6.5784   7.3019   7.4115   7.5984   7.6987   7.7966   7.8336
     7.8893   8.0373   8.2783   8.4584   8.4731   8.5415   8.5491   8.5670
     8.7088   8.7624   8.7720

     occupation numbers 
     1.0000   1.0000   1.0000   1.0000   1.0000   1.0000   1.0000   1.0000
     1.0000   1.0000   1.0000   1.0000   1.0000   1.0000   1.0000   1.0000
     1.0000   1.0000   1.0000   1.0000   1.0000   1.0000   1.0000   1.0000
     1.0000   1.0000   1.0000   1.0000   1.0000   1.0000   1.0000   1.0000
     1.0000   1.0000   1.0000   1.0000   1.0000   1.0000   1.0000   1.0000
     1.0000   1.0000   1.0000   1.0000   1.0000   1.0000   1.0000   1.0000
     1.0000   1.0000   1.0000   1.0000   1.0000   1.0000   1.0000   1.0000
     1.0000   1.0000   1.0000   1.0000   1.0000   1.0000   1.0000   1.0000
     1.0000   1.0000   1.0000   1.0000   1.0000   1.0000   1.0000   1.0000
     1.0000   1.0000   1.0000   1.0000   1.0000   1.0000   1.0000   1.0000
     1.0000   1.0000   1.0000   1.0000   1.0000   1.0000   1.0000   1.0000
     1.0000   1.0000   1.0000   1.0000   1.0000   1.0000   1.0000   1.0000
     1.0000   1.0000   1.0000   1.0000   1.0000   1.0000   1.0000   1.0000
     1.0000   1.0000   1.0000   1.0000   1.0000   1.0000   1.0000   1.0000
     1.0000   1.0000   1.0000   1.0000   1.0000   1.0000   1.0000   1.0000
     1.0000   1.0000   1.0000   1.0000   1.0000   1.0000   1.0000   1.0000
     1.0000   1.0000   1.0000   1.0000   1.0000   1.0000   1.0000   1.0000
     1.0000   1.0000   1.0000   1.0000   1.0000   1.0000   1.0000   1.0000
     1.0000   1.0000   1.0000   1.0000   1.0000   1.0000   1.0000   1.0000
     1.0000   1.0000   1.0000   1.0000   1.0000   1.0000   1.0000   1.0000
     0.9999   0.9999   0.9996   0.9996   0.9994   0.9993   0.9984   0.9981
     0.9977   0.9975   0.9973   0.9970   0.9960   0.9950   0.9943   0.9923
     0.9884   0.9870   0.9859   0.9855   0.9832   0.9824   0.9818   0.9787
     0.9780   0.9762   0.9734   0.9722   0.9699   0.9663   0.9593   0.9528
     0.9400   0.9140   0.9058   0.8988   0.8735   0.8683   0.8623   0.8512
     0.8434   0.8346   0.8269   0.8214   0.8123   0.7715   0.7470   0.7390
     0.7344   0.7302   0.7204   0.7135   0.7036   0.6993   0.6785   0.6742
     0.6679   0.6643   0.6591   0.6538   0.3556   0.3411   0.2683   0.2427
     0.1172   0.1009   0.0979   0.0696   0.0168   0.0087   0.0050   0.0034
     0.0017   0.0009   0.0003   0.0003   0.0001   0.0001   0.0000   0.0000
     0.0000   0.0000   0.0000   0.0000   0.0000   0.0000   0.0000   0.0000
     0.0000   0.0000   0.0000   0.0000   0.0000   0.0000   0.0000   0.0000
     0.0000   0.0000   0.0000

          k =-0.5000-0.5000 0.0000 ( 65132 PWs)   bands (ev):

   -92.7051 -92.6574 -92.5600 -92.5120 -92.4564 -92.4118 -92.3942 -92.2734
   -56.0585 -56.0440 -55.9170 -55.9058 -55.8996 -55.8926 -55.8603 -55.8289
   -55.8128 -55.8114 -55.8075 -55.7630 -55.7427 -55.7074 -55.6869 -55.6563
   -55.6474 -55.5999 -55.5999 -55.5970 -55.5886 -55.5485 -55.5245 -55.4389
   -31.2780 -31.2662 -31.1210 -31.0812 -31.0353 -31.0309 -30.7075 -30.6954
   -29.8486 -29.8094 -29.7842 -29.6757 -14.9327 -14.9087 -14.7913 -14.7779
   -14.6843 -14.6482 -14.6124 -14.4781 -13.9858 -13.9747 -13.9686 -13.9399
   -13.9239 -13.9044 -13.8821 -13.8610 -13.8507 -13.8381 -13.8251 -13.8112
   -13.7372 -13.7293 -13.6971 -13.6659 -13.6159 -13.5592 -13.5054 -13.4034
   -13.3662 -13.1607 -13.1231 -13.0551 -13.0299 -12.9994 -12.9899 -12.9857
   -12.9776 -12.9606 -12.9470 -12.8237 -12.7979 -12.7447 -12.7117 -12.6663
   -12.6208 -12.6069 -12.6004 -12.5415 -12.3246 -12.3180 -12.1891 -12.1535
   -12.1439 -11.7749 -11.7628 -11.7447 -11.7282 -11.6927 -11.6745 -11.6417
   -11.5801 -11.5603 -11.5544 -11.5046 -11.5010  -2.2247  -2.1515  -2.1446
    -2.0716  -2.0324  -1.9543  -1.8864  -1.7596  -1.6452  -1.6154  -1.5715
    -1.5188  -1.4467  -1.4323  -1.3616  -1.3195  -1.2016  -1.1700  -1.1497
    -1.1175  -1.0964  -1.0316  -0.9840  -0.9660  -0.9533  -0.8961  -0.8566
    -0.8368  -0.7250  -0.6676  -0.6225  -0.5742  -0.5442  -0.5251  -0.4963
    -0.4576  -0.4146  -0.4062  -0.3233  -0.2554  -0.2142  -0.1839  -0.1138
    -0.0498  -0.0475   0.0171   0.0481   0.0566   0.0863   0.5381   0.5923
     0.6521   0.6730   1.0663   1.0826   1.1177   1.1558   1.4236   1.4408
     1.4481   1.4944   1.6151   1.7101   1.7373   1.7740   1.8042   1.8167
     1.8267   1.8574   1.8696   1.8910   1.8938   1.9440   1.9482   1.9757
     1.9918   2.0111   2.0281   2.0651   2.0895   2.1049   2.1345   2.1682
     2.2298   2.2988   2.4336   2.4595   2.5663   2.5967   2.6176   2.6339
     2.6474   2.6769   2.6776   2.6972   2.7088   2.7262   2.7492   2.7582
     2.8233   2.8275   2.8474   2.8625   2.8768   2.8996   2.9009   2.9085
     3.0165   3.0229   3.0411   3.0543   4.0008   4.0438   4.0508   4.0850
     4.3147   4.3894   4.4145   4.6539   4.7771   4.8597   4.9892   5.0811
     5.0892   5.2046   5.2938   5.4586   5.8559   5.8853   5.9536   6.0270
     6.6651   6.7909   7.0415   7.1493   7.8920   7.9503   7.9584   7.9697
     7.9783   8.0272   8.0878   8.2684   8.4488   8.5852   8.6191   8.6548
     8.6614   8.7399   8.7533

     occupation numbers 
     1.0000   1.0000   1.0000   1.0000   1.0000   1.0000   1.0000   1.0000
     1.0000   1.0000   1.0000   1.0000   1.0000   1.0000   1.0000   1.0000
     1.0000   1.0000   1.0000   1.0000   1.0000   1.0000   1.0000   1.0000
     1.0000   1.0000   1.0000   1.0000   1.0000   1.0000   1.0000   1.0000
     1.0000   1.0000   1.0000   1.0000   1.0000   1.0000   1.0000   1.0000
     1.0000   1.0000   1.0000   1.0000   1.0000   1.0000   1.0000   1.0000
     1.0000   1.0000   1.0000   1.0000   1.0000   1.0000   1.0000   1.0000
     1.0000   1.0000   1.0000   1.0000   1.0000   1.0000   1.0000   1.0000
     1.0000   1.0000   1.0000   1.0000   1.0000   1.0000   1.0000   1.0000
     1.0000   1.0000   1.0000   1.0000   1.0000   1.0000   1.0000   1.0000
     1.0000   1.0000   1.0000   1.0000   1.0000   1.0000   1.0000   1.0000
     1.0000   1.0000   1.0000   1.0000   1.0000   1.0000   1.0000   1.0000
     1.0000   1.0000   1.0000   1.0000   1.0000   1.0000   1.0000   1.0000
     1.0000   1.0000   1.0000   1.0000   1.0000   1.0000   1.0000   1.0000
     1.0000   1.0000   1.0000   1.0000   1.0000   1.0000   1.0000   1.0000
     1.0000   1.0000   1.0000   1.0000   1.0000   1.0000   1.0000   1.0000
     1.0000   1.0000   1.0000   1.0000   1.0000   1.0000   1.0000   1.0000
     1.0000   1.0000   1.0000   1.0000   1.0000   1.0000   1.0000   1.0000
     1.0000   1.0000   1.0000   1.0000   1.0000   1.0000   1.0000   1.0000
     1.0000   1.0000   1.0000   1.0000   1.0000   1.0000   1.0000   1.0000
     1.0000   1.0000   0.9996   0.9996   0.9995   0.9994   0.9976   0.9974
     0.9973   0.9967   0.9944   0.9917   0.9907   0.9893   0.9879   0.9873
     0.9868   0.9852   0.9845   0.9832   0.9831   0.9797   0.9794   0.9772
     0.9759   0.9742   0.9727   0.9691   0.9664   0.9647   0.9611   0.9567
     0.9476   0.9357   0.9066   0.9000   0.8693   0.8594   0.8523   0.8467
     0.8419   0.8311   0.8308   0.8234   0.8189   0.8120   0.8027   0.7989
     0.7707   0.7688   0.7597   0.7527   0.7459   0.7350   0.7343   0.7306
     0.6752   0.6718   0.6619   0.6547   0.1569   0.1420   0.1397   0.1287
     0.0703   0.0566   0.0525   0.0240   0.0154   0.0112   0.0067   0.0045
     0.0044   0.0026   0.0017   0.0008   0.0001   0.0001   0.0000   0.0000
     0.0000   0.0000   0.0000   0.0000   0.0000   0.0000   0.0000   0.0000
     0.0000   0.0000   0.0000   0.0000   0.0000   0.0000   0.0000   0.0000
     0.0000   0.0000   0.0000

          k = 0.2500 0.0000 0.0000 ( 65257 PWs)   bands (ev):

   -92.7051 -92.6574 -92.5600 -92.5120 -92.4564 -92.4118 -92.3942 -92.2734
   -56.0585 -56.0440 -55.9170 -55.9058 -55.8996 -55.8926 -55.8603 -55.8289
   -55.8128 -55.8114 -55.8075 -55.7630 -55.7427 -55.7074 -55.6869 -55.6563
   -55.6474 -55.5999 -55.5999 -55.5970 -55.5886 -55.5485 -55.5246 -55.4389
   -31.2805 -31.2643 -31.1209 -31.0824 -31.0346 -31.0298 -30.7114 -30.6912
   -29.8508 -29.8090 -29.7833 -29.6746 -15.0527 -15.0038 -14.9401 -14.7935
   -14.6829 -14.4875 -14.3596 -14.1776 -14.1616 -14.1323 -14.0990 -14.0745
   -14.0389 -14.0236 -13.9986 -13.9692 -13.9533 -13.8442 -13.8117 -13.6636
   -13.5944 -13.5763 -13.5059 -13.4939 -13.4780 -13.4167 -13.3496 -13.3171
   -13.2250 -13.1641 -13.1547 -13.0834 -13.0643 -13.0478 -13.0311 -13.0161
   -12.9790 -12.9449 -12.9259 -12.9000 -12.8861 -12.8242 -12.7756 -12.6797
   -12.6112 -12.6008 -12.5755 -12.5597 -12.5169 -12.4103 -12.2529 -12.0600
   -11.9950 -11.8297 -11.7782 -11.7605 -11.7471 -11.7205 -11.6703 -11.6468
[...]
     0.3553   0.3254   0.2037   0.0788   0.0462   0.0217   0.0059   0.0048
     0.0003   0.0001   0.0000   0.0000   0.0000   0.0000   0.0000   0.0000
     0.0000   0.0000   0.0000   0.0000   0.0000   0.0000   0.0000   0.0000
     0.0000   0.0000   0.0000   0.0000   0.0000   0.0000   0.0000   0.0000
     0.0000   0.0000   0.0000

          k =-0.5000 0.0000 0.0000 ( 65180 PWs)   bands (ev):

   -92.7051 -92.6574 -92.5600 -92.5120 -92.4564 -92.4118 -92.3942 -92.2734
   -56.0585 -56.0440 -55.9170 -55.9058 -55.8996 -55.8926 -55.8603 -55.8289
   -55.8128 -55.8114 -55.8075 -55.7630 -55.7427 -55.7074 -55.6869 -55.6563
   -55.6474 -55.5999 -55.5999 -55.5970 -55.5886 -55.5485 -55.5246 -55.4389
   -31.2784 -31.2665 -31.1206 -31.0823 -31.0350 -31.0297 -30.7115 -30.6913
   -29.8498 -29.8100 -29.7829 -29.6750 -15.0181 -14.9617 -14.9016 -14.7938
   -14.6911 -14.5478 -14.3961 -14.2588 -14.1360 -14.1207 -14.1124 -14.0414
   -13.9951 -13.9687 -13.9604 -13.9109 -13.8996 -13.8836 -13.8407 -13.8209
   -13.7108 -13.5592 -13.5094 -13.4955 -13.4856 -13.4138 -13.3679 -13.3023
   -13.2723 -13.2485 -13.2340 -13.0771 -13.0588 -13.0467 -13.0237 -13.0144
   -12.9555 -12.9500 -12.9307 -12.9019 -12.8880 -12.6749 -12.6449 -12.6365
   -12.6090 -12.5742 -12.5563 -12.5451 -12.4560 -12.3368 -12.3305 -12.1459
   -12.0969 -11.7821 -11.7601 -11.7538 -11.7387 -11.7205 -11.6790 -11.6174
   -11.6002 -11.5675 -11.5209 -11.5120 -11.4967  -2.5841  -2.5462  -2.3830
    -2.3441  -2.0285  -1.9519  -1.8067  -1.6895  -1.6493  -1.6026  -1.5559
    -1.5325  -1.4087  -1.3649  -1.3473  -1.2662  -1.2322  -1.2154  -1.1845
    -1.1488  -1.1188  -1.0552  -1.0291  -0.9964  -0.9035  -0.8571  -0.8058
    -0.7751  -0.7545  -0.7198  -0.6758  -0.6511  -0.6109  -0.5032  -0.4437
    -0.3603  -0.3022  -0.1477  -0.1106  -0.0604  -0.0015   0.0438   0.0613
     0.1950   0.2272   0.2703   0.4365   0.5361   0.5846   0.6797   0.7408
     0.8572   0.8691   1.0017   1.0291   1.0843   1.1182   1.1517   1.1607
     1.2080   1.2329   1.3019   1.3461   1.3928   1.4078   1.7028   1.7184
     1.7337   1.7585   1.8578   1.8697   1.8841   1.8882   1.9219   1.9331
     1.9708   1.9937   2.0156   2.0738   2.0899   2.1423   2.1627   2.2208
     2.3268   2.4242   2.4439   2.4608   2.5010   2.5136   2.5978   2.6224
     2.6550   2.7229   2.7319   2.7395   2.7700   2.8327   2.8785   2.9342
     2.9514   2.9967   3.0014   3.0037   3.0136   3.0300   3.0414   3.0545
     3.0601   3.0795   3.0830   3.1052   3.1251   3.1302   3.2596   3.2649
     4.0610   4.1347   4.1910   4.3109   4.7891   4.8640   5.0417   5.0598
     5.4818   5.5085   5.6066   5.6516   6.0310   6.0515   6.2869   6.5660
     6.7950   7.0031   7.2767   7.3094   7.4110   7.4585   7.7267   7.7739
     7.8844   7.9047   8.2077   8.2375   8.4200   8.5108   8.5427   8.6448
     8.7583   8.8134   8.9164

     occupation numbers 
     1.0000   1.0000   1.0000   1.0000   1.0000   1.0000   1.0000   1.0000
     1.0000   1.0000   1.0000   1.0000   1.0000   1.0000   1.0000   1.0000
     1.0000   1.0000   1.0000   1.0000   1.0000   1.0000   1.0000   1.0000
     1.0000   1.0000   1.0000   1.0000   1.0000   1.0000   1.0000   1.0000
     1.0000   1.0000   1.0000   1.0000   1.0000   1.0000   1.0000   1.0000
     1.0000   1.0000   1.0000   1.0000   1.0000   1.0000   1.0000   1.0000
     1.0000   1.0000   1.0000   1.0000   1.0000   1.0000   1.0000   1.0000
     1.0000   1.0000   1.0000   1.0000   1.0000   1.0000   1.0000   1.0000
     1.0000   1.0000   1.0000   1.0000   1.0000   1.0000   1.0000   1.0000
     1.0000   1.0000   1.0000   1.0000   1.0000   1.0000   1.0000   1.0000
     1.0000   1.0000   1.0000   1.0000   1.0000   1.0000   1.0000   1.0000
     1.0000   1.0000   1.0000   1.0000   1.0000   1.0000   1.0000   1.0000
     1.0000   1.0000   1.0000   1.0000   1.0000   1.0000   1.0000   1.0000
     1.0000   1.0000   1.0000   1.0000   1.0000   1.0000   1.0000   1.0000
     1.0000   1.0000   1.0000   1.0000   1.0000   1.0000   1.0000   1.0000
     1.0000   1.0000   1.0000   1.0000   1.0000   1.0000   1.0000   1.0000
     1.0000   1.0000   1.0000   1.0000   1.0000   1.0000   1.0000   1.0000
     1.0000   1.0000   1.0000   1.0000   1.0000   1.0000   1.0000   1.0000
     1.0000   1.0000   1.0000   1.0000   1.0000   1.0000   1.0000   1.0000
     1.0000   1.0000   1.0000   1.0000   1.0000   1.0000   1.0000   0.9999
     0.9999   0.9999   0.9997   0.9997   0.9996   0.9995   0.9994   0.9993
     0.9992   0.9990   0.9987   0.9983   0.9979   0.9978   0.9919   0.9914
     0.9908   0.9899   0.9852   0.9845   0.9837   0.9834   0.9812   0.9804
     0.9776   0.9758   0.9738   0.9681   0.9664   0.9601   0.9575   0.9491
     0.9304   0.9089   0.9040   0.8996   0.8887   0.8851   0.8590   0.8507
     0.8392   0.8133   0.8097   0.8066   0.7940   0.7665   0.7451   0.7179
     0.7092   0.6857   0.6832   0.6820   0.6767   0.6679   0.6618   0.6546
     0.6515   0.6409   0.6389   0.6265   0.6152   0.6124   0.5372   0.5340
     0.1364   0.1139   0.0986   0.0711   0.0147   0.0110   0.0053   0.0049
     0.0007   0.0006   0.0003   0.0003   0.0000   0.0000   0.0000   0.0000
     0.0000   0.0000   0.0000   0.0000   0.0000   0.0000   0.0000   0.0000
     0.0000   0.0000   0.0000   0.0000   0.0000   0.0000   0.0000   0.0000
     0.0000   0.0000   0.0000

          k =-0.2500 0.2500 0.0000 ( 65198 PWs)   bands (ev):

   -92.7051 -92.6574 -92.5600 -92.5120 -92.4564 -92.4118 -92.3942 -92.2734
   -56.0585 -56.0440 -55.9170 -55.9058 -55.8996 -55.8926 -55.8603 -55.8289
   -55.8128 -55.8114 -55.8075 -55.7630 -55.7427 -55.7074 -55.6869 -55.6563
   -55.6474 -55.5999 -55.5999 -55.5970 -55.5886 -55.5485 -55.5245 -55.4389
   -31.2803 -31.2642 -31.1211 -31.0819 -31.0347 -31.0304 -30.7096 -30.6930
   -29.8502 -29.8087 -29.7839 -29.6749 -15.0211 -14.9729 -14.9050 -14.7886
   -14.6720 -14.5465 -14.4657 -14.2544 -14.1182 -14.0891 -14.0756 -14.0261
   -14.0037 -13.9815 -13.9722 -13.9486 -13.9195 -13.8393 -13.8253 -13.6760
   -13.6487 -13.6159 -13.5992 -13.5235 -13.5007 -13.4394 -13.4294 -13.3129
   -13.2599 -13.2273 -13.1503 -13.1082 -13.0446 -13.0325 -13.0137 -12.9929
   -12.9599 -12.9312 -12.9245 -12.8690 -12.8359 -12.7752 -12.7088 -12.6969
   -12.6799 -12.6497 -12.5931 -12.4483 -12.4462 -12.3626 -12.2867 -12.0950
   -12.0452 -11.8018 -11.7805 -11.7534 -11.7414 -11.6999 -11.6660 -11.6421
   -11.6214 -11.5984 -11.5136 -11.4686 -11.4590  -2.6689  -2.4618  -2.3408
    -2.2499  -2.1341  -2.0680  -1.8621  -1.7195  -1.7015  -1.6680  -1.5789
    -1.5443  -1.4504  -1.4160  -1.3896  -1.2487  -1.1925  -1.1453  -1.1214
    -1.0937  -1.0317  -1.0136  -0.9733  -0.9449  -0.9042  -0.8410  -0.7931
    -0.7247  -0.6603  -0.6354  -0.5855  -0.5571  -0.5110  -0.4515  -0.3957
    -0.3652  -0.2580  -0.2327  -0.2118  -0.1720  -0.1128  -0.0351   0.0023
     0.0488   0.1112   0.1351   0.3882   0.5665   0.5985   0.6422   0.7023
     0.7515   0.8002   0.8706   0.9030   1.1836   1.2892   1.3290   1.3627
     1.3721   1.4113   1.4257   1.4725   1.5035   1.5159   1.5417   1.5913
     1.6063   1.6445   1.6702   1.7116   1.8020   1.8138   1.8379   1.8657
     1.8996   1.9389   1.9880   2.1006   2.2102   2.2328   2.2794   2.2977
     2.3603   2.4028   2.4288   2.4405   2.4522   2.4669   2.4803   2.5784
     2.6214   2.7129   2.8813   2.8875   2.9019   2.9107   2.9221   2.9365
     2.9441   2.9616   2.9717   2.9840   2.9950   3.0063   3.0153   3.0226
     3.0580   3.0676   3.0744   3.1085   3.4002   3.4811   3.5502   3.6158
     3.6406   3.8435   3.9583   4.3016   4.5029   4.7202   4.9883   5.1655
     5.6465   5.7012   5.7958   5.8307   5.8940   6.1156   6.1699   6.1953
     6.8895   6.9910   7.1101   7.3153   7.5633   7.6110   7.6706   7.8782
     7.9044   7.9910   8.1945   8.2401   8.3327   8.3495   8.4445   8.4702
     8.5616   8.7622   8.9234

     occupation numbers 
     1.0000   1.0000   1.0000   1.0000   1.0000   1.0000   1.0000   1.0000
     1.0000   1.0000   1.0000   1.0000   1.0000   1.0000   1.0000   1.0000
     1.0000   1.0000   1.0000   1.0000   1.0000   1.0000   1.0000   1.0000
     1.0000   1.0000   1.0000   1.0000   1.0000   1.0000   1.0000   1.0000
     1.0000   1.0000   1.0000   1.0000   1.0000   1.0000   1.0000   1.0000
     1.0000   1.0000   1.0000   1.0000   1.0000   1.0000   1.0000   1.0000
     1.0000   1.0000   1.0000   1.0000   1.0000   1.0000   1.0000   1.0000
     1.0000   1.0000   1.0000   1.0000   1.0000   1.0000   1.0000   1.0000
     1.0000   1.0000   1.0000   1.0000   1.0000   1.0000   1.0000   1.0000
     1.0000   1.0000   1.0000   1.0000   1.0000   1.0000   1.0000   1.0000
     1.0000   1.0000   1.0000   1.0000   1.0000   1.0000   1.0000   1.0000
     1.0000   1.0000   1.0000   1.0000   1.0000   1.0000   1.0000   1.0000
     1.0000   1.0000   1.0000   1.0000   1.0000   1.0000   1.0000   1.0000
     1.0000   1.0000   1.0000   1.0000   1.0000   1.0000   1.0000   1.0000
     1.0000   1.0000   1.0000   1.0000   1.0000   1.0000   1.0000   1.0000
     1.0000   1.0000   1.0000   1.0000   1.0000   1.0000   1.0000   1.0000
     1.0000   1.0000   1.0000   1.0000   1.0000   1.0000   1.0000   1.0000
     1.0000   1.0000   1.0000   1.0000   1.0000   1.0000   1.0000   1.0000
     1.0000   1.0000   1.0000   1.0000   1.0000   1.0000   1.0000   1.0000
     1.0000   1.0000   1.0000   1.0000   1.0000   1.0000   1.0000   1.0000
     0.9999   0.9999   0.9999   0.9998   0.9993   0.9987   0.9985   0.9982
     0.9981   0.9977   0.9976   0.9970   0.9965   0.9963   0.9959   0.9949
     0.9946   0.9936   0.9929   0.9916   0.9880   0.9875   0.9863   0.9847
     0.9827   0.9800   0.9762   0.9652   0.9507   0.9472   0.9393   0.9360
     0.9234   0.9140   0.9077   0.9048   0.9019   0.8980   0.8944   0.8654
     0.8511   0.8173   0.7438   0.7408   0.7338   0.7295   0.7239   0.7167
     0.7129   0.7039   0.6988   0.6923   0.6866   0.6806   0.6758   0.6719
     0.6527   0.6474   0.6437   0.6247   0.4540   0.4069   0.3676   0.3315
     0.3183   0.2196   0.1725   0.0730   0.0398   0.0190   0.0067   0.0031
     0.0003   0.0002   0.0001   0.0001   0.0001   0.0000   0.0000   0.0000
     0.0000   0.0000   0.0000   0.0000   0.0000   0.0000   0.0000   0.0000
     0.0000   0.0000   0.0000   0.0000   0.0000   0.0000   0.0000   0.0000
     0.0000   0.0000   0.0000

          k =-0.5000 0.2500 0.0000 ( 65138 PWs)   bands (ev):

   -92.7051 -92.6574 -92.5600 -92.5120 -92.4564 -92.4118 -92.3942 -92.2734
   -56.0585 -56.0440 -55.9170 -55.9058 -55.8996 -55.8926 -55.8603 -55.8289
   -55.8128 -55.8114 -55.8075 -55.7630 -55.7427 -55.7074 -55.6869 -55.6563
   -55.6474 -55.5999 -55.5999 -55.5970 -55.5886 -55.5485 -55.5245 -55.4389
   -31.2782 -31.2663 -31.1208 -31.0818 -31.0351 -31.0303 -30.7097 -30.6931
   -29.8492 -29.8097 -29.7835 -29.6753 -14.9847 -14.9358 -14.8585 -14.7601
   -14.7204 -14.5946 -14.5009 -14.3745 -14.0688 -14.0372 -14.0251 -13.9795
   -13.9699 -13.9545 -13.9344 -13.8973 -13.8832 -13.8645 -13.8279 -13.8177
   -13.7049 -13.6415 -13.5924 -13.5848 -13.5451 -13.4738 -13.4593 -13.3489
   -13.3090 -13.2040 -13.1688 -13.0728 -13.0340 -13.0269 -13.0198 -12.9944
   -12.9620 -12.9443 -12.9261 -12.8908 -12.8409 -12.6817 -12.6633 -12.6444
   -12.6264 -12.6207 -12.5914 -12.5431 -12.3772 -12.3260 -12.2641 -12.1467
   -12.1127 -11.7749 -11.7619 -11.7477 -11.7360 -11.7140 -11.6839 -11.6045
   -11.5957 -11.5728 -11.5355 -11.5077 -11.4992  -2.4414  -2.4001  -2.2525
    -2.2107  -2.0484  -1.9706  -1.8309  -1.6957  -1.6367  -1.6109  -1.5720
    -1.5352  -1.4536  -1.3384  -1.2814  -1.2589  -1.2313  -1.1600  -1.1410
    -1.1263  -1.0850  -1.0708  -1.0092  -0.9785  -0.9413  -0.9070  -0.8779
    -0.8191  -0.7924  -0.7516  -0.7147  -0.6085  -0.5846  -0.4847  -0.4372
    -0.3974  -0.3313  -0.2622  -0.2292  -0.1243  -0.0877  -0.0280   0.0213
     0.0745   0.1195   0.1447   0.1768   0.2287   0.2686   0.5996   0.6589
     0.7019   0.7216   1.0151   1.0797   1.1489   1.1806   1.3508   1.3848
     1.4227   1.4342   1.4521   1.4694   1.5406   1.5858   1.6266   1.6628
     1.7773   1.8208   1.8433   1.8531   1.8899   1.9200   1.9353   1.9464
     1.9644   1.9888   2.0300   2.0483   2.0835   2.1087   2.1422   2.1962
     2.3196   2.4141   2.4358   2.4443   2.4678   2.5126   2.5498   2.6135
     2.6509   2.6558   2.6982   2.7296   2.7526   2.8326   2.8761   2.8908
     2.8958   2.9169   2.9374   2.9497   2.9661   2.9774   3.0018   3.0144
     3.0237   3.0327   3.0401   3.0519   3.5825   3.6220   3.7717   3.7913
     4.0704   4.1488   4.1999   4.3975   4.7833   4.8812   5.0460   5.0752
     5.4113   5.4298   5.5888   5.6304   5.7426   5.8084   6.3853   6.4006
     6.4919   6.7062   7.2409   7.4461   7.5531   7.7130   7.7928   7.8535
     7.8915   8.0235   8.2403   8.4269   8.4702   8.5264   8.5712   8.5864
     8.6655   8.7444   8.8309

     occupation numbers 
     1.0000   1.0000   1.0000   1.0000   1.0000   1.0000   1.0000   1.0000
     1.0000   1.0000   1.0000   1.0000   1.0000   1.0000   1.0000   1.0000
     1.0000   1.0000   1.0000   1.0000   1.0000   1.0000   1.0000   1.0000
     1.0000   1.0000   1.0000   1.0000   1.0000   1.0000   1.0000   1.0000
     1.0000   1.0000   1.0000   1.0000   1.0000   1.0000   1.0000   1.0000
     1.0000   1.0000   1.0000   1.0000   1.0000   1.0000   1.0000   1.0000
     1.0000   1.0000   1.0000   1.0000   1.0000   1.0000   1.0000   1.0000
     1.0000   1.0000   1.0000   1.0000   1.0000   1.0000   1.0000   1.0000
     1.0000   1.0000   1.0000   1.0000   1.0000   1.0000   1.0000   1.0000
     1.0000   1.0000   1.0000   1.0000   1.0000   1.0000   1.0000   1.0000
     1.0000   1.0000   1.0000   1.0000   1.0000   1.0000   1.0000   1.0000
     1.0000   1.0000   1.0000   1.0000   1.0000   1.0000   1.0000   1.0000
     1.0000   1.0000   1.0000   1.0000   1.0000   1.0000   1.0000   1.0000
     1.0000   1.0000   1.0000   1.0000   1.0000   1.0000   1.0000   1.0000
     1.0000   1.0000   1.0000   1.0000   1.0000   1.0000   1.0000   1.0000
     1.0000   1.0000   1.0000   1.0000   1.0000   1.0000   1.0000   1.0000
     1.0000   1.0000   1.0000   1.0000   1.0000   1.0000   1.0000   1.0000
     1.0000   1.0000   1.0000   1.0000   1.0000   1.0000   1.0000   1.0000
     1.0000   1.0000   1.0000   1.0000   1.0000   1.0000   1.0000   1.0000
     1.0000   1.0000   1.0000   1.0000   1.0000   1.0000   1.0000   1.0000
     1.0000   0.9999   0.9997   0.9996   0.9994   0.9993   0.9983   0.9980
     0.9976   0.9975   0.9973   0.9970   0.9959   0.9950   0.9941   0.9931
     0.9891   0.9871   0.9860   0.9854   0.9833   0.9813   0.9803   0.9795
     0.9781   0.9762   0.9725   0.9707   0.9671   0.9643   0.9602   0.9528
     0.9318   0.9113   0.9060   0.9039   0.8978   0.8854   0.8744   0.8538
     0.8407   0.8389   0.8230   0.8107   0.8013   0.7665   0.7462   0.7392
     0.7368   0.7265   0.7163   0.7101   0.7016   0.6958   0.6830   0.6763
     0.6713   0.6665   0.6625   0.6561   0.3497   0.3282   0.2524   0.2432
     0.1333   0.1099   0.0963   0.0552   0.0150   0.0103   0.0052   0.0046
     0.0010   0.0009   0.0004   0.0003   0.0002   0.0001   0.0000   0.0000
     0.0000   0.0000   0.0000   0.0000   0.0000   0.0000   0.0000   0.0000
     0.0000   0.0000   0.0000   0.0000   0.0000   0.0000   0.0000   0.0000
     0.0000   0.0000   0.0000

     the Fermi energy is     3.3224 ev

!    total energy              =   -4441.66355654 Ry
     estimated scf accuracy    <          9.6E-09 Ry
     smearing contrib. (-TS)   =      -1.15501548 Ry
     internal energy E=F+TS    =   -4440.50854106 Ry

     The total energy is F=E-TS. E is the sum of the following terms:
     one-electron contribution =  -20803.32472767 Ry
     hartree contribution      =   10533.58099254 Ry
     xc contribution           =    -694.18270120 Ry
     ewald contribution        =    6799.58734008 Ry
     one-center paw contrib.   =    -276.16944482 Ry
      -> PAW hartree energy AE =      25.14384220 Ry
      -> PAW hartree energy PS =     -25.02793533 Ry
      -> PAW xc energy AE      =     -16.51479322 Ry
      -> PAW xc energy PS      =       6.87412355 Ry
      -> total E_H with PAW    =   10533.69689940 Ry
      -> total E_XC with PAW   =    -703.82337086 Ry

     convergence has been achieved in  47 iterations

     Writing all to output data dir /bsuhome/zayahcortright/scratch/pwscf.save/
 
     init_run     :      7.77s CPU      8.45s WALL (       1 calls)
     electrons    :    762.65s CPU    846.42s WALL (       1 calls)

     Called by init_run:
     wfcinit      :      6.01s CPU      6.23s WALL (       1 calls)
     wfcinit:atom :      0.04s CPU      0.07s WALL (       5 calls)
     wfcinit:wfcr :      5.70s CPU      5.83s WALL (       5 calls)
     potinit      :      0.17s CPU      0.19s WALL (       1 calls)
     hinit0       :      0.56s CPU      0.77s WALL (       1 calls)

     Called by electrons:
     c_bands      :    616.91s CPU    629.32s WALL (      47 calls)
     sum_band     :    107.79s CPU    148.22s WALL (      47 calls)
     v_of_rho     :      5.15s CPU      5.54s WALL (      48 calls)
     v_h          :      0.44s CPU      0.45s WALL (      48 calls)
     v_xc         :      4.71s CPU      5.09s WALL (      48 calls)
     newd         :     18.71s CPU     48.77s WALL (      48 calls)
     PAW_pot      :      1.55s CPU      1.58s WALL (      48 calls)
     mix_rho      :     12.29s CPU     12.72s WALL (      47 calls)

     Called by c_bands:
     init_us_2    :      6.48s CPU      6.57s WALL (     475 calls)
     init_us_2:cp :      6.48s CPU      6.57s WALL (     475 calls)
     cegterg      :    580.75s CPU    592.79s WALL (     235 calls)

     Called by sum_band:
     sum_band:wei :      0.34s CPU      0.35s WALL (      47 calls)
     sum_band:loo :     89.03s CPU     89.75s WALL (      47 calls)
     sum_band:buf :      1.30s CPU      1.37s WALL (     235 calls)
     sum_band:ini :      3.00s CPU      3.01s WALL (     235 calls)
     sum_band:cal :     18.55s CPU     18.63s WALL (     235 calls)
     sum_band:bec :      0.55s CPU      0.58s WALL (     235 calls)
     addusdens    :     17.01s CPU     56.65s WALL (      47 calls)
                                        0.00s GPU  (      47 calls)
     addusd:skk   :      0.26s CPU      2.20s WALL (     188 calls)
                                        0.00s GPU  (     188 calls)

     Called by *egterg:
     cdiaghg      :     57.78s CPU     58.11s WALL (    1247 calls)
     cegterg:over :     47.23s CPU     47.41s WALL (    1012 calls)
     cegterg:upda :     48.17s CPU     49.29s WALL (    1012 calls)
     cegterg:last :     67.46s CPU     67.79s WALL (     421 calls)
     cdiaghg:chol :      3.27s CPU      3.30s WALL (    1247 calls)
     cdiaghg:inve :      3.53s CPU      3.55s WALL (    1247 calls)
     cdiaghg:para :      7.39s CPU      7.44s WALL (    2494 calls)
     h_psi        :    295.47s CPU    300.20s WALL (    1252 calls)
     s_psi        :     37.89s CPU     37.99s WALL (    1252 calls)
     g_psi        :      2.61s CPU      2.62s WALL (    1012 calls)

     Called by h_psi:
     h_psi:calbec :     43.34s CPU     43.55s WALL (    1252 calls)
     vloc_psi     :    208.87s CPU    210.89s WALL (    1252 calls)
     add_vuspsi   :     37.41s CPU     37.62s WALL (    1252 calls)

     General routines
     calbec       :     61.88s CPU     62.18s WALL (    1487 calls)
     fft          :      3.57s CPU      3.63s WALL (     622 calls)
     ffts         :      4.56s CPU      4.60s WALL (    5071 calls)
     fftw         :    192.55s CPU    194.13s WALL (  318081 calls)
     interpolate  :      0.40s CPU      0.41s WALL (      48 calls)
 
     Parallel routines

     PAW routines
     PAW_pot      :      1.55s CPU      1.58s WALL (      48 calls)
 
     PWSCF        :  12m51.85s CPU  14m19.86s WALL

 
   This run was terminated on:  17:24: 9  21Jun2024            

=------------------------------------------------------------------------------=
   JOB DONE.
=------------------------------------------------------------------------------=
