
     Program PWSCF v.7.2 starts on 21Jun2024 at 16: 1:11 

     This program is part of the open-source Quantum ESPRESSO suite
     for quantum simulation of materials; please cite
         "P. Giannozzi et al., J. Phys.:Condens. Matter 21 395502 (2009);
         "P. Giannozzi et al., J. Phys.:Condens. Matter 29 465901 (2017);
         "P. Giannozzi et al., J. Chem. Phys. 152 154105 (2020);
          URL http://www.quantum-espresso.org", 
     in publications or presentations arising from this work. More details at
     http://www.quantum-espresso.org/quote

     Parallel version (MPI & OpenMP), running on      48 processor cores
     Number of MPI processes:                48
     Threads/MPI process:                     1

     MPI processes distributed on     1 nodes
     180167 MiB available memory on the printing compute node when the environment starts
 
     Reading input from espresso.pwi
Warning: card &CELL ignored
Warning: card / ignored
Warning: card &FCP ignored
Warning: card / ignored
Warning: card &RISM ignored
Warning: card / ignored

     Current dimensions of program PWSCF are:
     Max number of different atomic species (ntypx) = 10
     Max number of k-points (npk) =  40000
     Max angular momentum in pseudopotentials (lmaxx) =  4
     file O.pbe-n-kjpaw_psl.0.1.UPF: wavefunction(s)  2P renormalized
     signal trapping enabled: kill the code with -SIGUSR1 to stop cleanly the simulation 
 
     K-points division:     npool     =       2
     R & G space division:  proc/nbgrp/npool/nimage =      24
     Subspace diagonalization in iterative solution of the eigenvalue problem:
     one sub-group per band group will be used
     scalapack distributed-memory algorithm (size of sub-group:  3*  3 procs)

 
     Parallelization info
     --------------------
     sticks:   dense  smooth     PW     G-vecs:    dense   smooth      PW
     Min         350     175     47                61430    21716    3036
     Max         351     177     48                61449    21727    3041
     Sum        8421    4205   1137              1474595   521381   72913
 
     Using Slab Decomposition
 


     bravais-lattice index     =            0
     lattice parameter (alat)  =      14.8599  a.u.
     unit-cell volume          =    8305.1283 (a.u.)^3
     number of atoms/cell      =           49
     number of atomic types    =            4
     number of electrons       =       425.00
     number of Kohn-Sham states=          256
     kinetic-energy cutoff     =      60.0000  Ry
     charge density cutoff     =     480.0000  Ry
     scf convergence threshold =      1.0E-08
     mixing beta               =       0.1500
     number of iterations used =            8  local-TF  mixing
     Exchange-correlation= PBE
                           (   1   4   3   4   0   0   0)

     celldm(1)=  14.859904  celldm(2)=   0.000000  celldm(3)=   0.000000
     celldm(4)=   0.000000  celldm(5)=   0.000000  celldm(6)=   0.000000

     crystal axes: (cart. coord. in units of alat)
               a(1) = (   1.000000   0.000000   0.000000 )  
               a(2) = (   0.000000   1.000000   0.000000 )  
               a(3) = (   0.000000   0.000000   2.531036 )  

     reciprocal axes: (cart. coord. in units 2 pi/alat)
               b(1) = (  1.000000  0.000000  0.000000 )  
               b(2) = (  0.000000  1.000000  0.000000 )  
               b(3) = (  0.000000  0.000000  0.395095 )  


     PseudoPot. # 1 for Sr read from file:
     /bsuhome/zayahcortright/q-e/pseudo/Sr_pbe_v1.uspp.F.UPF
     MD5 check sum: 6b418c05fbe9db5448babca5e47b7a5b
     Pseudo is Ultrasoft + core correction, Zval = 10.0
     Generated by new atomic code, or converted to UPF format
     Using radial grid of  883 points,  6 beta functions with: 
                l(1) =   0
                l(2) =   0
                l(3) =   1
                l(4) =   1
                l(5) =   2
                l(6) =   2
     Q(r) pseudized with  6 coefficients,  rinner =    1.400   1.400   1.400
                                                       1.400   1.400

     PseudoPot. # 2 for O  read from file:
     /bsuhome/zayahcortright/q-e/pseudo/O.pbe-n-kjpaw_psl.0.1.UPF
     MD5 check sum: 0234752ac141de4415c5fc33072bef88
     Pseudo is Projector augmented-wave + core cor, Zval =  6.0
     Generated using "atomic" code by A. Dal Corso  v.5.0.99 svn rev. 10869
     Shape of augmentation charge: BESSEL
     Using radial grid of 1095 points,  4 beta functions with: 
                l(1) =   0
                l(2) =   0
                l(3) =   1
                l(4) =   1
     Q(r) pseudized with 0 coefficients 


     PseudoPot. # 3 for Co read from file:
     /bsuhome/zayahcortright/q-e/pseudo/Co_pbe_v1.2.uspp.F.UPF
     MD5 check sum: 5f91765df6ddd3222702df6e7b74a16d
     Pseudo is Ultrasoft + core correction, Zval = 17.0
     Generated by new atomic code, or converted to UPF format
     Using radial grid of  863 points,  6 beta functions with: 
                l(1) =   0
                l(2) =   0
                l(3) =   1
                l(4) =   1
                l(5) =   2
                l(6) =   2
     Q(r) pseudized with  8 coefficients,  rinner =    1.200   1.200   1.200
                                                       1.200   1.200

     PseudoPot. # 4 for H  read from file:
     /bsuhome/zayahcortright/q-e/pseudo/H.pbe-rrkjus_psl.1.0.0.UPF
     MD5 check sum: f52b6d4d1c606e5624b1dc7b2218f220
     Pseudo is Ultrasoft, Zval =  1.0
     Generated using "atomic" code by A. Dal Corso  v.5.1
     Using radial grid of  929 points,  2 beta functions with: 
                l(1) =   0
                l(2) =   0
     Q(r) pseudized with 0 coefficients 


     atomic species   valence    mass     pseudopotential
        Sr            10.00    87.62000     Sr( 1.00)
        O              6.00    15.99900     O ( 1.00)
        Co            17.00    58.93319     Co( 1.00)
        H              1.00     1.00800     H ( 1.00)

     No symmetry found


                                    s                        frac. trans.

      isym =  1     identity                                     

 cryst.   s( 1) = (     1          0          0      )
                  (     0          1          0      )
                  (     0          0          1      )

 cart.    s( 1) = (  1.0000000  0.0000000  0.0000000 )
                  (  0.0000000  1.0000000  0.0000000 )
                  (  0.0000000  0.0000000  1.0000000 )


   Cartesian axes

     site n.     atom                  positions (alat units)
         1           Sr  tau(   1) = (   0.2508693   0.7491307   1.7574407  )
         2           O   tau(   2) = (   0.4985141   0.5014859   1.7715967  )
         3           Sr  tau(   3) = (   0.7482398   0.7454518   1.7648669  )
         4           Sr  tau(   4) = (   0.7441748   0.2558252   1.7667843  )
         5           Sr  tau(   5) = (   0.2508693   0.7491307   1.2696799  )
         6           Sr  tau(   6) = (   0.2508693   0.7491307   0.7632319  )
         7           Co  tau(   7) = (   0.4998914   0.5001086   1.0164559  )
         8           Co  tau(   8) = (   0.4936915   0.5063085   1.5135603  )
         9           O   tau(   9) = (   0.4988895   0.7610401   1.0164559  )
        10           O   tau(  10) = (   0.2389599   0.5011105   1.0164559  )
        11           O   tau(  11) = (   0.0070918   0.7374880   1.0164559  )
        12           O   tau(  12) = (   0.0088340   0.7405089   1.5135603  )
        13           O   tau(  13) = (   0.5066944   0.7415376   1.5135603  )
        14           O   tau(  14) = (   0.2584624   0.4933056   1.5135603  )
        15           O   tau(  15) = (   0.4985141   0.5014859   0.7773880  )
        16           O   tau(  16) = (   0.4985141   0.5014859   1.2555238  )
        17           Sr  tau(  17) = (   0.7482398   0.7454518   0.7706582  )
        18           Sr  tau(  18) = (   0.7482398   0.7454518   1.2622536  )
        19           Sr  tau(  19) = (   0.7441748   0.2558252   0.7725755  )
        20           Sr  tau(  20) = (   0.7441748   0.2558252   1.2603363  )
        21           O   tau(  21) = (   0.7322655   0.0078049   1.5135603  )
        22           O   tau(  22) = (   0.7558175   0.4996027   1.5135603  )
        23           O   tau(  23) = (   0.5003973   0.2441825   1.5135603  )
        24           O   tau(  24) = (   0.7527966   0.4978604   1.0164559  )
        25           O   tau(  25) = (   0.5021396   0.2472034   1.0164559  )
        26           O   tau(  26) = (   0.7517679   0.0000000   1.0164559  )
        27           O   tau(  27) = (   0.0114961   0.4948124   1.7455321  )
        28           O   tau(  28) = (   0.0048226   0.0077944   1.7715967  )
        29           Sr  tau(  29) = (   0.2545482   0.2517602   1.7648669  )
        30           O   tau(  30) = (   0.5048017   0.0015068   1.7786929  )
        31           Co  tau(  31) = (   0.0056869   0.5006215   1.0164559  )
        32           Co  tau(  32) = (   0.0065315   0.4997770   1.5135603  )
        33           Co  tau(  33) = (   0.0061999   0.0064171   1.0164559  )
        34           Co  tau(  34) = (   0.0000000   0.0126169   1.5135603  )
        35           O   tau(  35) = (   0.0114961   0.4948124   1.2815885  )
        36           O   tau(  36) = (   0.0114961   0.4948124   0.7513233  )
        37           O   tau(  37) = (   0.0051979   0.2673486   1.0164559  )
        38           O   tau(  38) = (   0.0130029   0.2478461   1.5135603  )
        39           O   tau(  39) = (   0.0048226   0.0077944   0.7773880  )
        40           O   tau(  40) = (   0.0048226   0.0077944   1.2555238  )
        41           Sr  tau(  41) = (   0.2545482   0.2517602   0.7706582  )
        42           Sr  tau(  42) = (   0.2545482   0.2517602   1.2622536  )
        43           Co  tau(  43) = (   0.4989925   0.0073160   1.5135603  )
        44           Co  tau(  44) = (   0.4998370   0.0064714   1.0164559  )
        45           O   tau(  45) = (   0.5048017   0.0015068   0.7844841  )
        46           O   tau(  46) = (   0.5048017   0.0015068   1.2484277  )
        47           O   tau(  47) = (   0.2621260   0.0059111   1.5135603  )
        48           O   tau(  48) = (   0.2591051   0.0041689   1.0164559  )
        49           H   tau(  49) = (   0.2843291   0.5686583   2.1602013  )

   Crystallographic axes

     site n.     atom                  positions (cryst. coord.)
         1           Sr  tau(   1) = (  0.2508693  0.7491307  0.6943562  )
         2           O   tau(   2) = (  0.4985141  0.5014859  0.6999492  )
         3           Sr  tau(   3) = (  0.7482398  0.7454518  0.6972903  )
         4           Sr  tau(   4) = (  0.7441748  0.2558252  0.6980478  )
         5           Sr  tau(   5) = (  0.2508693  0.7491307  0.5016443  )
         6           Sr  tau(   6) = (  0.2508693  0.7491307  0.3015492  )
         7           Co  tau(   7) = (  0.4998914  0.5001086  0.4015968  )
         8           Co  tau(   8) = (  0.4936915  0.5063085  0.5980003  )
         9           O   tau(   9) = (  0.4988895  0.7610401  0.4015968  )
        10           O   tau(  10) = (  0.2389599  0.5011105  0.4015968  )
        11           O   tau(  11) = (  0.0070918  0.7374880  0.4015968  )
        12           O   tau(  12) = (  0.0088340  0.7405089  0.5980003  )
        13           O   tau(  13) = (  0.5066944  0.7415376  0.5980003  )
        14           O   tau(  14) = (  0.2584624  0.4933056  0.5980003  )
        15           O   tau(  15) = (  0.4985141  0.5014859  0.3071422  )
        16           O   tau(  16) = (  0.4985141  0.5014859  0.4960513  )
        17           Sr  tau(  17) = (  0.7482398  0.7454518  0.3044833  )
        18           Sr  tau(  18) = (  0.7482398  0.7454518  0.4987103  )
        19           Sr  tau(  19) = (  0.7441748  0.2558252  0.3052408  )
        20           Sr  tau(  20) = (  0.7441748  0.2558252  0.4979527  )
        21           O   tau(  21) = (  0.7322655  0.0078049  0.5980003  )
        22           O   tau(  22) = (  0.7558175  0.4996027  0.5980003  )
        23           O   tau(  23) = (  0.5003973  0.2441825  0.5980003  )
        24           O   tau(  24) = (  0.7527966  0.4978604  0.4015968  )
        25           O   tau(  25) = (  0.5021396  0.2472034  0.4015968  )
        26           O   tau(  26) = (  0.7517679  0.0000000  0.4015968  )
        27           O   tau(  27) = (  0.0114961  0.4948124  0.6896512  )
        28           O   tau(  28) = (  0.0048226  0.0077944  0.6999492  )
        29           Sr  tau(  29) = (  0.2545482  0.2517602  0.6972903  )
        30           O   tau(  30) = (  0.5048017  0.0015068  0.7027529  )
        31           Co  tau(  31) = (  0.0056869  0.5006215  0.4015968  )
        32           Co  tau(  32) = (  0.0065315  0.4997770  0.5980003  )
        33           Co  tau(  33) = (  0.0061999  0.0064171  0.4015968  )
        34           Co  tau(  34) = (  0.0000000  0.0126169  0.5980003  )
        35           O   tau(  35) = (  0.0114961  0.4948124  0.5063494  )
        36           O   tau(  36) = (  0.0114961  0.4948124  0.2968442  )
        37           O   tau(  37) = (  0.0051979  0.2673486  0.4015968  )
        38           O   tau(  38) = (  0.0130029  0.2478461  0.5980003  )
        39           O   tau(  39) = (  0.0048226  0.0077944  0.3071422  )
        40           O   tau(  40) = (  0.0048226  0.0077944  0.4960513  )
        41           Sr  tau(  41) = (  0.2545482  0.2517602  0.3044833  )
        42           Sr  tau(  42) = (  0.2545482  0.2517602  0.4987103  )
        43           Co  tau(  43) = (  0.4989925  0.0073160  0.5980003  )
        44           Co  tau(  44) = (  0.4998370  0.0064714  0.4015968  )
        45           O   tau(  45) = (  0.5048017  0.0015068  0.3099459  )
        46           O   tau(  46) = (  0.5048017  0.0015068  0.4932477  )
        47           O   tau(  47) = (  0.2621260  0.0059111  0.5980003  )
        48           O   tau(  48) = (  0.2591051  0.0041689  0.4015968  )
        49           H   tau(  49) = (  0.2843291  0.5686583  0.8534850  )

     number of k points=    10  Gaussian smearing, width (Ry)=  0.0700
                       cart. coord. in units 2pi/alat
        k(    1) = (   0.0000000   0.0000000   0.0000000), wk =   0.1250000
        k(    2) = (   0.0000000   0.2500000   0.0000000), wk =   0.2500000
        k(    3) = (   0.0000000  -0.5000000   0.0000000), wk =   0.1250000
        k(    4) = (   0.2500000   0.2500000   0.0000000), wk =   0.2500000
        k(    5) = (   0.2500000  -0.5000000   0.0000000), wk =   0.2500000
        k(    6) = (  -0.5000000  -0.5000000   0.0000000), wk =   0.1250000
        k(    7) = (   0.2500000   0.0000000   0.0000000), wk =   0.2500000
        k(    8) = (  -0.5000000   0.0000000   0.0000000), wk =   0.1250000
        k(    9) = (  -0.2500000   0.2500000   0.0000000), wk =   0.2500000
        k(   10) = (  -0.5000000   0.2500000   0.0000000), wk =   0.2500000

                       cryst. coord.
        k(    1) = (   0.0000000   0.0000000   0.0000000), wk =   0.1250000
        k(    2) = (   0.0000000   0.2500000   0.0000000), wk =   0.2500000
        k(    3) = (   0.0000000  -0.5000000   0.0000000), wk =   0.1250000
        k(    4) = (   0.2500000   0.2500000   0.0000000), wk =   0.2500000
        k(    5) = (   0.2500000  -0.5000000   0.0000000), wk =   0.2500000
        k(    6) = (  -0.5000000  -0.5000000   0.0000000), wk =   0.1250000
        k(    7) = (   0.2500000   0.0000000   0.0000000), wk =   0.2500000
        k(    8) = (  -0.5000000   0.0000000   0.0000000), wk =   0.1250000
        k(    9) = (  -0.2500000   0.2500000   0.0000000), wk =   0.2500000
        k(   10) = (  -0.5000000   0.2500000   0.0000000), wk =   0.2500000

     Dense  grid:  1474595 G-vectors     FFT dimensions: ( 108, 108, 270)

     Smooth grid:   521381 G-vectors     FFT dimensions: (  75,  75, 192)

     Dynamical RAM for                 wfc:      10.61 MB

     Dynamical RAM for     wfc (w. buffer):      63.63 MB

     Dynamical RAM for           str. fact:       3.75 MB

     Dynamical RAM for           local pot:       0.00 MB

     Dynamical RAM for          nlocal pot:      24.28 MB

     Dynamical RAM for                qrad:       7.03 MB

     Dynamical RAM for          rho,v,vnew:       6.02 MB

     Dynamical RAM for               rhoin:       2.01 MB

     Dynamical RAM for            rho*nmix:      15.00 MB

     Dynamical RAM for           G-vectors:       3.68 MB

     Dynamical RAM for          h,s,v(r/c):       1.32 MB

     Dynamical RAM for          <psi|beta>:       2.29 MB

     Dynamical RAM for                 psi:      21.21 MB

     Dynamical RAM for                hpsi:      21.21 MB

     Dynamical RAM for                spsi:      21.21 MB

     Dynamical RAM for      wfcinit/wfcrot:      34.09 MB

     Dynamical RAM for           addusdens:     100.79 MB

     Estimated static dynamical RAM per process >     120.42 MB

     Estimated max dynamical RAM per process >     236.21 MB

     Estimated total dynamical RAM >      10.72 GB

     Check: negative core charge=   -0.000004

     Initial potential from superposition of free atoms

     starting charge     416.5961, renormalised to     425.0000

     negative rho (up, down):  7.826E-01 0.000E+00
     Starting wfcs are  373 randomized atomic wfcs
     Checking if some PAW data can be deallocated... 
       PAW data deallocated on   20 nodes for type:  2

     total cpu time spent up to now is        8.8 secs

     Self-consistent Calculation

     iteration #  1     ecut=    60.00 Ry     beta= 0.15
     Davidson diagonalization with overlap

---- Real-time Memory Report at c_bands before calling an iterative solver
             0 MiB given to the printing process from OS
             0 MiB allocation reported by mallinfo(arena+hblkhd)
        170503 MiB available memory on the node where the printing process lives
------------------
     ethr =  1.00E-02,  avg # of iterations =  2.0

     negative rho (up, down):  7.718E-01 0.000E+00

     total cpu time spent up to now is       23.1 secs

     total energy              =   -4404.76448503 Ry
     estimated scf accuracy    <      42.20425400 Ry

     iteration #  2     ecut=    60.00 Ry     beta= 0.15
     Davidson diagonalization with overlap

---- Real-time Memory Report at c_bands before calling an iterative solver
             0 MiB given to the printing process from OS
             0 MiB allocation reported by mallinfo(arena+hblkhd)
        170742 MiB available memory on the node where the printing process lives
------------------
     ethr =  9.93E-03,  avg # of iterations =  1.0

     negative rho (up, down):  7.532E-01 0.000E+00

     total cpu time spent up to now is       35.3 secs

     total energy              =   -4400.03149644 Ry
     estimated scf accuracy    <      26.68056831 Ry

     iteration #  3     ecut=    60.00 Ry     beta= 0.15
     Davidson diagonalization with overlap

---- Real-time Memory Report at c_bands before calling an iterative solver
             0 MiB given to the printing process from OS
             0 MiB allocation reported by mallinfo(arena+hblkhd)
        169985 MiB available memory on the node where the printing process lives
------------------
     ethr =  6.28E-03,  avg # of iterations =  2.0

     negative rho (up, down):  7.544E-01 0.000E+00

     total cpu time spent up to now is       49.0 secs

     total energy              =   -4402.38595473 Ry
     estimated scf accuracy    <      49.15640488 Ry

     iteration #  4     ecut=    60.00 Ry     beta= 0.15
     Davidson diagonalization with overlap

---- Real-time Memory Report at c_bands before calling an iterative solver
             0 MiB given to the printing process from OS
             0 MiB allocation reported by mallinfo(arena+hblkhd)
        169857 MiB available memory on the node where the printing process lives
------------------
     ethr =  6.28E-03,  avg # of iterations =  1.0

     negative rho (up, down):  7.410E-01 0.000E+00

     total cpu time spent up to now is       61.3 secs

     total energy              =   -4401.64805177 Ry
     estimated scf accuracy    <      29.25923530 Ry

     iteration #  5     ecut=    60.00 Ry     beta= 0.15
     Davidson diagonalization with overlap

---- Real-time Memory Report at c_bands before calling an iterative solver
             0 MiB given to the printing process from OS
             0 MiB allocation reported by mallinfo(arena+hblkhd)
        169834 MiB available memory on the node where the printing process lives
------------------
     ethr =  6.28E-03,  avg # of iterations =  1.0

     negative rho (up, down):  7.470E-01 0.000E+00

     total cpu time spent up to now is       73.4 secs

     total energy              =   -4399.79538749 Ry
     estimated scf accuracy    <      44.14886794 Ry

     iteration #  6     ecut=    60.00 Ry     beta= 0.15
     Davidson diagonalization with overlap

---- Real-time Memory Report at c_bands before calling an iterative solver
             0 MiB given to the printing process from OS
             0 MiB allocation reported by mallinfo(arena+hblkhd)
        169814 MiB available memory on the node where the printing process lives
------------------
     ethr =  6.28E-03,  avg # of iterations =  1.0

     negative rho (up, down):  7.418E-01 0.000E+00

     total cpu time spent up to now is       85.5 secs

     total energy              =   -4400.63471427 Ry
     estimated scf accuracy    <      12.15431073 Ry

     iteration #  7     ecut=    60.00 Ry     beta= 0.15
     Davidson diagonalization with overlap

---- Real-time Memory Report at c_bands before calling an iterative solver
             0 MiB given to the printing process from OS
             0 MiB allocation reported by mallinfo(arena+hblkhd)
        169791 MiB available memory on the node where the printing process lives
------------------
     ethr =  2.86E-03,  avg # of iterations =  1.1

     negative rho (up, down):  7.441E-01 0.000E+00

     total cpu time spent up to now is       97.9 secs

     total energy              =   -4400.81225560 Ry
     estimated scf accuracy    <       4.10559694 Ry

     iteration #  8     ecut=    60.00 Ry     beta= 0.15
     Davidson diagonalization with overlap

---- Real-time Memory Report at c_bands before calling an iterative solver
             0 MiB given to the printing process from OS
             0 MiB allocation reported by mallinfo(arena+hblkhd)
        169780 MiB available memory on the node where the printing process lives
------------------
     ethr =  9.66E-04,  avg # of iterations =  1.5

     negative rho (up, down):  7.542E-01 0.000E+00

     total cpu time spent up to now is      110.8 secs

     total energy              =   -4400.29681722 Ry
     estimated scf accuracy    <       3.43227942 Ry

     iteration #  9     ecut=    60.00 Ry     beta= 0.15
     Davidson diagonalization with overlap

---- Real-time Memory Report at c_bands before calling an iterative solver
             0 MiB given to the printing process from OS
             0 MiB allocation reported by mallinfo(arena+hblkhd)
        169755 MiB available memory on the node where the printing process lives
------------------
     ethr =  8.08E-04,  avg # of iterations =  5.2

     negative rho (up, down):  7.756E-01 0.000E+00

     total cpu time spent up to now is      126.8 secs

     total energy              =   -4399.82413773 Ry
     estimated scf accuracy    <      44.53880458 Ry

     iteration # 10     ecut=    60.00 Ry     beta= 0.15
     Davidson diagonalization with overlap

---- Real-time Memory Report at c_bands before calling an iterative solver
             0 MiB given to the printing process from OS
             0 MiB allocation reported by mallinfo(arena+hblkhd)
        169609 MiB available memory on the node where the printing process lives
------------------
     ethr =  8.08E-04,  avg # of iterations =  9.6

     negative rho (up, down):  7.784E-01 0.000E+00

     total cpu time spent up to now is      145.1 secs

     total energy              =   -4399.80106095 Ry
     estimated scf accuracy    <      11.67205280 Ry

     iteration # 11     ecut=    60.00 Ry     beta= 0.15
     Davidson diagonalization with overlap

---- Real-time Memory Report at c_bands before calling an iterative solver
             0 MiB given to the printing process from OS
             0 MiB allocation reported by mallinfo(arena+hblkhd)
        169290 MiB available memory on the node where the printing process lives
------------------
     ethr =  8.08E-04,  avg # of iterations =  1.3

     negative rho (up, down):  7.812E-01 0.000E+00

     total cpu time spent up to now is      158.0 secs

     total energy              =   -4400.11657627 Ry
     estimated scf accuracy    <       1.20301376 Ry

     iteration # 12     ecut=    60.00 Ry     beta= 0.15
     Davidson diagonalization with overlap

---- Real-time Memory Report at c_bands before calling an iterative solver
             0 MiB given to the printing process from OS
             0 MiB allocation reported by mallinfo(arena+hblkhd)
        169288 MiB available memory on the node where the printing process lives
------------------
     ethr =  2.83E-04,  avg # of iterations =  6.4

     negative rho (up, down):  7.901E-01 0.000E+00

     total cpu time spent up to now is      175.2 secs

     total energy              =   -4400.08963017 Ry
     estimated scf accuracy    <       0.72328818 Ry

     iteration # 13     ecut=    60.00 Ry     beta= 0.15
     Davidson diagonalization with overlap

---- Real-time Memory Report at c_bands before calling an iterative solver
             0 MiB given to the printing process from OS
             0 MiB allocation reported by mallinfo(arena+hblkhd)
        169267 MiB available memory on the node where the printing process lives
------------------
     ethr =  1.70E-04,  avg # of iterations =  3.4

     negative rho (up, down):  7.996E-01 0.000E+00

     total cpu time spent up to now is      189.3 secs

     total energy              =   -4400.09210653 Ry
     estimated scf accuracy    <       1.49119828 Ry

     iteration # 14     ecut=    60.00 Ry     beta= 0.15
     Davidson diagonalization with overlap

---- Real-time Memory Report at c_bands before calling an iterative solver
             0 MiB given to the printing process from OS
             0 MiB allocation reported by mallinfo(arena+hblkhd)
        169266 MiB available memory on the node where the printing process lives
------------------
     ethr =  1.70E-04,  avg # of iterations =  5.4

     negative rho (up, down):  8.058E-01 0.000E+00

     total cpu time spent up to now is      204.3 secs

     total energy              =   -4400.01729412 Ry
     estimated scf accuracy    <       1.52679799 Ry

     iteration # 15     ecut=    60.00 Ry     beta= 0.15
     Davidson diagonalization with overlap

---- Real-time Memory Report at c_bands before calling an iterative solver
             0 MiB given to the printing process from OS
             0 MiB allocation reported by mallinfo(arena+hblkhd)
        169264 MiB available memory on the node where the printing process lives
------------------
     ethr =  1.70E-04,  avg # of iterations =  5.7

     negative rho (up, down):  8.083E-01 0.000E+00

     total cpu time spent up to now is      219.0 secs

     total energy              =   -4400.04746495 Ry
     estimated scf accuracy    <       0.36758826 Ry

     iteration # 16     ecut=    60.00 Ry     beta= 0.15
     Davidson diagonalization with overlap

---- Real-time Memory Report at c_bands before calling an iterative solver
             0 MiB given to the printing process from OS
             0 MiB allocation reported by mallinfo(arena+hblkhd)
        169243 MiB available memory on the node where the printing process lives
------------------
     ethr =  8.65E-05,  avg # of iterations =  6.3

     negative rho (up, down):  8.126E-01 0.000E+00

     total cpu time spent up to now is      234.2 secs

     total energy              =   -4400.01250874 Ry
     estimated scf accuracy    <       0.30923641 Ry

     iteration # 17     ecut=    60.00 Ry     beta= 0.15
     Davidson diagonalization with overlap

---- Real-time Memory Report at c_bands before calling an iterative solver
             0 MiB given to the printing process from OS
             0 MiB allocation reported by mallinfo(arena+hblkhd)
        169254 MiB available memory on the node where the printing process lives
------------------
     ethr =  7.28E-05,  avg # of iterations =  9.2

     negative rho (up, down):  8.189E-01 0.000E+00

     total cpu time spent up to now is      251.4 secs

     total energy              =   -4399.95037105 Ry
     estimated scf accuracy    <       0.24725781 Ry

     iteration # 18     ecut=    60.00 Ry     beta= 0.15
     Davidson diagonalization with overlap

---- Real-time Memory Report at c_bands before calling an iterative solver
             0 MiB given to the printing process from OS
             0 MiB allocation reported by mallinfo(arena+hblkhd)
        169246 MiB available memory on the node where the printing process lives
------------------
     ethr =  5.82E-05,  avg # of iterations = 10.0

     negative rho (up, down):  8.204E-01 0.000E+00

     total cpu time spent up to now is      269.6 secs

     total energy              =   -4399.95097844 Ry
     estimated scf accuracy    <       0.11548197 Ry

     iteration # 19     ecut=    60.00 Ry     beta= 0.15
     Davidson diagonalization with overlap

---- Real-time Memory Report at c_bands before calling an iterative solver
             0 MiB given to the printing process from OS
             0 MiB allocation reported by mallinfo(arena+hblkhd)
        169217 MiB available memory on the node where the printing process lives
------------------
     c_bands:  1 eigenvalues not converged
     ethr =  2.72E-05,  avg # of iterations =  7.3

     negative rho (up, down):  8.181E-01 0.000E+00

     total cpu time spent up to now is      285.6 secs

     total energy              =   -4399.93427741 Ry
     estimated scf accuracy    <       0.10149209 Ry

     iteration # 20     ecut=    60.00 Ry     beta= 0.15
     Davidson diagonalization with overlap

---- Real-time Memory Report at c_bands before calling an iterative solver
             0 MiB given to the printing process from OS
             0 MiB allocation reported by mallinfo(arena+hblkhd)
        169205 MiB available memory on the node where the printing process lives
------------------
     ethr =  2.39E-05,  avg # of iterations =  9.4

     negative rho (up, down):  8.177E-01 0.000E+00

     total cpu time spent up to now is      302.4 secs

     total energy              =   -4399.92723703 Ry
     estimated scf accuracy    <       0.06287050 Ry

     iteration # 21     ecut=    60.00 Ry     beta= 0.15
     Davidson diagonalization with overlap

---- Real-time Memory Report at c_bands before calling an iterative solver
             0 MiB given to the printing process from OS
             0 MiB allocation reported by mallinfo(arena+hblkhd)
        169176 MiB available memory on the node where the printing process lives
------------------
     ethr =  1.48E-05,  avg # of iterations =  9.6

     negative rho (up, down):  8.110E-01 0.000E+00

     total cpu time spent up to now is      319.9 secs

     total energy              =   -4399.92549165 Ry
     estimated scf accuracy    <       0.04137714 Ry

     iteration # 22     ecut=    60.00 Ry     beta= 0.15
     Davidson diagonalization with overlap

---- Real-time Memory Report at c_bands before calling an iterative solver
             0 MiB given to the printing process from OS
             0 MiB allocation reported by mallinfo(arena+hblkhd)
        169151 MiB available memory on the node where the printing process lives
------------------
     ethr =  9.74E-06,  avg # of iterations =  2.0

     negative rho (up, down):  8.054E-01 0.000E+00

     total cpu time spent up to now is      333.3 secs

     total energy              =   -4399.92173524 Ry
     estimated scf accuracy    <       0.03004989 Ry

     iteration # 23     ecut=    60.00 Ry     beta= 0.15
     Davidson diagonalization with overlap

---- Real-time Memory Report at c_bands before calling an iterative solver
             0 MiB given to the printing process from OS
             0 MiB allocation reported by mallinfo(arena+hblkhd)
        169176 MiB available memory on the node where the printing process lives
------------------
     ethr =  7.07E-06,  avg # of iterations = 13.4

     negative rho (up, down):  8.013E-01 0.000E+00

     total cpu time spent up to now is      351.8 secs

     total energy              =   -4399.92044425 Ry
     estimated scf accuracy    <       0.01903428 Ry

     iteration # 24     ecut=    60.00 Ry     beta= 0.15
     Davidson diagonalization with overlap

---- Real-time Memory Report at c_bands before calling an iterative solver
             0 MiB given to the printing process from OS
             0 MiB allocation reported by mallinfo(arena+hblkhd)
        169084 MiB available memory on the node where the printing process lives
------------------
     c_bands:  1 eigenvalues not converged
     ethr =  4.48E-06,  avg # of iterations =  9.3

     negative rho (up, down):  7.945E-01 0.000E+00

     total cpu time spent up to now is      369.1 secs

     total energy              =   -4399.92024334 Ry
     estimated scf accuracy    <       0.01117445 Ry

     iteration # 25     ecut=    60.00 Ry     beta= 0.15
     Davidson diagonalization with overlap

---- Real-time Memory Report at c_bands before calling an iterative solver
             0 MiB given to the printing process from OS
             0 MiB allocation reported by mallinfo(arena+hblkhd)
        169085 MiB available memory on the node where the printing process lives
------------------
     ethr =  2.63E-06,  avg # of iterations =  4.3

     negative rho (up, down):  7.912E-01 0.000E+00

     total cpu time spent up to now is      384.0 secs

     total energy              =   -4399.92000244 Ry
     estimated scf accuracy    <       0.00770529 Ry

     iteration # 26     ecut=    60.00 Ry     beta= 0.15
     Davidson diagonalization with overlap

---- Real-time Memory Report at c_bands before calling an iterative solver
             0 MiB given to the printing process from OS
             0 MiB allocation reported by mallinfo(arena+hblkhd)
        169099 MiB available memory on the node where the printing process lives
------------------
     ethr =  1.81E-06,  avg # of iterations =  3.5

     negative rho (up, down):  7.927E-01 0.000E+00

     total cpu time spent up to now is      398.1 secs

     total energy              =   -4399.91900237 Ry
     estimated scf accuracy    <       0.00584904 Ry

     iteration # 27     ecut=    60.00 Ry     beta= 0.15
     Davidson diagonalization with overlap

---- Real-time Memory Report at c_bands before calling an iterative solver
             0 MiB given to the printing process from OS
             0 MiB allocation reported by mallinfo(arena+hblkhd)
        169129 MiB available memory on the node where the printing process lives
------------------
     ethr =  1.38E-06,  avg # of iterations = 10.1

     negative rho (up, down):  7.947E-01 0.000E+00

     total cpu time spent up to now is      416.6 secs

     total energy              =   -4399.91909295 Ry
     estimated scf accuracy    <       0.00202966 Ry

     iteration # 28     ecut=    60.00 Ry     beta= 0.15
     Davidson diagonalization with overlap

---- Real-time Memory Report at c_bands before calling an iterative solver
             0 MiB given to the printing process from OS
             0 MiB allocation reported by mallinfo(arena+hblkhd)
        169072 MiB available memory on the node where the printing process lives
------------------
     ethr =  4.78E-07,  avg # of iterations =  7.8

     negative rho (up, down):  7.953E-01 0.000E+00

     total cpu time spent up to now is      432.5 secs

     total energy              =   -4399.91910965 Ry
     estimated scf accuracy    <       0.00082777 Ry

     iteration # 29     ecut=    60.00 Ry     beta= 0.15
     Davidson diagonalization with overlap

---- Real-time Memory Report at c_bands before calling an iterative solver
             0 MiB given to the printing process from OS
             0 MiB allocation reported by mallinfo(arena+hblkhd)
        169022 MiB available memory on the node where the printing process lives
------------------
     c_bands:  1 eigenvalues not converged
     ethr =  1.95E-07,  avg # of iterations =  8.1

     negative rho (up, down):  7.956E-01 0.000E+00

     total cpu time spent up to now is      448.8 secs

     total energy              =   -4399.91915948 Ry
     estimated scf accuracy    <       0.00029424 Ry

     iteration # 30     ecut=    60.00 Ry     beta= 0.15
     Davidson diagonalization with overlap

---- Real-time Memory Report at c_bands before calling an iterative solver
             0 MiB given to the printing process from OS
             0 MiB allocation reported by mallinfo(arena+hblkhd)
        169024 MiB available memory on the node where the printing process lives
------------------
     ethr =  6.92E-08,  avg # of iterations =  2.2

     negative rho (up, down):  7.946E-01 0.000E+00

     total cpu time spent up to now is      462.5 secs

     total energy              =   -4399.91914983 Ry
     estimated scf accuracy    <       0.00015808 Ry

     iteration # 31     ecut=    60.00 Ry     beta= 0.15
     Davidson diagonalization with overlap

---- Real-time Memory Report at c_bands before calling an iterative solver
             0 MiB given to the printing process from OS
             0 MiB allocation reported by mallinfo(arena+hblkhd)
        169035 MiB available memory on the node where the printing process lives
------------------
     ethr =  3.72E-08,  avg # of iterations =  2.1

     negative rho (up, down):  7.938E-01 0.000E+00

     total cpu time spent up to now is      476.0 secs

     total energy              =   -4399.91915150 Ry
     estimated scf accuracy    <       0.00009439 Ry

     iteration # 32     ecut=    60.00 Ry     beta= 0.15
     Davidson diagonalization with overlap

---- Real-time Memory Report at c_bands before calling an iterative solver
             0 MiB given to the printing process from OS
             0 MiB allocation reported by mallinfo(arena+hblkhd)
        169054 MiB available memory on the node where the printing process lives
------------------
     ethr =  2.22E-08,  avg # of iterations =  2.3

     negative rho (up, down):  7.934E-01 0.000E+00

     total cpu time spent up to now is      489.7 secs

     total energy              =   -4399.91915501 Ry
     estimated scf accuracy    <       0.00006245 Ry

     iteration # 33     ecut=    60.00 Ry     beta= 0.15
     Davidson diagonalization with overlap

---- Real-time Memory Report at c_bands before calling an iterative solver
             0 MiB given to the printing process from OS
             0 MiB allocation reported by mallinfo(arena+hblkhd)
        169074 MiB available memory on the node where the printing process lives
------------------
     ethr =  1.47E-08,  avg # of iterations =  3.3

     negative rho (up, down):  7.927E-01 0.000E+00

     total cpu time spent up to now is      503.8 secs

     total energy              =   -4399.91916282 Ry
     estimated scf accuracy    <       0.00004097 Ry

     iteration # 34     ecut=    60.00 Ry     beta= 0.15
     Davidson diagonalization with overlap

---- Real-time Memory Report at c_bands before calling an iterative solver
             0 MiB given to the printing process from OS
             0 MiB allocation reported by mallinfo(arena+hblkhd)
        169098 MiB available memory on the node where the printing process lives
------------------
     ethr =  9.64E-09,  avg # of iterations =  2.1

     negative rho (up, down):  7.926E-01 0.000E+00

     total cpu time spent up to now is      517.3 secs

     total energy              =   -4399.91916601 Ry
     estimated scf accuracy    <       0.00001904 Ry

     iteration # 35     ecut=    60.00 Ry     beta= 0.15
     Davidson diagonalization with overlap

---- Real-time Memory Report at c_bands before calling an iterative solver
             0 MiB given to the printing process from OS
             0 MiB allocation reported by mallinfo(arena+hblkhd)
        169118 MiB available memory on the node where the printing process lives
------------------
     ethr =  4.48E-09,  avg # of iterations =  2.2

     negative rho (up, down):  7.926E-01 0.000E+00

     total cpu time spent up to now is      531.0 secs

     total energy              =   -4399.91916697 Ry
     estimated scf accuracy    <       0.00000967 Ry

     iteration # 36     ecut=    60.00 Ry     beta= 0.15
     Davidson diagonalization with overlap

---- Real-time Memory Report at c_bands before calling an iterative solver
             0 MiB given to the printing process from OS
             0 MiB allocation reported by mallinfo(arena+hblkhd)
        169123 MiB available memory on the node where the printing process lives
------------------
     ethr =  2.28E-09,  avg # of iterations =  2.1

     negative rho (up, down):  7.926E-01 0.000E+00

     total cpu time spent up to now is      544.7 secs

     total energy              =   -4399.91916811 Ry
     estimated scf accuracy    <       0.00000715 Ry

     iteration # 37     ecut=    60.00 Ry     beta= 0.15
     Davidson diagonalization with overlap

---- Real-time Memory Report at c_bands before calling an iterative solver
             0 MiB given to the printing process from OS
             0 MiB allocation reported by mallinfo(arena+hblkhd)
        169128 MiB available memory on the node where the printing process lives
------------------
     ethr =  1.68E-09,  avg # of iterations =  2.1

     negative rho (up, down):  7.926E-01 0.000E+00

     total cpu time spent up to now is      558.2 secs

     total energy              =   -4399.91916916 Ry
     estimated scf accuracy    <       0.00000260 Ry

     iteration # 38     ecut=    60.00 Ry     beta= 0.15
     Davidson diagonalization with overlap

---- Real-time Memory Report at c_bands before calling an iterative solver
             0 MiB given to the printing process from OS
             0 MiB allocation reported by mallinfo(arena+hblkhd)
        169129 MiB available memory on the node where the printing process lives
------------------
     ethr =  6.11E-10,  avg # of iterations =  2.2

     negative rho (up, down):  7.925E-01 0.000E+00

     total cpu time spent up to now is      571.6 secs

     total energy              =   -4399.91917016 Ry
     estimated scf accuracy    <       0.00000240 Ry

     iteration # 39     ecut=    60.00 Ry     beta= 0.15
     Davidson diagonalization with overlap

---- Real-time Memory Report at c_bands before calling an iterative solver
             0 MiB given to the printing process from OS
             0 MiB allocation reported by mallinfo(arena+hblkhd)
        169135 MiB available memory on the node where the printing process lives
------------------
     ethr =  5.64E-10,  avg # of iterations =  3.0

     negative rho (up, down):  7.925E-01 0.000E+00

     total cpu time spent up to now is      585.3 secs

     total energy              =   -4399.91917020 Ry
     estimated scf accuracy    <       0.00000129 Ry

     iteration # 40     ecut=    60.00 Ry     beta= 0.15
     Davidson diagonalization with overlap

---- Real-time Memory Report at c_bands before calling an iterative solver
             0 MiB given to the printing process from OS
             0 MiB allocation reported by mallinfo(arena+hblkhd)
        169148 MiB available memory on the node where the printing process lives
------------------
     ethr =  3.04E-10,  avg # of iterations =  3.3

     negative rho (up, down):  7.926E-01 0.000E+00

     total cpu time spent up to now is      599.3 secs

     total energy              =   -4399.91917022 Ry
     estimated scf accuracy    <       0.00000089 Ry

     iteration # 41     ecut=    60.00 Ry     beta= 0.15
     Davidson diagonalization with overlap

---- Real-time Memory Report at c_bands before calling an iterative solver
             0 MiB given to the printing process from OS
             0 MiB allocation reported by mallinfo(arena+hblkhd)
        169148 MiB available memory on the node where the printing process lives
------------------
     ethr =  2.09E-10,  avg # of iterations =  1.1

     negative rho (up, down):  7.925E-01 0.000E+00

     total cpu time spent up to now is      611.5 secs

     total energy              =   -4399.91917030 Ry
     estimated scf accuracy    <       0.00000065 Ry

     iteration # 42     ecut=    60.00 Ry     beta= 0.15
     Davidson diagonalization with overlap

---- Real-time Memory Report at c_bands before calling an iterative solver
             0 MiB given to the printing process from OS
             0 MiB allocation reported by mallinfo(arena+hblkhd)
        169149 MiB available memory on the node where the printing process lives
------------------
     ethr =  1.52E-10,  avg # of iterations =  3.0

     negative rho (up, down):  7.925E-01 0.000E+00

     total cpu time spent up to now is      625.5 secs

     total energy              =   -4399.91917034 Ry
     estimated scf accuracy    <       0.00000026 Ry

     iteration # 43     ecut=    60.00 Ry     beta= 0.15
     Davidson diagonalization with overlap

---- Real-time Memory Report at c_bands before calling an iterative solver
             0 MiB given to the printing process from OS
             0 MiB allocation reported by mallinfo(arena+hblkhd)
        169146 MiB available memory on the node where the printing process lives
------------------
     ethr =  6.15E-11,  avg # of iterations =  2.8

     negative rho (up, down):  7.925E-01 0.000E+00

     total cpu time spent up to now is      639.3 secs

     total energy              =   -4399.91917034 Ry
     estimated scf accuracy    <       0.00000015 Ry

     iteration # 44     ecut=    60.00 Ry     beta= 0.15
     Davidson diagonalization with overlap

---- Real-time Memory Report at c_bands before calling an iterative solver
             0 MiB given to the printing process from OS
             0 MiB allocation reported by mallinfo(arena+hblkhd)
        169156 MiB available memory on the node where the printing process lives
------------------
     ethr =  3.50E-11,  avg # of iterations =  2.3

     negative rho (up, down):  7.924E-01 0.000E+00

     total cpu time spent up to now is      653.1 secs

     total energy              =   -4399.91917031 Ry
     estimated scf accuracy    <       0.00000008 Ry

     iteration # 45     ecut=    60.00 Ry     beta= 0.15
     Davidson diagonalization with overlap

---- Real-time Memory Report at c_bands before calling an iterative solver
             0 MiB given to the printing process from OS
             0 MiB allocation reported by mallinfo(arena+hblkhd)
        169171 MiB available memory on the node where the printing process lives
------------------
     ethr =  2.00E-11,  avg # of iterations =  2.8

     negative rho (up, down):  7.924E-01 0.000E+00

     total cpu time spent up to now is      667.3 secs

     total energy              =   -4399.91917030 Ry
     estimated scf accuracy    <       0.00000003 Ry

     iteration # 46     ecut=    60.00 Ry     beta= 0.15
     Davidson diagonalization with overlap

---- Real-time Memory Report at c_bands before calling an iterative solver
             0 MiB given to the printing process from OS
             0 MiB allocation reported by mallinfo(arena+hblkhd)
        169159 MiB available memory on the node where the printing process lives
------------------
     ethr =  6.82E-12,  avg # of iterations =  2.6

     negative rho (up, down):  7.924E-01 0.000E+00

     total cpu time spent up to now is      682.2 secs

     total energy              =   -4399.91917030 Ry
     estimated scf accuracy    <       0.00000001 Ry

     iteration # 47     ecut=    60.00 Ry     beta= 0.15
     Davidson diagonalization with overlap

---- Real-time Memory Report at c_bands before calling an iterative solver
             0 MiB given to the printing process from OS
             0 MiB allocation reported by mallinfo(arena+hblkhd)
        169153 MiB available memory on the node where the printing process lives
------------------
     ethr =  2.46E-12,  avg # of iterations =  2.4

     negative rho (up, down):  7.924E-01 0.000E+00

     total cpu time spent up to now is      695.5 secs

     End of self-consistent calculation

          k = 0.0000 0.0000 0.0000 ( 65197 PWs)   bands (ev):

   -92.7307 -92.6786 -92.5851 -92.5367 -92.4793 -92.4376 -92.4197 -92.2966
   -56.0842 -56.0650 -55.9423 -55.9315 -55.9242 -55.9183 -55.8821 -55.8542
   -55.8382 -55.8373 -55.8298 -55.7866 -55.7678 -55.7313 -55.7117 -55.6783
   -55.6723 -55.6255 -55.6238 -55.6227 -55.6143 -55.5712 -55.5501 -55.4629
   -31.3066 -31.2866 -31.1608 -31.1459 -31.0923 -31.0584 -30.7666 -30.7432
   -29.8788 -29.8347 -29.8104 -29.7007 -15.1110 -15.0670 -14.9873 -14.8567
   -14.6648 -14.5409 -14.2486 -14.2320 -14.1992 -14.1573 -14.1108 -14.1008
   -14.0885 -14.0698 -14.0434 -14.0208 -13.9606 -13.8103 -13.6308 -13.5975
   -13.5668 -13.5354 -13.5181 -13.4662 -13.4318 -13.3508 -13.2795 -13.1810
   -13.1631 -13.1391 -13.1227 -13.1040 -13.0869 -13.0599 -13.0359 -13.0197
   -12.9946 -12.9733 -12.9618 -12.9508 -12.9309 -12.9248 -12.8181 -12.7893
   -12.7431 -12.6648 -12.6235 -12.6007 -12.3713 -12.2255 -12.0581 -11.9817
   -11.8919 -11.8177 -11.8070 -11.7838 -11.7665 -11.7025 -11.6855 -11.6503
   -11.6222 -11.5099 -11.4301 -11.4265  -2.9718  -2.7394  -2.5098  -2.3627
    -2.2999  -2.1576  -1.8501  -1.8359  -1.8165  -1.7312  -1.7129  -1.6447
    -1.6285  -1.5867  -1.5439  -1.3618  -1.1376  -1.1066  -0.9608  -0.9466
    -0.8995  -0.8828  -0.8369  -0.8204  -0.7641  -0.7373  -0.6642  -0.6541
    -0.5770  -0.4451  -0.4325  -0.4041  -0.3227  -0.2980  -0.2861  -0.2320
    -0.1581  -0.1146  -0.0633  -0.0380   0.0280   0.0958   0.1503   0.1686
     0.1835   0.4395   0.4558   0.6255   0.6943   0.7578   0.8028   0.8912
     0.9046   0.9187   0.9919   1.0190   1.0534   1.1113   1.2434   1.3003
     1.3218   1.3426   1.3556   1.4183   1.4914   1.5975   1.6104   1.6706
     1.6841   1.7268   1.7445   1.7551   1.8096   1.8638   1.8726   1.9092
     1.9402   1.9943   2.1260   2.2116   2.2548   2.2653   2.4190   2.4299
     2.4818   2.4835   2.5875   2.6263   2.6532   2.6720   2.6877   2.7489
     2.7922   2.8771   2.9106   2.9221   2.9278   2.9951   3.0024   3.0229
     3.0312   3.0395   3.0497   3.0595   3.0734   3.0787   3.0897   3.0992
     3.1102   3.1270   3.1477   3.1529   3.1654   3.1944   3.3067   3.4050
     4.0797   4.3957   4.7390   4.8558   5.0127   5.8673   5.9058   5.9559
     5.9733   6.2840   6.3314   6.4680   6.4774   6.7408   6.9903   7.0817
     7.1669   7.2853   7.4216   7.6070   7.6165   7.6450   7.6629   7.8720
     7.9542   8.0943   8.1315   8.1891   8.4978   8.5979   8.8155   8.8574

     occupation numbers 
     1.0000   1.0000   1.0000   1.0000   1.0000   1.0000   1.0000   1.0000
     1.0000   1.0000   1.0000   1.0000   1.0000   1.0000   1.0000   1.0000
     1.0000   1.0000   1.0000   1.0000   1.0000   1.0000   1.0000   1.0000
     1.0000   1.0000   1.0000   1.0000   1.0000   1.0000   1.0000   1.0000
     1.0000   1.0000   1.0000   1.0000   1.0000   1.0000   1.0000   1.0000
     1.0000   1.0000   1.0000   1.0000   1.0000   1.0000   1.0000   1.0000
     1.0000   1.0000   1.0000   1.0000   1.0000   1.0000   1.0000   1.0000
     1.0000   1.0000   1.0000   1.0000   1.0000   1.0000   1.0000   1.0000
     1.0000   1.0000   1.0000   1.0000   1.0000   1.0000   1.0000   1.0000
     1.0000   1.0000   1.0000   1.0000   1.0000   1.0000   1.0000   1.0000
     1.0000   1.0000   1.0000   1.0000   1.0000   1.0000   1.0000   1.0000
     1.0000   1.0000   1.0000   1.0000   1.0000   1.0000   1.0000   1.0000
     1.0000   1.0000   1.0000   1.0000   1.0000   1.0000   1.0000   1.0000
     1.0000   1.0000   1.0000   1.0000   1.0000   1.0000   1.0000   1.0000
     1.0000   1.0000   1.0000   1.0000   1.0000   1.0000   1.0000   1.0000
     1.0000   1.0000   1.0000   1.0000   1.0000   1.0000   1.0000   1.0000
     1.0000   1.0000   1.0000   1.0000   1.0000   1.0000   1.0000   1.0000
     1.0000   1.0000   1.0000   1.0000   1.0000   1.0000   1.0000   1.0000
     1.0000   1.0000   1.0000   1.0000   1.0000   1.0000   1.0000   1.0000
     1.0000   1.0000   1.0000   1.0000   0.9999   0.9999   0.9999   0.9998
     0.9998   0.9998   0.9997   0.9996   0.9996   0.9994   0.9989   0.9985
     0.9983   0.9981   0.9980   0.9974   0.9963   0.9942   0.9939   0.9921
     0.9917   0.9901   0.9894   0.9890   0.9864   0.9833   0.9828   0.9803
     0.9780   0.9735   0.9590   0.9465   0.9391   0.9372   0.9038   0.9010
     0.8869   0.8864   0.8539   0.8403   0.8304   0.8233   0.8171   0.7921
     0.7732   0.7335   0.7169   0.7110   0.7082   0.6730   0.6690   0.6579
     0.6534   0.6488   0.6432   0.6378   0.6300   0.6270   0.6208   0.6154
     0.6092   0.5996   0.5876   0.5846   0.5774   0.5605   0.4941   0.4362
     0.1225   0.0514   0.0161   0.0103   0.0054   0.0001   0.0001   0.0000
     0.0000   0.0000   0.0000   0.0000   0.0000   0.0000   0.0000   0.0000
     0.0000   0.0000   0.0000   0.0000   0.0000   0.0000   0.0000   0.0000
     0.0000   0.0000   0.0000   0.0000   0.0000   0.0000   0.0000   0.0000

          k = 0.0000 0.2500 0.0000 ( 65257 PWs)   bands (ev):

   -92.7307 -92.6786 -92.5851 -92.5367 -92.4793 -92.4376 -92.4197 -92.2966
   -56.0842 -56.0650 -55.9423 -55.9315 -55.9242 -55.9183 -55.8821 -55.8542
   -55.8382 -55.8373 -55.8298 -55.7866 -55.7678 -55.7313 -55.7117 -55.6783
   -55.6723 -55.6255 -55.6238 -55.6227 -55.6143 -55.5712 -55.5501 -55.4629
   -31.3064 -31.2865 -31.1603 -31.1461 -31.0928 -31.0585 -30.7651 -30.7447
   -29.8782 -29.8344 -29.8111 -29.7010 -15.0745 -15.0406 -14.9623 -14.8274
   -14.7050 -14.5320 -14.3951 -14.2154 -14.1805 -14.1611 -14.1332 -14.0728
   -14.0674 -14.0511 -14.0324 -13.9909 -13.8797 -13.8401 -13.6772 -13.6551
   -13.6083 -13.5722 -13.5255 -13.4837 -13.4435 -13.3726 -13.3371 -13.2966
   -13.2307 -13.1768 -13.1468 -13.1353 -13.1095 -13.0348 -13.0076 -12.9770
   -12.9611 -12.9317 -12.8968 -12.8890 -12.8691 -12.8278 -12.8028 -12.7916
   -12.7249 -12.6560 -12.5443 -12.4803 -12.4326 -12.2767 -12.1157 -12.0484
   -11.8574 -11.8145 -11.7869 -11.7588 -11.7421 -11.6943 -11.6833 -11.6609
   -11.6261 -11.5243 -11.4717 -11.4611  -2.8364  -2.6151  -2.4773  -2.2951
    -2.2517  -2.0882  -1.8681  -1.7842  -1.7711  -1.7119  -1.6100  -1.5950
    -1.5620  -1.5344  -1.4907  -1.2932  -1.1637  -1.1521  -1.0759  -1.0653
    -0.9615  -0.9317  -0.8749  -0.8490  -0.8082  -0.7438  -0.7174  -0.6850
    -0.6546  -0.6376  -0.6036  -0.5306  -0.4794  -0.4105  -0.2983  -0.2764
    -0.2380  -0.1202  -0.0819  -0.0271   0.0247   0.0766   0.0998   0.1287
     0.1893   0.4872   0.5749   0.6097   0.6932   0.7368   0.7608   0.8773
     0.8958   0.9910   1.0185   1.0458   1.1595   1.2540   1.2760   1.3013
     1.3182   1.3436   1.4045   1.4309   1.4593   1.5066   1.5409   1.5708
     1.6576   1.6917   1.7208   1.7755   1.8313   1.8673   1.8958   1.9206
     1.9409   2.0335   2.1659   2.2346   2.2492   2.3291   2.3745   2.4151
     2.4200   2.4831   2.5244   2.6045   2.6482   2.6643   2.7724   2.8372
     2.8608   2.8907   2.9144   2.9280   2.9368   2.9452   2.9530   2.9840
     2.9866   3.0029   3.0112   3.0173   3.0358   3.0506   3.0574   3.0774
     3.0898   3.0953   3.1304   3.1456   3.2054   3.5789   3.6159   3.8491
     4.2677   4.3894   4.6857   5.0125   5.0338   5.6206   5.7791   5.9428
     5.9589   6.0646   6.0763   6.1592   6.5842   6.7710   6.9163   7.0952
     7.3123   7.4608   7.4775   7.6076   7.6382   7.7328   7.7769   7.9736
     8.0664   8.0995   8.1500   8.2798   8.3864   8.6279   8.7736   8.9178

     occupation numbers 
     1.0000   1.0000   1.0000   1.0000   1.0000   1.0000   1.0000   1.0000
     1.0000   1.0000   1.0000   1.0000   1.0000   1.0000   1.0000   1.0000
     1.0000   1.0000   1.0000   1.0000   1.0000   1.0000   1.0000   1.0000
     1.0000   1.0000   1.0000   1.0000   1.0000   1.0000   1.0000   1.0000
     1.0000   1.0000   1.0000   1.0000   1.0000   1.0000   1.0000   1.0000
     1.0000   1.0000   1.0000   1.0000   1.0000   1.0000   1.0000   1.0000
     1.0000   1.0000   1.0000   1.0000   1.0000   1.0000   1.0000   1.0000
     1.0000   1.0000   1.0000   1.0000   1.0000   1.0000   1.0000   1.0000
     1.0000   1.0000   1.0000   1.0000   1.0000   1.0000   1.0000   1.0000
     1.0000   1.0000   1.0000   1.0000   1.0000   1.0000   1.0000   1.0000
     1.0000   1.0000   1.0000   1.0000   1.0000   1.0000   1.0000   1.0000
     1.0000   1.0000   1.0000   1.0000   1.0000   1.0000   1.0000   1.0000
     1.0000   1.0000   1.0000   1.0000   1.0000   1.0000   1.0000   1.0000
     1.0000   1.0000   1.0000   1.0000   1.0000   1.0000   1.0000   1.0000
     1.0000   1.0000   1.0000   1.0000   1.0000   1.0000   1.0000   1.0000
     1.0000   1.0000   1.0000   1.0000   1.0000   1.0000   1.0000   1.0000
     1.0000   1.0000   1.0000   1.0000   1.0000   1.0000   1.0000   1.0000
     1.0000   1.0000   1.0000   1.0000   1.0000   1.0000   1.0000   1.0000
     1.0000   1.0000   1.0000   1.0000   1.0000   1.0000   1.0000   1.0000
     1.0000   1.0000   1.0000   1.0000   0.9999   0.9999   0.9999   0.9998
     0.9998   0.9997   0.9996   0.9996   0.9992   0.9988   0.9987   0.9985
     0.9983   0.9981   0.9975   0.9972   0.9968   0.9961   0.9954   0.9948
     0.9925   0.9914   0.9904   0.9881   0.9852   0.9831   0.9813   0.9795
     0.9780   0.9697   0.9535   0.9426   0.9401   0.9246   0.9146   0.9048
     0.9035   0.8865   0.8743   0.8481   0.8323   0.8262   0.7819   0.7525
     0.7414   0.7268   0.7150   0.7080   0.7036   0.6992   0.6952   0.6789
     0.6775   0.6688   0.6643   0.6610   0.6509   0.6427   0.6389   0.6278
     0.6208   0.6177   0.5976   0.5889   0.5540   0.3377   0.3178   0.2061
     0.0747   0.0524   0.0196   0.0054   0.0050   0.0003   0.0001   0.0000
     0.0000   0.0000   0.0000   0.0000   0.0000   0.0000   0.0000   0.0000
     0.0000   0.0000   0.0000   0.0000   0.0000   0.0000   0.0000   0.0000
     0.0000   0.0000   0.0000   0.0000   0.0000   0.0000   0.0000   0.0000

          k = 0.0000-0.5000 0.0000 ( 65180 PWs)   bands (ev):

   -92.7307 -92.6786 -92.5851 -92.5367 -92.4793 -92.4376 -92.4197 -92.2966
   -56.0842 -56.0650 -55.9423 -55.9315 -55.9242 -55.9183 -55.8821 -55.8542
   -55.8382 -55.8373 -55.8298 -55.7866 -55.7678 -55.7313 -55.7117 -55.6783
   -55.6723 -55.6255 -55.6238 -55.6227 -55.6143 -55.5712 -55.5501 -55.4629
   -31.3062 -31.2863 -31.1599 -31.1464 -31.0932 -31.0587 -30.7634 -30.7464
   -29.8775 -29.8341 -29.8117 -29.7014 -15.0390 -14.9906 -14.9381 -14.8089
   -14.7262 -14.5876 -14.4375 -14.3111 -14.1870 -14.1228 -14.0730 -14.0678
   -14.0157 -14.0001 -13.9551 -13.9295 -13.9088 -13.8712 -13.8293 -13.8010
   -13.6131 -13.5546 -13.5314 -13.4862 -13.4437 -13.3880 -13.3684 -13.3139
   -13.3116 -13.2466 -13.1446 -13.1342 -13.0855 -13.0697 -12.9965 -12.9811
   -12.9577 -12.9110 -12.8681 -12.8616 -12.7984 -12.7876 -12.7348 -12.7081
   -12.6809 -12.6566 -12.5436 -12.4086 -12.3516 -12.2795 -12.2223 -12.1892
   -11.8114 -11.8090 -11.7820 -11.7450 -11.7104 -11.6995 -11.6560 -11.6522
   -11.6071 -11.5463 -11.5324 -11.5182  -2.6212  -2.5630  -2.4117  -2.3398
    -2.0570  -1.9753  -1.8472  -1.7102  -1.6706  -1.6529  -1.5754  -1.5429
    -1.4619  -1.4264  -1.3479  -1.3088  -1.2701  -1.2429  -1.1844  -1.1491
    -1.0994  -1.0656  -1.0329  -0.9980  -0.8888  -0.8439  -0.8087  -0.8069
    -0.7204  -0.6891  -0.6664  -0.6201  -0.5312  -0.4602  -0.3710  -0.3424
    -0.2333  -0.2059  -0.0600  -0.0179   0.0081   0.0494   0.1689   0.2422
     0.3619   0.4302   0.4387   0.5672   0.6234   0.7000   0.8490   0.9484
     0.9824   1.0220   1.0310   1.0631   1.0824   1.1180   1.1343   1.1462
     1.2580   1.3155   1.3458   1.3705   1.6397   1.6628   1.6880   1.7733
     1.7992   1.8385   1.8580   1.8813   1.8959   1.9048   1.9300   1.9740
     1.9972   2.0257   2.0363   2.0658   2.1213   2.2085   2.2381   2.4064
     2.5727   2.5743   2.5968   2.6389   2.6431   2.6525   2.7013   2.7131
     2.7666   2.7843   2.7929   2.8763   2.8809   2.9524   2.9528   2.9798
     2.9836   2.9998   3.0028   3.0070   3.0137   3.0215   3.0367   3.0475
     3.0567   3.1142   3.1206   3.1353   3.1945   4.0905   4.1023   4.1701
     4.2376   4.7004   4.8819   5.0022   5.1449   5.3994   5.4419   5.5596
     5.7087   5.9967   6.0158   6.1031   6.5162   6.8363   6.9396   7.2045
     7.2988   7.3683   7.4492   7.6413   7.7270   7.8329   7.8825   7.9223
     8.0454   8.2324   8.4332   8.5022   8.6380   8.7702   8.7962   8.7989

     occupation numbers 
     1.0000   1.0000   1.0000   1.0000   1.0000   1.0000   1.0000   1.0000
     1.0000   1.0000   1.0000   1.0000   1.0000   1.0000   1.0000   1.0000
     1.0000   1.0000   1.0000   1.0000   1.0000   1.0000   1.0000   1.0000
     1.0000   1.0000   1.0000   1.0000   1.0000   1.0000   1.0000   1.0000
     1.0000   1.0000   1.0000   1.0000   1.0000   1.0000   1.0000   1.0000
     1.0000   1.0000   1.0000   1.0000   1.0000   1.0000   1.0000   1.0000
     1.0000   1.0000   1.0000   1.0000   1.0000   1.0000   1.0000   1.0000
     1.0000   1.0000   1.0000   1.0000   1.0000   1.0000   1.0000   1.0000
     1.0000   1.0000   1.0000   1.0000   1.0000   1.0000   1.0000   1.0000
     1.0000   1.0000   1.0000   1.0000   1.0000   1.0000   1.0000   1.0000
     1.0000   1.0000   1.0000   1.0000   1.0000   1.0000   1.0000   1.0000
     1.0000   1.0000   1.0000   1.0000   1.0000   1.0000   1.0000   1.0000
     1.0000   1.0000   1.0000   1.0000   1.0000   1.0000   1.0000   1.0000
     1.0000   1.0000   1.0000   1.0000   1.0000   1.0000   1.0000   1.0000
     1.0000   1.0000   1.0000   1.0000   1.0000   1.0000   1.0000   1.0000
     1.0000   1.0000   1.0000   1.0000   1.0000   1.0000   1.0000   1.0000
     1.0000   1.0000   1.0000   1.0000   1.0000   1.0000   1.0000   1.0000
     1.0000   1.0000   1.0000   1.0000   1.0000   1.0000   1.0000   1.0000
     1.0000   1.0000   1.0000   1.0000   1.0000   1.0000   1.0000   1.0000
     1.0000   1.0000   1.0000   1.0000   1.0000   0.9999   0.9999   0.9998
     0.9997   0.9996   0.9996   0.9995   0.9995   0.9994   0.9993   0.9993
     0.9988   0.9984   0.9981   0.9979   0.9931   0.9924   0.9916   0.9882
     0.9869   0.9848   0.9837   0.9822   0.9812   0.9806   0.9788   0.9752
     0.9732   0.9705   0.9694   0.9662   0.9596   0.9470   0.9420   0.9070
     0.8589   0.8584   0.8507   0.8357   0.8342   0.8306   0.8118   0.8070
     0.7845   0.7767   0.7729   0.7338   0.7316   0.6955   0.6953   0.6811
     0.6791   0.6704   0.6688   0.6666   0.6629   0.6587   0.6504   0.6444
     0.6393   0.6069   0.6032   0.5948   0.5604   0.1193   0.1158   0.0974
     0.0812   0.0186   0.0093   0.0057   0.0030   0.0009   0.0007   0.0004
     0.0002   0.0000   0.0000   0.0000   0.0000   0.0000   0.0000   0.0000
     0.0000   0.0000   0.0000   0.0000   0.0000   0.0000   0.0000   0.0000
     0.0000   0.0000   0.0000   0.0000   0.0000   0.0000   0.0000   0.0000

          k = 0.2500 0.2500 0.0000 ( 65198 PWs)   bands (ev):

   -92.7307 -92.6786 -92.5851 -92.5367 -92.4793 -92.4376 -92.4197 -92.2966
   -56.0842 -56.0650 -55.9423 -55.9315 -55.9242 -55.9183 -55.8821 -55.8542
   -55.8382 -55.8373 -55.8298 -55.7866 -55.7678 -55.7313 -55.7117 -55.6783
   -55.6723 -55.6255 -55.6238 -55.6227 -55.6143 -55.5712 -55.5501 -55.4629
   -31.3048 -31.2881 -31.1603 -31.1458 -31.0927 -31.0589 -30.7652 -30.7447
   -29.8772 -29.8354 -29.8107 -29.7015 -15.0457 -15.0052 -14.9345 -14.8170
   -14.6980 -14.5724 -14.5009 -14.2950 -14.1386 -14.1259 -14.0906 -14.0605
   -14.0371 -14.0091 -13.9769 -13.9562 -13.8714 -13.8542 -13.6935 -13.6791
   -13.6499 -13.6298 -13.5744 -13.5401 -13.4742 -13.4556 -13.3490 -13.3169
   -13.2589 -13.1719 -13.1330 -13.1087 -13.0782 -13.0484 -13.0307 -12.9867
   -12.9751 -12.9522 -12.9179 -12.8885 -12.7749 -12.7702 -12.7428 -12.7355
   -12.7083 -12.6487 -12.4977 -12.4811 -12.4203 -12.3057 -12.1483 -12.0886
   -11.8297 -11.7979 -11.7872 -11.7804 -11.7173 -11.6832 -11.6762 -11.6403
   -11.6335 -11.5408 -11.5000 -11.4825  -2.6981  -2.4893  -2.3714  -2.2769
    -2.1562  -2.0914  -1.8929  -1.7489  -1.7297  -1.6990  -1.6045  -1.5723
    -1.4778  -1.4499  -1.3997  -1.2691  -1.2205  -1.1472  -1.1027  -1.0581
    -1.0350  -1.0107  -0.9687  -0.9527  -0.8622  -0.8124  -0.7452  -0.6974
    -0.6679  -0.6186  -0.6050  -0.5415  -0.4905  -0.4309  -0.3998  -0.3117
    -0.2603  -0.2320  -0.1940  -0.1392  -0.0599  -0.0283  -0.0034   0.0703
     0.1035   0.3785   0.5288   0.5619   0.6221   0.6613   0.7105   0.7637
     0.8344   0.8696   1.1431   1.2101   1.2833   1.3086   1.3584   1.3880
     1.4250   1.4621   1.4786   1.5068   1.5514   1.5591   1.5749   1.6183
     1.6554   1.6962   1.7572   1.7902   1.8052   1.8309   1.8694   1.9217
     1.9446   2.0740   2.1451   2.1803   2.2046   2.2660   2.3340   2.3642
     2.4010   2.4270   2.4358   2.5478   2.5879   2.6780   2.7749   2.8486
     2.8638   2.8695   2.8917   2.9022   2.9139   2.9277   2.9329   2.9447
     2.9603   2.9735   2.9874   2.9942   3.0057   3.0271   3.0394   3.0492
     3.0803   3.3810   3.4733   3.5207   3.5855   3.6154   3.8326   3.9240
     4.2764   4.4776   4.6890   4.9515   5.1583   5.6191   5.6746   5.7354
     5.8061   5.8676   6.0314   6.1392   6.2061   6.7371   6.8826   7.0708
     7.2630   7.5320   7.5826   7.6883   7.7827   7.8466   7.9346   8.0913
     8.1353   8.1850   8.3004   8.3134   8.4228   8.4785   8.7185   8.8430

     occupation numbers 
     1.0000   1.0000   1.0000   1.0000   1.0000   1.0000   1.0000   1.0000
     1.0000   1.0000   1.0000   1.0000   1.0000   1.0000   1.0000   1.0000
     1.0000   1.0000   1.0000   1.0000   1.0000   1.0000   1.0000   1.0000
     1.0000   1.0000   1.0000   1.0000   1.0000   1.0000   1.0000   1.0000
     1.0000   1.0000   1.0000   1.0000   1.0000   1.0000   1.0000   1.0000
     1.0000   1.0000   1.0000   1.0000   1.0000   1.0000   1.0000   1.0000
     1.0000   1.0000   1.0000   1.0000   1.0000   1.0000   1.0000   1.0000
     1.0000   1.0000   1.0000   1.0000   1.0000   1.0000   1.0000   1.0000
     1.0000   1.0000   1.0000   1.0000   1.0000   1.0000   1.0000   1.0000
     1.0000   1.0000   1.0000   1.0000   1.0000   1.0000   1.0000   1.0000
     1.0000   1.0000   1.0000   1.0000   1.0000   1.0000   1.0000   1.0000
     1.0000   1.0000   1.0000   1.0000   1.0000   1.0000   1.0000   1.0000
     1.0000   1.0000   1.0000   1.0000   1.0000   1.0000   1.0000   1.0000
     1.0000   1.0000   1.0000   1.0000   1.0000   1.0000   1.0000   1.0000
     1.0000   1.0000   1.0000   1.0000   1.0000   1.0000   1.0000   1.0000
     1.0000   1.0000   1.0000   1.0000   1.0000   1.0000   1.0000   1.0000
     1.0000   1.0000   1.0000   1.0000   1.0000   1.0000   1.0000   1.0000
     1.0000   1.0000   1.0000   1.0000   1.0000   1.0000   1.0000   1.0000
     1.0000   1.0000   1.0000   1.0000   1.0000   1.0000   1.0000   1.0000
     1.0000   1.0000   1.0000   1.0000   1.0000   1.0000   0.9999   0.9999
     0.9999   0.9998   0.9993   0.9990   0.9986   0.9984   0.9980   0.9977
     0.9973   0.9968   0.9965   0.9961   0.9952   0.9951   0.9947   0.9937
     0.9926   0.9913   0.9889   0.9874   0.9866   0.9853   0.9830   0.9794
     0.9777   0.9653   0.9564   0.9513   0.9476   0.9371   0.9236   0.9170
     0.9083   0.9017   0.8995   0.8670   0.8538   0.8209   0.7809   0.7472
     0.7399   0.7372   0.7263   0.7211   0.7152   0.7082   0.7055   0.6995
     0.6914   0.6844   0.6771   0.6734   0.6673   0.6556   0.6489   0.6434
     0.6261   0.4503   0.3967   0.3698   0.3341   0.3181   0.2132   0.1758
     0.0729   0.0398   0.0194   0.0070   0.0029   0.0003   0.0002   0.0001
     0.0001   0.0001   0.0000   0.0000   0.0000   0.0000   0.0000   0.0000
     0.0000   0.0000   0.0000   0.0000   0.0000   0.0000   0.0000   0.0000
     0.0000   0.0000   0.0000   0.0000   0.0000   0.0000   0.0000   0.0000

          k = 0.2500-0.5000 0.0000 ( 65138 PWs)   bands (ev):

   -92.7307 -92.6786 -92.5851 -92.5367 -92.4793 -92.4376 -92.4197 -92.2966
   -56.0842 -56.0650 -55.9423 -55.9315 -55.9242 -55.9183 -55.8821 -55.8542
   -55.8382 -55.8373 -55.8298 -55.7866 -55.7678 -55.7313 -55.7117 -55.6783
   -55.6723 -55.6255 -55.6238 -55.6227 -55.6143 -55.5712 -55.5501 -55.4629
   -31.3046 -31.2880 -31.1598 -31.1460 -31.0931 -31.0590 -30.7635 -30.7465
   -29.8766 -29.8351 -29.8113 -29.7018 -15.0083 -14.9636 -14.8946 -14.7788
   -14.7496 -14.6287 -14.5407 -14.4090 -14.1037 -14.0525 -14.0237 -14.0010
   -13.9870 -13.9724 -13.9389 -13.9183 -13.8879 -13.8488 -13.8234 -13.7866
   -13.6954 -13.6468 -13.5915 -13.5679 -13.5002 -13.4873 -13.4082 -13.3740
   -13.2353 -13.1711 -13.1534 -13.0829 -13.0554 -13.0480 -13.0156 -12.9964
   -12.9716 -12.9408 -12.8762 -12.8621 -12.7966 -12.7824 -12.7166 -12.6845
   -12.6634 -12.6516 -12.5501 -12.3942 -12.3491 -12.2607 -12.2113 -12.1894
   -11.8053 -11.7933 -11.7825 -11.7557 -11.7237 -11.6959 -11.6538 -11.6267
   -11.6041 -11.5591 -11.5336 -11.5221  -2.4791  -2.4151  -2.2855  -2.2086
    -2.0775  -1.9953  -1.8716  -1.7213  -1.6665  -1.6444  -1.5825  -1.5698
    -1.4729  -1.4053  -1.3202  -1.2701  -1.2608  -1.1983  -1.1552  -1.1214
    -1.0738  -1.0361  -1.0014  -0.9621  -0.9507  -0.9051  -0.8759  -0.8335
    -0.8029  -0.7356  -0.6332  -0.5967  -0.5157  -0.4496  -0.3986  -0.3593
    -0.3396  -0.2799  -0.1245  -0.1140  -0.0065   0.0215   0.0299   0.0745
     0.1125   0.1437   0.1791   0.2464   0.5236   0.6243   0.6663   0.7273
     1.0092   1.0245   1.1159   1.1408   1.3071   1.3424   1.3817   1.4058
     1.4202   1.4419   1.5039   1.5534   1.5874   1.6585   1.7633   1.7935
     1.8144   1.8219   1.8612   1.8746   1.8840   1.9252   1.9353   1.9564
     1.9825   2.0025   2.0284   2.0602   2.1201   2.1629   2.2378   2.3747
     2.5242   2.5408   2.5589   2.5876   2.6077   2.6395   2.6611   2.6747
     2.6966   2.7783   2.7974   2.8590   2.8656   2.8694   2.8867   2.9038
     2.9170   2.9371   2.9493   2.9797   2.9884   3.0042   3.0102   3.0186
     3.0300   3.5414   3.5784   3.7131   3.7700   4.0932   4.1512   4.1691
     4.2940   4.7212   4.9022   5.0365   5.1129   5.2754   5.4117   5.5856
     5.6235   5.7398   5.7613   6.2149   6.3773   6.4458   6.4954   7.1173
     7.4509   7.5518   7.6822   7.7865   7.8470   7.8642   8.0163   8.1380
     8.3358   8.3905   8.4416   8.5171   8.5338   8.6544   8.6906   8.7469

     occupation numbers 
     1.0000   1.0000   1.0000   1.0000   1.0000   1.0000   1.0000   1.0000
     1.0000   1.0000   1.0000   1.0000   1.0000   1.0000   1.0000   1.0000
     1.0000   1.0000   1.0000   1.0000   1.0000   1.0000   1.0000   1.0000
     1.0000   1.0000   1.0000   1.0000   1.0000   1.0000   1.0000   1.0000
     1.0000   1.0000   1.0000   1.0000   1.0000   1.0000   1.0000   1.0000
     1.0000   1.0000   1.0000   1.0000   1.0000   1.0000   1.0000   1.0000
     1.0000   1.0000   1.0000   1.0000   1.0000   1.0000   1.0000   1.0000
     1.0000   1.0000   1.0000   1.0000   1.0000   1.0000   1.0000   1.0000
     1.0000   1.0000   1.0000   1.0000   1.0000   1.0000   1.0000   1.0000
     1.0000   1.0000   1.0000   1.0000   1.0000   1.0000   1.0000   1.0000
     1.0000   1.0000   1.0000   1.0000   1.0000   1.0000   1.0000   1.0000
     1.0000   1.0000   1.0000   1.0000   1.0000   1.0000   1.0000   1.0000
     1.0000   1.0000   1.0000   1.0000   1.0000   1.0000   1.0000   1.0000
     1.0000   1.0000   1.0000   1.0000   1.0000   1.0000   1.0000   1.0000
     1.0000   1.0000   1.0000   1.0000   1.0000   1.0000   1.0000   1.0000
     1.0000   1.0000   1.0000   1.0000   1.0000   1.0000   1.0000   1.0000
     1.0000   1.0000   1.0000   1.0000   1.0000   1.0000   1.0000   1.0000
     1.0000   1.0000   1.0000   1.0000   1.0000   1.0000   1.0000   1.0000
     1.0000   1.0000   1.0000   1.0000   1.0000   1.0000   1.0000   1.0000
     1.0000   1.0000   1.0000   1.0000   1.0000   1.0000   1.0000   0.9999
     0.9997   0.9996   0.9994   0.9993   0.9984   0.9981   0.9978   0.9975
     0.9973   0.9971   0.9961   0.9952   0.9944   0.9925   0.9886   0.9872
     0.9861   0.9857   0.9835   0.9826   0.9820   0.9792   0.9784   0.9767
     0.9745   0.9727   0.9702   0.9668   0.9597   0.9539   0.9421   0.9146
     0.8744   0.8692   0.8634   0.8539   0.8469   0.8355   0.8274   0.8222
     0.8136   0.7793   0.7709   0.7422   0.7390   0.7372   0.7287   0.7203
     0.7136   0.7034   0.6971   0.6811   0.6765   0.6681   0.6648   0.6602
     0.6541   0.3583   0.3379   0.2683   0.2411   0.1185   0.1023   0.0976
     0.0693   0.0172   0.0086   0.0049   0.0035   0.0017   0.0008   0.0003
     0.0003   0.0001   0.0001   0.0000   0.0000   0.0000   0.0000   0.0000
     0.0000   0.0000   0.0000   0.0000   0.0000   0.0000   0.0000   0.0000
     0.0000   0.0000   0.0000   0.0000   0.0000   0.0000   0.0000   0.0000

          k =-0.5000-0.5000 0.0000 ( 65132 PWs)   bands (ev):

   -92.7307 -92.6786 -92.5851 -92.5367 -92.4793 -92.4376 -92.4197 -92.2966
   -56.0842 -56.0650 -55.9423 -55.9315 -55.9242 -55.9183 -55.8821 -55.8542
   -55.8382 -55.8373 -55.8298 -55.7866 -55.7678 -55.7313 -55.7117 -55.6783
   -55.6723 -55.6255 -55.6238 -55.6227 -55.6143 -55.5712 -55.5501 -55.4629
   -31.3025 -31.2900 -31.1598 -31.1456 -31.0930 -31.0594 -30.7636 -30.7465
   -29.8756 -29.8361 -29.8109 -29.7022 -14.9610 -14.9366 -14.8185 -14.8064
   -14.7146 -14.6754 -14.6441 -14.5091 -14.0141 -14.0013 -13.9681 -13.9513
   -13.9318 -13.9169 -13.8882 -13.8790 -13.8669 -13.8553 -13.8420 -13.7644
   -13.7551 -13.7301 -13.6923 -13.6753 -13.5867 -13.5496 -13.4500 -13.4235
   -13.1850 -13.1512 -13.0812 -13.0578 -13.0546 -13.0332 -13.0131 -13.0050
   -13.0001 -12.9831 -12.8843 -12.8590 -12.7988 -12.7678 -12.7259 -12.6752
   -12.6335 -12.6261 -12.5662 -12.3803 -12.3454 -12.2396 -12.2005 -12.1913
   -11.8017 -11.7897 -11.7718 -11.7551 -11.7200 -11.7014 -11.6687 -11.6070
   -11.5871 -11.5811 -11.5312 -11.5277  -2.2544  -2.1787  -2.1712  -2.0991
    -2.0594  -1.9811  -1.9131  -1.7875  -1.6717  -1.6416  -1.6004  -1.5450
    -1.4732  -1.4593  -1.3873  -1.3459  -1.2290  -1.1987  -1.1511  -1.1223
    -1.0579  -1.0112  -0.9929  -0.9805  -0.9266  -0.8826  -0.8667  -0.7541
    -0.6954  -0.6500  -0.6006  -0.5741  -0.5603  -0.5267  -0.4857  -0.4469
    -0.4403  -0.3527  -0.2832  -0.2404  -0.2132  -0.1404  -0.0799  -0.0746
    -0.0112   0.0154   0.0214   0.0306   0.4947   0.5487   0.6138   0.6339
     1.0356   1.0504   1.0820   1.1192   1.3926   1.4111   1.4172   1.4575
     1.5870   1.6827   1.7093   1.7461   1.7726   1.7865   1.7971   1.8294
     1.8406   1.8604   1.8627   1.9134   1.9209   1.9460   1.9623   1.9789
     1.9927   2.0342   2.0578   2.0716   2.1052   2.1317   2.2021   2.2689
     2.5343   2.5694   2.5844   2.6071   2.6106   2.6478   2.6502   2.6703
     2.6812   2.6957   2.7185   2.7306   2.7788   2.7986   2.8038   2.8214
     2.8419   2.8490   2.8690   2.8760   2.9066   2.9844   2.9930   3.0154
     3.0254   3.9632   4.0139   4.0231   4.0708   4.2883   4.3613   4.3888
     4.6287   4.7511   4.8340   4.9636   5.0526   5.0681   5.1770   5.2725
     5.3892   5.8441   5.8759   5.9352   6.0222   6.3912   6.5048   6.6516
     7.7819   7.8575   7.8999   7.9238   7.9422   7.9562   7.9907   8.0605
     8.2444   8.2945   8.5362   8.5613   8.5957   8.6176   8.6326   8.7175

     occupation numbers 
     1.0000   1.0000   1.0000   1.0000   1.0000   1.0000   1.0000   1.0000
     1.0000   1.0000   1.0000   1.0000   1.0000   1.0000   1.0000   1.0000
     1.0000   1.0000   1.0000   1.0000   1.0000   1.0000   1.0000   1.0000
     1.0000   1.0000   1.0000   1.0000   1.0000   1.0000   1.0000   1.0000
     1.0000   1.0000   1.0000   1.0000   1.0000   1.0000   1.0000   1.0000
     1.0000   1.0000   1.0000   1.0000   1.0000   1.0000   1.0000   1.0000
     1.0000   1.0000   1.0000   1.0000   1.0000   1.0000   1.0000   1.0000
     1.0000   1.0000   1.0000   1.0000   1.0000   1.0000   1.0000   1.0000
     1.0000   1.0000   1.0000   1.0000   1.0000   1.0000   1.0000   1.0000
     1.0000   1.0000   1.0000   1.0000   1.0000   1.0000   1.0000   1.0000
     1.0000   1.0000   1.0000   1.0000   1.0000   1.0000   1.0000   1.0000
     1.0000   1.0000   1.0000   1.0000   1.0000   1.0000   1.0000   1.0000
     1.0000   1.0000   1.0000   1.0000   1.0000   1.0000   1.0000   1.0000
     1.0000   1.0000   1.0000   1.0000   1.0000   1.0000   1.0000   1.0000
     1.0000   1.0000   1.0000   1.0000   1.0000   1.0000   1.0000   1.0000
     1.0000   1.0000   1.0000   1.0000   1.0000   1.0000   1.0000   1.0000
     1.0000   1.0000   1.0000   1.0000   1.0000   1.0000   1.0000   1.0000
     1.0000   1.0000   1.0000   1.0000   1.0000   1.0000   1.0000   1.0000
     1.0000   1.0000   1.0000   1.0000   1.0000   1.0000   1.0000   1.0000
     1.0000   1.0000   1.0000   1.0000   1.0000   1.0000   1.0000   1.0000
     0.9996   0.9996   0.9995   0.9994   0.9977   0.9974   0.9974   0.9968
     0.9944   0.9917   0.9908   0.9894   0.9882   0.9875   0.9870   0.9853
     0.9847   0.9835   0.9834   0.9800   0.9795   0.9776   0.9762   0.9748
     0.9736   0.9696   0.9671   0.9656   0.9616   0.9582   0.9480   0.9365
     0.8712   0.8600   0.8550   0.8471   0.8459   0.8324   0.8315   0.8239
     0.8197   0.8140   0.8048   0.7998   0.7791   0.7703   0.7679   0.7599
     0.7503   0.7470   0.7374   0.7340   0.7189   0.6786   0.6741   0.6620
     0.6565   0.1612   0.1435   0.1404   0.1252   0.0705   0.0570   0.0525
     0.0240   0.0154   0.0112   0.0067   0.0046   0.0043   0.0026   0.0017
     0.0009   0.0001   0.0001   0.0000   0.0000   0.0000   0.0000   0.0000
     0.0000   0.0000   0.0000   0.0000   0.0000   0.0000   0.0000   0.0000
     0.0000   0.0000   0.0000   0.0000   0.0000   0.0000   0.0000   0.0000

          k = 0.2500 0.0000 0.0000 ( 65257 PWs)   bands (ev):

   -92.7307 -92.6786 -92.5851 -92.5367 -92.4793 -92.4376 -92.4197 -92.2966
   -56.0842 -56.0650 -55.9423 -55.9315 -55.9242 -55.9183 -55.8821 -55.8542
   -55.8382 -55.8373 -55.8298 -55.7866 -55.7678 -55.7313 -55.7117 -55.6783
   -55.6723 -55.6255 -55.6238 -55.6227 -55.6143 -55.5712 -55.5501 -55.4629
   -31.3050 -31.2882 -31.1607 -31.1456 -31.0922 -31.0588 -30.7667 -30.7433
   -29.8778 -29.8357 -29.8101 -29.7011 -15.0782 -15.0356 -14.9680 -14.8201
   -14.7155 -14.5177 -14.3872 -14.2081 -14.1892 -14.1609 -14.1278 -14.1043
   -14.0684 -14.0549 -14.0313 -13.9951 -13.8720 -13.8413 -13.6891 -13.6257
   -13.6091 -13.5465 -13.5222 -13.5093 -13.4527 -13.3758 -13.3413 -13.2697
   -13.2047 -13.1877 -13.1536 -13.0894 -13.0746 -13.0587 -13.0436 -13.0151
   -12.9907 -12.9712 -12.9641 -12.9384 -12.8489 -12.8004 -12.7411 -12.6717
   -12.6582 -12.6254 -12.6105 -12.5691 -12.4347 -12.2776 -12.1100 -12.0436
   -11.8567 -11.8051 -11.7875 -11.7740 -11.7475 -11.6971 -11.6736 -11.6657
   -11.6159 -11.5256 -11.4699 -11.4641  -2.8359  -2.6142  -2.4841  -2.3116
    -2.2476  -2.0777  -1.8692  -1.7933  -1.7491  -1.7130  -1.6128  -1.5991
    -1.5645  -1.5455  -1.4761  -1.2957  -1.1872  -1.1472  -1.0511  -1.0387
    -0.9595  -0.9328  -0.8812  -0.8411  -0.7893  -0.7591  -0.7104  -0.6846
    -0.6649  -0.6109  -0.5981  -0.5054  -0.4954  -0.4266  -0.3319  -0.2772
    -0.1633  -0.1472  -0.0865  -0.0482   0.0119   0.0389   0.0781   0.1337
     0.1818   0.4670   0.5981   0.6292   0.7159   0.7430   0.7713   0.7903
     0.8774   0.9876   1.0350   1.0592   1.0991   1.2468   1.2792   1.3138
[...]
     0.7447   0.7293   0.7167   0.7147   0.7029   0.6988   0.6913   0.6791
     0.6766   0.6639   0.6570   0.6542   0.6467   0.6351   0.6218   0.6191
     0.6147   0.6109   0.6053   0.5995   0.5248   0.3579   0.3197   0.2028
     0.0782   0.0466   0.0222   0.0057   0.0046   0.0003   0.0001   0.0000
     0.0000   0.0000   0.0000   0.0000   0.0000   0.0000   0.0000   0.0000
     0.0000   0.0000   0.0000   0.0000   0.0000   0.0000   0.0000   0.0000
     0.0000   0.0000   0.0000   0.0000   0.0000   0.0000   0.0000   0.0000

          k =-0.5000 0.0000 0.0000 ( 65180 PWs)   bands (ev):

   -92.7307 -92.6786 -92.5851 -92.5367 -92.4793 -92.4376 -92.4197 -92.2966
   -56.0842 -56.0650 -55.9423 -55.9315 -55.9242 -55.9183 -55.8821 -55.8542
   -55.8382 -55.8373 -55.8298 -55.7866 -55.7678 -55.7313 -55.7117 -55.6783
   -55.6723 -55.6255 -55.6238 -55.6227 -55.6143 -55.5712 -55.5501 -55.4629
   -31.3029 -31.2903 -31.1606 -31.1452 -31.0921 -31.0591 -30.7668 -30.7433
   -29.8768 -29.8367 -29.8097 -29.7015 -15.0445 -14.9913 -14.9302 -14.8255
   -14.7176 -14.5755 -14.4250 -14.2932 -14.1620 -14.1550 -14.1378 -14.0725
   -14.0207 -13.9876 -13.9390 -13.9353 -13.9178 -13.8682 -13.8591 -13.7484
   -13.5845 -13.5515 -13.5234 -13.5172 -13.4525 -13.3935 -13.3464 -13.2968
   -13.2764 -13.2727 -13.1493 -13.0835 -13.0738 -13.0541 -13.0397 -13.0234
   -12.9785 -12.9672 -12.9594 -12.9410 -12.7364 -12.6745 -12.6691 -12.6589
   -12.6246 -12.6047 -12.5695 -12.5154 -12.3907 -12.3555 -12.1931 -12.1441
   -11.8090 -11.7874 -11.7808 -11.7654 -11.7474 -11.7059 -11.6441 -11.6270
   -11.5947 -11.5477 -11.5386 -11.5233  -2.6115  -2.5733  -2.4093  -2.3706
    -2.0564  -1.9808  -1.8330  -1.7162  -1.6763  -1.6309  -1.5825  -1.5584
    -1.4353  -1.3910  -1.3751  -1.2929  -1.2586  -1.2417  -1.2109  -1.1527
    -1.0837  -1.0554  -1.0263  -0.9321  -0.8841  -0.8340  -0.8020  -0.7814
    -0.7507  -0.7032  -0.6789  -0.6383  -0.5386  -0.4731  -0.3995  -0.3408
    -0.1770  -0.1453  -0.0864  -0.0488   0.0164   0.0251   0.1630   0.1944
     0.2318   0.4107   0.5098   0.5569   0.6337   0.7065   0.8252   0.8397
     0.9754   1.0014   1.0550   1.0816   1.1194   1.1333   1.1770   1.2025
     1.2733   1.3154   1.3624   1.3717   1.6699   1.6798   1.7021   1.7180
     1.8303   1.8401   1.8510   1.8581   1.8901   1.9010   1.9383   1.9645
     1.9848   2.0477   2.0595   2.1118   2.1301   2.1917   2.2924   2.3986
     2.4709   2.4876   2.5647   2.5967   2.6184   2.6831   2.6999   2.7076
     2.7388   2.7816   2.8089   2.8607   2.9080   2.9312   2.9706   2.9748
     2.9754   2.9883   3.0025   3.0147   3.0291   3.0367   3.0551   3.0569
     3.0799   3.0992   3.1045   3.2335   3.2422   4.0260   4.1143   4.1614
     4.2871   4.7652   4.8428   5.0155   5.0219   5.4685   5.4903   5.5803
     5.6222   5.9685   6.0058   6.0368   6.7826   6.8910   6.9902   7.2607
     7.2961   7.3626   7.4077   7.4965   7.6737   7.7215   7.7524   7.8637
     8.0845   8.2809   8.4749   8.5282   8.6155   8.7177   8.7394   8.8438

     occupation numbers 
     1.0000   1.0000   1.0000   1.0000   1.0000   1.0000   1.0000   1.0000
     1.0000   1.0000   1.0000   1.0000   1.0000   1.0000   1.0000   1.0000
     1.0000   1.0000   1.0000   1.0000   1.0000   1.0000   1.0000   1.0000
     1.0000   1.0000   1.0000   1.0000   1.0000   1.0000   1.0000   1.0000
     1.0000   1.0000   1.0000   1.0000   1.0000   1.0000   1.0000   1.0000
     1.0000   1.0000   1.0000   1.0000   1.0000   1.0000   1.0000   1.0000
     1.0000   1.0000   1.0000   1.0000   1.0000   1.0000   1.0000   1.0000
     1.0000   1.0000   1.0000   1.0000   1.0000   1.0000   1.0000   1.0000
     1.0000   1.0000   1.0000   1.0000   1.0000   1.0000   1.0000   1.0000
     1.0000   1.0000   1.0000   1.0000   1.0000   1.0000   1.0000   1.0000
     1.0000   1.0000   1.0000   1.0000   1.0000   1.0000   1.0000   1.0000
     1.0000   1.0000   1.0000   1.0000   1.0000   1.0000   1.0000   1.0000
     1.0000   1.0000   1.0000   1.0000   1.0000   1.0000   1.0000   1.0000
     1.0000   1.0000   1.0000   1.0000   1.0000   1.0000   1.0000   1.0000
     1.0000   1.0000   1.0000   1.0000   1.0000   1.0000   1.0000   1.0000
     1.0000   1.0000   1.0000   1.0000   1.0000   1.0000   1.0000   1.0000
     1.0000   1.0000   1.0000   1.0000   1.0000   1.0000   1.0000   1.0000
     1.0000   1.0000   1.0000   1.0000   1.0000   1.0000   1.0000   1.0000
     1.0000   1.0000   1.0000   1.0000   1.0000   1.0000   1.0000   1.0000
     1.0000   1.0000   1.0000   1.0000   1.0000   0.9999   0.9999   0.9999
     0.9997   0.9997   0.9996   0.9995   0.9994   0.9993   0.9992   0.9991
     0.9987   0.9984   0.9980   0.9979   0.9922   0.9918   0.9911   0.9905
     0.9853   0.9847   0.9841   0.9837   0.9816   0.9809   0.9782   0.9761
     0.9743   0.9682   0.9669   0.9608   0.9584   0.9496   0.9321   0.9089
     0.8900   0.8852   0.8615   0.8508   0.8431   0.8190   0.8123   0.8092
     0.7964   0.7779   0.7656   0.7414   0.7182   0.7064   0.6860   0.6837
     0.6834   0.6766   0.6690   0.6624   0.6546   0.6504   0.6402   0.6392
     0.6263   0.6154   0.6124   0.5375   0.5323   0.1395   0.1124   0.0996
     0.0707   0.0146   0.0109   0.0054   0.0052   0.0006   0.0006   0.0003
     0.0003   0.0000   0.0000   0.0000   0.0000   0.0000   0.0000   0.0000
     0.0000   0.0000   0.0000   0.0000   0.0000   0.0000   0.0000   0.0000
     0.0000   0.0000   0.0000   0.0000   0.0000   0.0000   0.0000   0.0000

          k =-0.2500 0.2500 0.0000 ( 65198 PWs)   bands (ev):

   -92.7307 -92.6786 -92.5851 -92.5367 -92.4793 -92.4376 -92.4197 -92.2966
   -56.0842 -56.0650 -55.9423 -55.9315 -55.9242 -55.9183 -55.8821 -55.8542
   -55.8382 -55.8373 -55.8298 -55.7866 -55.7678 -55.7313 -55.7117 -55.6783
   -55.6723 -55.6255 -55.6238 -55.6227 -55.6143 -55.5712 -55.5501 -55.4629
   -31.3048 -31.2881 -31.1603 -31.1458 -31.0927 -31.0589 -30.7652 -30.7447
   -29.8772 -29.8354 -29.8107 -29.7015 -15.0470 -15.0041 -14.9329 -14.8153
   -14.7044 -14.5765 -14.4930 -14.2862 -14.1457 -14.1155 -14.1050 -14.0547
   -14.0328 -14.0125 -13.9909 -13.9551 -13.8681 -13.8552 -13.7015 -13.6762
   -13.6459 -13.6263 -13.5769 -13.5268 -13.4688 -13.4643 -13.3591 -13.3134
   -13.2526 -13.1755 -13.1354 -13.1006 -13.0693 -13.0447 -13.0237 -12.9986
   -12.9658 -12.9565 -12.9308 -12.8985 -12.8000 -12.7669 -12.7363 -12.7227
   -12.7060 -12.6515 -12.5031 -12.4708 -12.4108 -12.3114 -12.1438 -12.0944
   -11.8288 -11.8074 -11.7803 -11.7683 -11.7269 -11.6929 -11.6690 -11.6484
   -11.6254 -11.5405 -11.4954 -11.4857  -2.6965  -2.4883  -2.3672  -2.2786
    -2.1605  -2.0941  -1.8905  -1.7458  -1.7273  -1.6970  -1.6051  -1.5711
    -1.4775  -1.4434  -1.4171  -1.2745  -1.2190  -1.1505  -1.1221  -1.0610
    -1.0410  -1.0006  -0.9718  -0.9314  -0.8687  -0.8211  -0.7570  -0.6890
    -0.6640  -0.6127  -0.5850  -0.5390  -0.4805  -0.4338  -0.3947  -0.2923
    -0.2620  -0.2499  -0.2064  -0.1412  -0.0625  -0.0278   0.0053   0.0746
     0.1005   0.3593   0.5306   0.5709   0.6106   0.6692   0.7113   0.7662
     0.8390   0.8689   1.1506   1.2602   1.3000   1.3347   1.3387   1.3826
     1.3982   1.4432   1.4750   1.4887   1.5145   1.5610   1.5745   1.6148
     1.6346   1.6790   1.7724   1.7810   1.8031   1.8329   1.8679   1.9046
     1.9510   2.0639   2.1744   2.2011   2.2482   2.2675   2.3315   2.3763
     2.4035   2.4285   2.4470   2.5485   2.5864   2.6775   2.7751   2.8591
     2.8615   2.8755   2.8861   2.8956   2.9125   2.9205   2.9351   2.9451
     2.9585   2.9673   2.9800   2.9902   2.9955   3.0298   3.0399   3.0488
     3.0818   3.3743   3.4553   3.5210   3.5867   3.6305   3.8152   3.9329
     4.2747   4.4759   4.6899   4.9629   5.1582   5.6208   5.6720   5.7403
     5.8044   5.8684   6.0204   6.1621   6.1824   6.7560   6.8832   7.0761
     7.2337   7.5450   7.5904   7.6507   7.8024   7.8595   7.9035   8.1114
     8.1475   8.2025   8.2995   8.3323   8.4227   8.4536   8.6996   8.8328

     occupation numbers 
     1.0000   1.0000   1.0000   1.0000   1.0000   1.0000   1.0000   1.0000
     1.0000   1.0000   1.0000   1.0000   1.0000   1.0000   1.0000   1.0000
     1.0000   1.0000   1.0000   1.0000   1.0000   1.0000   1.0000   1.0000
     1.0000   1.0000   1.0000   1.0000   1.0000   1.0000   1.0000   1.0000
     1.0000   1.0000   1.0000   1.0000   1.0000   1.0000   1.0000   1.0000
     1.0000   1.0000   1.0000   1.0000   1.0000   1.0000   1.0000   1.0000
     1.0000   1.0000   1.0000   1.0000   1.0000   1.0000   1.0000   1.0000
     1.0000   1.0000   1.0000   1.0000   1.0000   1.0000   1.0000   1.0000
     1.0000   1.0000   1.0000   1.0000   1.0000   1.0000   1.0000   1.0000
     1.0000   1.0000   1.0000   1.0000   1.0000   1.0000   1.0000   1.0000
     1.0000   1.0000   1.0000   1.0000   1.0000   1.0000   1.0000   1.0000
     1.0000   1.0000   1.0000   1.0000   1.0000   1.0000   1.0000   1.0000
     1.0000   1.0000   1.0000   1.0000   1.0000   1.0000   1.0000   1.0000
     1.0000   1.0000   1.0000   1.0000   1.0000   1.0000   1.0000   1.0000
     1.0000   1.0000   1.0000   1.0000   1.0000   1.0000   1.0000   1.0000
     1.0000   1.0000   1.0000   1.0000   1.0000   1.0000   1.0000   1.0000
     1.0000   1.0000   1.0000   1.0000   1.0000   1.0000   1.0000   1.0000
     1.0000   1.0000   1.0000   1.0000   1.0000   1.0000   1.0000   1.0000
     1.0000   1.0000   1.0000   1.0000   1.0000   1.0000   1.0000   1.0000
     1.0000   1.0000   1.0000   1.0000   1.0000   1.0000   0.9999   0.9999
     0.9999   0.9998   0.9993   0.9988   0.9985   0.9982   0.9982   0.9978
     0.9976   0.9970   0.9966   0.9964   0.9959   0.9950   0.9947   0.9937
     0.9932   0.9919   0.9882   0.9878   0.9867   0.9851   0.9831   0.9806
     0.9772   0.9664   0.9522   0.9481   0.9403   0.9368   0.9241   0.9142
     0.9077   0.9014   0.8965   0.8668   0.8543   0.8211   0.7807   0.7421
     0.7410   0.7343   0.7291   0.7244   0.7159   0.7119   0.7044   0.6993
     0.6923   0.6877   0.6810   0.6756   0.6728   0.6541   0.6486   0.6437
     0.6253   0.4542   0.4070   0.3696   0.3334   0.3101   0.2208   0.1725
     0.0733   0.0400   0.0193   0.0067   0.0029   0.0003   0.0002   0.0001
     0.0001   0.0001   0.0000   0.0000   0.0000   0.0000   0.0000   0.0000
     0.0000   0.0000   0.0000   0.0000   0.0000   0.0000   0.0000   0.0000
     0.0000   0.0000   0.0000   0.0000   0.0000   0.0000   0.0000   0.0000

          k =-0.5000 0.2500 0.0000 ( 65138 PWs)   bands (ev):

   -92.7307 -92.6786 -92.5851 -92.5367 -92.4793 -92.4376 -92.4197 -92.2966
   -56.0842 -56.0650 -55.9423 -55.9315 -55.9242 -55.9183 -55.8821 -55.8542
   -55.8382 -55.8373 -55.8298 -55.7866 -55.7678 -55.7313 -55.7117 -55.6783
   -55.6723 -55.6255 -55.6238 -55.6227 -55.6143 -55.5712 -55.5501 -55.4629
   -31.3027 -31.2902 -31.1602 -31.1454 -31.0926 -31.0593 -30.7653 -30.7448
   -29.8762 -29.8364 -29.8103 -29.7019 -15.0114 -14.9653 -14.8871 -14.7907
   -14.7482 -14.6219 -14.5307 -14.4070 -14.0965 -14.0655 -14.0532 -14.0058
   -13.9867 -13.9616 -13.9251 -13.9213 -13.8956 -13.8608 -13.8485 -13.7406
   -13.6671 -13.6181 -13.6132 -13.5971 -13.5038 -13.4957 -13.3949 -13.3597
   -13.2282 -13.1941 -13.1065 -13.0935 -13.0560 -13.0450 -13.0304 -12.9988
   -12.9754 -12.9658 -12.9493 -12.9035 -12.7408 -12.7237 -12.6970 -12.6539
   -12.6503 -12.6386 -12.5676 -12.4350 -12.3508 -12.3158 -12.1939 -12.1601
   -11.8018 -11.7889 -11.7747 -11.7631 -11.7411 -11.7108 -11.6315 -11.6226
   -11.5998 -11.5623 -11.5343 -11.5259  -2.4691  -2.4274  -2.2790  -2.2373
    -2.0760  -1.9995  -1.8573  -1.7226  -1.6645  -1.6384  -1.5987  -1.5608
    -1.4801  -1.3651  -1.3079  -1.2853  -1.2592  -1.1815  -1.1544  -1.1146
    -1.0980  -1.0368  -1.0079  -0.9687  -0.9340  -0.9050  -0.8471  -0.8203
    -0.7792  -0.7438  -0.6391  -0.6120  -0.5212  -0.4660  -0.4299  -0.3716
    -0.2907  -0.2574  -0.1552  -0.1149  -0.0606  -0.0075   0.0206   0.0907
     0.1131   0.1451   0.2016   0.2408   0.5546   0.6230   0.6669   0.6826
     0.9867   1.0428   1.1171   1.1445   1.3196   1.3560   1.3932   1.4056
     1.4236   1.4413   1.5124   1.5544   1.5978   1.6250   1.7495   1.7878
     1.8117   1.8216   1.8574   1.8886   1.9024   1.9124   1.9345   1.9586
     1.9981   2.0214   2.0534   2.0767   2.1080   2.1668   2.2869   2.3882
     2.4177   2.4857   2.5232   2.5819   2.6186   2.6275   2.6668   2.6876
     2.7212   2.7832   2.8089   2.8510   2.8656   2.8813   2.8917   2.9118
     2.9242   2.9447   2.9514   2.9733   2.9862   2.9970   3.0035   3.0137
     3.0243   3.5521   3.6050   3.7442   3.7657   4.0348   4.1320   4.1663
     4.3723   4.7592   4.8586   5.0124   5.0478   5.3805   5.4038   5.5744
     5.6118   5.7207   5.7615   6.1061   6.3771   6.4835   6.7570   6.9805
     7.4784   7.5184   7.6948   7.7729   7.7920   7.8681   8.0003   8.0977
     8.2826   8.4178   8.4596   8.5186   8.5526   8.6255   8.7027   8.7378

     occupation numbers 
     1.0000   1.0000   1.0000   1.0000   1.0000   1.0000   1.0000   1.0000
     1.0000   1.0000   1.0000   1.0000   1.0000   1.0000   1.0000   1.0000
     1.0000   1.0000   1.0000   1.0000   1.0000   1.0000   1.0000   1.0000
     1.0000   1.0000   1.0000   1.0000   1.0000   1.0000   1.0000   1.0000
     1.0000   1.0000   1.0000   1.0000   1.0000   1.0000   1.0000   1.0000
     1.0000   1.0000   1.0000   1.0000   1.0000   1.0000   1.0000   1.0000
     1.0000   1.0000   1.0000   1.0000   1.0000   1.0000   1.0000   1.0000
     1.0000   1.0000   1.0000   1.0000   1.0000   1.0000   1.0000   1.0000
     1.0000   1.0000   1.0000   1.0000   1.0000   1.0000   1.0000   1.0000
     1.0000   1.0000   1.0000   1.0000   1.0000   1.0000   1.0000   1.0000
     1.0000   1.0000   1.0000   1.0000   1.0000   1.0000   1.0000   1.0000
     1.0000   1.0000   1.0000   1.0000   1.0000   1.0000   1.0000   1.0000
     1.0000   1.0000   1.0000   1.0000   1.0000   1.0000   1.0000   1.0000
     1.0000   1.0000   1.0000   1.0000   1.0000   1.0000   1.0000   1.0000
     1.0000   1.0000   1.0000   1.0000   1.0000   1.0000   1.0000   1.0000
     1.0000   1.0000   1.0000   1.0000   1.0000   1.0000   1.0000   1.0000
     1.0000   1.0000   1.0000   1.0000   1.0000   1.0000   1.0000   1.0000
     1.0000   1.0000   1.0000   1.0000   1.0000   1.0000   1.0000   1.0000
     1.0000   1.0000   1.0000   1.0000   1.0000   1.0000   1.0000   1.0000
     1.0000   1.0000   1.0000   1.0000   1.0000   1.0000   1.0000   0.9999
     0.9997   0.9996   0.9994   0.9993   0.9983   0.9980   0.9976   0.9975
     0.9973   0.9971   0.9960   0.9952   0.9942   0.9935   0.9892   0.9875
     0.9863   0.9858   0.9837   0.9817   0.9808   0.9801   0.9785   0.9765
     0.9731   0.9709   0.9676   0.9650   0.9612   0.9533   0.9332   0.9114
     0.9041   0.8858   0.8747   0.8558   0.8431   0.8399   0.8252   0.8172
     0.8037   0.7772   0.7657   0.7460   0.7390   0.7314   0.7263   0.7163
     0.7100   0.6995   0.6960   0.6845   0.6777   0.6719   0.6685   0.6629
     0.6571   0.3523   0.3236   0.2533   0.2431   0.1366   0.1075   0.0983
     0.0551   0.0149   0.0102   0.0054   0.0047   0.0010   0.0009   0.0004
     0.0003   0.0002   0.0001   0.0000   0.0000   0.0000   0.0000   0.0000
     0.0000   0.0000   0.0000   0.0000   0.0000   0.0000   0.0000   0.0000
     0.0000   0.0000   0.0000   0.0000   0.0000   0.0000   0.0000   0.0000

     the Fermi energy is     3.2969 ev

!    total energy              =   -4399.91917030 Ry
     estimated scf accuracy    <          7.6E-09 Ry
     smearing contrib. (-TS)   =      -1.14666738 Ry
     internal energy E=F+TS    =   -4398.77250291 Ry

     The total energy is F=E-TS. E is the sum of the following terms:
     one-electron contribution =  -21252.49829410 Ry
     hartree contribution      =   10753.92888347 Ry
     xc contribution           =    -686.72790749 Ry
     ewald contribution        =    7053.16997672 Ry
     one-center paw contrib.   =    -266.64516151 Ry
      -> PAW hartree energy AE =      25.11299400 Ry
      -> PAW hartree energy PS =     -24.99752188 Ry
      -> PAW xc energy AE      =     -16.51031838 Ry
      -> PAW xc energy PS      =       6.86945106 Ry
      -> total E_H with PAW    =   10754.04435559 Ry
      -> total E_XC with PAW   =    -696.36877480 Ry

     convergence has been achieved in  47 iterations

     Writing all to output data dir /bsuhome/zayahcortright/scratch/pwscf.save/
 
     init_run     :      7.75s CPU      8.07s WALL (       1 calls)
     electrons    :    675.06s CPU    686.86s WALL (       1 calls)

     Called by init_run:
     wfcinit      :      6.04s CPU      6.16s WALL (       1 calls)
     wfcinit:atom :      0.06s CPU      0.07s WALL (       5 calls)
     wfcinit:wfcr :      5.69s CPU      5.76s WALL (       5 calls)
     potinit      :      0.19s CPU      0.20s WALL (       1 calls)
     hinit0       :      0.65s CPU      0.76s WALL (       1 calls)

     Called by electrons:
     c_bands      :    533.71s CPU    538.27s WALL (      47 calls)
     sum_band     :    105.91s CPU    110.13s WALL (      47 calls)
     v_of_rho     :      5.25s CPU      5.49s WALL (      48 calls)
     v_h          :      0.46s CPU      0.46s WALL (      48 calls)
     v_xc         :      4.79s CPU      5.03s WALL (      48 calls)
     newd         :     16.25s CPU     18.68s WALL (      48 calls)
     PAW_pot      :      1.51s CPU      1.53s WALL (      48 calls)
     mix_rho      :     12.14s CPU     12.40s WALL (      47 calls)

     Called by c_bands:
     init_us_2    :      6.83s CPU      6.88s WALL (     475 calls)
     init_us_2:cp :      6.83s CPU      6.87s WALL (     475 calls)
     cegterg      :    502.12s CPU    506.48s WALL (     235 calls)

     Called by sum_band:
     sum_band:wei :      0.32s CPU      0.33s WALL (      47 calls)
     sum_band:loo :     87.18s CPU     87.86s WALL (      47 calls)
     sum_band:buf :      1.40s CPU      1.42s WALL (     235 calls)
     sum_band:ini :      3.29s CPU      3.30s WALL (     235 calls)
     sum_band:cal :     17.82s CPU     17.87s WALL (     235 calls)
     sum_band:bec :      0.54s CPU      0.54s WALL (     235 calls)
     addusdens    :     17.54s CPU     21.05s WALL (      47 calls)
                                        0.00s GPU  (      47 calls)
     addusd:skk   :      0.32s CPU      0.65s WALL (     188 calls)
                                        0.00s GPU  (     188 calls)

     Called by *egterg:
     cdiaghg      :     52.02s CPU     52.23s WALL (    1292 calls)
     cegterg:over :     37.72s CPU     37.83s WALL (    1057 calls)
     cegterg:upda :     27.00s CPU     27.34s WALL (    1057 calls)
     cegterg:last :     55.62s CPU     55.77s WALL (     433 calls)
     cdiaghg:chol :      3.04s CPU      3.06s WALL (    1292 calls)
     cdiaghg:inve :      3.08s CPU      3.09s WALL (    1292 calls)
     cdiaghg:para :      6.74s CPU      6.77s WALL (    2584 calls)
     h_psi        :    277.74s CPU    280.28s WALL (    1297 calls)
     s_psi        :     36.80s CPU     36.91s WALL (    1297 calls)
     g_psi        :      1.12s CPU      1.13s WALL (    1057 calls)

     Called by h_psi:
     h_psi:calbec :     40.99s CPU     41.11s WALL (    1297 calls)
     vloc_psi     :    196.97s CPU    198.84s WALL (    1297 calls)
     add_vuspsi   :     36.66s CPU     36.79s WALL (    1297 calls)

     General routines
     calbec       :     58.80s CPU     58.98s WALL (    1532 calls)
     fft          :      3.47s CPU      3.50s WALL (     622 calls)
     ffts         :      4.51s CPU      4.55s WALL (    4979 calls)
     fftw         :    170.06s CPU    171.45s WALL (  315246 calls)
     interpolate  :      0.38s CPU      0.39s WALL (      48 calls)
 
     Parallel routines

     PAW routines
     PAW_pot      :      1.51s CPU      1.53s WALL (      48 calls)
 
     PWSCF        :  11m24.77s CPU  11m39.67s WALL

 
   This run was terminated on:  16:12:51  21Jun2024            

=------------------------------------------------------------------------------=
   JOB DONE.
=------------------------------------------------------------------------------=
