
     Program PWSCF v.7.2 starts on 22Jun2024 at  3:39:53 

     This program is part of the open-source Quantum ESPRESSO suite
     for quantum simulation of materials; please cite
         "P. Giannozzi et al., J. Phys.:Condens. Matter 21 395502 (2009);
         "P. Giannozzi et al., J. Phys.:Condens. Matter 29 465901 (2017);
         "P. Giannozzi et al., J. Chem. Phys. 152 154105 (2020);
          URL http://www.quantum-espresso.org", 
     in publications or presentations arising from this work. More details at
     http://www.quantum-espresso.org/quote

     Parallel version (MPI & OpenMP), running on      48 processor cores
     Number of MPI processes:                48
     Threads/MPI process:                     1

     MPI processes distributed on     1 nodes
     60567 MiB available memory on the printing compute node when the environment starts
 
     Reading input from espresso.pwi
Warning: card &CELL ignored
Warning: card / ignored
Warning: card &FCP ignored
Warning: card / ignored
Warning: card &RISM ignored
Warning: card / ignored

     Current dimensions of program PWSCF are:
     Max number of different atomic species (ntypx) = 10
     Max number of k-points (npk) =  40000
     Max angular momentum in pseudopotentials (lmaxx) =  4
     file O.pbe-n-kjpaw_psl.0.1.UPF: wavefunction(s)  2P renormalized
     signal trapping enabled: kill the code with -SIGUSR1 to stop cleanly the simulation 
 
     K-points division:     npool     =       2
     R & G space division:  proc/nbgrp/npool/nimage =      24
     Subspace diagonalization in iterative solution of the eigenvalue problem:
     one sub-group per band group will be used
     scalapack distributed-memory algorithm (size of sub-group:  3*  3 procs)

 
     Parallelization info
     --------------------
     sticks:   dense  smooth     PW     G-vecs:    dense   smooth      PW
     Min         350     175     47                61430    21716    3036
     Max         351     177     48                61449    21727    3041
     Sum        8421    4205   1137              1474595   521381   72913
 
     Using Slab Decomposition
 


     bravais-lattice index     =            0
     lattice parameter (alat)  =      14.8599  a.u.
     unit-cell volume          =    8305.1283 (a.u.)^3
     number of atoms/cell      =           49
     number of atomic types    =            3
     number of electrons       =       430.00
     number of Kohn-Sham states=          258
     kinetic-energy cutoff     =      60.0000  Ry
     charge density cutoff     =     480.0000  Ry
     scf convergence threshold =      1.0E-08
     mixing beta               =       0.1500
     number of iterations used =            8  local-TF  mixing
     Exchange-correlation= SLA  PW   PBE  PBE
                           (   1   4   3   4   0   0   0)

     celldm(1)=  14.859904  celldm(2)=   0.000000  celldm(3)=   0.000000
     celldm(4)=   0.000000  celldm(5)=   0.000000  celldm(6)=   0.000000

     crystal axes: (cart. coord. in units of alat)
               a(1) = (   1.000000   0.000000   0.000000 )  
               a(2) = (   0.000000   1.000000   0.000000 )  
               a(3) = (   0.000000   0.000000   2.531036 )  

     reciprocal axes: (cart. coord. in units 2 pi/alat)
               b(1) = (  1.000000  0.000000  0.000000 )  
               b(2) = (  0.000000  1.000000  0.000000 )  
               b(3) = (  0.000000  0.000000  0.395095 )  


     PseudoPot. # 1 for Sr read from file:
     /bsuhome/zayahcortright/q-e/pseudo/Sr_pbe_v1.uspp.F.UPF
     MD5 check sum: 6b418c05fbe9db5448babca5e47b7a5b
     Pseudo is Ultrasoft + core correction, Zval = 10.0
     Generated by new atomic code, or converted to UPF format
     Using radial grid of  883 points,  6 beta functions with: 
                l(1) =   0
                l(2) =   0
                l(3) =   1
                l(4) =   1
                l(5) =   2
                l(6) =   2
     Q(r) pseudized with  6 coefficients,  rinner =    1.400   1.400   1.400
                                                       1.400   1.400

     PseudoPot. # 2 for O  read from file:
     /bsuhome/zayahcortright/q-e/pseudo/O.pbe-n-kjpaw_psl.0.1.UPF
     MD5 check sum: 0234752ac141de4415c5fc33072bef88
     Pseudo is Projector augmented-wave + core cor, Zval =  6.0
     Generated using "atomic" code by A. Dal Corso  v.5.0.99 svn rev. 10869
     Shape of augmentation charge: BESSEL
     Using radial grid of 1095 points,  4 beta functions with: 
                l(1) =   0
                l(2) =   0
                l(3) =   1
                l(4) =   1
     Q(r) pseudized with 0 coefficients 


     PseudoPot. # 3 for Co read from file:
     /bsuhome/zayahcortright/q-e/pseudo/Co_pbe_v1.2.uspp.F.UPF
     MD5 check sum: 5f91765df6ddd3222702df6e7b74a16d
     Pseudo is Ultrasoft + core correction, Zval = 17.0
     Generated by new atomic code, or converted to UPF format
     Using radial grid of  863 points,  6 beta functions with: 
                l(1) =   0
                l(2) =   0
                l(3) =   1
                l(4) =   1
                l(5) =   2
                l(6) =   2
     Q(r) pseudized with  8 coefficients,  rinner =    1.200   1.200   1.200
                                                       1.200   1.200

     atomic species   valence    mass     pseudopotential
        Sr            10.00    87.62000     Sr( 1.00)
        O              6.00    15.99900     O ( 1.00)
        Co            17.00    58.93319     Co( 1.00)

     No symmetry found


                                    s                        frac. trans.

      isym =  1     identity                                     

 cryst.   s( 1) = (     1          0          0      )
                  (     0          1          0      )
                  (     0          0          1      )

 cart.    s( 1) = (  1.0000000  0.0000000  0.0000000 )
                  (  0.0000000  1.0000000  0.0000000 )
                  (  0.0000000  0.0000000  1.0000000 )


   Cartesian axes

     site n.     atom                  positions (alat units)
         1           Sr  tau(   1) = (   0.2508693   0.7491307   1.7574407  )
         2           O   tau(   2) = (   0.4985141   0.5014859   1.7715967  )
         3           Sr  tau(   3) = (   0.7482398   0.7454518   1.7648669  )
         4           Sr  tau(   4) = (   0.7441748   0.2558252   1.7667843  )
         5           Sr  tau(   5) = (   0.2508693   0.7491307   1.2696799  )
         6           Sr  tau(   6) = (   0.2508693   0.7491307   0.7632319  )
         7           Co  tau(   7) = (   0.4998914   0.5001086   1.0164559  )
         8           Co  tau(   8) = (   0.4936915   0.5063085   1.5135603  )
         9           O   tau(   9) = (   0.4988895   0.7610401   1.0164559  )
        10           O   tau(  10) = (   0.2389599   0.5011105   1.0164559  )
        11           O   tau(  11) = (   0.0070918   0.7374880   1.0164559  )
        12           O   tau(  12) = (   0.0088340   0.7405089   1.5135603  )
        13           O   tau(  13) = (   0.5066944   0.7415376   1.5135603  )
        14           O   tau(  14) = (   0.2584624   0.4933056   1.5135603  )
        15           O   tau(  15) = (   0.4985141   0.5014859   0.7773880  )
        16           O   tau(  16) = (   0.4985141   0.5014859   1.2555238  )
        17           Sr  tau(  17) = (   0.7482398   0.7454518   0.7706582  )
        18           Sr  tau(  18) = (   0.7482398   0.7454518   1.2622536  )
        19           Sr  tau(  19) = (   0.7441748   0.2558252   0.7725755  )
        20           Sr  tau(  20) = (   0.7441748   0.2558252   1.2603363  )
        21           O   tau(  21) = (   0.7322655   0.0078049   1.5135603  )
        22           O   tau(  22) = (   0.7558175   0.4996027   1.5135603  )
        23           O   tau(  23) = (   0.5003973   0.2441825   1.5135603  )
        24           O   tau(  24) = (   0.7527966   0.4978604   1.0164559  )
        25           O   tau(  25) = (   0.5021396   0.2472034   1.0164559  )
        26           O   tau(  26) = (   0.7517679   0.0000000   1.0164559  )
        27           O   tau(  27) = (   0.0114961   0.4948124   1.7455321  )
        28           O   tau(  28) = (   0.0048226   0.0077944   1.7715967  )
        29           Sr  tau(  29) = (   0.2545482   0.2517602   1.7648669  )
        30           O   tau(  30) = (   0.5048017   0.0015068   1.7786929  )
        31           Co  tau(  31) = (   0.0056869   0.5006215   1.0164559  )
        32           Co  tau(  32) = (   0.0065315   0.4997770   1.5135603  )
        33           Co  tau(  33) = (   0.0061999   0.0064171   1.0164559  )
        34           Co  tau(  34) = (   0.0000000   0.0126169   1.5135603  )
        35           O   tau(  35) = (   0.0114961   0.4948124   1.2815885  )
        36           O   tau(  36) = (   0.0114961   0.4948124   0.7513233  )
        37           O   tau(  37) = (   0.0051979   0.2673486   1.0164559  )
        38           O   tau(  38) = (   0.0130029   0.2478461   1.5135603  )
        39           O   tau(  39) = (   0.0048226   0.0077944   0.7773880  )
        40           O   tau(  40) = (   0.0048226   0.0077944   1.2555238  )
        41           Sr  tau(  41) = (   0.2545482   0.2517602   0.7706582  )
        42           Sr  tau(  42) = (   0.2545482   0.2517602   1.2622536  )
        43           Co  tau(  43) = (   0.4989925   0.0073160   1.5135603  )
        44           Co  tau(  44) = (   0.4998370   0.0064714   1.0164559  )
        45           O   tau(  45) = (   0.5048017   0.0015068   0.7844841  )
        46           O   tau(  46) = (   0.5048017   0.0015068   1.2484277  )
        47           O   tau(  47) = (   0.2621260   0.0059111   1.5135603  )
        48           O   tau(  48) = (   0.2591051   0.0041689   1.0164559  )
        49           O   tau(  49) = (   0.9951520   0.9951520   2.1602013  )

   Crystallographic axes

     site n.     atom                  positions (cryst. coord.)
         1           Sr  tau(   1) = (  0.2508693  0.7491307  0.6943562  )
         2           O   tau(   2) = (  0.4985141  0.5014859  0.6999492  )
         3           Sr  tau(   3) = (  0.7482398  0.7454518  0.6972903  )
         4           Sr  tau(   4) = (  0.7441748  0.2558252  0.6980478  )
         5           Sr  tau(   5) = (  0.2508693  0.7491307  0.5016443  )
         6           Sr  tau(   6) = (  0.2508693  0.7491307  0.3015492  )
         7           Co  tau(   7) = (  0.4998914  0.5001086  0.4015968  )
         8           Co  tau(   8) = (  0.4936915  0.5063085  0.5980003  )
         9           O   tau(   9) = (  0.4988895  0.7610401  0.4015968  )
        10           O   tau(  10) = (  0.2389599  0.5011105  0.4015968  )
        11           O   tau(  11) = (  0.0070918  0.7374880  0.4015968  )
        12           O   tau(  12) = (  0.0088340  0.7405089  0.5980003  )
        13           O   tau(  13) = (  0.5066944  0.7415376  0.5980003  )
        14           O   tau(  14) = (  0.2584624  0.4933056  0.5980003  )
        15           O   tau(  15) = (  0.4985141  0.5014859  0.3071422  )
        16           O   tau(  16) = (  0.4985141  0.5014859  0.4960513  )
        17           Sr  tau(  17) = (  0.7482398  0.7454518  0.3044833  )
        18           Sr  tau(  18) = (  0.7482398  0.7454518  0.4987103  )
        19           Sr  tau(  19) = (  0.7441748  0.2558252  0.3052408  )
        20           Sr  tau(  20) = (  0.7441748  0.2558252  0.4979527  )
        21           O   tau(  21) = (  0.7322655  0.0078049  0.5980003  )
        22           O   tau(  22) = (  0.7558175  0.4996027  0.5980003  )
        23           O   tau(  23) = (  0.5003973  0.2441825  0.5980003  )
        24           O   tau(  24) = (  0.7527966  0.4978604  0.4015968  )
        25           O   tau(  25) = (  0.5021396  0.2472034  0.4015968  )
        26           O   tau(  26) = (  0.7517679  0.0000000  0.4015968  )
        27           O   tau(  27) = (  0.0114961  0.4948124  0.6896512  )
        28           O   tau(  28) = (  0.0048226  0.0077944  0.6999492  )
        29           Sr  tau(  29) = (  0.2545482  0.2517602  0.6972903  )
        30           O   tau(  30) = (  0.5048017  0.0015068  0.7027529  )
        31           Co  tau(  31) = (  0.0056869  0.5006215  0.4015968  )
        32           Co  tau(  32) = (  0.0065315  0.4997770  0.5980003  )
        33           Co  tau(  33) = (  0.0061999  0.0064171  0.4015968  )
        34           Co  tau(  34) = (  0.0000000  0.0126169  0.5980003  )
        35           O   tau(  35) = (  0.0114961  0.4948124  0.5063494  )
        36           O   tau(  36) = (  0.0114961  0.4948124  0.2968442  )
        37           O   tau(  37) = (  0.0051979  0.2673486  0.4015968  )
        38           O   tau(  38) = (  0.0130029  0.2478461  0.5980003  )
        39           O   tau(  39) = (  0.0048226  0.0077944  0.3071422  )
        40           O   tau(  40) = (  0.0048226  0.0077944  0.4960513  )
        41           Sr  tau(  41) = (  0.2545482  0.2517602  0.3044833  )
        42           Sr  tau(  42) = (  0.2545482  0.2517602  0.4987103  )
        43           Co  tau(  43) = (  0.4989925  0.0073160  0.5980003  )
        44           Co  tau(  44) = (  0.4998370  0.0064714  0.4015968  )
        45           O   tau(  45) = (  0.5048017  0.0015068  0.3099459  )
        46           O   tau(  46) = (  0.5048017  0.0015068  0.4932477  )
        47           O   tau(  47) = (  0.2621260  0.0059111  0.5980003  )
        48           O   tau(  48) = (  0.2591051  0.0041689  0.4015968  )
        49           O   tau(  49) = (  0.9951520  0.9951520  0.8534850  )

     number of k points=    10  Gaussian smearing, width (Ry)=  0.0700
                       cart. coord. in units 2pi/alat
        k(    1) = (   0.0000000   0.0000000   0.0000000), wk =   0.1250000
        k(    2) = (   0.0000000   0.2500000   0.0000000), wk =   0.2500000
        k(    3) = (   0.0000000  -0.5000000   0.0000000), wk =   0.1250000
        k(    4) = (   0.2500000   0.2500000   0.0000000), wk =   0.2500000
        k(    5) = (   0.2500000  -0.5000000   0.0000000), wk =   0.2500000
        k(    6) = (  -0.5000000  -0.5000000   0.0000000), wk =   0.1250000
        k(    7) = (   0.2500000   0.0000000   0.0000000), wk =   0.2500000
        k(    8) = (  -0.5000000   0.0000000   0.0000000), wk =   0.1250000
        k(    9) = (  -0.2500000   0.2500000   0.0000000), wk =   0.2500000
        k(   10) = (  -0.5000000   0.2500000   0.0000000), wk =   0.2500000

                       cryst. coord.
        k(    1) = (   0.0000000   0.0000000   0.0000000), wk =   0.1250000
        k(    2) = (   0.0000000   0.2500000   0.0000000), wk =   0.2500000
        k(    3) = (   0.0000000  -0.5000000   0.0000000), wk =   0.1250000
        k(    4) = (   0.2500000   0.2500000   0.0000000), wk =   0.2500000
        k(    5) = (   0.2500000  -0.5000000   0.0000000), wk =   0.2500000
        k(    6) = (  -0.5000000  -0.5000000   0.0000000), wk =   0.1250000
        k(    7) = (   0.2500000   0.0000000   0.0000000), wk =   0.2500000
        k(    8) = (  -0.5000000   0.0000000   0.0000000), wk =   0.1250000
        k(    9) = (  -0.2500000   0.2500000   0.0000000), wk =   0.2500000
        k(   10) = (  -0.5000000   0.2500000   0.0000000), wk =   0.2500000

     Dense  grid:  1474595 G-vectors     FFT dimensions: ( 108, 108, 270)

     Smooth grid:   521381 G-vectors     FFT dimensions: (  75,  75, 192)

     Dynamical RAM for                 wfc:      10.69 MB

     Dynamical RAM for     wfc (w. buffer):      64.13 MB

     Dynamical RAM for           str. fact:       2.81 MB

     Dynamical RAM for           local pot:       0.00 MB

     Dynamical RAM for          nlocal pot:      24.53 MB

     Dynamical RAM for                qrad:       5.27 MB

     Dynamical RAM for          rho,v,vnew:       6.02 MB

     Dynamical RAM for               rhoin:       2.01 MB

     Dynamical RAM for            rho*nmix:      15.00 MB

     Dynamical RAM for           G-vectors:       3.68 MB

     Dynamical RAM for          h,s,v(r/c):       1.35 MB

     Dynamical RAM for          <psi|beta>:       2.33 MB

     Dynamical RAM for                 psi:      21.38 MB

     Dynamical RAM for                hpsi:      21.38 MB

     Dynamical RAM for                spsi:      21.38 MB

     Dynamical RAM for      wfcinit/wfcrot:      34.39 MB

     Dynamical RAM for           addusdens:     101.26 MB

     Estimated static dynamical RAM per process >     117.53 MB

     Estimated max dynamical RAM per process >     233.79 MB

     Estimated total dynamical RAM >      10.61 GB

     Check: negative core charge=   -0.000004

     Initial potential from superposition of free atoms

     starting charge     421.5961, renormalised to     430.0000

     negative rho (up, down):  7.826E-01 0.000E+00
     Starting wfcs are  376 randomized atomic wfcs
     Checking if some PAW data can be deallocated... 
       PAW data deallocated on   19 nodes for type:  2

     total cpu time spent up to now is        9.1 secs

     Self-consistent Calculation

     iteration #  1     ecut=    60.00 Ry     beta= 0.15
     Davidson diagonalization with overlap

---- Real-time Memory Report at c_bands before calling an iterative solver
             0 MiB given to the printing process from OS
             0 MiB allocation reported by mallinfo(arena+hblkhd)
         51474 MiB available memory on the node where the printing process lives
------------------
     ethr =  1.00E-02,  avg # of iterations =  2.0

     negative rho (up, down):  7.717E-01 0.000E+00

     total cpu time spent up to now is       25.3 secs

     total energy              =   -4445.24530594 Ry
     estimated scf accuracy    <      53.98312950 Ry

     iteration #  2     ecut=    60.00 Ry     beta= 0.15
     Davidson diagonalization with overlap

---- Real-time Memory Report at c_bands before calling an iterative solver
             0 MiB given to the printing process from OS
             0 MiB allocation reported by mallinfo(arena+hblkhd)
         51835 MiB available memory on the node where the printing process lives
------------------
     ethr =  1.00E-02,  avg # of iterations =  1.0

     negative rho (up, down):  7.584E-01 0.000E+00

     total cpu time spent up to now is       38.0 secs

     total energy              =   -4441.74628938 Ry
     estimated scf accuracy    <      28.70359612 Ry

     iteration #  3     ecut=    60.00 Ry     beta= 0.15
     Davidson diagonalization with overlap

---- Real-time Memory Report at c_bands before calling an iterative solver
             0 MiB given to the printing process from OS
             0 MiB allocation reported by mallinfo(arena+hblkhd)
         51047 MiB available memory on the node where the printing process lives
------------------
     ethr =  6.68E-03,  avg # of iterations =  1.0

     negative rho (up, down):  7.534E-01 0.000E+00

     total cpu time spent up to now is       50.9 secs

     total energy              =   -4442.67050632 Ry
     estimated scf accuracy    <      29.00703116 Ry

     iteration #  4     ecut=    60.00 Ry     beta= 0.15
     Davidson diagonalization with overlap

---- Real-time Memory Report at c_bands before calling an iterative solver
             0 MiB given to the printing process from OS
             0 MiB allocation reported by mallinfo(arena+hblkhd)
         51027 MiB available memory on the node where the printing process lives
------------------
     ethr =  6.68E-03,  avg # of iterations =  1.0

     negative rho (up, down):  7.535E-01 0.000E+00

     total cpu time spent up to now is       63.8 secs

     total energy              =   -4442.35733600 Ry
     estimated scf accuracy    <      25.98897788 Ry

     iteration #  5     ecut=    60.00 Ry     beta= 0.15
     Davidson diagonalization with overlap

---- Real-time Memory Report at c_bands before calling an iterative solver
             0 MiB given to the printing process from OS
             0 MiB allocation reported by mallinfo(arena+hblkhd)
         51015 MiB available memory on the node where the printing process lives
------------------
     ethr =  6.04E-03,  avg # of iterations =  1.0

     negative rho (up, down):  7.355E-01 0.000E+00

     total cpu time spent up to now is       76.2 secs

     total energy              =   -4440.89558422 Ry
     estimated scf accuracy    <      17.51694570 Ry

     iteration #  6     ecut=    60.00 Ry     beta= 0.15
     Davidson diagonalization with overlap

---- Real-time Memory Report at c_bands before calling an iterative solver
             0 MiB given to the printing process from OS
             0 MiB allocation reported by mallinfo(arena+hblkhd)
         50993 MiB available memory on the node where the printing process lives
------------------
     ethr =  4.07E-03,  avg # of iterations =  2.0

     negative rho (up, down):  7.405E-01 0.000E+00

     total cpu time spent up to now is       90.4 secs

     total energy              =   -4443.39854076 Ry
     estimated scf accuracy    <      61.57755400 Ry

     iteration #  7     ecut=    60.00 Ry     beta= 0.15
     Davidson diagonalization with overlap

---- Real-time Memory Report at c_bands before calling an iterative solver
             0 MiB given to the printing process from OS
             0 MiB allocation reported by mallinfo(arena+hblkhd)
         50967 MiB available memory on the node where the printing process lives
------------------
     ethr =  4.07E-03,  avg # of iterations =  1.0

     negative rho (up, down):  7.447E-01 0.000E+00

     total cpu time spent up to now is      103.0 secs

     total energy              =   -4441.10611834 Ry
     estimated scf accuracy    <      53.27798695 Ry

     iteration #  8     ecut=    60.00 Ry     beta= 0.15
     Davidson diagonalization with overlap

---- Real-time Memory Report at c_bands before calling an iterative solver
             0 MiB given to the printing process from OS
             0 MiB allocation reported by mallinfo(arena+hblkhd)
         50949 MiB available memory on the node where the printing process lives
------------------
     ethr =  4.07E-03,  avg # of iterations =  1.0

     negative rho (up, down):  7.497E-01 0.000E+00

     total cpu time spent up to now is      115.5 secs

     total energy              =   -4441.16973853 Ry
     estimated scf accuracy    <       9.88439033 Ry

     iteration #  9     ecut=    60.00 Ry     beta= 0.15
     Davidson diagonalization with overlap

---- Real-time Memory Report at c_bands before calling an iterative solver
             0 MiB given to the printing process from OS
             0 MiB allocation reported by mallinfo(arena+hblkhd)
         50932 MiB available memory on the node where the printing process lives
------------------
     ethr =  2.30E-03,  avg # of iterations =  1.1

     negative rho (up, down):  7.547E-01 0.000E+00

     total cpu time spent up to now is      128.6 secs

     total energy              =   -4440.53423295 Ry
     estimated scf accuracy    <       4.72894326 Ry

     iteration # 10     ecut=    60.00 Ry     beta= 0.15
     Davidson diagonalization with overlap

---- Real-time Memory Report at c_bands before calling an iterative solver
             0 MiB given to the printing process from OS
             0 MiB allocation reported by mallinfo(arena+hblkhd)
         50903 MiB available memory on the node where the printing process lives
------------------
     ethr =  1.10E-03,  avg # of iterations =  6.6

     negative rho (up, down):  7.659E-01 0.000E+00

     total cpu time spent up to now is      144.8 secs

     total energy              =   -4440.46666608 Ry
     estimated scf accuracy    <       2.74833218 Ry

     iteration # 11     ecut=    60.00 Ry     beta= 0.15
     Davidson diagonalization with overlap

---- Real-time Memory Report at c_bands before calling an iterative solver
             0 MiB given to the printing process from OS
             0 MiB allocation reported by mallinfo(arena+hblkhd)
         50740 MiB available memory on the node where the printing process lives
------------------
     ethr =  6.39E-04,  avg # of iterations =  7.6

     negative rho (up, down):  7.821E-01 0.000E+00

     total cpu time spent up to now is      161.3 secs

     total energy              =   -4440.46581363 Ry
     estimated scf accuracy    <      21.71619851 Ry

     iteration # 12     ecut=    60.00 Ry     beta= 0.15
     Davidson diagonalization with overlap

---- Real-time Memory Report at c_bands before calling an iterative solver
             0 MiB given to the printing process from OS
             0 MiB allocation reported by mallinfo(arena+hblkhd)
         50445 MiB available memory on the node where the printing process lives
------------------
     ethr =  6.39E-04,  avg # of iterations =  6.8

     negative rho (up, down):  7.811E-01 0.000E+00

     total cpu time spent up to now is      177.4 secs

     total energy              =   -4440.05058664 Ry
     estimated scf accuracy    <      11.89428816 Ry

     iteration # 13     ecut=    60.00 Ry     beta= 0.15
     Davidson diagonalization with overlap

---- Real-time Memory Report at c_bands before calling an iterative solver
             0 MiB given to the printing process from OS
             0 MiB allocation reported by mallinfo(arena+hblkhd)
         50333 MiB available memory on the node where the printing process lives
------------------
     ethr =  6.39E-04,  avg # of iterations =  2.0

     negative rho (up, down):  7.886E-01 0.000E+00

     total cpu time spent up to now is      191.4 secs

     total energy              =   -4440.41076971 Ry
     estimated scf accuracy    <       2.19758744 Ry

     iteration # 14     ecut=    60.00 Ry     beta= 0.15
     Davidson diagonalization with overlap

---- Real-time Memory Report at c_bands before calling an iterative solver
             0 MiB given to the printing process from OS
             0 MiB allocation reported by mallinfo(arena+hblkhd)
         50362 MiB available memory on the node where the printing process lives
------------------
     ethr =  5.11E-04,  avg # of iterations =  2.0

     negative rho (up, down):  8.049E-01 0.000E+00

     total cpu time spent up to now is      205.4 secs

     total energy              =   -4440.48316602 Ry
     estimated scf accuracy    <       1.65883038 Ry

     iteration # 15     ecut=    60.00 Ry     beta= 0.15
     Davidson diagonalization with overlap

---- Real-time Memory Report at c_bands before calling an iterative solver
             0 MiB given to the printing process from OS
             0 MiB allocation reported by mallinfo(arena+hblkhd)
         50390 MiB available memory on the node where the printing process lives
------------------
     ethr =  3.86E-04,  avg # of iterations =  3.0

     negative rho (up, down):  8.247E-01 0.000E+00

     total cpu time spent up to now is      219.7 secs

     total energy              =   -4439.99834238 Ry
     estimated scf accuracy    <       7.29792465 Ry

     iteration # 16     ecut=    60.00 Ry     beta= 0.15
     Davidson diagonalization with overlap

---- Real-time Memory Report at c_bands before calling an iterative solver
             0 MiB given to the printing process from OS
             0 MiB allocation reported by mallinfo(arena+hblkhd)
         50381 MiB available memory on the node where the printing process lives
------------------
     ethr =  3.86E-04,  avg # of iterations =  6.3

     negative rho (up, down):  8.251E-01 0.000E+00

     total cpu time spent up to now is      235.9 secs

     total energy              =   -4440.40289317 Ry
     estimated scf accuracy    <       2.24774737 Ry

     iteration # 17     ecut=    60.00 Ry     beta= 0.15
     Davidson diagonalization with overlap

---- Real-time Memory Report at c_bands before calling an iterative solver
             0 MiB given to the printing process from OS
             0 MiB allocation reported by mallinfo(arena+hblkhd)
         50343 MiB available memory on the node where the printing process lives
------------------
     ethr =  3.86E-04,  avg # of iterations =  1.0

     negative rho (up, down):  8.162E-01 0.000E+00

     total cpu time spent up to now is      248.8 secs

     total energy              =   -4440.13323215 Ry
     estimated scf accuracy    <       1.30423712 Ry

     iteration # 18     ecut=    60.00 Ry     beta= 0.15
     Davidson diagonalization with overlap

---- Real-time Memory Report at c_bands before calling an iterative solver
             0 MiB given to the printing process from OS
             0 MiB allocation reported by mallinfo(arena+hblkhd)
         50363 MiB available memory on the node where the printing process lives
------------------
     ethr =  3.03E-04,  avg # of iterations =  3.5

     negative rho (up, down):  8.229E-01 0.000E+00

     total cpu time spent up to now is      263.6 secs

     total energy              =   -4440.18205518 Ry
     estimated scf accuracy    <      16.76175753 Ry

     iteration # 19     ecut=    60.00 Ry     beta= 0.15
     Davidson diagonalization with overlap

---- Real-time Memory Report at c_bands before calling an iterative solver
             0 MiB given to the printing process from OS
             0 MiB allocation reported by mallinfo(arena+hblkhd)
         50387 MiB available memory on the node where the printing process lives
------------------
     ethr =  3.03E-04,  avg # of iterations =  4.4

     negative rho (up, down):  8.179E-01 0.000E+00

     total cpu time spent up to now is      279.1 secs

     total energy              =   -4440.28689783 Ry
     estimated scf accuracy    <       0.72790851 Ry

     iteration # 20     ecut=    60.00 Ry     beta= 0.15
     Davidson diagonalization with overlap

---- Real-time Memory Report at c_bands before calling an iterative solver
             0 MiB given to the printing process from OS
             0 MiB allocation reported by mallinfo(arena+hblkhd)
         50415 MiB available memory on the node where the printing process lives
------------------
     ethr =  1.69E-04,  avg # of iterations =  8.1

     negative rho (up, down):  8.097E-01 0.000E+00

     total cpu time spent up to now is      296.4 secs

     total energy              =   -4440.31701692 Ry
     estimated scf accuracy    <       1.54723879 Ry

     iteration # 21     ecut=    60.00 Ry     beta= 0.15
     Davidson diagonalization with overlap

---- Real-time Memory Report at c_bands before calling an iterative solver
             0 MiB given to the printing process from OS
             0 MiB allocation reported by mallinfo(arena+hblkhd)
         50445 MiB available memory on the node where the printing process lives
------------------
     ethr =  1.69E-04,  avg # of iterations =  1.9

     negative rho (up, down):  8.203E-01 0.000E+00

     total cpu time spent up to now is      310.4 secs

     total energy              =   -4440.27536520 Ry
     estimated scf accuracy    <       0.33436560 Ry

     iteration # 22     ecut=    60.00 Ry     beta= 0.15
     Davidson diagonalization with overlap

---- Real-time Memory Report at c_bands before calling an iterative solver
             0 MiB given to the printing process from OS
             0 MiB allocation reported by mallinfo(arena+hblkhd)
         50422 MiB available memory on the node where the printing process lives
------------------
     ethr =  7.78E-05,  avg # of iterations =  9.0

     negative rho (up, down):  8.433E-01 0.000E+00

     total cpu time spent up to now is      328.3 secs

     total energy              =   -4440.24242649 Ry
     estimated scf accuracy    <       1.54729869 Ry

     iteration # 23     ecut=    60.00 Ry     beta= 0.15
     Davidson diagonalization with overlap

---- Real-time Memory Report at c_bands before calling an iterative solver
             0 MiB given to the printing process from OS
             0 MiB allocation reported by mallinfo(arena+hblkhd)
         50339 MiB available memory on the node where the printing process lives
------------------
     ethr =  7.78E-05,  avg # of iterations =  6.7

     negative rho (up, down):  8.408E-01 0.000E+00

     total cpu time spent up to now is      344.8 secs

     total energy              =   -4440.26112009 Ry
     estimated scf accuracy    <       0.39865771 Ry

     iteration # 24     ecut=    60.00 Ry     beta= 0.15
     Davidson diagonalization with overlap

---- Real-time Memory Report at c_bands before calling an iterative solver
             0 MiB given to the printing process from OS
             0 MiB allocation reported by mallinfo(arena+hblkhd)
         50338 MiB available memory on the node where the printing process lives
------------------
     ethr =  7.78E-05,  avg # of iterations =  2.0

     negative rho (up, down):  8.442E-01 0.000E+00

     total cpu time spent up to now is      359.0 secs

     total energy              =   -4440.27004187 Ry
     estimated scf accuracy    <       1.78735489 Ry

     iteration # 25     ecut=    60.00 Ry     beta= 0.15
     Davidson diagonalization with overlap

---- Real-time Memory Report at c_bands before calling an iterative solver
             0 MiB given to the printing process from OS
             0 MiB allocation reported by mallinfo(arena+hblkhd)
         50342 MiB available memory on the node where the printing process lives
------------------
     ethr =  7.78E-05,  avg # of iterations =  2.2

     negative rho (up, down):  8.252E-01 0.000E+00

     total cpu time spent up to now is      373.3 secs

     total energy              =   -4440.29342397 Ry
     estimated scf accuracy    <       0.02613934 Ry

     iteration # 26     ecut=    60.00 Ry     beta= 0.15
     Davidson diagonalization with overlap

---- Real-time Memory Report at c_bands before calling an iterative solver
             0 MiB given to the printing process from OS
             0 MiB allocation reported by mallinfo(arena+hblkhd)
         50360 MiB available memory on the node where the printing process lives
------------------
     ethr =  6.08E-06,  avg # of iterations = 13.2

     negative rho (up, down):  7.953E-01 0.000E+00

     total cpu time spent up to now is      393.1 secs

     total energy              =   -4440.28982907 Ry
     estimated scf accuracy    <       0.07407941 Ry

     iteration # 27     ecut=    60.00 Ry     beta= 0.15
     Davidson diagonalization with overlap

---- Real-time Memory Report at c_bands before calling an iterative solver
             0 MiB given to the printing process from OS
             0 MiB allocation reported by mallinfo(arena+hblkhd)
         50213 MiB available memory on the node where the printing process lives
------------------
     ethr =  6.08E-06,  avg # of iterations =  5.3

     negative rho (up, down):  7.912E-01 0.000E+00

     total cpu time spent up to now is      408.4 secs

     total energy              =   -4440.29024286 Ry
     estimated scf accuracy    <       0.00983756 Ry

     iteration # 28     ecut=    60.00 Ry     beta= 0.15
     Davidson diagonalization with overlap

---- Real-time Memory Report at c_bands before calling an iterative solver
             0 MiB given to the printing process from OS
             0 MiB allocation reported by mallinfo(arena+hblkhd)
         50153 MiB available memory on the node where the printing process lives
------------------
     c_bands:  1 eigenvalues not converged
     ethr =  2.29E-06,  avg # of iterations = 11.1

     negative rho (up, down):  7.918E-01 0.000E+00

     total cpu time spent up to now is      426.2 secs

     total energy              =   -4440.28953376 Ry
     estimated scf accuracy    <       0.00474663 Ry

     iteration # 29     ecut=    60.00 Ry     beta= 0.15
     Davidson diagonalization with overlap

---- Real-time Memory Report at c_bands before calling an iterative solver
             0 MiB given to the printing process from OS
             0 MiB allocation reported by mallinfo(arena+hblkhd)
         50118 MiB available memory on the node where the printing process lives
------------------
     c_bands:  1 eigenvalues not converged
     ethr =  1.10E-06,  avg # of iterations =  6.7

     negative rho (up, down):  7.932E-01 0.000E+00

     total cpu time spent up to now is      442.7 secs

     total energy              =   -4440.28824814 Ry
     estimated scf accuracy    <       0.10151791 Ry

     iteration # 30     ecut=    60.00 Ry     beta= 0.15
     Davidson diagonalization with overlap

---- Real-time Memory Report at c_bands before calling an iterative solver
             0 MiB given to the printing process from OS
             0 MiB allocation reported by mallinfo(arena+hblkhd)
         50118 MiB available memory on the node where the printing process lives
------------------
     ethr =  1.10E-06,  avg # of iterations =  8.6

     negative rho (up, down):  7.945E-01 0.000E+00

     total cpu time spent up to now is      460.0 secs

     total energy              =   -4440.28963481 Ry
     estimated scf accuracy    <       0.00242534 Ry

     iteration # 31     ecut=    60.00 Ry     beta= 0.15
     Davidson diagonalization with overlap

---- Real-time Memory Report at c_bands before calling an iterative solver
             0 MiB given to the printing process from OS
             0 MiB allocation reported by mallinfo(arena+hblkhd)
         50022 MiB available memory on the node where the printing process lives
------------------
     ethr =  5.64E-07,  avg # of iterations =  7.0

     negative rho (up, down):  7.951E-01 0.000E+00

     total cpu time spent up to now is      476.3 secs

     total energy              =   -4440.28965127 Ry
     estimated scf accuracy    <       0.00138485 Ry

     iteration # 32     ecut=    60.00 Ry     beta= 0.15
     Davidson diagonalization with overlap

---- Real-time Memory Report at c_bands before calling an iterative solver
             0 MiB given to the printing process from OS
             0 MiB allocation reported by mallinfo(arena+hblkhd)
         50004 MiB available memory on the node where the printing process lives
------------------
     ethr =  3.22E-07,  avg # of iterations =  2.0

     negative rho (up, down):  7.947E-01 0.000E+00

     total cpu time spent up to now is      490.6 secs

     total energy              =   -4440.28967463 Ry
     estimated scf accuracy    <       0.00015097 Ry

     iteration # 33     ecut=    60.00 Ry     beta= 0.15
     Davidson diagonalization with overlap

---- Real-time Memory Report at c_bands before calling an iterative solver
             0 MiB given to the printing process from OS
             0 MiB allocation reported by mallinfo(arena+hblkhd)
         50045 MiB available memory on the node where the printing process lives
------------------
     ethr =  3.51E-08,  avg # of iterations =  2.0

     negative rho (up, down):  7.938E-01 0.000E+00

     total cpu time spent up to now is      504.9 secs

     total energy              =   -4440.28967415 Ry
     estimated scf accuracy    <       0.00009035 Ry

     iteration # 34     ecut=    60.00 Ry     beta= 0.15
     Davidson diagonalization with overlap

---- Real-time Memory Report at c_bands before calling an iterative solver
             0 MiB given to the printing process from OS
             0 MiB allocation reported by mallinfo(arena+hblkhd)
         50051 MiB available memory on the node where the printing process lives
------------------
     ethr =  2.10E-08,  avg # of iterations =  2.0

     negative rho (up, down):  7.930E-01 0.000E+00

     total cpu time spent up to now is      518.8 secs

     total energy              =   -4440.28967979 Ry
     estimated scf accuracy    <       0.00004381 Ry

     iteration # 35     ecut=    60.00 Ry     beta= 0.15
     Davidson diagonalization with overlap

---- Real-time Memory Report at c_bands before calling an iterative solver
             0 MiB given to the printing process from OS
             0 MiB allocation reported by mallinfo(arena+hblkhd)
         50056 MiB available memory on the node where the printing process lives
------------------
     ethr =  1.02E-08,  avg # of iterations =  2.1

     negative rho (up, down):  7.926E-01 0.000E+00

     total cpu time spent up to now is      533.0 secs

     total energy              =   -4440.28968499 Ry
     estimated scf accuracy    <       0.00001937 Ry

     iteration # 36     ecut=    60.00 Ry     beta= 0.15
     Davidson diagonalization with overlap

---- Real-time Memory Report at c_bands before calling an iterative solver
             0 MiB given to the printing process from OS
             0 MiB allocation reported by mallinfo(arena+hblkhd)
         50061 MiB available memory on the node where the printing process lives
------------------
     ethr =  4.50E-09,  avg # of iterations =  3.2

     negative rho (up, down):  7.925E-01 0.000E+00

     total cpu time spent up to now is      547.5 secs

     total energy              =   -4440.28968651 Ry
     estimated scf accuracy    <       0.00000717 Ry

     iteration # 37     ecut=    60.00 Ry     beta= 0.15
     Davidson diagonalization with overlap

---- Real-time Memory Report at c_bands before calling an iterative solver
             0 MiB given to the printing process from OS
             0 MiB allocation reported by mallinfo(arena+hblkhd)
         50067 MiB available memory on the node where the printing process lives
------------------
     ethr =  1.67E-09,  avg # of iterations =  2.4

     negative rho (up, down):  7.925E-01 0.000E+00

     total cpu time spent up to now is      561.8 secs

     total energy              =   -4440.28968678 Ry
     estimated scf accuracy    <       0.00000428 Ry

     iteration # 38     ecut=    60.00 Ry     beta= 0.15
     Davidson diagonalization with overlap

---- Real-time Memory Report at c_bands before calling an iterative solver
             0 MiB given to the printing process from OS
             0 MiB allocation reported by mallinfo(arena+hblkhd)
         50078 MiB available memory on the node where the printing process lives
------------------
     ethr =  9.96E-10,  avg # of iterations =  2.1

     negative rho (up, down):  7.925E-01 0.000E+00

     total cpu time spent up to now is      575.8 secs

     total energy              =   -4440.28968648 Ry
     estimated scf accuracy    <       0.00000318 Ry

     iteration # 39     ecut=    60.00 Ry     beta= 0.15
     Davidson diagonalization with overlap

---- Real-time Memory Report at c_bands before calling an iterative solver
             0 MiB given to the printing process from OS
             0 MiB allocation reported by mallinfo(arena+hblkhd)
         50080 MiB available memory on the node where the printing process lives
------------------
     ethr =  7.40E-10,  avg # of iterations =  2.8

     negative rho (up, down):  7.925E-01 0.000E+00

     total cpu time spent up to now is      590.3 secs

     total energy              =   -4440.28968665 Ry
     estimated scf accuracy    <       0.00000231 Ry

     iteration # 40     ecut=    60.00 Ry     beta= 0.15
     Davidson diagonalization with overlap

---- Real-time Memory Report at c_bands before calling an iterative solver
             0 MiB given to the printing process from OS
             0 MiB allocation reported by mallinfo(arena+hblkhd)
         50077 MiB available memory on the node where the printing process lives
------------------
     ethr =  5.37E-10,  avg # of iterations =  1.7

     negative rho (up, down):  7.925E-01 0.000E+00

     total cpu time spent up to now is      604.7 secs

     total energy              =   -4440.28968666 Ry
     estimated scf accuracy    <       0.00000175 Ry

     iteration # 41     ecut=    60.00 Ry     beta= 0.15
     Davidson diagonalization with overlap

---- Real-time Memory Report at c_bands before calling an iterative solver
             0 MiB given to the printing process from OS
             0 MiB allocation reported by mallinfo(arena+hblkhd)
         50093 MiB available memory on the node where the printing process lives
------------------
     ethr =  4.07E-10,  avg # of iterations =  2.0

     negative rho (up, down):  7.925E-01 0.000E+00

     total cpu time spent up to now is      619.5 secs

     total energy              =   -4440.28968677 Ry
     estimated scf accuracy    <       0.00000098 Ry

     iteration # 42     ecut=    60.00 Ry     beta= 0.15
     Davidson diagonalization with overlap

---- Real-time Memory Report at c_bands before calling an iterative solver
             0 MiB given to the printing process from OS
             0 MiB allocation reported by mallinfo(arena+hblkhd)
         50094 MiB available memory on the node where the printing process lives
------------------
     ethr =  2.28E-10,  avg # of iterations =  2.0

     negative rho (up, down):  7.925E-01 0.000E+00

     total cpu time spent up to now is      634.6 secs

     total energy              =   -4440.28968671 Ry
     estimated scf accuracy    <       0.00000061 Ry

     iteration # 43     ecut=    60.00 Ry     beta= 0.15
     Davidson diagonalization with overlap

---- Real-time Memory Report at c_bands before calling an iterative solver
             0 MiB given to the printing process from OS
             0 MiB allocation reported by mallinfo(arena+hblkhd)
         50099 MiB available memory on the node where the printing process lives
------------------
     ethr =  1.42E-10,  avg # of iterations =  2.1

     negative rho (up, down):  7.925E-01 0.000E+00

     total cpu time spent up to now is      649.3 secs

     total energy              =   -4440.28968678 Ry
     estimated scf accuracy    <       0.00000023 Ry

     iteration # 44     ecut=    60.00 Ry     beta= 0.15
     Davidson diagonalization with overlap

---- Real-time Memory Report at c_bands before calling an iterative solver
             0 MiB given to the printing process from OS
             0 MiB allocation reported by mallinfo(arena+hblkhd)
         50103 MiB available memory on the node where the printing process lives
------------------
     ethr =  5.38E-11,  avg # of iterations =  2.0

     negative rho (up, down):  7.925E-01 0.000E+00

     total cpu time spent up to now is      663.8 secs

     total energy              =   -4440.28968683 Ry
     estimated scf accuracy    <       0.00000013 Ry

     iteration # 45     ecut=    60.00 Ry     beta= 0.15
     Davidson diagonalization with overlap

---- Real-time Memory Report at c_bands before calling an iterative solver
             0 MiB given to the printing process from OS
             0 MiB allocation reported by mallinfo(arena+hblkhd)
         50102 MiB available memory on the node where the printing process lives
------------------
     ethr =  2.91E-11,  avg # of iterations =  2.4

     negative rho (up, down):  7.925E-01 0.000E+00

     total cpu time spent up to now is      678.6 secs

     total energy              =   -4440.28968683 Ry
     estimated scf accuracy    <       0.00000006 Ry

     iteration # 46     ecut=    60.00 Ry     beta= 0.15
     Davidson diagonalization with overlap

---- Real-time Memory Report at c_bands before calling an iterative solver
             0 MiB given to the printing process from OS
             0 MiB allocation reported by mallinfo(arena+hblkhd)
         50099 MiB available memory on the node where the printing process lives
------------------
     ethr =  1.49E-11,  avg # of iterations =  2.0

     negative rho (up, down):  7.926E-01 0.000E+00

     total cpu time spent up to now is      693.2 secs

     total energy              =   -4440.28968683 Ry
     estimated scf accuracy    <       0.00000004 Ry

     iteration # 47     ecut=    60.00 Ry     beta= 0.15
     Davidson diagonalization with overlap

---- Real-time Memory Report at c_bands before calling an iterative solver
             0 MiB given to the printing process from OS
             0 MiB allocation reported by mallinfo(arena+hblkhd)
         50099 MiB available memory on the node where the printing process lives
------------------
     ethr =  8.72E-12,  avg # of iterations =  2.7

     negative rho (up, down):  7.926E-01 0.000E+00

     total cpu time spent up to now is      708.0 secs

     total energy              =   -4440.28968683 Ry
     estimated scf accuracy    <       0.00000002 Ry

     iteration # 48     ecut=    60.00 Ry     beta= 0.15
     Davidson diagonalization with overlap

---- Real-time Memory Report at c_bands before calling an iterative solver
             0 MiB given to the printing process from OS
             0 MiB allocation reported by mallinfo(arena+hblkhd)
         50106 MiB available memory on the node where the printing process lives
------------------
     ethr =  5.43E-12,  avg # of iterations =  2.1

     negative rho (up, down):  7.926E-01 0.000E+00

     total cpu time spent up to now is      722.7 secs

     total energy              =   -4440.28968682 Ry
     estimated scf accuracy    <       0.00000001 Ry

     iteration # 49     ecut=    60.00 Ry     beta= 0.15
     Davidson diagonalization with overlap

---- Real-time Memory Report at c_bands before calling an iterative solver
             0 MiB given to the printing process from OS
             0 MiB allocation reported by mallinfo(arena+hblkhd)
         50127 MiB available memory on the node where the printing process lives
------------------
     ethr =  2.72E-12,  avg # of iterations =  2.0

     negative rho (up, down):  7.926E-01 0.000E+00

     total cpu time spent up to now is      737.3 secs

     End of self-consistent calculation

          k = 0.0000 0.0000 0.0000 ( 65197 PWs)   bands (ev):

   -92.8506 -92.7986 -92.7046 -92.6575 -92.5982 -92.5569 -92.5402 -92.4137
   -56.2042 -56.1854 -56.0615 -56.0510 -56.0448 -56.0379 -56.0034 -55.9736
   -55.9591 -55.9566 -55.9481 -55.9058 -55.8876 -55.8494 -55.8312 -55.7981
   -55.7932 -55.7452 -55.7419 -55.7402 -55.7335 -55.6846 -55.6702 -55.5834
   -31.4156 -31.3957 -31.2544 -31.1784 -31.1674 -31.1015 -30.9935 -30.8829
   -29.9963 -29.9531 -29.9273 -29.8191 -15.2278 -15.1849 -15.1036 -14.9729
   -14.7793 -14.6558 -14.3648 -14.3437 -14.3161 -14.2694 -14.2231 -14.2130
   -14.2025 -14.1856 -14.1645 -14.1246 -14.0770 -13.9253 -13.7459 -13.7132
   -13.6832 -13.6507 -13.6345 -13.5767 -13.5453 -13.4583 -13.3906 -13.2697
   -13.2483 -13.2380 -13.2137 -13.1959 -13.1869 -13.1411 -13.1387 -13.1198
   -13.0925 -13.0613 -13.0415 -13.0190 -12.9920 -12.9787 -12.9208 -12.9085
   -12.8918 -12.8237 -12.7901 -12.7759 -12.4816 -12.3359 -12.1710 -12.0985
   -12.0097 -11.9707 -11.9356 -11.9245 -11.9018 -11.8841 -11.8205 -11.8033
   -11.7685 -11.7394 -11.6278 -11.5481 -11.5444  -3.0894  -2.8574  -2.6274
    -2.4811  -2.4181  -2.2760  -1.9687  -1.9545  -1.9349  -1.8503  -1.8308
    -1.7622  -1.7458  -1.7052  -1.6578  -1.4796  -1.2540  -1.2252  -1.0785
    -1.0641  -1.0183  -0.9996  -0.9530  -0.9363  -0.8818  -0.8550  -0.7824
    -0.7689  -0.6949  -0.5609  -0.5467  -0.5204  -0.4401  -0.4175  -0.4076
    -0.3405  -0.2758  -0.2326  -0.1763  -0.1515  -0.0851  -0.0040   0.0327
     0.0597   0.0745   0.3264   0.3412   0.5146   0.5777   0.6430   0.6982
     0.7812   0.7938   0.8135   0.8761   0.9028   0.9369   0.9943   1.1253
     1.1845   1.2065   1.2317   1.2405   1.3031   1.3726   1.4809   1.4957
     1.5569   1.5682   1.6133   1.6332   1.6396   1.6931   1.7534   1.7668
     1.8022   1.8421   1.8801   2.0125   2.0949   2.1373   2.1660   2.3067
     2.3244   2.3630   2.3647   2.4733   2.5092   2.5350   2.5542   2.5681
     2.6361   2.6455   2.6614   2.6834   2.7604   2.7918   2.8037   2.8104
     2.8768   2.8813   2.9060   2.9130   2.9232   2.9413   2.9423   2.9582
     2.9621   2.9780   2.9841   2.9994   3.0088   3.0292   3.0357   3.0470
     3.0726   3.1878   3.3056   3.9785   4.2842   4.6372   4.8448   4.9080
     5.7723   5.7913   5.8483   5.9081   6.1667   6.2134   6.4524   6.4631
     6.9641   6.9838   7.0887   7.1882   7.3916   7.5107   7.5415   7.5713
     7.5909   7.7985   7.8941   8.0537   8.1256   8.1837   8.2907   8.3847
     8.7352   8.8416

     occupation numbers 
     1.0000   1.0000   1.0000   1.0000   1.0000   1.0000   1.0000   1.0000
     1.0000   1.0000   1.0000   1.0000   1.0000   1.0000   1.0000   1.0000
     1.0000   1.0000   1.0000   1.0000   1.0000   1.0000   1.0000   1.0000
     1.0000   1.0000   1.0000   1.0000   1.0000   1.0000   1.0000   1.0000
     1.0000   1.0000   1.0000   1.0000   1.0000   1.0000   1.0000   1.0000
     1.0000   1.0000   1.0000   1.0000   1.0000   1.0000   1.0000   1.0000
     1.0000   1.0000   1.0000   1.0000   1.0000   1.0000   1.0000   1.0000
     1.0000   1.0000   1.0000   1.0000   1.0000   1.0000   1.0000   1.0000
     1.0000   1.0000   1.0000   1.0000   1.0000   1.0000   1.0000   1.0000
     1.0000   1.0000   1.0000   1.0000   1.0000   1.0000   1.0000   1.0000
     1.0000   1.0000   1.0000   1.0000   1.0000   1.0000   1.0000   1.0000
     1.0000   1.0000   1.0000   1.0000   1.0000   1.0000   1.0000   1.0000
     1.0000   1.0000   1.0000   1.0000   1.0000   1.0000   1.0000   1.0000
     1.0000   1.0000   1.0000   1.0000   1.0000   1.0000   1.0000   1.0000
     1.0000   1.0000   1.0000   1.0000   1.0000   1.0000   1.0000   1.0000
     1.0000   1.0000   1.0000   1.0000   1.0000   1.0000   1.0000   1.0000
     1.0000   1.0000   1.0000   1.0000   1.0000   1.0000   1.0000   1.0000
     1.0000   1.0000   1.0000   1.0000   1.0000   1.0000   1.0000   1.0000
     1.0000   1.0000   1.0000   1.0000   1.0000   1.0000   1.0000   1.0000
     1.0000   1.0000   1.0000   1.0000   1.0000   0.9999   0.9999   0.9999
     0.9998   0.9998   0.9998   0.9997   0.9996   0.9996   0.9994   0.9988
     0.9985   0.9983   0.9981   0.9980   0.9973   0.9963   0.9941   0.9938
     0.9920   0.9916   0.9899   0.9891   0.9888   0.9863   0.9828   0.9819
     0.9795   0.9763   0.9730   0.9582   0.9461   0.9389   0.9335   0.9021
     0.8975   0.8869   0.8864   0.8523   0.8397   0.8302   0.8228   0.8174
     0.7895   0.7854   0.7785   0.7687   0.7324   0.7168   0.7108   0.7074
     0.6726   0.6702   0.6568   0.6530   0.6474   0.6374   0.6368   0.6279
     0.6257   0.6168   0.6133   0.6045   0.5992   0.5874   0.5837   0.5771
     0.5622   0.4942   0.4249   0.1173   0.0502   0.0151   0.0067   0.0051
     0.0001   0.0001   0.0000   0.0000   0.0000   0.0000   0.0000   0.0000
     0.0000   0.0000   0.0000   0.0000   0.0000   0.0000   0.0000   0.0000
     0.0000   0.0000   0.0000   0.0000   0.0000   0.0000   0.0000   0.0000
     0.0000   0.0000

          k = 0.0000 0.2500 0.0000 ( 65257 PWs)   bands (ev):

   -92.8506 -92.7986 -92.7046 -92.6575 -92.5982 -92.5569 -92.5402 -92.4137
   -56.2042 -56.1854 -56.0615 -56.0510 -56.0448 -56.0379 -56.0034 -55.9736
   -55.9591 -55.9566 -55.9481 -55.9058 -55.8876 -55.8494 -55.8312 -55.7981
   -55.7932 -55.7452 -55.7419 -55.7402 -55.7335 -55.6846 -55.6702 -55.5834
   -31.4154 -31.3956 -31.2546 -31.1780 -31.1676 -31.1019 -30.9932 -30.8832
   -29.9957 -29.9528 -29.9280 -29.8194 -15.1912 -15.1586 -15.0785 -14.9436
   -14.8211 -14.6463 -14.5108 -14.3306 -14.2947 -14.2734 -14.2452 -14.1880
   -14.1815 -14.1669 -14.1472 -14.0967 -13.9956 -13.9561 -13.7907 -13.7722
   -13.7234 -13.6872 -13.6415 -13.5972 -13.5547 -13.4841 -13.4445 -13.3776
   -13.3071 -13.2852 -13.2468 -13.2300 -13.1688 -13.1270 -13.1014 -13.0737
   -13.0491 -13.0385 -13.0058 -12.9588 -12.9436 -12.9384 -12.9144 -12.8765
   -12.8543 -12.8167 -12.7061 -12.6322 -12.5429 -12.3871 -12.2277 -12.1644
   -11.9752 -11.9714 -11.9324 -11.9044 -11.8763 -11.8597 -11.8123 -11.8011
   -11.7784 -11.7442 -11.6422 -11.5897 -11.5791  -2.9541  -2.7331  -2.5950
    -2.4134  -2.3698  -2.2064  -1.9860  -1.9028  -1.8898  -1.8313  -1.7290
    -1.7128  -1.6767  -1.6515  -1.6075  -1.4107  -1.2818  -1.2704  -1.1926
    -1.1836  -1.0794  -1.0492  -0.9913  -0.9658  -0.9259  -0.8610  -0.8339
    -0.8029  -0.7706  -0.7537  -0.7216  -0.6461  -0.5964  -0.5260  -0.4157
    -0.3942  -0.3532  -0.2390  -0.2042  -0.1337  -0.0918  -0.0209  -0.0011
     0.0159   0.0720   0.3741   0.4611   0.4905   0.5831   0.6299   0.6561
     0.7655   0.7846   0.8790   0.9045   0.9285   1.0445   1.1396   1.1600
     1.1833   1.2061   1.2286   1.2872   1.3157   1.3421   1.3901   1.4277
     1.4569   1.5402   1.5742   1.6124   1.6651   1.7160   1.7616   1.7913
     1.8187   1.8310   1.9249   2.0448   2.1199   2.1475   2.2121   2.2599
     2.2992   2.3110   2.3697   2.4067   2.4891   2.5296   2.5471   2.6344
     2.6572   2.6624   2.7205   2.7454   2.7724   2.7959   2.8131   2.8215
     2.8266   2.8390   2.8658   2.8714   2.8880   2.8938   2.9030   2.9212
     2.9362   2.9423   2.9606   2.9713   2.9768   3.0101   3.0272   3.0926
     3.4553   3.5169   3.7425   4.1740   4.2802   4.5718   4.9266   5.0092
     5.5371   5.6649   5.8403   5.9244   5.9738   6.0189   6.0896   6.5680
     7.0437   7.0545   7.2117   7.2648   7.3734   7.4293   7.4662   7.5704
     7.7103   7.9187   8.0928   8.2443   8.2749   8.3009   8.3243   8.3620
     8.4423   8.8355

     occupation numbers 
     1.0000   1.0000   1.0000   1.0000   1.0000   1.0000   1.0000   1.0000
     1.0000   1.0000   1.0000   1.0000   1.0000   1.0000   1.0000   1.0000
     1.0000   1.0000   1.0000   1.0000   1.0000   1.0000   1.0000   1.0000
     1.0000   1.0000   1.0000   1.0000   1.0000   1.0000   1.0000   1.0000
     1.0000   1.0000   1.0000   1.0000   1.0000   1.0000   1.0000   1.0000
     1.0000   1.0000   1.0000   1.0000   1.0000   1.0000   1.0000   1.0000
     1.0000   1.0000   1.0000   1.0000   1.0000   1.0000   1.0000   1.0000
     1.0000   1.0000   1.0000   1.0000   1.0000   1.0000   1.0000   1.0000
     1.0000   1.0000   1.0000   1.0000   1.0000   1.0000   1.0000   1.0000
     1.0000   1.0000   1.0000   1.0000   1.0000   1.0000   1.0000   1.0000
     1.0000   1.0000   1.0000   1.0000   1.0000   1.0000   1.0000   1.0000
     1.0000   1.0000   1.0000   1.0000   1.0000   1.0000   1.0000   1.0000
     1.0000   1.0000   1.0000   1.0000   1.0000   1.0000   1.0000   1.0000
     1.0000   1.0000   1.0000   1.0000   1.0000   1.0000   1.0000   1.0000
     1.0000   1.0000   1.0000   1.0000   1.0000   1.0000   1.0000   1.0000
     1.0000   1.0000   1.0000   1.0000   1.0000   1.0000   1.0000   1.0000
     1.0000   1.0000   1.0000   1.0000   1.0000   1.0000   1.0000   1.0000
     1.0000   1.0000   1.0000   1.0000   1.0000   1.0000   1.0000   1.0000
     1.0000   1.0000   1.0000   1.0000   1.0000   1.0000   1.0000   1.0000
     1.0000   1.0000   1.0000   1.0000   1.0000   0.9999   0.9999   0.9999
     0.9998   0.9998   0.9997   0.9996   0.9996   0.9992   0.9988   0.9986
     0.9985   0.9983   0.9981   0.9975   0.9972   0.9968   0.9960   0.9953
     0.9947   0.9925   0.9914   0.9900   0.9877   0.9850   0.9823   0.9803
     0.9782   0.9773   0.9686   0.9538   0.9419   0.9370   0.9242   0.9136
     0.9040   0.9010   0.8850   0.8739   0.8468   0.8322   0.8256   0.7902
     0.7803   0.7780   0.7515   0.7397   0.7265   0.7148   0.7060   0.7017
     0.6991   0.6926   0.6785   0.6756   0.6666   0.6635   0.6585   0.6485
     0.6402   0.6368   0.6266   0.6206   0.6174   0.5984   0.5886   0.5504
     0.3403   0.3074   0.2009   0.0696   0.0509   0.0192   0.0047   0.0033
     0.0002   0.0001   0.0000   0.0000   0.0000   0.0000   0.0000   0.0000
     0.0000   0.0000   0.0000   0.0000   0.0000   0.0000   0.0000   0.0000
     0.0000   0.0000   0.0000   0.0000   0.0000   0.0000   0.0000   0.0000
     0.0000   0.0000

          k = 0.0000-0.5000 0.0000 ( 65180 PWs)   bands (ev):

   -92.8506 -92.7986 -92.7046 -92.6575 -92.5982 -92.5569 -92.5402 -92.4137
   -56.2042 -56.1854 -56.0615 -56.0510 -56.0448 -56.0379 -56.0034 -55.9736
   -55.9591 -55.9566 -55.9481 -55.9058 -55.8876 -55.8494 -55.8312 -55.7981
   -55.7932 -55.7452 -55.7419 -55.7402 -55.7335 -55.6846 -55.6702 -55.5834
   -31.4152 -31.3955 -31.2548 -31.1776 -31.1677 -31.1023 -30.9929 -30.8835
   -29.9951 -29.9524 -29.9286 -29.8197 -15.1564 -15.1077 -15.0544 -14.9262
   -14.8423 -14.7043 -14.5504 -14.4259 -14.3028 -14.2296 -14.1887 -14.1831
   -14.1308 -14.1154 -14.0676 -14.0449 -14.0214 -13.9847 -13.9466 -13.9091
   -13.7288 -13.6701 -13.6472 -13.6005 -13.5527 -13.5017 -13.4477 -13.4200
   -13.3962 -13.3548 -13.2476 -13.2312 -13.1523 -13.1135 -13.1036 -13.0825
   -13.0666 -13.0212 -12.9561 -12.9373 -12.9142 -12.8625 -12.8448 -12.8363
   -12.8228 -12.7911 -12.6538 -12.5665 -12.4621 -12.4196 -12.3351 -12.2915
   -11.9719 -11.9294 -11.9268 -11.8993 -11.8623 -11.8278 -11.8166 -11.7741
   -11.7701 -11.7258 -11.6639 -11.6504 -11.6363  -2.7397  -2.6796  -2.5301
    -2.4580  -2.1759  -2.0914  -1.9658  -1.8283  -1.7904  -1.7715  -1.6908
    -1.6610  -1.5796  -1.5439  -1.4665  -1.4264  -1.3884  -1.3610  -1.3017
    -1.2655  -1.2187  -1.1826  -1.1500  -1.1157  -1.0061  -0.9614  -0.9253
    -0.9243  -0.8384  -0.8046  -0.7843  -0.7330  -0.6474  -0.5762  -0.4905
    -0.4630  -0.3576  -0.3121  -0.1758  -0.1303  -0.1129  -0.0403   0.0788
     0.1178   0.2448   0.3141   0.3206   0.4483   0.5006   0.6238   0.7267
     0.8379   0.8679   0.9067   0.9127   0.9584   0.9677   1.0023   1.0206
     1.0292   1.1398   1.2024   1.2348   1.2598   1.5208   1.5504   1.5711
     1.6734   1.7008   1.7223   1.7367   1.7645   1.7779   1.7978   1.8230
     1.8562   1.8887   1.9214   1.9227   1.9527   2.0065   2.0895   2.1193
     2.3065   2.4548   2.4651   2.4816   2.5203   2.5256   2.5333   2.5817
     2.5954   2.6252   2.6350   2.6536   2.6602   2.6975   2.7590   2.7678
     2.8315   2.8493   2.8615   2.8660   2.8827   2.8940   2.8958   2.9000
     2.9033   2.9239   2.9322   2.9408   2.9951   3.0044   3.0167   3.0701
     3.9946   4.0300   4.0324   4.1217   4.6190   4.7596   4.9369   5.0285
     5.3169   5.3823   5.5183   5.6077   5.8852   5.9098   6.2654   6.6358
     6.8157   6.9099   7.1662   7.3293   7.5192   7.5869   7.6839   7.6983
     7.8032   7.9319   8.1176   8.1818   8.2295   8.3067   8.3752   8.5485
     8.7158   8.7789

     occupation numbers 
     1.0000   1.0000   1.0000   1.0000   1.0000   1.0000   1.0000   1.0000
     1.0000   1.0000   1.0000   1.0000   1.0000   1.0000   1.0000   1.0000
     1.0000   1.0000   1.0000   1.0000   1.0000   1.0000   1.0000   1.0000
     1.0000   1.0000   1.0000   1.0000   1.0000   1.0000   1.0000   1.0000
     1.0000   1.0000   1.0000   1.0000   1.0000   1.0000   1.0000   1.0000
     1.0000   1.0000   1.0000   1.0000   1.0000   1.0000   1.0000   1.0000
     1.0000   1.0000   1.0000   1.0000   1.0000   1.0000   1.0000   1.0000
     1.0000   1.0000   1.0000   1.0000   1.0000   1.0000   1.0000   1.0000
     1.0000   1.0000   1.0000   1.0000   1.0000   1.0000   1.0000   1.0000
     1.0000   1.0000   1.0000   1.0000   1.0000   1.0000   1.0000   1.0000
     1.0000   1.0000   1.0000   1.0000   1.0000   1.0000   1.0000   1.0000
     1.0000   1.0000   1.0000   1.0000   1.0000   1.0000   1.0000   1.0000
     1.0000   1.0000   1.0000   1.0000   1.0000   1.0000   1.0000   1.0000
     1.0000   1.0000   1.0000   1.0000   1.0000   1.0000   1.0000   1.0000
     1.0000   1.0000   1.0000   1.0000   1.0000   1.0000   1.0000   1.0000
     1.0000   1.0000   1.0000   1.0000   1.0000   1.0000   1.0000   1.0000
     1.0000   1.0000   1.0000   1.0000   1.0000   1.0000   1.0000   1.0000
     1.0000   1.0000   1.0000   1.0000   1.0000   1.0000   1.0000   1.0000
     1.0000   1.0000   1.0000   1.0000   1.0000   1.0000   1.0000   1.0000
     1.0000   1.0000   1.0000   1.0000   1.0000   1.0000   0.9999   0.9999
     0.9997   0.9997   0.9996   0.9996   0.9995   0.9995   0.9994   0.9993
     0.9993   0.9988   0.9983   0.9980   0.9978   0.9931   0.9922   0.9915
     0.9873   0.9859   0.9847   0.9838   0.9821   0.9812   0.9798   0.9779
     0.9752   0.9722   0.9690   0.9688   0.9656   0.9590   0.9470   0.9420
     0.9022   0.8585   0.8551   0.8495   0.8356   0.8337   0.8308   0.8120
     0.8065   0.7941   0.7899   0.7819   0.7790   0.7622   0.7331   0.7287
     0.6966   0.6873   0.6808   0.6784   0.6695   0.6634   0.6624   0.6601
     0.6583   0.6470   0.6424   0.6377   0.6070   0.6017   0.5946   0.5636
     0.1127   0.1029   0.1023   0.0806   0.0162   0.0094   0.0045   0.0030
     0.0007   0.0005   0.0003   0.0002   0.0000   0.0000   0.0000   0.0000
     0.0000   0.0000   0.0000   0.0000   0.0000   0.0000   0.0000   0.0000
     0.0000   0.0000   0.0000   0.0000   0.0000   0.0000   0.0000   0.0000
     0.0000   0.0000

          k = 0.2500 0.2500 0.0000 ( 65198 PWs)   bands (ev):

   -92.8506 -92.7986 -92.7046 -92.6575 -92.5982 -92.5569 -92.5402 -92.4137
   -56.2042 -56.1854 -56.0615 -56.0510 -56.0448 -56.0379 -56.0034 -55.9736
   -55.9591 -55.9566 -55.9481 -55.9058 -55.8876 -55.8494 -55.8312 -55.7981
   -55.7932 -55.7452 -55.7419 -55.7402 -55.7335 -55.6846 -55.6702 -55.5834
   -31.4137 -31.3973 -31.2542 -31.1778 -31.1679 -31.1018 -30.9934 -30.8834
   -29.9947 -29.9537 -29.9276 -29.8198 -15.1626 -15.1237 -15.0505 -14.9333
   -14.8133 -14.6878 -14.6164 -14.4087 -14.2536 -14.2392 -14.2039 -14.1749
   -14.1535 -14.1254 -14.0930 -14.0595 -13.9862 -13.9695 -13.8071 -13.7933
   -13.7654 -13.7437 -13.6903 -13.6541 -13.5899 -13.5674 -13.4334 -13.3897
   -13.3662 -13.2802 -13.2398 -13.1891 -13.1574 -13.1348 -13.1164 -13.0850
   -13.0598 -13.0459 -12.9838 -12.9352 -12.9144 -12.8838 -12.8806 -12.8529
   -12.8299 -12.8164 -12.6499 -12.5914 -12.5297 -12.4162 -12.2581 -12.2130
   -11.9716 -11.9474 -11.9160 -11.9049 -11.8977 -11.8354 -11.8005 -11.7940
   -11.7586 -11.7505 -11.6588 -11.6179 -11.6006  -2.8157  -2.6073  -2.4887
    -2.3951  -2.2744  -2.2096  -2.0107  -1.8677  -1.8482  -1.8182  -1.7239
    -1.6870  -1.5951  -1.5675  -1.5171  -1.3864  -1.3382  -1.2648  -1.2206
    -1.1758  -1.1526  -1.1284  -1.0857  -1.0708  -0.9796  -0.9298  -0.8635
    -0.8139  -0.7844  -0.7354  -0.7202  -0.6573  -0.6084  -0.5490  -0.5154
    -0.4286  -0.3781  -0.3480  -0.3106  -0.2540  -0.1815  -0.1434  -0.1128
    -0.0368   0.0103   0.2626   0.4104   0.4450   0.5046   0.5454   0.6210
     0.6675   0.7230   0.7580   1.0302   1.0937   1.1676   1.1918   1.2437
     1.2727   1.3076   1.3443   1.3621   1.3890   1.4345   1.4435   1.4577
     1.5054   1.5476   1.5822   1.6377   1.6820   1.6868   1.7273   1.7570
     1.8177   1.8457   1.9655   2.0288   2.0624   2.0876   2.1606   2.2242
     2.2490   2.2843   2.3098   2.3226   2.4342   2.4711   2.5589   2.6355
     2.6485   2.6849   2.7305   2.7466   2.7515   2.7677   2.7824   2.7962
     2.8079   2.8151   2.8272   2.8401   2.8534   2.8722   2.8797   2.8913
     2.9118   2.9234   2.9305   2.9648   3.2633   3.3581   3.4022   3.4752
     3.5181   3.7269   3.8082   4.1708   4.3759   4.5844   4.8445   5.1476
     5.5285   5.5867   5.6302   5.6906   5.7535   6.0966   6.1359   6.1794
     6.8564   7.0389   7.1718   7.3540   7.4785   7.5082   7.6178   7.7848
     7.8309   7.9413   8.1814   8.2294   8.3503   8.4042   8.4469   8.4895
     8.5243   8.5650

     occupation numbers 
     1.0000   1.0000   1.0000   1.0000   1.0000   1.0000   1.0000   1.0000
     1.0000   1.0000   1.0000   1.0000   1.0000   1.0000   1.0000   1.0000
     1.0000   1.0000   1.0000   1.0000   1.0000   1.0000   1.0000   1.0000
     1.0000   1.0000   1.0000   1.0000   1.0000   1.0000   1.0000   1.0000
     1.0000   1.0000   1.0000   1.0000   1.0000   1.0000   1.0000   1.0000
     1.0000   1.0000   1.0000   1.0000   1.0000   1.0000   1.0000   1.0000
     1.0000   1.0000   1.0000   1.0000   1.0000   1.0000   1.0000   1.0000
     1.0000   1.0000   1.0000   1.0000   1.0000   1.0000   1.0000   1.0000
     1.0000   1.0000   1.0000   1.0000   1.0000   1.0000   1.0000   1.0000
     1.0000   1.0000   1.0000   1.0000   1.0000   1.0000   1.0000   1.0000
     1.0000   1.0000   1.0000   1.0000   1.0000   1.0000   1.0000   1.0000
     1.0000   1.0000   1.0000   1.0000   1.0000   1.0000   1.0000   1.0000
     1.0000   1.0000   1.0000   1.0000   1.0000   1.0000   1.0000   1.0000
     1.0000   1.0000   1.0000   1.0000   1.0000   1.0000   1.0000   1.0000
     1.0000   1.0000   1.0000   1.0000   1.0000   1.0000   1.0000   1.0000
     1.0000   1.0000   1.0000   1.0000   1.0000   1.0000   1.0000   1.0000
     1.0000   1.0000   1.0000   1.0000   1.0000   1.0000   1.0000   1.0000
     1.0000   1.0000   1.0000   1.0000   1.0000   1.0000   1.0000   1.0000
     1.0000   1.0000   1.0000   1.0000   1.0000   1.0000   1.0000   1.0000
     1.0000   1.0000   1.0000   1.0000   1.0000   1.0000   1.0000   0.9999
     0.9999   0.9999   0.9998   0.9993   0.9990   0.9986   0.9984   0.9980
     0.9977   0.9973   0.9968   0.9965   0.9961   0.9952   0.9950   0.9947
     0.9935   0.9923   0.9911   0.9889   0.9868   0.9866   0.9844   0.9826
     0.9783   0.9761   0.9641   0.9560   0.9512   0.9473   0.9346   0.9216
     0.9161   0.9077   0.9013   0.8980   0.8653   0.8531   0.8210   0.7897
     0.7841   0.7680   0.7468   0.7391   0.7367   0.7288   0.7215   0.7146
     0.7087   0.7050   0.6988   0.6921   0.6851   0.6751   0.6711   0.6648
     0.6537   0.6473   0.6433   0.6242   0.4496   0.3946   0.3696   0.3295
     0.3068   0.2075   0.1747   0.0702   0.0376   0.0184   0.0067   0.0017
     0.0002   0.0002   0.0001   0.0001   0.0001   0.0000   0.0000   0.0000
     0.0000   0.0000   0.0000   0.0000   0.0000   0.0000   0.0000   0.0000
     0.0000   0.0000   0.0000   0.0000   0.0000   0.0000   0.0000   0.0000
     0.0000   0.0000

          k = 0.2500-0.5000 0.0000 ( 65138 PWs)   bands (ev):

   -92.8506 -92.7986 -92.7046 -92.6575 -92.5982 -92.5569 -92.5402 -92.4137
   -56.2042 -56.1854 -56.0615 -56.0510 -56.0448 -56.0379 -56.0034 -55.9736
   -55.9591 -55.9566 -55.9481 -55.9058 -55.8876 -55.8494 -55.8312 -55.7981
   -55.7932 -55.7452 -55.7419 -55.7402 -55.7335 -55.6846 -55.6702 -55.5834
   -31.4135 -31.3971 -31.2544 -31.1774 -31.1681 -31.1022 -30.9931 -30.8837
   -29.9941 -29.9534 -29.9282 -29.8202 -15.1259 -15.0809 -15.0114 -14.8963
   -14.8648 -14.7450 -14.6536 -14.5243 -14.2183 -14.1645 -14.1393 -14.1163
   -14.1007 -14.0879 -14.0522 -14.0335 -14.0011 -13.9620 -13.9370 -13.8997
   -13.8105 -13.7608 -13.7068 -13.6813 -13.6127 -13.6000 -13.4860 -13.4442
   -13.3453 -13.2802 -13.2588 -13.1737 -13.1294 -13.1168 -13.1123 -13.0841
   -13.0663 -13.0504 -12.9624 -12.9332 -12.9167 -12.8819 -12.8524 -12.8291
   -12.7942 -12.7629 -12.6604 -12.5434 -12.4596 -12.3923 -12.3253 -12.2953
   -11.9718 -11.9231 -11.9111 -11.9002 -11.8730 -11.8415 -11.8130 -11.7716
   -11.7444 -11.7222 -11.6770 -11.6515 -11.6404  -2.5978  -2.5312  -2.4039
    -2.3267  -2.1963  -2.1110  -1.9901  -1.8394  -1.7856  -1.7636  -1.6998
    -1.6869  -1.5903  -1.5232  -1.4386  -1.3880  -1.3787  -1.3158  -1.2724
    -1.2387  -1.1912  -1.1540  -1.1195  -1.0797  -1.0680  -1.0227  -0.9931
    -0.9512  -0.9203  -0.8527  -0.7503  -0.7093  -0.6321  -0.5670  -0.5178
    -0.4755  -0.4549  -0.4023  -0.2401  -0.2295  -0.1191  -0.0889  -0.0763
    -0.0306  -0.0050   0.0379   0.0598   0.1279   0.4034   0.4973   0.5890
     0.6402   0.8895   0.9168   1.0024   1.0277   1.1909   1.2270   1.2678
     1.2883   1.3039   1.3246   1.3879   1.4363   1.4702   1.5563   1.6402
     1.6810   1.7032   1.7135   1.7475   1.7624   1.7647   1.8126   1.8236
     1.8410   1.8870   1.8949   1.9131   1.9500   2.0064   2.0427   2.1248
     2.2657   2.4072   2.4245   2.4430   2.4717   2.4946   2.5217   2.5425
     2.5534   2.5770   2.6354   2.6417   2.6529   2.7108   2.7330   2.7476
     2.7617   2.7703   2.7854   2.8003   2.8185   2.8262   2.8587   2.8713
     2.8843   2.8959   2.9076   2.9165   3.4469   3.4639   3.5949   3.6448
     4.0045   4.0381   4.0657   4.1750   4.6353   4.7811   4.9580   4.9933
     5.1664   5.3297   5.5337   5.5501   5.6580   5.6929   6.3620   6.3670
     6.4634   6.7592   7.1639   7.6111   7.6764   7.6972   7.7387   7.8101
     7.8382   7.9505   8.1192   8.3496   8.4250   8.4502   8.5716   8.5824
     8.6160   8.6610

     occupation numbers 
     1.0000   1.0000   1.0000   1.0000   1.0000   1.0000   1.0000   1.0000
     1.0000   1.0000   1.0000   1.0000   1.0000   1.0000   1.0000   1.0000
     1.0000   1.0000   1.0000   1.0000   1.0000   1.0000   1.0000   1.0000
     1.0000   1.0000   1.0000   1.0000   1.0000   1.0000   1.0000   1.0000
     1.0000   1.0000   1.0000   1.0000   1.0000   1.0000   1.0000   1.0000
     1.0000   1.0000   1.0000   1.0000   1.0000   1.0000   1.0000   1.0000
     1.0000   1.0000   1.0000   1.0000   1.0000   1.0000   1.0000   1.0000
     1.0000   1.0000   1.0000   1.0000   1.0000   1.0000   1.0000   1.0000
     1.0000   1.0000   1.0000   1.0000   1.0000   1.0000   1.0000   1.0000
     1.0000   1.0000   1.0000   1.0000   1.0000   1.0000   1.0000   1.0000
     1.0000   1.0000   1.0000   1.0000   1.0000   1.0000   1.0000   1.0000
     1.0000   1.0000   1.0000   1.0000   1.0000   1.0000   1.0000   1.0000
     1.0000   1.0000   1.0000   1.0000   1.0000   1.0000   1.0000   1.0000
     1.0000   1.0000   1.0000   1.0000   1.0000   1.0000   1.0000   1.0000
     1.0000   1.0000   1.0000   1.0000   1.0000   1.0000   1.0000   1.0000
     1.0000   1.0000   1.0000   1.0000   1.0000   1.0000   1.0000   1.0000
     1.0000   1.0000   1.0000   1.0000   1.0000   1.0000   1.0000   1.0000
     1.0000   1.0000   1.0000   1.0000   1.0000   1.0000   1.0000   1.0000
     1.0000   1.0000   1.0000   1.0000   1.0000   1.0000   1.0000   1.0000
     1.0000   1.0000   1.0000   1.0000   1.0000   1.0000   1.0000   0.9999
     0.9999   0.9997   0.9996   0.9994   0.9993   0.9984   0.9981   0.9977
     0.9975   0.9973   0.9970   0.9961   0.9951   0.9944   0.9920   0.9888
     0.9869   0.9857   0.9852   0.9832   0.9822   0.9821   0.9787   0.9778
     0.9764   0.9724   0.9716   0.9698   0.9659   0.9590   0.9541   0.9411
     0.9122   0.8738   0.8684   0.8625   0.8529   0.8449   0.8351   0.8273
     0.8232   0.8139   0.7898   0.7871   0.7822   0.7561   0.7456   0.7386
     0.7317   0.7275   0.7200   0.7125   0.7032   0.6993   0.6823   0.6756
     0.6686   0.6623   0.6560   0.6511   0.3448   0.3356   0.2679   0.2441
     0.1098   0.1008   0.0937   0.0694   0.0152   0.0086   0.0041   0.0035
     0.0016   0.0007   0.0002   0.0002   0.0001   0.0001   0.0000   0.0000
     0.0000   0.0000   0.0000   0.0000   0.0000   0.0000   0.0000   0.0000
     0.0000   0.0000   0.0000   0.0000   0.0000   0.0000   0.0000   0.0000
     0.0000   0.0000

          k =-0.5000-0.5000 0.0000 ( 65132 PWs)   bands (ev):

   -92.8506 -92.7986 -92.7046 -92.6575 -92.5982 -92.5569 -92.5402 -92.4137
   -56.2042 -56.1854 -56.0615 -56.0510 -56.0448 -56.0379 -56.0034 -55.9736
   -55.9591 -55.9566 -55.9481 -55.9058 -55.8876 -55.8494 -55.8312 -55.7981
   -55.7932 -55.7452 -55.7419 -55.7402 -55.7335 -55.6846 -55.6702 -55.5834
   -31.4115 -31.3992 -31.2540 -31.1773 -31.1685 -31.1021 -30.9933 -30.8838
   -29.9931 -29.9545 -29.9278 -29.8206 -15.0795 -15.0539 -14.9361 -14.9236
   -14.8276 -14.7925 -14.7568 -14.6248 -14.1304 -14.1169 -14.0841 -14.0646
   -14.0474 -14.0320 -14.0061 -13.9932 -13.9788 -13.9701 -13.9542 -13.8774
   -13.8688 -13.8379 -13.8038 -13.7957 -13.6977 -13.6674 -13.5261 -13.4830
   -13.2957 -13.2566 -13.1886 -13.1644 -13.1301 -13.1232 -13.1139 -13.0967
   -13.0885 -13.0410 -12.9515 -12.9314 -12.9226 -12.9008 -12.8673 -12.8432
   -12.7441 -12.7360 -12.6767 -12.5224 -12.4559 -12.3616 -12.3173 -12.3012
   -11.9718 -11.9197 -11.9073 -11.8894 -11.8727 -11.8376 -11.8200 -11.7852
   -11.7247 -11.7046 -11.6994 -11.6492 -11.6462  -2.3733  -2.2981  -2.2880
    -2.2130  -2.1770  -2.0992  -2.0314  -1.9048  -1.7900  -1.7602  -1.7201
    -1.6632  -1.5913  -1.5768  -1.5062  -1.4623  -1.3456  -1.3161  -1.2680
    -1.2404  -1.1762  -1.1292  -1.1110  -1.0981  -1.0442  -1.0006  -0.9841
    -0.8722  -0.8146  -0.7685  -0.7180  -0.6883  -0.6772  -0.6432  -0.5996
    -0.5646  -0.5556  -0.4692  -0.4040  -0.3577  -0.3322  -0.2580  -0.2009
    -0.1835  -0.1290  -0.0960  -0.0906  -0.0628   0.3774   0.4146   0.5332
     0.5657   0.9227   0.9358   0.9670   1.0067   1.2781   1.2981   1.3049
     1.3438   1.4694   1.5646   1.5919   1.6275   1.6492   1.6768   1.6828
     1.7133   1.7241   1.7400   1.7524   1.8029   1.8045   1.8348   1.8546
     1.8709   1.8862   1.9227   1.9470   1.9648   1.9931   2.0267   2.0851
     2.1508   2.4195   2.4510   2.4703   2.4891   2.4996   2.5274   2.5334
     2.5535   2.5624   2.5788   2.5956   2.6113   2.6359   2.6403   2.6458
     2.6821   2.6895   2.7094   2.7269   2.7425   2.7565   2.7605   2.7863
     2.8679   2.8721   2.9046   2.9144   3.8886   3.9203   3.9236   3.9335
     4.1746   4.2564   4.2699   4.5107   4.6329   4.7158   4.8482   4.9481
     4.9764   5.0593   5.1952   5.2773   5.8210   5.8724   5.9140   6.0274
     6.5844   6.7897   7.0013   7.3191   7.8668   7.8770   7.9556   8.0913
     8.1278   8.1581   8.1929   8.2735   8.3066   8.4845   8.5249   8.5546
     8.5686   8.6794

     occupation numbers 
     1.0000   1.0000   1.0000   1.0000   1.0000   1.0000   1.0000   1.0000
     1.0000   1.0000   1.0000   1.0000   1.0000   1.0000   1.0000   1.0000
     1.0000   1.0000   1.0000   1.0000   1.0000   1.0000   1.0000   1.0000
     1.0000   1.0000   1.0000   1.0000   1.0000   1.0000   1.0000   1.0000
     1.0000   1.0000   1.0000   1.0000   1.0000   1.0000   1.0000   1.0000
     1.0000   1.0000   1.0000   1.0000   1.0000   1.0000   1.0000   1.0000
     1.0000   1.0000   1.0000   1.0000   1.0000   1.0000   1.0000   1.0000
     1.0000   1.0000   1.0000   1.0000   1.0000   1.0000   1.0000   1.0000
     1.0000   1.0000   1.0000   1.0000   1.0000   1.0000   1.0000   1.0000
     1.0000   1.0000   1.0000   1.0000   1.0000   1.0000   1.0000   1.0000
     1.0000   1.0000   1.0000   1.0000   1.0000   1.0000   1.0000   1.0000
     1.0000   1.0000   1.0000   1.0000   1.0000   1.0000   1.0000   1.0000
     1.0000   1.0000   1.0000   1.0000   1.0000   1.0000   1.0000   1.0000
     1.0000   1.0000   1.0000   1.0000   1.0000   1.0000   1.0000   1.0000
     1.0000   1.0000   1.0000   1.0000   1.0000   1.0000   1.0000   1.0000
     1.0000   1.0000   1.0000   1.0000   1.0000   1.0000   1.0000   1.0000
     1.0000   1.0000   1.0000   1.0000   1.0000   1.0000   1.0000   1.0000
     1.0000   1.0000   1.0000   1.0000   1.0000   1.0000   1.0000   1.0000
     1.0000   1.0000   1.0000   1.0000   1.0000   1.0000   1.0000   1.0000
     1.0000   1.0000   1.0000   1.0000   1.0000   1.0000   1.0000   1.0000
     0.9999   0.9996   0.9996   0.9995   0.9994   0.9976   0.9974   0.9973
     0.9968   0.9944   0.9917   0.9907   0.9893   0.9884   0.9871   0.9868
     0.9852   0.9846   0.9836   0.9829   0.9794   0.9793   0.9770   0.9753
     0.9739   0.9724   0.9688   0.9662   0.9642   0.9607   0.9563   0.9477
     0.9364   0.8700   0.8598   0.8533   0.8468   0.8431   0.8330   0.8308
     0.8231   0.8197   0.8132   0.8064   0.8000   0.7896   0.7877   0.7853
     0.7692   0.7659   0.7567   0.7485   0.7411   0.7343   0.7323   0.7196
     0.6774   0.6752   0.6576   0.6522   0.1457   0.1352   0.1341   0.1310
     0.0694   0.0546   0.0525   0.0239   0.0154   0.0112   0.0066   0.0043
     0.0038   0.0026   0.0014   0.0009   0.0000   0.0000   0.0000   0.0000
     0.0000   0.0000   0.0000   0.0000   0.0000   0.0000   0.0000   0.0000
     0.0000   0.0000   0.0000   0.0000   0.0000   0.0000   0.0000   0.0000
     0.0000   0.0000

          k = 0.2500 0.0000 0.0000 ( 65257 PWs)   bands (ev):

   -92.8506 -92.7986 -92.7046 -92.6575 -92.5982 -92.5569 -92.5402 -92.4137
   -56.2042 -56.1854 -56.0615 -56.0510 -56.0448 -56.0379 -56.0034 -55.9736
   -55.9591 -55.9566 -55.9481 -55.9058 -55.8876 -55.8494 -55.8312 -55.7981
   -55.7932 -55.7452 -55.7419 -55.7402 -55.7335 -55.6846 -55.6702 -55.5834
   -31.4139 -31.3974 -31.2540 -31.1782 -31.1678 -31.1014 -30.9937 -30.8831
   -29.9954 -29.9541 -29.9269 -29.8195 -15.1949 -15.1542 -15.0840 -14.9365
   -14.8296 -14.6347 -14.5016 -14.3208 -14.3045 -14.2736 -14.2421 -14.2175
[...]
     0.6338   0.6199   0.6186   0.6146   0.6095   0.6050   0.5987   0.5257
     0.3446   0.3084   0.2043   0.0750   0.0450   0.0206   0.0049   0.0032
     0.0002   0.0001   0.0000   0.0000   0.0000   0.0000   0.0000   0.0000
     0.0000   0.0000   0.0000   0.0000   0.0000   0.0000   0.0000   0.0000
     0.0000   0.0000   0.0000   0.0000   0.0000   0.0000   0.0000   0.0000
     0.0000   0.0000

          k =-0.5000 0.0000 0.0000 ( 65180 PWs)   bands (ev):

   -92.8506 -92.7986 -92.7046 -92.6575 -92.5982 -92.5569 -92.5402 -92.4137
   -56.2042 -56.1854 -56.0615 -56.0510 -56.0448 -56.0379 -56.0034 -55.9736
   -55.9591 -55.9566 -55.9481 -55.9058 -55.8876 -55.8494 -55.8312 -55.7981
   -55.7932 -55.7452 -55.7419 -55.7402 -55.7335 -55.6846 -55.6702 -55.5834
   -31.4118 -31.3995 -31.2536 -31.1780 -31.1682 -31.1013 -30.9939 -30.8832
   -29.9943 -29.9551 -29.9265 -29.8199 -15.1615 -15.1100 -15.0477 -14.9381
   -14.8354 -14.6904 -14.5452 -14.3997 -14.2776 -14.2648 -14.2538 -14.1937
   -14.1351 -14.1045 -14.0550 -14.0478 -14.0306 -13.9810 -13.9611 -13.8564
   -13.6999 -13.6724 -13.6393 -13.6323 -13.5700 -13.5076 -13.4419 -13.4049
   -13.3810 -13.3631 -13.1926 -13.1802 -13.1695 -13.1552 -13.1457 -13.0912
   -13.0792 -13.0633 -12.9931 -12.9761 -12.9003 -12.8303 -12.8039 -12.7920
   -12.7798 -12.7700 -12.6800 -12.5954 -12.4661 -12.4533 -12.3207 -12.2825
   -11.9718 -11.9266 -11.9049 -11.8983 -11.8838 -11.8657 -11.8244 -11.7615
   -11.7438 -11.7108 -11.6664 -11.6572 -11.6417  -2.7294  -2.6908  -2.5276
    -2.4884  -2.1745  -2.0990  -1.9517  -1.8344  -1.7950  -1.7472  -1.7010
    -1.6765  -1.5530  -1.5089  -1.4928  -1.4105  -1.3753  -1.3594  -1.3285
    -1.2701  -1.2022  -1.1730  -1.1434  -1.0489  -1.0020  -0.9529  -0.9197
    -0.8988  -0.8677  -0.8199  -0.7953  -0.7573  -0.6572  -0.5835  -0.5172
    -0.4557  -0.2943  -0.2451  -0.2029  -0.1660  -0.1078  -0.0899   0.0513
     0.0814   0.1380   0.2927   0.3923   0.4389   0.5388   0.5971   0.7173
     0.7304   0.8596   0.8846   0.9391   0.9722   1.0092   1.0155   1.0628
     1.0858   1.1528   1.2043   1.2512   1.2590   1.5590   1.5650   1.5841
     1.6028   1.7087   1.7260   1.7391   1.7483   1.7789   1.7919   1.8296
     1.8535   1.8766   1.9303   1.9479   1.9971   2.0238   2.0746   2.1948
     2.2834   2.3550   2.3686   2.4504   2.4781   2.5068   2.5642   2.5810
     2.5905   2.6207   2.6415   2.6465   2.6546   2.7182   2.7446   2.7844
     2.8077   2.8539   2.8568   2.8652   2.8729   2.8881   2.8969   2.9097
     2.9173   2.9362   2.9451   2.9612   2.9812   2.9857   3.1151   3.1306
     3.9740   3.9916   4.0422   4.1849   4.6489   4.7262   4.9212   4.9497
     5.4024   5.4314   5.5109   5.5394   5.8906   5.8954   6.3388   6.5001
     6.7515   6.9709   7.2212   7.2796   7.5949   7.6486   7.6851   7.6913
     7.7982   7.9181   8.0312   8.2518   8.2649   8.3084   8.3985   8.5135
     8.6629   8.7640

     occupation numbers 
     1.0000   1.0000   1.0000   1.0000   1.0000   1.0000   1.0000   1.0000
     1.0000   1.0000   1.0000   1.0000   1.0000   1.0000   1.0000   1.0000
     1.0000   1.0000   1.0000   1.0000   1.0000   1.0000   1.0000   1.0000
     1.0000   1.0000   1.0000   1.0000   1.0000   1.0000   1.0000   1.0000
     1.0000   1.0000   1.0000   1.0000   1.0000   1.0000   1.0000   1.0000
     1.0000   1.0000   1.0000   1.0000   1.0000   1.0000   1.0000   1.0000
     1.0000   1.0000   1.0000   1.0000   1.0000   1.0000   1.0000   1.0000
     1.0000   1.0000   1.0000   1.0000   1.0000   1.0000   1.0000   1.0000
     1.0000   1.0000   1.0000   1.0000   1.0000   1.0000   1.0000   1.0000
     1.0000   1.0000   1.0000   1.0000   1.0000   1.0000   1.0000   1.0000
     1.0000   1.0000   1.0000   1.0000   1.0000   1.0000   1.0000   1.0000
     1.0000   1.0000   1.0000   1.0000   1.0000   1.0000   1.0000   1.0000
     1.0000   1.0000   1.0000   1.0000   1.0000   1.0000   1.0000   1.0000
     1.0000   1.0000   1.0000   1.0000   1.0000   1.0000   1.0000   1.0000
     1.0000   1.0000   1.0000   1.0000   1.0000   1.0000   1.0000   1.0000
     1.0000   1.0000   1.0000   1.0000   1.0000   1.0000   1.0000   1.0000
     1.0000   1.0000   1.0000   1.0000   1.0000   1.0000   1.0000   1.0000
     1.0000   1.0000   1.0000   1.0000   1.0000   1.0000   1.0000   1.0000
     1.0000   1.0000   1.0000   1.0000   1.0000   1.0000   1.0000   1.0000
     1.0000   1.0000   1.0000   1.0000   1.0000   1.0000   0.9999   0.9999
     0.9999   0.9997   0.9997   0.9996   0.9995   0.9994   0.9993   0.9992
     0.9991   0.9987   0.9983   0.9979   0.9978   0.9919   0.9917   0.9910
     0.9903   0.9854   0.9845   0.9837   0.9831   0.9811   0.9802   0.9774
     0.9754   0.9733   0.9680   0.9661   0.9602   0.9567   0.9493   0.9278
     0.9080   0.8891   0.8853   0.8600   0.8506   0.8405   0.8189   0.8123
     0.8085   0.7960   0.7871   0.7850   0.7815   0.7526   0.7401   0.7205
     0.7088   0.6848   0.6833   0.6789   0.6747   0.6666   0.6618   0.6548
     0.6506   0.6402   0.6352   0.6262   0.6149   0.6124   0.5372   0.5280
     0.1186   0.1135   0.0997   0.0674   0.0145   0.0108   0.0048   0.0043
     0.0005   0.0004   0.0003   0.0002   0.0000   0.0000   0.0000   0.0000
     0.0000   0.0000   0.0000   0.0000   0.0000   0.0000   0.0000   0.0000
     0.0000   0.0000   0.0000   0.0000   0.0000   0.0000   0.0000   0.0000
     0.0000   0.0000

          k =-0.2500 0.2500 0.0000 ( 65198 PWs)   bands (ev):

   -92.8506 -92.7986 -92.7046 -92.6575 -92.5982 -92.5569 -92.5402 -92.4137
   -56.2042 -56.1854 -56.0615 -56.0510 -56.0448 -56.0379 -56.0034 -55.9736
   -55.9591 -55.9566 -55.9481 -55.9058 -55.8876 -55.8494 -55.8312 -55.7981
   -55.7932 -55.7452 -55.7419 -55.7402 -55.7335 -55.6846 -55.6702 -55.5834
   -31.4137 -31.3973 -31.2542 -31.1778 -31.1679 -31.1018 -30.9934 -30.8834
   -29.9947 -29.9537 -29.9276 -29.8198 -15.1639 -15.1226 -15.0491 -14.9317
   -14.8193 -14.6928 -14.6082 -14.3997 -14.2602 -14.2305 -14.2160 -14.1707
   -14.1465 -14.1261 -14.1087 -14.0626 -13.9814 -13.9701 -13.8148 -13.7906
   -13.7624 -13.7402 -13.6939 -13.6414 -13.5831 -13.5751 -13.4401 -13.3888
   -13.3607 -13.2843 -13.2413 -13.1785 -13.1495 -13.1306 -13.1241 -13.0876
   -13.0653 -13.0341 -13.0013 -12.9428 -12.9250 -12.9091 -12.8763 -12.8347
   -12.8243 -12.8065 -12.6301 -12.5811 -12.5497 -12.4219 -12.2614 -12.2084
   -11.9716 -11.9466 -11.9252 -11.8981 -11.8859 -11.8449 -11.8102 -11.7872
   -11.7656 -11.7431 -11.6586 -11.6134 -11.6037  -2.8141  -2.6062  -2.4845
    -2.3968  -2.2786  -2.2123  -2.0083  -1.8646  -1.8459  -1.8162  -1.7245
    -1.6857  -1.5951  -1.5606  -1.5346  -1.3922  -1.3363  -1.2676  -1.2399
    -1.1793  -1.1583  -1.1183  -1.0895  -1.0496  -0.9859  -0.9384  -0.8744
    -0.8057  -0.7803  -0.7296  -0.7003  -0.6549  -0.5979  -0.5524  -0.5102
    -0.4101  -0.3786  -0.3661  -0.3232  -0.2565  -0.1859  -0.1396  -0.1056
    -0.0339   0.0090   0.2437   0.4139   0.4528   0.4929   0.5523   0.6208
     0.6712   0.7290   0.7563   1.0381   1.1439   1.1841   1.2172   1.2246
     1.2656   1.2820   1.3268   1.3574   1.3717   1.3973   1.4430   1.4587
     1.5029   1.5225   1.5676   1.6499   1.6730   1.6872   1.7332   1.7538
     1.7963   1.8553   1.9548   2.0571   2.0864   2.1359   2.1568   2.2223
     2.2613   2.2863   2.3100   2.3334   2.4350   2.4696   2.5589   2.6353
     2.6482   2.6852   2.7357   2.7454   2.7577   2.7671   2.7779   2.7919
     2.7983   2.8171   2.8279   2.8394   2.8507   2.8619   2.8733   2.8848
     2.9131   2.9234   2.9307   2.9663   3.2568   3.3396   3.4044   3.4862
     3.5178   3.7140   3.8171   4.1703   4.3731   4.5858   4.8542   5.1477
     5.5299   5.5830   5.6337   5.6873   5.7545   6.1046   6.1423   6.1640
     6.8573   7.0540   7.1534   7.3536   7.4876   7.5147   7.5914   7.7947
     7.8547   7.9095   8.2114   8.2289   8.3512   8.4014   8.4365   8.4804
     8.5408   8.5599

     occupation numbers 
     1.0000   1.0000   1.0000   1.0000   1.0000   1.0000   1.0000   1.0000
     1.0000   1.0000   1.0000   1.0000   1.0000   1.0000   1.0000   1.0000
     1.0000   1.0000   1.0000   1.0000   1.0000   1.0000   1.0000   1.0000
     1.0000   1.0000   1.0000   1.0000   1.0000   1.0000   1.0000   1.0000
     1.0000   1.0000   1.0000   1.0000   1.0000   1.0000   1.0000   1.0000
     1.0000   1.0000   1.0000   1.0000   1.0000   1.0000   1.0000   1.0000
     1.0000   1.0000   1.0000   1.0000   1.0000   1.0000   1.0000   1.0000
     1.0000   1.0000   1.0000   1.0000   1.0000   1.0000   1.0000   1.0000
     1.0000   1.0000   1.0000   1.0000   1.0000   1.0000   1.0000   1.0000
     1.0000   1.0000   1.0000   1.0000   1.0000   1.0000   1.0000   1.0000
     1.0000   1.0000   1.0000   1.0000   1.0000   1.0000   1.0000   1.0000
     1.0000   1.0000   1.0000   1.0000   1.0000   1.0000   1.0000   1.0000
     1.0000   1.0000   1.0000   1.0000   1.0000   1.0000   1.0000   1.0000
     1.0000   1.0000   1.0000   1.0000   1.0000   1.0000   1.0000   1.0000
     1.0000   1.0000   1.0000   1.0000   1.0000   1.0000   1.0000   1.0000
     1.0000   1.0000   1.0000   1.0000   1.0000   1.0000   1.0000   1.0000
     1.0000   1.0000   1.0000   1.0000   1.0000   1.0000   1.0000   1.0000
     1.0000   1.0000   1.0000   1.0000   1.0000   1.0000   1.0000   1.0000
     1.0000   1.0000   1.0000   1.0000   1.0000   1.0000   1.0000   1.0000
     1.0000   1.0000   1.0000   1.0000   1.0000   1.0000   1.0000   0.9999
     0.9999   0.9999   0.9998   0.9993   0.9987   0.9985   0.9982   0.9981
     0.9977   0.9976   0.9970   0.9966   0.9963   0.9959   0.9950   0.9947
     0.9936   0.9930   0.9916   0.9884   0.9873   0.9866   0.9840   0.9828
     0.9799   0.9752   0.9653   0.9520   0.9475   0.9391   0.9353   0.9221
     0.9133   0.9073   0.9013   0.8951   0.8650   0.8536   0.8210   0.7898
     0.7843   0.7678   0.7443   0.7397   0.7337   0.7291   0.7238   0.7168
     0.7135   0.7040   0.6984   0.6924   0.6865   0.6806   0.6745   0.6683
     0.6529   0.6473   0.6432   0.6233   0.4534   0.4052   0.3684   0.3236
     0.3069   0.2130   0.1713   0.0703   0.0380   0.0183   0.0064   0.0017
     0.0002   0.0002   0.0001   0.0001   0.0001   0.0000   0.0000   0.0000
     0.0000   0.0000   0.0000   0.0000   0.0000   0.0000   0.0000   0.0000
     0.0000   0.0000   0.0000   0.0000   0.0000   0.0000   0.0000   0.0000
     0.0000   0.0000

          k =-0.5000 0.2500 0.0000 ( 65138 PWs)   bands (ev):

   -92.8506 -92.7986 -92.7046 -92.6575 -92.5982 -92.5569 -92.5402 -92.4137
   -56.2042 -56.1854 -56.0615 -56.0510 -56.0448 -56.0379 -56.0034 -55.9736
   -55.9591 -55.9566 -55.9481 -55.9058 -55.8876 -55.8494 -55.8312 -55.7981
   -55.7932 -55.7452 -55.7419 -55.7402 -55.7335 -55.6846 -55.6702 -55.5834
   -31.4116 -31.3994 -31.2538 -31.1776 -31.1683 -31.1017 -30.9936 -30.8835
   -29.9937 -29.9548 -29.9272 -29.8202 -15.1287 -15.0837 -15.0048 -14.9046
   -14.8637 -14.7375 -14.6490 -14.5182 -14.2112 -14.1802 -14.1684 -14.1235
   -14.1017 -14.0770 -14.0413 -14.0331 -14.0095 -13.9692 -13.9587 -13.8495
   -13.7811 -13.7327 -13.7291 -13.7145 -13.6204 -13.6093 -13.4808 -13.4283
   -13.3381 -13.3030 -13.2056 -13.1655 -13.1545 -13.1315 -13.1192 -13.0909
   -13.0780 -13.0425 -13.0142 -12.9363 -12.9130 -12.8616 -12.8352 -12.8178
   -12.7614 -12.7532 -12.6781 -12.5553 -12.4613 -12.4105 -12.3151 -12.2910
   -11.9718 -11.9194 -11.9067 -11.8925 -11.8805 -11.8592 -11.8291 -11.7483
   -11.7400 -11.7165 -11.6808 -11.6529 -11.6441  -2.5869  -2.5449  -2.3972
    -2.3550  -2.1936  -2.1173  -1.9759  -1.8402  -1.7834  -1.7553  -1.7175
    -1.6788  -1.5983  -1.4828  -1.4254  -1.4022  -1.3765  -1.2991  -1.2716
    -1.2328  -1.2157  -1.1551  -1.1255  -1.0871  -1.0516  -1.0230  -0.9645
    -0.9376  -0.8962  -0.8606  -0.7560  -0.7301  -0.6396  -0.5774  -0.5466
    -0.4898  -0.4044  -0.3720  -0.2718  -0.2338  -0.1708  -0.1236  -0.0980
    -0.0268   0.0070   0.0445   0.0858   0.1230   0.4431   0.4928   0.5782
     0.6042   0.8704   0.9335   1.0033   1.0295   1.2055   1.2413   1.2787
     1.2896   1.3080   1.3258   1.3949   1.4393   1.4805   1.5101   1.6284
     1.6659   1.7005   1.7164   1.7501   1.7717   1.7885   1.8063   1.8226
     1.8446   1.8921   1.9056   1.9432   1.9657   1.9990   2.0554   2.1795
     2.2738   2.3008   2.3672   2.4049   2.4666   2.5043   2.5097   2.5473
     2.5808   2.6012   2.6377   2.6423   2.6478   2.7191   2.7434   2.7465
     2.7551   2.7710   2.7948   2.8065   2.8214   2.8335   2.8554   2.8692
     2.8782   2.8875   2.9006   2.9143   3.4507   3.4782   3.6315   3.6477
     3.9737   4.0098   4.0562   4.2652   4.6417   4.7391   4.9179   4.9665
     5.2665   5.2961   5.5129   5.5960   5.6368   5.6727   6.3490   6.4291
     6.4752   6.6113   7.3182   7.6116   7.6274   7.6992   7.7321   7.7850
     7.8456   7.9511   8.1037   8.3858   8.4495   8.4920   8.5305   8.5567
     8.5878   8.7232

     occupation numbers 
     1.0000   1.0000   1.0000   1.0000   1.0000   1.0000   1.0000   1.0000
     1.0000   1.0000   1.0000   1.0000   1.0000   1.0000   1.0000   1.0000
     1.0000   1.0000   1.0000   1.0000   1.0000   1.0000   1.0000   1.0000
     1.0000   1.0000   1.0000   1.0000   1.0000   1.0000   1.0000   1.0000
     1.0000   1.0000   1.0000   1.0000   1.0000   1.0000   1.0000   1.0000
     1.0000   1.0000   1.0000   1.0000   1.0000   1.0000   1.0000   1.0000
     1.0000   1.0000   1.0000   1.0000   1.0000   1.0000   1.0000   1.0000
     1.0000   1.0000   1.0000   1.0000   1.0000   1.0000   1.0000   1.0000
     1.0000   1.0000   1.0000   1.0000   1.0000   1.0000   1.0000   1.0000
     1.0000   1.0000   1.0000   1.0000   1.0000   1.0000   1.0000   1.0000
     1.0000   1.0000   1.0000   1.0000   1.0000   1.0000   1.0000   1.0000
     1.0000   1.0000   1.0000   1.0000   1.0000   1.0000   1.0000   1.0000
     1.0000   1.0000   1.0000   1.0000   1.0000   1.0000   1.0000   1.0000
     1.0000   1.0000   1.0000   1.0000   1.0000   1.0000   1.0000   1.0000
     1.0000   1.0000   1.0000   1.0000   1.0000   1.0000   1.0000   1.0000
     1.0000   1.0000   1.0000   1.0000   1.0000   1.0000   1.0000   1.0000
     1.0000   1.0000   1.0000   1.0000   1.0000   1.0000   1.0000   1.0000
     1.0000   1.0000   1.0000   1.0000   1.0000   1.0000   1.0000   1.0000
     1.0000   1.0000   1.0000   1.0000   1.0000   1.0000   1.0000   1.0000
     1.0000   1.0000   1.0000   1.0000   1.0000   1.0000   1.0000   0.9999
     0.9999   0.9997   0.9996   0.9994   0.9993   0.9983   0.9980   0.9976
     0.9975   0.9973   0.9970   0.9959   0.9951   0.9941   0.9934   0.9893
     0.9876   0.9859   0.9850   0.9830   0.9816   0.9805   0.9792   0.9779
     0.9761   0.9719   0.9706   0.9666   0.9641   0.9600   0.9522   0.9309
     0.9103   0.9036   0.8857   0.8745   0.8546   0.8414   0.8395   0.8255
     0.8124   0.8041   0.7888   0.7868   0.7844   0.7522   0.7406   0.7391
     0.7350   0.7272   0.7153   0.7094   0.7018   0.6955   0.6840   0.6767
     0.6719   0.6669   0.6598   0.6523   0.3427   0.3279   0.2504   0.2427
     0.1187   0.1084   0.0961   0.0532   0.0149   0.0102   0.0049   0.0040
     0.0010   0.0008   0.0003   0.0002   0.0001   0.0001   0.0000   0.0000
     0.0000   0.0000   0.0000   0.0000   0.0000   0.0000   0.0000   0.0000
     0.0000   0.0000   0.0000   0.0000   0.0000   0.0000   0.0000   0.0000
     0.0000   0.0000

     the Fermi energy is     3.1780 ev

!    total energy              =   -4440.28968681 Ry
     estimated scf accuracy    <          4.5E-09 Ry
     smearing contrib. (-TS)   =      -1.20572199 Ry
     internal energy E=F+TS    =   -4439.08396483 Ry

     The total energy is F=E-TS. E is the sum of the following terms:
     one-electron contribution =  -20890.07309785 Ry
     hartree contribution      =   10574.46530636 Ry
     xc contribution           =    -693.24322553 Ry
     ewald contribution        =    6845.95936147 Ry
     one-center paw contrib.   =    -276.19230927 Ry
      -> PAW hartree energy AE =      25.17475484 Ry
      -> PAW hartree energy PS =     -25.05852885 Ry
      -> PAW xc energy AE      =     -16.51918170 Ry
      -> PAW xc energy PS      =       6.87872447 Ry
      -> total E_H with PAW    =   10574.58153234 Ry
      -> total E_XC with PAW   =    -702.88368276 Ry

     convergence has been achieved in  49 iterations

     Writing all to output data dir /bsuhome/zayahcortright/scratch/pwscf.save/
 
     init_run     :      7.46s CPU      8.43s WALL (       1 calls)
     electrons    :    695.72s CPU    728.33s WALL (       1 calls)

     Called by init_run:
     wfcinit      :      6.17s CPU      6.39s WALL (       1 calls)
     wfcinit:atom :      0.05s CPU      0.07s WALL (       5 calls)
     wfcinit:wfcr :      5.85s CPU      5.97s WALL (       5 calls)
     potinit      :      0.20s CPU      0.22s WALL (       1 calls)
     hinit0       :      0.24s CPU      0.69s WALL (       1 calls)

     Called by electrons:
     c_bands      :    548.97s CPU    555.43s WALL (      49 calls)
     sum_band     :    110.20s CPU    124.50s WALL (      49 calls)
     v_of_rho     :      5.30s CPU      5.68s WALL (      50 calls)
     v_h          :      0.47s CPU      0.47s WALL (      50 calls)
     v_xc         :      4.83s CPU      5.21s WALL (      50 calls)
     newd         :     16.40s CPU     27.52s WALL (      50 calls)
     PAW_pot      :      1.61s CPU      1.64s WALL (      50 calls)
     mix_rho      :     12.81s CPU     13.19s WALL (      49 calls)

     Called by c_bands:
     init_us_2    :      6.96s CPU      7.06s WALL (     495 calls)
     init_us_2:cp :      6.95s CPU      7.06s WALL (     495 calls)
     cegterg      :    514.39s CPU    520.54s WALL (     245 calls)

     Called by sum_band:
     sum_band:wei :      0.35s CPU      0.36s WALL (      49 calls)
     sum_band:loo :     92.27s CPU     93.05s WALL (      49 calls)
     sum_band:buf :      1.42s CPU      1.50s WALL (     245 calls)
     sum_band:ini :      3.32s CPU      3.35s WALL (     245 calls)
     sum_band:cal :     19.62s CPU     19.68s WALL (     245 calls)
     sum_band:bec :      0.53s CPU      0.53s WALL (     245 calls)
     addusdens    :     16.11s CPU     29.57s WALL (      49 calls)
                                        0.00s GPU  (      49 calls)
     addusd:skk   :      0.31s CPU      0.96s WALL (     147 calls)
                                        0.00s GPU  (     147 calls)

     Called by *egterg:
     cdiaghg      :     46.63s CPU     46.83s WALL (    1103 calls)
     cegterg:over :     36.95s CPU     37.09s WALL (     858 calls)
     cegterg:upda :     26.75s CPU     27.22s WALL (     858 calls)
     cegterg:last :     58.67s CPU     58.90s WALL (     444 calls)
     cdiaghg:chol :      2.69s CPU      2.71s WALL (    1103 calls)
     cdiaghg:inve :      2.49s CPU      2.50s WALL (    1103 calls)
     cdiaghg:para :      6.04s CPU      6.07s WALL (    2206 calls)
     h_psi        :    291.30s CPU    294.29s WALL (    1108 calls)
     s_psi        :     38.49s CPU     38.61s WALL (    1108 calls)
     g_psi        :      1.05s CPU      1.06s WALL (     858 calls)

     Called by h_psi:
     h_psi:calbec :     43.59s CPU     43.79s WALL (    1108 calls)
     vloc_psi     :    206.48s CPU    208.45s WALL (    1108 calls)
     add_vuspsi   :     38.30s CPU     38.50s WALL (    1108 calls)

     General routines
     calbec       :     63.20s CPU     63.47s WALL (    1353 calls)
     fft          :      3.80s CPU      3.84s WALL (     648 calls)
     ffts         :      4.57s CPU      4.61s WALL (    5281 calls)
     fftw         :    176.15s CPU    177.58s WALL (  327268 calls)
     interpolate  :      0.41s CPU      0.42s WALL (      50 calls)
 
     Parallel routines

     PAW routines
     PAW_pot      :      1.61s CPU      1.64s WALL (      50 calls)
 
     PWSCF        :  11m45.01s CPU  12m21.36s WALL

 
   This run was terminated on:   3:52:15  22Jun2024            

=------------------------------------------------------------------------------=
   JOB DONE.
=------------------------------------------------------------------------------=
