
     Program PWSCF v.7.2 starts on 21Jun2024 at 20:48:10 

     This program is part of the open-source Quantum ESPRESSO suite
     for quantum simulation of materials; please cite
         "P. Giannozzi et al., J. Phys.:Condens. Matter 21 395502 (2009);
         "P. Giannozzi et al., J. Phys.:Condens. Matter 29 465901 (2017);
         "P. Giannozzi et al., J. Chem. Phys. 152 154105 (2020);
          URL http://www.quantum-espresso.org", 
     in publications or presentations arising from this work. More details at
     http://www.quantum-espresso.org/quote

     Parallel version (MPI & OpenMP), running on      48 processor cores
     Number of MPI processes:                48
     Threads/MPI process:                     1

     MPI processes distributed on     1 nodes
     33228 MiB available memory on the printing compute node when the environment starts
 
     Reading input from espresso.pwi
Warning: card &CELL ignored
Warning: card / ignored
Warning: card &FCP ignored
Warning: card / ignored
Warning: card &RISM ignored
Warning: card / ignored

     Current dimensions of program PWSCF are:
     Max number of different atomic species (ntypx) = 10
     Max number of k-points (npk) =  40000
     Max angular momentum in pseudopotentials (lmaxx) =  4
     file O.pbe-n-kjpaw_psl.0.1.UPF: wavefunction(s)  2P renormalized
     signal trapping enabled: kill the code with -SIGUSR1 to stop cleanly the simulation 
 
     K-points division:     npool     =       2
     R & G space division:  proc/nbgrp/npool/nimage =      24
     Subspace diagonalization in iterative solution of the eigenvalue problem:
     one sub-group per band group will be used
     scalapack distributed-memory algorithm (size of sub-group:  3*  3 procs)

 
     Parallelization info
     --------------------
     sticks:   dense  smooth     PW     G-vecs:    dense   smooth      PW
     Min         350     175     47                61430    21716    3036
     Max         351     177     48                61449    21727    3041
     Sum        8421    4205   1137              1474595   521381   72913
 
     Using Slab Decomposition
 


     bravais-lattice index     =            0
     lattice parameter (alat)  =      14.8599  a.u.
     unit-cell volume          =    8305.1283 (a.u.)^3
     number of atoms/cell      =           50
     number of atomic types    =            4
     number of electrons       =       431.00
     number of Kohn-Sham states=          259
     kinetic-energy cutoff     =      60.0000  Ry
     charge density cutoff     =     480.0000  Ry
     scf convergence threshold =      1.0E-08
     mixing beta               =       0.1500
     number of iterations used =            8  local-TF  mixing
     Exchange-correlation= PBE
                           (   1   4   3   4   0   0   0)

     celldm(1)=  14.859904  celldm(2)=   0.000000  celldm(3)=   0.000000
     celldm(4)=   0.000000  celldm(5)=   0.000000  celldm(6)=   0.000000

     crystal axes: (cart. coord. in units of alat)
               a(1) = (   1.000000   0.000000   0.000000 )  
               a(2) = (   0.000000   1.000000   0.000000 )  
               a(3) = (   0.000000   0.000000   2.531036 )  

     reciprocal axes: (cart. coord. in units 2 pi/alat)
               b(1) = (  1.000000  0.000000  0.000000 )  
               b(2) = (  0.000000  1.000000  0.000000 )  
               b(3) = (  0.000000  0.000000  0.395095 )  


     PseudoPot. # 1 for Sr read from file:
     /bsuhome/zayahcortright/q-e/pseudo/Sr_pbe_v1.uspp.F.UPF
     MD5 check sum: 6b418c05fbe9db5448babca5e47b7a5b
     Pseudo is Ultrasoft + core correction, Zval = 10.0
     Generated by new atomic code, or converted to UPF format
     Using radial grid of  883 points,  6 beta functions with: 
                l(1) =   0
                l(2) =   0
                l(3) =   1
                l(4) =   1
                l(5) =   2
                l(6) =   2
     Q(r) pseudized with  6 coefficients,  rinner =    1.400   1.400   1.400
                                                       1.400   1.400

     PseudoPot. # 2 for O  read from file:
     /bsuhome/zayahcortright/q-e/pseudo/O.pbe-n-kjpaw_psl.0.1.UPF
     MD5 check sum: 0234752ac141de4415c5fc33072bef88
     Pseudo is Projector augmented-wave + core cor, Zval =  6.0
     Generated using "atomic" code by A. Dal Corso  v.5.0.99 svn rev. 10869
     Shape of augmentation charge: BESSEL
     Using radial grid of 1095 points,  4 beta functions with: 
                l(1) =   0
                l(2) =   0
                l(3) =   1
                l(4) =   1
     Q(r) pseudized with 0 coefficients 


     PseudoPot. # 3 for Co read from file:
     /bsuhome/zayahcortright/q-e/pseudo/Co_pbe_v1.2.uspp.F.UPF
     MD5 check sum: 5f91765df6ddd3222702df6e7b74a16d
     Pseudo is Ultrasoft + core correction, Zval = 17.0
     Generated by new atomic code, or converted to UPF format
     Using radial grid of  863 points,  6 beta functions with: 
                l(1) =   0
                l(2) =   0
                l(3) =   1
                l(4) =   1
                l(5) =   2
                l(6) =   2
     Q(r) pseudized with  8 coefficients,  rinner =    1.200   1.200   1.200
                                                       1.200   1.200

     PseudoPot. # 4 for H  read from file:
     /bsuhome/zayahcortright/q-e/pseudo/H.pbe-rrkjus_psl.1.0.0.UPF
     MD5 check sum: f52b6d4d1c606e5624b1dc7b2218f220
     Pseudo is Ultrasoft, Zval =  1.0
     Generated using "atomic" code by A. Dal Corso  v.5.1
     Using radial grid of  929 points,  2 beta functions with: 
                l(1) =   0
                l(2) =   0
     Q(r) pseudized with 0 coefficients 


     atomic species   valence    mass     pseudopotential
        Sr            10.00    87.62000     Sr( 1.00)
        O              6.00    15.99900     O ( 1.00)
        Co            17.00    58.93319     Co( 1.00)
        H              1.00     1.00800     H ( 1.00)

     No symmetry found


                                    s                        frac. trans.

      isym =  1     identity                                     

 cryst.   s( 1) = (     1          0          0      )
                  (     0          1          0      )
                  (     0          0          1      )

 cart.    s( 1) = (  1.0000000  0.0000000  0.0000000 )
                  (  0.0000000  1.0000000  0.0000000 )
                  (  0.0000000  0.0000000  1.0000000 )


   Cartesian axes

     site n.     atom                  positions (alat units)
         1           Sr  tau(   1) = (   0.2508693   0.7491307   1.7574407  )
         2           O   tau(   2) = (   0.4985141   0.5014859   1.7715967  )
         3           Sr  tau(   3) = (   0.7482398   0.7454518   1.7648669  )
         4           Sr  tau(   4) = (   0.7441748   0.2558252   1.7667843  )
         5           Sr  tau(   5) = (   0.2508693   0.7491307   1.2696799  )
         6           Sr  tau(   6) = (   0.2508693   0.7491307   0.7632319  )
         7           Co  tau(   7) = (   0.4998914   0.5001086   1.0164559  )
         8           Co  tau(   8) = (   0.4936915   0.5063085   1.5135603  )
         9           O   tau(   9) = (   0.4988895   0.7610401   1.0164559  )
        10           O   tau(  10) = (   0.2389599   0.5011105   1.0164559  )
        11           O   tau(  11) = (   0.0070918   0.7374880   1.0164559  )
        12           O   tau(  12) = (   0.0088340   0.7405089   1.5135603  )
        13           O   tau(  13) = (   0.5066944   0.7415376   1.5135603  )
        14           O   tau(  14) = (   0.2584624   0.4933056   1.5135603  )
        15           O   tau(  15) = (   0.4985141   0.5014859   0.7773880  )
        16           O   tau(  16) = (   0.4985141   0.5014859   1.2555238  )
        17           Sr  tau(  17) = (   0.7482398   0.7454518   0.7706582  )
        18           Sr  tau(  18) = (   0.7482398   0.7454518   1.2622536  )
        19           Sr  tau(  19) = (   0.7441748   0.2558252   0.7725755  )
        20           Sr  tau(  20) = (   0.7441748   0.2558252   1.2603363  )
        21           O   tau(  21) = (   0.7322655   0.0078049   1.5135603  )
        22           O   tau(  22) = (   0.7558175   0.4996027   1.5135603  )
        23           O   tau(  23) = (   0.5003973   0.2441825   1.5135603  )
        24           O   tau(  24) = (   0.7527966   0.4978604   1.0164559  )
        25           O   tau(  25) = (   0.5021396   0.2472034   1.0164559  )
        26           O   tau(  26) = (   0.7517679   0.0000000   1.0164559  )
        27           O   tau(  27) = (   0.0114961   0.4948124   1.7455321  )
        28           O   tau(  28) = (   0.0048226   0.0077944   1.7715967  )
        29           Sr  tau(  29) = (   0.2545482   0.2517602   1.7648669  )
        30           O   tau(  30) = (   0.5048017   0.0015068   1.7786929  )
        31           Co  tau(  31) = (   0.0056869   0.5006215   1.0164559  )
        32           Co  tau(  32) = (   0.0065315   0.4997770   1.5135603  )
        33           Co  tau(  33) = (   0.0061999   0.0064171   1.0164559  )
        34           Co  tau(  34) = (   0.0000000   0.0126169   1.5135603  )
        35           O   tau(  35) = (   0.0114961   0.4948124   1.2815885  )
        36           O   tau(  36) = (   0.0114961   0.4948124   0.7513233  )
        37           O   tau(  37) = (   0.0051979   0.2673486   1.0164559  )
        38           O   tau(  38) = (   0.0130029   0.2478461   1.5135603  )
        39           O   tau(  39) = (   0.0048226   0.0077944   0.7773880  )
        40           O   tau(  40) = (   0.0048226   0.0077944   1.2555238  )
        41           Sr  tau(  41) = (   0.2545482   0.2517602   0.7706582  )
        42           Sr  tau(  42) = (   0.2545482   0.2517602   1.2622536  )
        43           Co  tau(  43) = (   0.4989925   0.0073160   1.5135603  )
        44           Co  tau(  44) = (   0.4998370   0.0064714   1.0164559  )
        45           O   tau(  45) = (   0.5048017   0.0015068   0.7844841  )
        46           O   tau(  46) = (   0.5048017   0.0015068   1.2484277  )
        47           O   tau(  47) = (   0.2621260   0.0059111   1.5135603  )
        48           O   tau(  48) = (   0.2591051   0.0041689   1.0164559  )
        49           O   tau(  49) = (   0.4264937   0.4264937   2.1602013  )
        50           H   tau(  50) = (   0.4264937   0.4264937   2.2847091  )

   Crystallographic axes

     site n.     atom                  positions (cryst. coord.)
         1           Sr  tau(   1) = (  0.2508693  0.7491307  0.6943562  )
         2           O   tau(   2) = (  0.4985141  0.5014859  0.6999492  )
         3           Sr  tau(   3) = (  0.7482398  0.7454518  0.6972903  )
         4           Sr  tau(   4) = (  0.7441748  0.2558252  0.6980478  )
         5           Sr  tau(   5) = (  0.2508693  0.7491307  0.5016443  )
         6           Sr  tau(   6) = (  0.2508693  0.7491307  0.3015492  )
         7           Co  tau(   7) = (  0.4998914  0.5001086  0.4015968  )
         8           Co  tau(   8) = (  0.4936915  0.5063085  0.5980003  )
         9           O   tau(   9) = (  0.4988895  0.7610401  0.4015968  )
        10           O   tau(  10) = (  0.2389599  0.5011105  0.4015968  )
        11           O   tau(  11) = (  0.0070918  0.7374880  0.4015968  )
        12           O   tau(  12) = (  0.0088340  0.7405089  0.5980003  )
        13           O   tau(  13) = (  0.5066944  0.7415376  0.5980003  )
        14           O   tau(  14) = (  0.2584624  0.4933056  0.5980003  )
        15           O   tau(  15) = (  0.4985141  0.5014859  0.3071422  )
        16           O   tau(  16) = (  0.4985141  0.5014859  0.4960513  )
        17           Sr  tau(  17) = (  0.7482398  0.7454518  0.3044833  )
        18           Sr  tau(  18) = (  0.7482398  0.7454518  0.4987103  )
        19           Sr  tau(  19) = (  0.7441748  0.2558252  0.3052408  )
        20           Sr  tau(  20) = (  0.7441748  0.2558252  0.4979527  )
        21           O   tau(  21) = (  0.7322655  0.0078049  0.5980003  )
        22           O   tau(  22) = (  0.7558175  0.4996027  0.5980003  )
        23           O   tau(  23) = (  0.5003973  0.2441825  0.5980003  )
        24           O   tau(  24) = (  0.7527966  0.4978604  0.4015968  )
        25           O   tau(  25) = (  0.5021396  0.2472034  0.4015968  )
        26           O   tau(  26) = (  0.7517679  0.0000000  0.4015968  )
        27           O   tau(  27) = (  0.0114961  0.4948124  0.6896512  )
        28           O   tau(  28) = (  0.0048226  0.0077944  0.6999492  )
        29           Sr  tau(  29) = (  0.2545482  0.2517602  0.6972903  )
        30           O   tau(  30) = (  0.5048017  0.0015068  0.7027529  )
        31           Co  tau(  31) = (  0.0056869  0.5006215  0.4015968  )
        32           Co  tau(  32) = (  0.0065315  0.4997770  0.5980003  )
        33           Co  tau(  33) = (  0.0061999  0.0064171  0.4015968  )
        34           Co  tau(  34) = (  0.0000000  0.0126169  0.5980003  )
        35           O   tau(  35) = (  0.0114961  0.4948124  0.5063494  )
        36           O   tau(  36) = (  0.0114961  0.4948124  0.2968442  )
        37           O   tau(  37) = (  0.0051979  0.2673486  0.4015968  )
        38           O   tau(  38) = (  0.0130029  0.2478461  0.5980003  )
        39           O   tau(  39) = (  0.0048226  0.0077944  0.3071422  )
        40           O   tau(  40) = (  0.0048226  0.0077944  0.4960513  )
        41           Sr  tau(  41) = (  0.2545482  0.2517602  0.3044833  )
        42           Sr  tau(  42) = (  0.2545482  0.2517602  0.4987103  )
        43           Co  tau(  43) = (  0.4989925  0.0073160  0.5980003  )
        44           Co  tau(  44) = (  0.4998370  0.0064714  0.4015968  )
        45           O   tau(  45) = (  0.5048017  0.0015068  0.3099459  )
        46           O   tau(  46) = (  0.5048017  0.0015068  0.4932477  )
        47           O   tau(  47) = (  0.2621260  0.0059111  0.5980003  )
        48           O   tau(  48) = (  0.2591051  0.0041689  0.4015968  )
        49           O   tau(  49) = (  0.4264937  0.4264937  0.8534850  )
        50           H   tau(  50) = (  0.4264937  0.4264937  0.9026774  )

     number of k points=    10  Gaussian smearing, width (Ry)=  0.0700
                       cart. coord. in units 2pi/alat
        k(    1) = (   0.0000000   0.0000000   0.0000000), wk =   0.1250000
        k(    2) = (   0.0000000   0.2500000   0.0000000), wk =   0.2500000
        k(    3) = (   0.0000000  -0.5000000   0.0000000), wk =   0.1250000
        k(    4) = (   0.2500000   0.2500000   0.0000000), wk =   0.2500000
        k(    5) = (   0.2500000  -0.5000000   0.0000000), wk =   0.2500000
        k(    6) = (  -0.5000000  -0.5000000   0.0000000), wk =   0.1250000
        k(    7) = (   0.2500000   0.0000000   0.0000000), wk =   0.2500000
        k(    8) = (  -0.5000000   0.0000000   0.0000000), wk =   0.1250000
        k(    9) = (  -0.2500000   0.2500000   0.0000000), wk =   0.2500000
        k(   10) = (  -0.5000000   0.2500000   0.0000000), wk =   0.2500000

                       cryst. coord.
        k(    1) = (   0.0000000   0.0000000   0.0000000), wk =   0.1250000
        k(    2) = (   0.0000000   0.2500000   0.0000000), wk =   0.2500000
        k(    3) = (   0.0000000  -0.5000000   0.0000000), wk =   0.1250000
        k(    4) = (   0.2500000   0.2500000   0.0000000), wk =   0.2500000
        k(    5) = (   0.2500000  -0.5000000   0.0000000), wk =   0.2500000
        k(    6) = (  -0.5000000  -0.5000000   0.0000000), wk =   0.1250000
        k(    7) = (   0.2500000   0.0000000   0.0000000), wk =   0.2500000
        k(    8) = (  -0.5000000   0.0000000   0.0000000), wk =   0.1250000
        k(    9) = (  -0.2500000   0.2500000   0.0000000), wk =   0.2500000
        k(   10) = (  -0.5000000   0.2500000   0.0000000), wk =   0.2500000

     Dense  grid:  1474595 G-vectors     FFT dimensions: ( 108, 108, 270)

     Smooth grid:   521381 G-vectors     FFT dimensions: (  75,  75, 192)

     Dynamical RAM for                 wfc:      10.73 MB

     Dynamical RAM for     wfc (w. buffer):      64.38 MB

     Dynamical RAM for           str. fact:       3.75 MB

     Dynamical RAM for           local pot:       0.00 MB

     Dynamical RAM for          nlocal pot:      24.61 MB

     Dynamical RAM for                qrad:       7.03 MB

     Dynamical RAM for          rho,v,vnew:       6.02 MB

     Dynamical RAM for               rhoin:       2.01 MB

     Dynamical RAM for            rho*nmix:      15.00 MB

     Dynamical RAM for           G-vectors:       3.68 MB

     Dynamical RAM for          h,s,v(r/c):       1.35 MB

     Dynamical RAM for          <psi|beta>:       2.35 MB

     Dynamical RAM for                 psi:      21.46 MB

     Dynamical RAM for                hpsi:      21.46 MB

     Dynamical RAM for                spsi:      21.46 MB

     Dynamical RAM for      wfcinit/wfcrot:      34.49 MB

     Dynamical RAM for           addusdens:     101.26 MB

     Estimated static dynamical RAM per process >     121.50 MB

     Estimated max dynamical RAM per process >     237.76 MB

     Estimated total dynamical RAM >      10.79 GB

     Check: negative core charge=   -0.000004

     Initial potential from superposition of free atoms

     starting charge     422.5961, renormalised to     431.0000

     negative rho (up, down):  7.820E-01 0.000E+00
     Starting wfcs are  377 randomized atomic wfcs
     Checking if some PAW data can be deallocated... 
       PAW data deallocated on   19 nodes for type:  2

     total cpu time spent up to now is        9.0 secs

     Self-consistent Calculation

     iteration #  1     ecut=    60.00 Ry     beta= 0.15
     Davidson diagonalization with overlap

---- Real-time Memory Report at c_bands before calling an iterative solver
             0 MiB given to the printing process from OS
             0 MiB allocation reported by mallinfo(arena+hblkhd)
         23982 MiB available memory on the node where the printing process lives
------------------
     ethr =  1.00E-02,  avg # of iterations =  2.0

     negative rho (up, down):  7.714E-01 0.000E+00

     total cpu time spent up to now is       25.5 secs

     total energy              =   -4446.60643501 Ry
     estimated scf accuracy    <      44.89284760 Ry

     iteration #  2     ecut=    60.00 Ry     beta= 0.15
     Davidson diagonalization with overlap

---- Real-time Memory Report at c_bands before calling an iterative solver
             0 MiB given to the printing process from OS
             0 MiB allocation reported by mallinfo(arena+hblkhd)
         24259 MiB available memory on the node where the printing process lives
------------------
     ethr =  1.00E-02,  avg # of iterations =  1.0

     negative rho (up, down):  7.581E-01 0.000E+00

     total cpu time spent up to now is       39.9 secs

     total energy              =   -4443.25951420 Ry
     estimated scf accuracy    <      29.56703446 Ry

     iteration #  3     ecut=    60.00 Ry     beta= 0.15
     Davidson diagonalization with overlap

---- Real-time Memory Report at c_bands before calling an iterative solver
             0 MiB given to the printing process from OS
             0 MiB allocation reported by mallinfo(arena+hblkhd)
         23417 MiB available memory on the node where the printing process lives
------------------
     ethr =  6.86E-03,  avg # of iterations =  1.0

     negative rho (up, down):  7.553E-01 0.000E+00

     total cpu time spent up to now is       54.6 secs

     total energy              =   -4444.25974990 Ry
     estimated scf accuracy    <      29.01764586 Ry

     iteration #  4     ecut=    60.00 Ry     beta= 0.15
     Davidson diagonalization with overlap

---- Real-time Memory Report at c_bands before calling an iterative solver
             0 MiB given to the printing process from OS
             0 MiB allocation reported by mallinfo(arena+hblkhd)
         23396 MiB available memory on the node where the printing process lives
------------------
     ethr =  6.73E-03,  avg # of iterations =  1.0

     negative rho (up, down):  7.495E-01 0.000E+00

     total cpu time spent up to now is       69.3 secs

     total energy              =   -4443.02245938 Ry
     estimated scf accuracy    <      21.12265513 Ry

     iteration #  5     ecut=    60.00 Ry     beta= 0.15
     Davidson diagonalization with overlap

---- Real-time Memory Report at c_bands before calling an iterative solver
             0 MiB given to the printing process from OS
             0 MiB allocation reported by mallinfo(arena+hblkhd)
         23377 MiB available memory on the node where the printing process lives
------------------
     ethr =  4.90E-03,  avg # of iterations =  1.0

     negative rho (up, down):  7.403E-01 0.000E+00

     total cpu time spent up to now is       84.3 secs

     total energy              =   -4442.54766709 Ry
     estimated scf accuracy    <      10.66478387 Ry

     iteration #  6     ecut=    60.00 Ry     beta= 0.15
     Davidson diagonalization with overlap

---- Real-time Memory Report at c_bands before calling an iterative solver
             0 MiB given to the printing process from OS
             0 MiB allocation reported by mallinfo(arena+hblkhd)
         23359 MiB available memory on the node where the printing process lives
------------------
     ethr =  2.47E-03,  avg # of iterations =  1.1

     negative rho (up, down):  7.430E-01 0.000E+00

     total cpu time spent up to now is       99.1 secs

     total energy              =   -4442.80062663 Ry
     estimated scf accuracy    <       4.90535612 Ry

     iteration #  7     ecut=    60.00 Ry     beta= 0.15
     Davidson diagonalization with overlap

---- Real-time Memory Report at c_bands before calling an iterative solver
             0 MiB given to the printing process from OS
             0 MiB allocation reported by mallinfo(arena+hblkhd)
         23343 MiB available memory on the node where the printing process lives
------------------
     ethr =  1.14E-03,  avg # of iterations =  1.7

     negative rho (up, down):  7.640E-01 0.000E+00

     total cpu time spent up to now is      114.3 secs

     total energy              =   -4441.67624080 Ry
     estimated scf accuracy    <       3.92327346 Ry

     iteration #  8     ecut=    60.00 Ry     beta= 0.15
     Davidson diagonalization with overlap

---- Real-time Memory Report at c_bands before calling an iterative solver
             0 MiB given to the printing process from OS
             0 MiB allocation reported by mallinfo(arena+hblkhd)
         23316 MiB available memory on the node where the printing process lives
------------------
     ethr =  9.10E-04,  avg # of iterations =  5.0

     negative rho (up, down):  7.724E-01 0.000E+00

     total cpu time spent up to now is      134.1 secs

     total energy              =   -4441.37841305 Ry
     estimated scf accuracy    <      18.16350875 Ry

     iteration #  9     ecut=    60.00 Ry     beta= 0.15
     Davidson diagonalization with overlap

---- Real-time Memory Report at c_bands before calling an iterative solver
             0 MiB given to the printing process from OS
             0 MiB allocation reported by mallinfo(arena+hblkhd)
         23152 MiB available memory on the node where the printing process lives
------------------
     ethr =  9.10E-04,  avg # of iterations =  9.7

     negative rho (up, down):  7.701E-01 0.000E+00

     total cpu time spent up to now is      155.9 secs

     total energy              =   -4441.76359772 Ry
     estimated scf accuracy    <       2.79020312 Ry

     iteration # 10     ecut=    60.00 Ry     beta= 0.15
     Davidson diagonalization with overlap

---- Real-time Memory Report at c_bands before calling an iterative solver
             0 MiB given to the printing process from OS
             0 MiB allocation reported by mallinfo(arena+hblkhd)
         22828 MiB available memory on the node where the printing process lives
------------------
     ethr =  6.47E-04,  avg # of iterations =  1.4

     negative rho (up, down):  7.771E-01 0.000E+00

     total cpu time spent up to now is      171.5 secs

     total energy              =   -4441.90049452 Ry
     estimated scf accuracy    <       1.29029835 Ry

     iteration # 11     ecut=    60.00 Ry     beta= 0.15
     Davidson diagonalization with overlap

---- Real-time Memory Report at c_bands before calling an iterative solver
             0 MiB given to the printing process from OS
             0 MiB allocation reported by mallinfo(arena+hblkhd)
         22748 MiB available memory on the node where the printing process lives
------------------
     ethr =  2.99E-04,  avg # of iterations =  2.4

     negative rho (up, down):  8.063E-01 0.000E+00

     total cpu time spent up to now is      188.2 secs

     total energy              =   -4441.71345483 Ry
     estimated scf accuracy    <       1.37129712 Ry

     iteration # 12     ecut=    60.00 Ry     beta= 0.15
     Davidson diagonalization with overlap

---- Real-time Memory Report at c_bands before calling an iterative solver
             0 MiB given to the printing process from OS
             0 MiB allocation reported by mallinfo(arena+hblkhd)
         22754 MiB available memory on the node where the printing process lives
------------------
     ethr =  2.99E-04,  avg # of iterations =  6.6

     negative rho (up, down):  8.132E-01 0.000E+00

     total cpu time spent up to now is      207.2 secs

     total energy              =   -4441.85266795 Ry
     estimated scf accuracy    <       1.15298827 Ry

     iteration # 13     ecut=    60.00 Ry     beta= 0.15
     Davidson diagonalization with overlap

---- Real-time Memory Report at c_bands before calling an iterative solver
             0 MiB given to the printing process from OS
             0 MiB allocation reported by mallinfo(arena+hblkhd)
         22727 MiB available memory on the node where the printing process lives
------------------
     ethr =  2.68E-04,  avg # of iterations =  4.5

     negative rho (up, down):  8.176E-01 0.000E+00

     total cpu time spent up to now is      224.8 secs

     total energy              =   -4441.78369151 Ry
     estimated scf accuracy    <       0.75353836 Ry

     iteration # 14     ecut=    60.00 Ry     beta= 0.15
     Davidson diagonalization with overlap

---- Real-time Memory Report at c_bands before calling an iterative solver
             0 MiB given to the printing process from OS
             0 MiB allocation reported by mallinfo(arena+hblkhd)
         22722 MiB available memory on the node where the printing process lives
------------------
     c_bands:  2 eigenvalues not converged
     ethr =  1.75E-04,  avg # of iterations =  7.2

     negative rho (up, down):  8.249E-01 0.000E+00

     total cpu time spent up to now is      243.5 secs

     total energy              =   -4441.73213332 Ry
     estimated scf accuracy    <       0.35782386 Ry

     iteration # 15     ecut=    60.00 Ry     beta= 0.15
     Davidson diagonalization with overlap

---- Real-time Memory Report at c_bands before calling an iterative solver
             0 MiB given to the printing process from OS
             0 MiB allocation reported by mallinfo(arena+hblkhd)
         22716 MiB available memory on the node where the printing process lives
------------------
     c_bands:  1 eigenvalues not converged
     ethr =  8.30E-05,  avg # of iterations = 13.3

     negative rho (up, down):  8.338E-01 0.000E+00

     total cpu time spent up to now is      266.5 secs

     total energy              =   -4441.72325559 Ry
     estimated scf accuracy    <       0.33266665 Ry

     iteration # 16     ecut=    60.00 Ry     beta= 0.15
     Davidson diagonalization with overlap

---- Real-time Memory Report at c_bands before calling an iterative solver
             0 MiB given to the printing process from OS
             0 MiB allocation reported by mallinfo(arena+hblkhd)
         22717 MiB available memory on the node where the printing process lives
------------------
     ethr =  7.72E-05,  avg # of iterations =  4.4

     negative rho (up, down):  8.304E-01 0.000E+00

     total cpu time spent up to now is      284.3 secs

     total energy              =   -4441.70845696 Ry
     estimated scf accuracy    <       0.29859495 Ry

     iteration # 17     ecut=    60.00 Ry     beta= 0.15
     Davidson diagonalization with overlap

---- Real-time Memory Report at c_bands before calling an iterative solver
             0 MiB given to the printing process from OS
             0 MiB allocation reported by mallinfo(arena+hblkhd)
         22695 MiB available memory on the node where the printing process lives
------------------
     c_bands:  1 eigenvalues not converged
     ethr =  6.93E-05,  avg # of iterations =  3.0

     negative rho (up, down):  8.024E-01 0.000E+00

     total cpu time spent up to now is      300.6 secs

     total energy              =   -4441.67788122 Ry
     estimated scf accuracy    <       0.17471397 Ry

     iteration # 18     ecut=    60.00 Ry     beta= 0.15
     Davidson diagonalization with overlap

---- Real-time Memory Report at c_bands before calling an iterative solver
             0 MiB given to the printing process from OS
             0 MiB allocation reported by mallinfo(arena+hblkhd)
         22698 MiB available memory on the node where the printing process lives
------------------
     ethr =  4.05E-05,  avg # of iterations =  9.0

     negative rho (up, down):  8.276E-01 0.000E+00

     total cpu time spent up to now is      321.5 secs

     total energy              =   -4441.66411981 Ry
     estimated scf accuracy    <       0.17530079 Ry

     iteration # 19     ecut=    60.00 Ry     beta= 0.15
     Davidson diagonalization with overlap

---- Real-time Memory Report at c_bands before calling an iterative solver
             0 MiB given to the printing process from OS
             0 MiB allocation reported by mallinfo(arena+hblkhd)
         22674 MiB available memory on the node where the printing process lives
------------------
     ethr =  4.05E-05,  avg # of iterations =  8.0

     negative rho (up, down):  8.373E-01 0.000E+00

     total cpu time spent up to now is      342.1 secs

     total energy              =   -4441.66186590 Ry
     estimated scf accuracy    <       0.06408908 Ry

     iteration # 20     ecut=    60.00 Ry     beta= 0.15
     Davidson diagonalization with overlap

---- Real-time Memory Report at c_bands before calling an iterative solver
             0 MiB given to the printing process from OS
             0 MiB allocation reported by mallinfo(arena+hblkhd)
         22656 MiB available memory on the node where the printing process lives
------------------
     ethr =  1.49E-05,  avg # of iterations =  9.6

     negative rho (up, down):  8.170E-01 0.000E+00

     total cpu time spent up to now is      363.6 secs

     total energy              =   -4441.66342929 Ry
     estimated scf accuracy    <       0.02976402 Ry

     iteration # 21     ecut=    60.00 Ry     beta= 0.15
     Davidson diagonalization with overlap

---- Real-time Memory Report at c_bands before calling an iterative solver
             0 MiB given to the printing process from OS
             0 MiB allocation reported by mallinfo(arena+hblkhd)
         22633 MiB available memory on the node where the printing process lives
------------------
     ethr =  6.91E-06,  avg # of iterations =  5.1

     negative rho (up, down):  8.118E-01 0.000E+00

     total cpu time spent up to now is      381.6 secs

     total energy              =   -4441.66159884 Ry
     estimated scf accuracy    <       0.02613015 Ry

     iteration # 22     ecut=    60.00 Ry     beta= 0.15
     Davidson diagonalization with overlap

---- Real-time Memory Report at c_bands before calling an iterative solver
             0 MiB given to the printing process from OS
             0 MiB allocation reported by mallinfo(arena+hblkhd)
         22713 MiB available memory on the node where the printing process lives
------------------
     ethr =  6.06E-06,  avg # of iterations =  2.0

     negative rho (up, down):  7.936E-01 0.000E+00

     total cpu time spent up to now is      398.0 secs

     total energy              =   -4441.65690378 Ry
     estimated scf accuracy    <       0.01999219 Ry

     iteration # 23     ecut=    60.00 Ry     beta= 0.15
     Davidson diagonalization with overlap

---- Real-time Memory Report at c_bands before calling an iterative solver
             0 MiB given to the printing process from OS
             0 MiB allocation reported by mallinfo(arena+hblkhd)
         22641 MiB available memory on the node where the printing process lives
------------------
     ethr =  4.64E-06,  avg # of iterations = 10.9

     negative rho (up, down):  8.062E-01 0.000E+00

     total cpu time spent up to now is      420.3 secs

     total energy              =   -4441.65652113 Ry
     estimated scf accuracy    <       0.01041834 Ry

     iteration # 24     ecut=    60.00 Ry     beta= 0.15
     Davidson diagonalization with overlap

---- Real-time Memory Report at c_bands before calling an iterative solver
             0 MiB given to the printing process from OS
             0 MiB allocation reported by mallinfo(arena+hblkhd)
         22609 MiB available memory on the node where the printing process lives
------------------
     ethr =  2.42E-06,  avg # of iterations = 14.3

     negative rho (up, down):  8.054E-01 0.000E+00

     total cpu time spent up to now is      446.1 secs

     total energy              =   -4441.65668430 Ry
     estimated scf accuracy    <       0.00426253 Ry

     iteration # 25     ecut=    60.00 Ry     beta= 0.15
     Davidson diagonalization with overlap

---- Real-time Memory Report at c_bands before calling an iterative solver
             0 MiB given to the printing process from OS
             0 MiB allocation reported by mallinfo(arena+hblkhd)
         22510 MiB available memory on the node where the printing process lives
------------------
     ethr =  9.89E-07,  avg # of iterations =  5.9

     negative rho (up, down):  7.990E-01 0.000E+00

     total cpu time spent up to now is      465.1 secs

     total energy              =   -4441.65620568 Ry
     estimated scf accuracy    <       0.00234696 Ry

     iteration # 26     ecut=    60.00 Ry     beta= 0.15
     Davidson diagonalization with overlap

---- Real-time Memory Report at c_bands before calling an iterative solver
             0 MiB given to the printing process from OS
             0 MiB allocation reported by mallinfo(arena+hblkhd)
         22508 MiB available memory on the node where the printing process lives
------------------
     c_bands:  2 eigenvalues not converged
     ethr =  5.45E-07,  avg # of iterations = 14.2

     negative rho (up, down):  7.976E-01 0.000E+00

     total cpu time spent up to now is      490.4 secs

     total energy              =   -4441.65620780 Ry
     estimated scf accuracy    <       0.00119731 Ry

     iteration # 27     ecut=    60.00 Ry     beta= 0.15
     Davidson diagonalization with overlap

---- Real-time Memory Report at c_bands before calling an iterative solver
             0 MiB given to the printing process from OS
             0 MiB allocation reported by mallinfo(arena+hblkhd)
         22499 MiB available memory on the node where the printing process lives
------------------
     ethr =  2.78E-07,  avg # of iterations =  9.5

     negative rho (up, down):  7.968E-01 0.000E+00

     total cpu time spent up to now is      511.3 secs

     total energy              =   -4441.65611143 Ry
     estimated scf accuracy    <       0.00051961 Ry

     iteration # 28     ecut=    60.00 Ry     beta= 0.15
     Davidson diagonalization with overlap

---- Real-time Memory Report at c_bands before calling an iterative solver
             0 MiB given to the printing process from OS
             0 MiB allocation reported by mallinfo(arena+hblkhd)
         22504 MiB available memory on the node where the printing process lives
------------------
     ethr =  1.21E-07,  avg # of iterations =  5.2

     negative rho (up, down):  7.963E-01 0.000E+00

     total cpu time spent up to now is      532.3 secs

     total energy              =   -4441.65616206 Ry
     estimated scf accuracy    <       0.00016152 Ry

     iteration # 29     ecut=    60.00 Ry     beta= 0.15
     Davidson diagonalization with overlap

---- Real-time Memory Report at c_bands before calling an iterative solver
             0 MiB given to the printing process from OS
             0 MiB allocation reported by mallinfo(arena+hblkhd)
         22487 MiB available memory on the node where the printing process lives
------------------
     ethr =  3.75E-08,  avg # of iterations =  2.1

     negative rho (up, down):  7.951E-01 0.000E+00

     total cpu time spent up to now is      549.4 secs

     total energy              =   -4441.65614470 Ry
     estimated scf accuracy    <       0.00010272 Ry

     iteration # 30     ecut=    60.00 Ry     beta= 0.15
     Davidson diagonalization with overlap

---- Real-time Memory Report at c_bands before calling an iterative solver
             0 MiB given to the printing process from OS
             0 MiB allocation reported by mallinfo(arena+hblkhd)
         22504 MiB available memory on the node where the printing process lives
------------------
     ethr =  2.38E-08,  avg # of iterations =  2.2

     negative rho (up, down):  7.932E-01 0.000E+00

     total cpu time spent up to now is      566.3 secs

     total energy              =   -4441.65612749 Ry
     estimated scf accuracy    <       0.00006446 Ry

     iteration # 31     ecut=    60.00 Ry     beta= 0.15
     Davidson diagonalization with overlap

---- Real-time Memory Report at c_bands before calling an iterative solver
             0 MiB given to the printing process from OS
             0 MiB allocation reported by mallinfo(arena+hblkhd)
         22492 MiB available memory on the node where the printing process lives
------------------
     ethr =  1.50E-08,  avg # of iterations =  4.0

     negative rho (up, down):  7.928E-01 0.000E+00

     total cpu time spent up to now is      584.4 secs

     total energy              =   -4441.65613353 Ry
     estimated scf accuracy    <       0.00002136 Ry

     iteration # 32     ecut=    60.00 Ry     beta= 0.15
     Davidson diagonalization with overlap

---- Real-time Memory Report at c_bands before calling an iterative solver
             0 MiB given to the printing process from OS
             0 MiB allocation reported by mallinfo(arena+hblkhd)
         22505 MiB available memory on the node where the printing process lives
------------------
     ethr =  4.96E-09,  avg # of iterations =  2.1

     negative rho (up, down):  7.928E-01 0.000E+00

     total cpu time spent up to now is      601.6 secs

     total energy              =   -4441.65613515 Ry
     estimated scf accuracy    <       0.00000639 Ry

     iteration # 33     ecut=    60.00 Ry     beta= 0.15
     Davidson diagonalization with overlap

---- Real-time Memory Report at c_bands before calling an iterative solver
             0 MiB given to the printing process from OS
             0 MiB allocation reported by mallinfo(arena+hblkhd)
         22526 MiB available memory on the node where the printing process lives
------------------
     ethr =  1.48E-09,  avg # of iterations =  2.0

     negative rho (up, down):  7.927E-01 0.000E+00

     total cpu time spent up to now is      618.6 secs

     total energy              =   -4441.65613688 Ry
     estimated scf accuracy    <       0.00000376 Ry

     iteration # 34     ecut=    60.00 Ry     beta= 0.15
     Davidson diagonalization with overlap

---- Real-time Memory Report at c_bands before calling an iterative solver
             0 MiB given to the printing process from OS
             0 MiB allocation reported by mallinfo(arena+hblkhd)
         22517 MiB available memory on the node where the printing process lives
------------------
     ethr =  8.72E-10,  avg # of iterations =  2.2

     negative rho (up, down):  7.926E-01 0.000E+00

     total cpu time spent up to now is      635.5 secs

     total energy              =   -4441.65613864 Ry
     estimated scf accuracy    <       0.00000218 Ry

     iteration # 35     ecut=    60.00 Ry     beta= 0.15
     Davidson diagonalization with overlap

---- Real-time Memory Report at c_bands before calling an iterative solver
             0 MiB given to the printing process from OS
             0 MiB allocation reported by mallinfo(arena+hblkhd)
         22519 MiB available memory on the node where the printing process lives
------------------
     ethr =  5.06E-10,  avg # of iterations =  2.9

     negative rho (up, down):  7.925E-01 0.000E+00

     total cpu time spent up to now is      652.9 secs

     total energy              =   -4441.65614028 Ry
     estimated scf accuracy    <       0.00000084 Ry

     iteration # 36     ecut=    60.00 Ry     beta= 0.15
     Davidson diagonalization with overlap

---- Real-time Memory Report at c_bands before calling an iterative solver
             0 MiB given to the printing process from OS
             0 MiB allocation reported by mallinfo(arena+hblkhd)
         22530 MiB available memory on the node where the printing process lives
------------------
     ethr =  1.95E-10,  avg # of iterations =  4.0

     negative rho (up, down):  7.925E-01 0.000E+00

     total cpu time spent up to now is      671.2 secs

     total energy              =   -4441.65614059 Ry
     estimated scf accuracy    <       0.00000032 Ry

     iteration # 37     ecut=    60.00 Ry     beta= 0.15
     Davidson diagonalization with overlap

---- Real-time Memory Report at c_bands before calling an iterative solver
             0 MiB given to the printing process from OS
             0 MiB allocation reported by mallinfo(arena+hblkhd)
         22519 MiB available memory on the node where the printing process lives
------------------
     ethr =  7.45E-11,  avg # of iterations =  2.8

     negative rho (up, down):  7.925E-01 0.000E+00

     total cpu time spent up to now is      688.4 secs

     total energy              =   -4441.65614068 Ry
     estimated scf accuracy    <       0.00000028 Ry

     iteration # 38     ecut=    60.00 Ry     beta= 0.15
     Davidson diagonalization with overlap

---- Real-time Memory Report at c_bands before calling an iterative solver
             0 MiB given to the printing process from OS
             0 MiB allocation reported by mallinfo(arena+hblkhd)
         22523 MiB available memory on the node where the printing process lives
------------------
     ethr =  6.58E-11,  avg # of iterations =  2.2

     negative rho (up, down):  7.925E-01 0.000E+00

     total cpu time spent up to now is      705.3 secs

     total energy              =   -4441.65614073 Ry
     estimated scf accuracy    <       0.00000019 Ry

     iteration # 39     ecut=    60.00 Ry     beta= 0.15
     Davidson diagonalization with overlap

---- Real-time Memory Report at c_bands before calling an iterative solver
             0 MiB given to the printing process from OS
             0 MiB allocation reported by mallinfo(arena+hblkhd)
         22526 MiB available memory on the node where the printing process lives
------------------
     ethr =  4.33E-11,  avg # of iterations =  2.4

     negative rho (up, down):  7.925E-01 0.000E+00

     total cpu time spent up to now is      722.6 secs

     total energy              =   -4441.65614074 Ry
     estimated scf accuracy    <       0.00000011 Ry

     iteration # 40     ecut=    60.00 Ry     beta= 0.15
     Davidson diagonalization with overlap

---- Real-time Memory Report at c_bands before calling an iterative solver
             0 MiB given to the printing process from OS
             0 MiB allocation reported by mallinfo(arena+hblkhd)
         22523 MiB available memory on the node where the printing process lives
------------------
     ethr =  2.44E-11,  avg # of iterations =  2.2

     negative rho (up, down):  7.925E-01 0.000E+00

     total cpu time spent up to now is      739.7 secs

     total energy              =   -4441.65614074 Ry
     estimated scf accuracy    <       0.00000007 Ry

     iteration # 41     ecut=    60.00 Ry     beta= 0.15
     Davidson diagonalization with overlap

---- Real-time Memory Report at c_bands before calling an iterative solver
             0 MiB given to the printing process from OS
             0 MiB allocation reported by mallinfo(arena+hblkhd)
         22530 MiB available memory on the node where the printing process lives
------------------
     ethr =  1.73E-11,  avg # of iterations =  2.2

     negative rho (up, down):  7.925E-01 0.000E+00

     total cpu time spent up to now is      757.1 secs

     total energy              =   -4441.65614074 Ry
     estimated scf accuracy    <       0.00000005 Ry

     iteration # 42     ecut=    60.00 Ry     beta= 0.15
     Davidson diagonalization with overlap

---- Real-time Memory Report at c_bands before calling an iterative solver
             0 MiB given to the printing process from OS
             0 MiB allocation reported by mallinfo(arena+hblkhd)
         22541 MiB available memory on the node where the printing process lives
------------------
     ethr =  1.08E-11,  avg # of iterations =  1.9

     negative rho (up, down):  7.925E-01 0.000E+00

     total cpu time spent up to now is      774.2 secs

     total energy              =   -4441.65614073 Ry
     estimated scf accuracy    <       0.00000003 Ry

     iteration # 43     ecut=    60.00 Ry     beta= 0.15
     Davidson diagonalization with overlap

---- Real-time Memory Report at c_bands before calling an iterative solver
             0 MiB given to the printing process from OS
             0 MiB allocation reported by mallinfo(arena+hblkhd)
         22553 MiB available memory on the node where the printing process lives
------------------
     ethr =  6.54E-12,  avg # of iterations =  2.9

     negative rho (up, down):  7.925E-01 0.000E+00

     total cpu time spent up to now is      792.2 secs

     total energy              =   -4441.65614072 Ry
     estimated scf accuracy    <       0.00000001 Ry

     iteration # 44     ecut=    60.00 Ry     beta= 0.15
     Davidson diagonalization with overlap

---- Real-time Memory Report at c_bands before calling an iterative solver
             0 MiB given to the printing process from OS
             0 MiB allocation reported by mallinfo(arena+hblkhd)
         22561 MiB available memory on the node where the printing process lives
------------------
     ethr =  3.25E-12,  avg # of iterations =  2.9

     negative rho (up, down):  7.925E-01 0.000E+00

     total cpu time spent up to now is      809.7 secs

     End of self-consistent calculation

          k = 0.0000 0.0000 0.0000 ( 65197 PWs)   bands (ev):

   -92.6910 -92.6391 -92.5450 -92.4988 -92.4423 -92.3983 -92.3798 -92.2575
   -56.0444 -56.0260 -55.9024 -55.8917 -55.8851 -55.8785 -55.8422 -55.8142
   -55.7983 -55.7982 -55.7904 -55.7485 -55.7303 -55.6929 -55.6715 -55.6415
   -55.6345 -55.5856 -55.5846 -55.5832 -55.5748 -55.5319 -55.5102 -55.4237
   -31.2684 -31.2489 -31.1072 -31.0977 -31.0203 -30.9533 -30.8533 -30.6109
   -29.8388 -29.7947 -29.7692 -29.6605 -15.0712 -15.0246 -14.9464 -14.8155
   -14.6224 -14.4967 -14.2092 -14.1890 -14.1597 -14.1146 -14.0648 -14.0552
   -14.0480 -14.0265 -14.0074 -13.9729 -13.9464 -13.9204 -13.7686 -13.5891
   -13.5548 -13.5262 -13.4938 -13.4770 -13.4185 -13.3820 -13.3129 -13.2410
   -13.1230 -13.1007 -13.0981 -13.0730 -13.0653 -13.0470 -12.9935 -12.9920
   -12.9705 -12.9456 -12.9134 -12.9030 -12.8891 -12.8743 -12.8386 -12.7879
   -12.7620 -12.7440 -12.5778 -12.5702 -12.5435 -12.3327 -12.1872 -11.9965
   -11.9120 -11.8516 -11.7778 -11.7666 -11.7434 -11.7258 -11.6622 -11.6450
   -11.6103 -11.5818 -11.4690 -11.3897 -11.3860  -2.9310  -2.6991  -2.4690
    -2.3226  -2.2593  -2.1177  -1.8101  -1.7958  -1.7767  -1.6921  -1.6725
    -1.6040  -1.5876  -1.5457  -1.5043  -1.3212  -1.1037  -1.0909  -1.0657
    -0.9209  -0.9064  -0.8594  -0.8406  -0.7951  -0.7780  -0.7240  -0.6969
    -0.6200  -0.6112  -0.5368  -0.4040  -0.3924  -0.3629  -0.2824  -0.2534
    -0.2470  -0.1925  -0.1176  -0.0510  -0.0211   0.0086   0.1051   0.1369
     0.1936   0.2090   0.2397   0.4847   0.4983   0.6701   0.7383   0.8061
     0.8613   0.9379   0.9492   0.9619   1.0338   1.0613   1.0939   1.1537
     1.2838   1.3429   1.3646   1.3849   1.4009   1.4609   1.5316   1.6425
     1.6520   1.7178   1.7302   1.7734   1.7862   1.7999   1.8635   1.9169
     1.9249   1.9711   1.9927   2.0393   2.1709   2.2649   2.3014   2.3071
     2.4554   2.4708   2.4726   2.4916   2.5225   2.5465   2.6322   2.6680
     2.6934   2.7123   2.7275   2.8099   2.9171   2.9503   2.9625   2.9678
     3.0352   3.0397   3.0632   3.0711   3.0799   3.0906   3.0995   3.1130
     3.1199   3.1309   3.1394   3.1491   3.1671   3.1880   3.1930   3.2056
     3.2345   3.3471   3.4230   4.1190   4.4452   4.7768   4.8726   5.0655
     5.7697   5.9560   5.9955   6.0121   6.3240   6.3710   6.4885   6.4974
     6.7425   7.0105   7.1065   7.3256   7.4891   7.6167   7.6641   7.6726
     7.7116   7.8367   7.9358   8.0658   8.1209   8.1856   8.4056   8.4915
     8.6922   8.8081   8.8901

     occupation numbers 
     1.0000   1.0000   1.0000   1.0000   1.0000   1.0000   1.0000   1.0000
     1.0000   1.0000   1.0000   1.0000   1.0000   1.0000   1.0000   1.0000
     1.0000   1.0000   1.0000   1.0000   1.0000   1.0000   1.0000   1.0000
     1.0000   1.0000   1.0000   1.0000   1.0000   1.0000   1.0000   1.0000
     1.0000   1.0000   1.0000   1.0000   1.0000   1.0000   1.0000   1.0000
     1.0000   1.0000   1.0000   1.0000   1.0000   1.0000   1.0000   1.0000
     1.0000   1.0000   1.0000   1.0000   1.0000   1.0000   1.0000   1.0000
     1.0000   1.0000   1.0000   1.0000   1.0000   1.0000   1.0000   1.0000
     1.0000   1.0000   1.0000   1.0000   1.0000   1.0000   1.0000   1.0000
     1.0000   1.0000   1.0000   1.0000   1.0000   1.0000   1.0000   1.0000
     1.0000   1.0000   1.0000   1.0000   1.0000   1.0000   1.0000   1.0000
     1.0000   1.0000   1.0000   1.0000   1.0000   1.0000   1.0000   1.0000
     1.0000   1.0000   1.0000   1.0000   1.0000   1.0000   1.0000   1.0000
     1.0000   1.0000   1.0000   1.0000   1.0000   1.0000   1.0000   1.0000
     1.0000   1.0000   1.0000   1.0000   1.0000   1.0000   1.0000   1.0000
     1.0000   1.0000   1.0000   1.0000   1.0000   1.0000   1.0000   1.0000
     1.0000   1.0000   1.0000   1.0000   1.0000   1.0000   1.0000   1.0000
     1.0000   1.0000   1.0000   1.0000   1.0000   1.0000   1.0000   1.0000
     1.0000   1.0000   1.0000   1.0000   1.0000   1.0000   1.0000   1.0000
     1.0000   1.0000   1.0000   1.0000   1.0000   1.0000   0.9999   0.9999
     0.9999   0.9998   0.9998   0.9998   0.9997   0.9996   0.9996   0.9994
     0.9988   0.9985   0.9983   0.9981   0.9980   0.9973   0.9963   0.9941
     0.9938   0.9919   0.9915   0.9899   0.9893   0.9888   0.9856   0.9825
     0.9820   0.9787   0.9770   0.9730   0.9583   0.9442   0.9379   0.9368
     0.9047   0.9007   0.9003   0.8952   0.8867   0.8797   0.8522   0.8396
     0.8302   0.8230   0.8171   0.7829   0.7334   0.7169   0.7107   0.7081
     0.6728   0.6703   0.6576   0.6533   0.6485   0.6426   0.6376   0.6301
     0.6262   0.6200   0.6152   0.6097   0.5994   0.5873   0.5845   0.5772
     0.5602   0.4938   0.4490   0.1227   0.0499   0.0162   0.0113   0.0051
     0.0002   0.0001   0.0000   0.0000   0.0000   0.0000   0.0000   0.0000
     0.0000   0.0000   0.0000   0.0000   0.0000   0.0000   0.0000   0.0000
     0.0000   0.0000   0.0000   0.0000   0.0000   0.0000   0.0000   0.0000
     0.0000   0.0000   0.0000

          k = 0.0000 0.2500 0.0000 ( 65257 PWs)   bands (ev):

   -92.6910 -92.6391 -92.5450 -92.4988 -92.4423 -92.3983 -92.3798 -92.2575
   -56.0444 -56.0260 -55.9024 -55.8917 -55.8851 -55.8785 -55.8422 -55.8142
   -55.7983 -55.7982 -55.7904 -55.7485 -55.7303 -55.6929 -55.6715 -55.6415
   -55.6345 -55.5856 -55.5846 -55.5832 -55.5748 -55.5319 -55.5102 -55.4237
   -31.2682 -31.2488 -31.1074 -31.0975 -31.0204 -30.9535 -30.8531 -30.6110
   -29.8382 -29.7944 -29.7699 -29.6608 -15.0348 -14.9983 -14.9211 -14.7862
   -14.6633 -14.4879 -14.3542 -14.1752 -14.1393 -14.1193 -14.0907 -14.0307
   -14.0238 -14.0091 -13.9918 -13.9535 -13.9341 -13.8390 -13.7995 -13.6378
   -13.6121 -13.5676 -13.5312 -13.4848 -13.4400 -13.3810 -13.3332 -13.2984
   -13.2318 -13.1667 -13.1382 -13.1003 -13.0898 -13.0547 -12.9789 -12.9550
   -12.9262 -12.9085 -12.8920 -12.8577 -12.8450 -12.8142 -12.7910 -12.7765
   -12.7110 -12.6795 -12.5536 -12.5105 -12.4473 -12.3940 -12.2384 -12.0506
   -11.9754 -11.8170 -11.7746 -11.7465 -11.7180 -11.7014 -11.6541 -11.6429
   -11.6204 -11.5865 -11.4833 -11.4312 -11.4207  -2.7956  -2.5748  -2.4366
    -2.2550  -2.2113  -2.0479  -1.8282  -1.7441  -1.7309  -1.6730  -1.5689
    -1.5546  -1.5221  -1.4936  -1.4502  -1.2524  -1.1259  -1.1156  -1.0902
    -1.0351  -1.0254  -0.9213  -0.8917  -0.8327  -0.8076  -0.7678  -0.7040
    -0.6767  -0.6446  -0.6109  -0.5943  -0.5618  -0.4881  -0.4384  -0.3718
    -0.2524  -0.2379  -0.1966  -0.0741  -0.0123   0.0158   0.0735   0.1218
     0.1475   0.1736   0.2434   0.5355   0.6197   0.6594   0.7396   0.7832
     0.8197   0.9189   0.9390   1.0385   1.0616   1.0876   1.2001   1.2970
     1.3191   1.3446   1.3591   1.3843   1.4475   1.4722   1.5022   1.5476
     1.5849   1.6152   1.7058   1.7373   1.7724   1.8200   1.8849   1.9269
     1.9461   1.9688   1.9857   2.0912   2.2150   2.2810   2.2972   2.3713
     2.4160   2.4512   2.4554   2.4803   2.5030   2.5284   2.5645   2.6470
     2.6884   2.7052   2.8753   2.8972   2.9317   2.9531   2.9683   2.9770
     2.9852   2.9931   3.0232   3.0250   3.0428   3.0472   3.0575   3.0764
     3.0883   3.0960   3.1176   3.1293   3.1338   3.1694   3.1857   3.2460
     3.6254   3.6473   3.8875   4.3115   4.4379   4.7262   5.0277   5.0805
     5.6569   5.8112   5.9331   5.9979   6.0938   6.1133   6.1937   6.6047
     6.8679   7.0530   7.1130   7.3388   7.4944   7.5087   7.6513   7.6675
     7.8578   7.9321   8.0368   8.1981   8.2374   8.3813   8.4181   8.4538
     8.5364   8.8016   8.9336

     occupation numbers 
     1.0000   1.0000   1.0000   1.0000   1.0000   1.0000   1.0000   1.0000
     1.0000   1.0000   1.0000   1.0000   1.0000   1.0000   1.0000   1.0000
     1.0000   1.0000   1.0000   1.0000   1.0000   1.0000   1.0000   1.0000
     1.0000   1.0000   1.0000   1.0000   1.0000   1.0000   1.0000   1.0000
     1.0000   1.0000   1.0000   1.0000   1.0000   1.0000   1.0000   1.0000
     1.0000   1.0000   1.0000   1.0000   1.0000   1.0000   1.0000   1.0000
     1.0000   1.0000   1.0000   1.0000   1.0000   1.0000   1.0000   1.0000
     1.0000   1.0000   1.0000   1.0000   1.0000   1.0000   1.0000   1.0000
     1.0000   1.0000   1.0000   1.0000   1.0000   1.0000   1.0000   1.0000
     1.0000   1.0000   1.0000   1.0000   1.0000   1.0000   1.0000   1.0000
     1.0000   1.0000   1.0000   1.0000   1.0000   1.0000   1.0000   1.0000
     1.0000   1.0000   1.0000   1.0000   1.0000   1.0000   1.0000   1.0000
     1.0000   1.0000   1.0000   1.0000   1.0000   1.0000   1.0000   1.0000
     1.0000   1.0000   1.0000   1.0000   1.0000   1.0000   1.0000   1.0000
     1.0000   1.0000   1.0000   1.0000   1.0000   1.0000   1.0000   1.0000
     1.0000   1.0000   1.0000   1.0000   1.0000   1.0000   1.0000   1.0000
     1.0000   1.0000   1.0000   1.0000   1.0000   1.0000   1.0000   1.0000
     1.0000   1.0000   1.0000   1.0000   1.0000   1.0000   1.0000   1.0000
     1.0000   1.0000   1.0000   1.0000   1.0000   1.0000   1.0000   1.0000
     1.0000   1.0000   1.0000   1.0000   1.0000   1.0000   0.9999   0.9999
     0.9999   0.9998   0.9998   0.9997   0.9996   0.9996   0.9992   0.9988
     0.9986   0.9985   0.9983   0.9981   0.9975   0.9972   0.9968   0.9961
     0.9954   0.9947   0.9923   0.9912   0.9899   0.9878   0.9844   0.9818
     0.9805   0.9789   0.9776   0.9678   0.9521   0.9415   0.9386   0.9241
     0.9142   0.9057   0.9046   0.8982   0.8921   0.8850   0.8742   0.8471
     0.8321   0.8258   0.7534   0.7430   0.7262   0.7155   0.7078   0.7033
     0.6991   0.6950   0.6792   0.6782   0.6687   0.6663   0.6608   0.6504
     0.6439   0.6396   0.6275   0.6209   0.6183   0.5980   0.5886   0.5535
     0.3340   0.3223   0.2067   0.0739   0.0510   0.0195   0.0060   0.0048
     0.0003   0.0001   0.0001   0.0000   0.0000   0.0000   0.0000   0.0000
     0.0000   0.0000   0.0000   0.0000   0.0000   0.0000   0.0000   0.0000
     0.0000   0.0000   0.0000   0.0000   0.0000   0.0000   0.0000   0.0000
     0.0000   0.0000   0.0000

          k = 0.0000-0.5000 0.0000 ( 65180 PWs)   bands (ev):

   -92.6910 -92.6391 -92.5450 -92.4988 -92.4423 -92.3983 -92.3798 -92.2575
   -56.0444 -56.0260 -55.9024 -55.8917 -55.8851 -55.8785 -55.8422 -55.8142
   -55.7983 -55.7982 -55.7904 -55.7485 -55.7303 -55.6929 -55.6715 -55.6415
   -55.6345 -55.5856 -55.5846 -55.5832 -55.5748 -55.5319 -55.5102 -55.4237
   -31.2680 -31.2487 -31.1076 -31.0973 -31.0205 -30.9537 -30.8530 -30.6112
   -29.8376 -29.7941 -29.7705 -29.6611 -14.9982 -14.9506 -14.8950 -14.7685
   -14.6834 -14.5494 -14.3891 -14.2737 -14.1475 -14.0755 -14.0310 -14.0262
   -13.9752 -13.9599 -13.9490 -13.9113 -13.8888 -13.8646 -13.8336 -13.7890
   -13.7458 -13.5731 -13.5147 -13.4897 -13.4469 -13.3622 -13.3489 -13.3062
   -13.2738 -13.2640 -13.2084 -13.1017 -13.0913 -13.0411 -12.9708 -12.9548
   -12.9363 -12.9190 -12.8726 -12.8412 -12.8045 -12.7808 -12.6959 -12.6830
   -12.6592 -12.6425 -12.5531 -12.5049 -12.3944 -12.3135 -12.2716 -12.1405
   -12.0879 -11.7715 -11.7686 -11.7414 -11.7039 -11.6697 -11.6586 -11.6163
   -11.6122 -11.5679 -11.5051 -11.4915 -11.4777  -2.5803  -2.5226  -2.3712
    -2.2999  -2.0169  -1.9349  -1.8061  -1.6702  -1.6313  -1.6122  -1.5353
    -1.5035  -1.4204  -1.3860  -1.3069  -1.2687  -1.2303  -1.2033  -1.1469
    -1.1104  -1.0900  -1.0603  -1.0247  -0.9915  -0.9587  -0.8479  -0.8040
    -0.7676  -0.7651  -0.6793  -0.6498  -0.6256  -0.5786  -0.4921  -0.4148
    -0.3263  -0.3017  -0.1698  -0.1581  -0.0200   0.0191   0.0570   0.0909
     0.2199   0.3212   0.4025   0.4714   0.4815   0.6094   0.6815   0.7494
     0.9006   0.9902   1.0243   1.0650   1.0775   1.1054   1.1251   1.1606
     1.1770   1.1958   1.3025   1.3594   1.3862   1.4087   1.6828   1.7182
     1.7391   1.8234   1.8414   1.8852   1.9093   1.9255   1.9447   1.9664
     1.9827   2.0132   2.0400   2.0706   2.0776   2.1080   2.1620   2.2523
     2.3009   2.4500   2.4686   2.4788   2.6132   2.6286   2.6376   2.6814
     2.6873   2.6949   2.7438   2.7560   2.8095   2.8315   2.9080   2.9208
     2.9939   2.9943   3.0204   3.0236   3.0399   3.0433   3.0470   3.0538
     3.0577   3.0707   3.0879   3.0898   3.1549   3.1585   3.1753   3.2326
     4.1312   4.1571   4.2297   4.2678   4.7405   4.9290   5.0338   5.1775
     5.4221   5.4724   5.5942   5.7345   6.0369   6.0573   6.3121   6.4640
     6.8597   6.9607   7.2313   7.2871   7.4006   7.4484   7.7586   7.7980
     7.9174   8.0584   8.0941   8.2973   8.3855   8.4290   8.4972   8.6781
     8.8216   8.8500   8.8785

     occupation numbers 
     1.0000   1.0000   1.0000   1.0000   1.0000   1.0000   1.0000   1.0000
     1.0000   1.0000   1.0000   1.0000   1.0000   1.0000   1.0000   1.0000
     1.0000   1.0000   1.0000   1.0000   1.0000   1.0000   1.0000   1.0000
     1.0000   1.0000   1.0000   1.0000   1.0000   1.0000   1.0000   1.0000
     1.0000   1.0000   1.0000   1.0000   1.0000   1.0000   1.0000   1.0000
     1.0000   1.0000   1.0000   1.0000   1.0000   1.0000   1.0000   1.0000
     1.0000   1.0000   1.0000   1.0000   1.0000   1.0000   1.0000   1.0000
     1.0000   1.0000   1.0000   1.0000   1.0000   1.0000   1.0000   1.0000
     1.0000   1.0000   1.0000   1.0000   1.0000   1.0000   1.0000   1.0000
     1.0000   1.0000   1.0000   1.0000   1.0000   1.0000   1.0000   1.0000
     1.0000   1.0000   1.0000   1.0000   1.0000   1.0000   1.0000   1.0000
     1.0000   1.0000   1.0000   1.0000   1.0000   1.0000   1.0000   1.0000
     1.0000   1.0000   1.0000   1.0000   1.0000   1.0000   1.0000   1.0000
     1.0000   1.0000   1.0000   1.0000   1.0000   1.0000   1.0000   1.0000
     1.0000   1.0000   1.0000   1.0000   1.0000   1.0000   1.0000   1.0000
     1.0000   1.0000   1.0000   1.0000   1.0000   1.0000   1.0000   1.0000
     1.0000   1.0000   1.0000   1.0000   1.0000   1.0000   1.0000   1.0000
     1.0000   1.0000   1.0000   1.0000   1.0000   1.0000   1.0000   1.0000
     1.0000   1.0000   1.0000   1.0000   1.0000   1.0000   1.0000   1.0000
     1.0000   1.0000   1.0000   1.0000   1.0000   1.0000   1.0000   0.9999
     0.9999   0.9998   0.9997   0.9996   0.9996   0.9995   0.9995   0.9994
     0.9993   0.9993   0.9987   0.9983   0.9981   0.9979   0.9930   0.9919
     0.9912   0.9877   0.9868   0.9844   0.9830   0.9819   0.9806   0.9791
     0.9778   0.9753   0.9729   0.9699   0.9692   0.9660   0.9594   0.9463
     0.9380   0.9060   0.9013   0.8986   0.8587   0.8535   0.8504   0.8347
     0.8325   0.8297   0.8107   0.8057   0.7831   0.7734   0.7378   0.7315
     0.6946   0.6944   0.6807   0.6790   0.6702   0.6684   0.6664   0.6628
     0.6606   0.6536   0.6441   0.6430   0.6064   0.6043   0.5947   0.5614
     0.1190   0.1116   0.0924   0.0834   0.0186   0.0090   0.0059   0.0031
     0.0010   0.0008   0.0004   0.0002   0.0000   0.0000   0.0000   0.0000
     0.0000   0.0000   0.0000   0.0000   0.0000   0.0000   0.0000   0.0000
     0.0000   0.0000   0.0000   0.0000   0.0000   0.0000   0.0000   0.0000
     0.0000   0.0000   0.0000

          k = 0.2500 0.2500 0.0000 ( 65198 PWs)   bands (ev):

   -92.6910 -92.6391 -92.5450 -92.4988 -92.4423 -92.3983 -92.3798 -92.2575
   -56.0444 -56.0260 -55.9024 -55.8917 -55.8851 -55.8785 -55.8422 -55.8142
   -55.7983 -55.7982 -55.7904 -55.7485 -55.7303 -55.6929 -55.6715 -55.6415
   -55.6345 -55.5856 -55.5846 -55.5832 -55.5748 -55.5319 -55.5102 -55.4237
   -31.2666 -31.2505 -31.1071 -31.0974 -31.0208 -30.9534 -30.8533 -30.6111
   -29.8372 -29.7954 -29.7695 -29.6612 -15.0058 -14.9635 -14.8929 -14.7759
   -14.6561 -14.5283 -14.4603 -14.2533 -14.0985 -14.0853 -14.0493 -14.0194
   -13.9951 -13.9658 -13.9503 -13.9353 -13.9017 -13.8302 -13.8137 -13.6529
   -13.6390 -13.6083 -13.5906 -13.5346 -13.4996 -13.4173 -13.4026 -13.2873
   -13.2556 -13.2193 -13.1333 -13.0932 -13.0504 -13.0272 -13.0081 -12.9682
   -12.9374 -12.9143 -12.9066 -12.8435 -12.7948 -12.7809 -12.7342 -12.7284
   -12.7042 -12.6506 -12.5560 -12.4797 -12.4425 -12.3389 -12.2675 -12.0764
   -12.0248 -11.7894 -11.7578 -11.7469 -11.7400 -11.6772 -11.6422 -11.6357
   -11.6004 -11.5929 -11.5000 -11.4593 -11.4422  -2.6573  -2.4490  -2.3303
    -2.2368  -2.1157  -2.0512  -1.8530  -1.7086  -1.6898  -1.6600  -1.5637
    -1.5325  -1.4375  -1.4091  -1.3592  -1.2295  -1.1817  -1.1075  -1.0936
    -1.0617  -1.0169  -0.9946  -0.9703  -0.9273  -0.9126  -0.8222  -0.7714
    -0.7045  -0.6557  -0.6240  -0.5777  -0.5624  -0.4992  -0.4496  -0.3913
    -0.3584  -0.2721  -0.2150  -0.1913  -0.1516  -0.0979   0.0056   0.0161
     0.0397   0.1282   0.1602   0.4209   0.5740   0.6050   0.6699   0.7156
     0.7745   0.8118   0.8825   0.9152   1.1856   1.2515   1.3262   1.3509
     1.3999   1.4292   1.4659   1.5040   1.5208   1.5487   1.5973   1.6012
     1.6161   1.6585   1.6961   1.7385   1.8140   1.8395   1.8518   1.8885
     1.9266   1.9699   1.9961   2.1275   2.1928   2.2297   2.2450   2.3113
     2.3769   2.4051   2.4409   2.4542   2.4668   2.4834   2.5101   2.5901
     2.6295   2.7180   2.8869   2.9036   2.9095   2.9269   2.9422   2.9540
     2.9669   2.9732   2.9837   2.9972   3.0092   3.0275   3.0339   3.0457
     3.0673   3.0796   3.0893   3.1205   3.4209   3.5139   3.5571   3.6298
     3.6617   3.8664   3.9641   4.3272   4.5198   4.7268   5.0023   5.1738
     5.6618   5.7131   5.7766   5.8474   5.9063   6.0852   6.1656   6.2218
     6.9047   6.9477   7.1121   7.2799   7.5592   7.6142   7.7220   7.8544
     7.8917   8.0287   8.1788   8.2107   8.2728   8.3509   8.4539   8.5095
     8.6201   8.6791   8.8818

     occupation numbers 
     1.0000   1.0000   1.0000   1.0000   1.0000   1.0000   1.0000   1.0000
     1.0000   1.0000   1.0000   1.0000   1.0000   1.0000   1.0000   1.0000
     1.0000   1.0000   1.0000   1.0000   1.0000   1.0000   1.0000   1.0000
     1.0000   1.0000   1.0000   1.0000   1.0000   1.0000   1.0000   1.0000
     1.0000   1.0000   1.0000   1.0000   1.0000   1.0000   1.0000   1.0000
     1.0000   1.0000   1.0000   1.0000   1.0000   1.0000   1.0000   1.0000
     1.0000   1.0000   1.0000   1.0000   1.0000   1.0000   1.0000   1.0000
     1.0000   1.0000   1.0000   1.0000   1.0000   1.0000   1.0000   1.0000
     1.0000   1.0000   1.0000   1.0000   1.0000   1.0000   1.0000   1.0000
     1.0000   1.0000   1.0000   1.0000   1.0000   1.0000   1.0000   1.0000
     1.0000   1.0000   1.0000   1.0000   1.0000   1.0000   1.0000   1.0000
     1.0000   1.0000   1.0000   1.0000   1.0000   1.0000   1.0000   1.0000
     1.0000   1.0000   1.0000   1.0000   1.0000   1.0000   1.0000   1.0000
     1.0000   1.0000   1.0000   1.0000   1.0000   1.0000   1.0000   1.0000
     1.0000   1.0000   1.0000   1.0000   1.0000   1.0000   1.0000   1.0000
     1.0000   1.0000   1.0000   1.0000   1.0000   1.0000   1.0000   1.0000
     1.0000   1.0000   1.0000   1.0000   1.0000   1.0000   1.0000   1.0000
     1.0000   1.0000   1.0000   1.0000   1.0000   1.0000   1.0000   1.0000
     1.0000   1.0000   1.0000   1.0000   1.0000   1.0000   1.0000   1.0000
     1.0000   1.0000   1.0000   1.0000   1.0000   1.0000   1.0000   1.0000
     0.9999   0.9999   0.9999   0.9998   0.9993   0.9990   0.9986   0.9984
     0.9980   0.9977   0.9973   0.9967   0.9965   0.9960   0.9951   0.9950
     0.9947   0.9936   0.9926   0.9912   0.9881   0.9869   0.9863   0.9842
     0.9819   0.9788   0.9767   0.9637   0.9553   0.9499   0.9475   0.9361
     0.9229   0.9167   0.9083   0.9050   0.9017   0.8974   0.8901   0.8662
     0.8531   0.8209   0.7479   0.7399   0.7371   0.7285   0.7209   0.7150
     0.7085   0.7053   0.6999   0.6929   0.6866   0.6769   0.6735   0.6672
     0.6554   0.6487   0.6433   0.6259   0.4502   0.3962   0.3717   0.3316
     0.3146   0.2158   0.1757   0.0707   0.0395   0.0195   0.0067   0.0032
     0.0003   0.0002   0.0001   0.0001   0.0001   0.0000   0.0000   0.0000
     0.0000   0.0000   0.0000   0.0000   0.0000   0.0000   0.0000   0.0000
     0.0000   0.0000   0.0000   0.0000   0.0000   0.0000   0.0000   0.0000
     0.0000   0.0000   0.0000

          k = 0.2500-0.5000 0.0000 ( 65138 PWs)   bands (ev):

   -92.6910 -92.6391 -92.5450 -92.4988 -92.4423 -92.3983 -92.3798 -92.2575
   -56.0444 -56.0260 -55.9024 -55.8917 -55.8851 -55.8785 -55.8422 -55.8142
   -55.7983 -55.7982 -55.7904 -55.7485 -55.7303 -55.6929 -55.6715 -55.6415
   -55.6345 -55.5856 -55.5846 -55.5832 -55.5748 -55.5319 -55.5102 -55.4237
   -31.2664 -31.2504 -31.1073 -31.0972 -31.0209 -30.9537 -30.8531 -30.6113
   -29.8366 -29.7951 -29.7701 -29.6615 -14.9674 -14.9237 -14.8518 -14.7389
   -14.7064 -14.5898 -14.4940 -14.3693 -14.0632 -14.0091 -13.9833 -13.9593
   -13.9483 -13.9445 -13.9319 -13.8952 -13.8768 -13.8470 -13.8100 -13.7840
   -13.7332 -13.6555 -13.6077 -13.5506 -13.5285 -13.4587 -13.4054 -13.3465
   -13.3208 -13.1974 -13.1327 -13.1134 -13.0325 -13.0084 -12.9815 -12.9668
   -12.9353 -12.9156 -12.9012 -12.8368 -12.7995 -12.7749 -12.7115 -12.6925
   -12.6465 -12.6156 -12.5571 -12.5115 -12.3651 -12.3110 -12.2391 -12.1323
   -12.0933 -11.7651 -11.7530 -11.7420 -11.7150 -11.6836 -11.6549 -11.6140
   -11.5859 -11.5642 -11.5182 -11.4928 -11.4819  -2.4381  -2.3744  -2.2449
    -2.1685  -2.0373  -1.9549  -1.8305  -1.6815  -1.6267  -1.6044  -1.5427
    -1.5299  -1.4311  -1.3656  -1.2805  -1.2299  -1.2204  -1.1591  -1.1175
    -1.0934  -1.0803  -1.0326  -0.9961  -0.9606  -0.9214  -0.9083  -0.8651
    -0.8353  -0.7930  -0.7616  -0.6954  -0.5932  -0.5550  -0.4746  -0.4066
    -0.3556  -0.3173  -0.2978  -0.2263  -0.0802  -0.0590   0.0315   0.0631
     0.0712   0.1156   0.1638   0.1896   0.2346   0.2899   0.5768   0.6955
     0.7258   0.7761   1.0581   1.0695   1.1581   1.1866   1.3481   1.3832
     1.4246   1.4494   1.4612   1.4829   1.5452   1.5937   1.6277   1.6998
     1.8179   1.8422   1.8615   1.8685   1.9083   1.9180   1.9403   1.9779
     1.9854   2.0052   2.0273   2.0480   2.0708   2.1052   2.1623   2.2077
     2.2918   2.4173   2.4675   2.4761   2.5658   2.5813   2.5995   2.6315
     2.6574   2.6836   2.7031   2.7172   2.7418   2.8367   2.8871   2.9058
     2.9090   2.9229   2.9435   2.9568   2.9768   2.9842   3.0181   3.0274
     3.0434   3.0507   3.0589   3.0699   3.5852   3.6143   3.7528   3.8120
     4.1404   4.1965   4.2269   4.3297   4.7611   4.9490   5.0702   5.1507
     5.3145   5.4410   5.6144   5.6470   5.7784   5.8007   6.3952   6.4212
     6.4970   6.5858   7.2785   7.3838   7.5693   7.7121   7.7860   7.8503
     7.8963   8.0497   8.2924   8.4054   8.4681   8.5463   8.5555   8.5788
     8.7090   8.7377   8.7824

     occupation numbers 
     1.0000   1.0000   1.0000   1.0000   1.0000   1.0000   1.0000   1.0000
     1.0000   1.0000   1.0000   1.0000   1.0000   1.0000   1.0000   1.0000
     1.0000   1.0000   1.0000   1.0000   1.0000   1.0000   1.0000   1.0000
     1.0000   1.0000   1.0000   1.0000   1.0000   1.0000   1.0000   1.0000
     1.0000   1.0000   1.0000   1.0000   1.0000   1.0000   1.0000   1.0000
     1.0000   1.0000   1.0000   1.0000   1.0000   1.0000   1.0000   1.0000
     1.0000   1.0000   1.0000   1.0000   1.0000   1.0000   1.0000   1.0000
     1.0000   1.0000   1.0000   1.0000   1.0000   1.0000   1.0000   1.0000
     1.0000   1.0000   1.0000   1.0000   1.0000   1.0000   1.0000   1.0000
     1.0000   1.0000   1.0000   1.0000   1.0000   1.0000   1.0000   1.0000
     1.0000   1.0000   1.0000   1.0000   1.0000   1.0000   1.0000   1.0000
     1.0000   1.0000   1.0000   1.0000   1.0000   1.0000   1.0000   1.0000
     1.0000   1.0000   1.0000   1.0000   1.0000   1.0000   1.0000   1.0000
     1.0000   1.0000   1.0000   1.0000   1.0000   1.0000   1.0000   1.0000
     1.0000   1.0000   1.0000   1.0000   1.0000   1.0000   1.0000   1.0000
     1.0000   1.0000   1.0000   1.0000   1.0000   1.0000   1.0000   1.0000
     1.0000   1.0000   1.0000   1.0000   1.0000   1.0000   1.0000   1.0000
     1.0000   1.0000   1.0000   1.0000   1.0000   1.0000   1.0000   1.0000
     1.0000   1.0000   1.0000   1.0000   1.0000   1.0000   1.0000   1.0000
     1.0000   1.0000   1.0000   1.0000   1.0000   1.0000   1.0000   1.0000
     0.9999   0.9999   0.9996   0.9996   0.9994   0.9993   0.9984   0.9981
     0.9977   0.9975   0.9973   0.9970   0.9961   0.9952   0.9944   0.9925
     0.9879   0.9868   0.9858   0.9854   0.9830   0.9824   0.9809   0.9782
     0.9776   0.9760   0.9741   0.9722   0.9699   0.9663   0.9594   0.9532
     0.9396   0.9139   0.9016   0.8993   0.8738   0.8690   0.8632   0.8525
     0.8434   0.8339   0.8266   0.8212   0.8114   0.7711   0.7478   0.7388
     0.7373   0.7305   0.7203   0.7136   0.7034   0.6996   0.6819   0.6770
     0.6684   0.6644   0.6600   0.6540   0.3560   0.3401   0.2683   0.2401
     0.1163   0.1008   0.0931   0.0702   0.0172   0.0083   0.0050   0.0035
     0.0017   0.0009   0.0004   0.0003   0.0001   0.0001   0.0000   0.0000
     0.0000   0.0000   0.0000   0.0000   0.0000   0.0000   0.0000   0.0000
     0.0000   0.0000   0.0000   0.0000   0.0000   0.0000   0.0000   0.0000
     0.0000   0.0000   0.0000

          k =-0.5000-0.5000 0.0000 ( 65132 PWs)   bands (ev):

   -92.6910 -92.6391 -92.5450 -92.4988 -92.4423 -92.3983 -92.3798 -92.2575
   -56.0444 -56.0260 -55.9024 -55.8917 -55.8851 -55.8785 -55.8422 -55.8142
   -55.7983 -55.7982 -55.7904 -55.7485 -55.7303 -55.6929 -55.6715 -55.6415
   -55.6345 -55.5856 -55.5846 -55.5832 -55.5748 -55.5319 -55.5102 -55.4237
   -31.2642 -31.2525 -31.1069 -31.0971 -31.0213 -30.9536 -30.8533 -30.6114
   -29.8356 -29.7961 -29.7697 -29.6620 -14.9200 -14.8965 -14.7784 -14.7646
   -14.6697 -14.6361 -14.6004 -14.4679 -13.9734 -13.9604 -13.9483 -13.9272
   -13.9103 -13.8905 -13.8729 -13.8502 -13.8385 -13.8211 -13.8165 -13.8007
   -13.7230 -13.7164 -13.6845 -13.6532 -13.6359 -13.5484 -13.4641 -13.3778
   -13.3731 -13.1481 -13.1108 -13.0403 -13.0160 -12.9945 -12.9808 -12.9742
   -12.9647 -12.9462 -12.8869 -12.8113 -12.7930 -12.7742 -12.7563 -12.7180
   -12.5983 -12.5898 -12.5614 -12.5278 -12.3391 -12.3073 -12.2068 -12.1243
   -12.1005 -11.7613 -11.7495 -11.7318 -11.7146 -11.6800 -11.6618 -11.6272
   -11.5657 -11.5466 -11.5408 -11.4907 -11.4877  -2.2134  -2.1380  -2.1301
    -2.0587  -2.0191  -1.9406  -1.8725  -1.7477  -1.6319  -1.6017  -1.5613
    -1.5046  -1.4333  -1.4178  -1.3475  -1.3059  -1.1892  -1.1579  -1.1114
    -1.0948  -1.0824  -1.0179  -0.9703  -0.9516  -0.9393  -0.8859  -0.8427
    -0.8245  -0.7139  -0.6561  -0.6084  -0.5588  -0.5339  -0.5209  -0.4854
    -0.4417  -0.4051  -0.3977  -0.3120  -0.2346  -0.1998  -0.1677  -0.0997
    -0.0312  -0.0260   0.0400   0.0607   0.0636   0.0738   0.5380   0.6559
     0.6587   0.6937   1.0834   1.0989   1.1259   1.1606   1.4335   1.4528
     1.4606   1.4967   1.6283   1.7223   1.7500   1.7871   1.8221   1.8297
     1.8418   1.8726   1.8872   1.9056   1.9305   1.9553   1.9636   1.9881
     2.0177   2.0247   2.0372   2.0825   2.1016   2.1174   2.1525   2.1803
     2.2444   2.3091   2.4607   2.4712   2.5808   2.6108   2.6312   2.6481
     2.6621   2.6901   2.6954   2.7141   2.7246   2.7407   2.7617   2.7742
     2.8373   2.8404   2.8613   2.8763   2.8882   2.9066   2.9150   2.9244
     3.0234   3.0306   3.0558   3.0661   4.0040   4.0495   4.0755   4.1383
     4.3283   4.4007   4.4283   4.6691   4.7909   4.8739   5.0030   5.0914
     5.1172   5.2170   5.3098   5.4248   5.8606   5.8939   5.9661   6.0412
     6.5957   6.8196   6.9882   7.1280   7.8818   7.9322   7.9559   7.9816
     7.9908   8.0319   8.0926   8.2818   8.4616   8.5955   8.6096   8.6306
     8.6661   8.7663   8.8646

     occupation numbers 
     1.0000   1.0000   1.0000   1.0000   1.0000   1.0000   1.0000   1.0000
     1.0000   1.0000   1.0000   1.0000   1.0000   1.0000   1.0000   1.0000
     1.0000   1.0000   1.0000   1.0000   1.0000   1.0000   1.0000   1.0000
     1.0000   1.0000   1.0000   1.0000   1.0000   1.0000   1.0000   1.0000
     1.0000   1.0000   1.0000   1.0000   1.0000   1.0000   1.0000   1.0000
     1.0000   1.0000   1.0000   1.0000   1.0000   1.0000   1.0000   1.0000
     1.0000   1.0000   1.0000   1.0000   1.0000   1.0000   1.0000   1.0000
     1.0000   1.0000   1.0000   1.0000   1.0000   1.0000   1.0000   1.0000
     1.0000   1.0000   1.0000   1.0000   1.0000   1.0000   1.0000   1.0000
     1.0000   1.0000   1.0000   1.0000   1.0000   1.0000   1.0000   1.0000
     1.0000   1.0000   1.0000   1.0000   1.0000   1.0000   1.0000   1.0000
     1.0000   1.0000   1.0000   1.0000   1.0000   1.0000   1.0000   1.0000
     1.0000   1.0000   1.0000   1.0000   1.0000   1.0000   1.0000   1.0000
     1.0000   1.0000   1.0000   1.0000   1.0000   1.0000   1.0000   1.0000
     1.0000   1.0000   1.0000   1.0000   1.0000   1.0000   1.0000   1.0000
     1.0000   1.0000   1.0000   1.0000   1.0000   1.0000   1.0000   1.0000
     1.0000   1.0000   1.0000   1.0000   1.0000   1.0000   1.0000   1.0000
     1.0000   1.0000   1.0000   1.0000   1.0000   1.0000   1.0000   1.0000
     1.0000   1.0000   1.0000   1.0000   1.0000   1.0000   1.0000   1.0000
     1.0000   1.0000   1.0000   1.0000   1.0000   1.0000   1.0000   1.0000
     1.0000   1.0000   0.9996   0.9996   0.9995   0.9994   0.9976   0.9974
     0.9973   0.9969   0.9944   0.9917   0.9908   0.9893   0.9877   0.9874
     0.9868   0.9851   0.9843   0.9832   0.9816   0.9799   0.9793   0.9774
     0.9749   0.9743   0.9732   0.9687   0.9667   0.9649   0.9606   0.9570
     0.9476   0.9365   0.9033   0.9006   0.8691   0.8594   0.8525   0.8467
     0.8417   0.8315   0.8295   0.8224   0.8183   0.8119   0.8034   0.7982
     0.7708   0.7694   0.7599   0.7529   0.7472   0.7384   0.7344   0.7298
     0.6791   0.6753   0.6617   0.6560   0.1608   0.1449   0.1363   0.1170
     0.0704   0.0571   0.0525   0.0239   0.0154   0.0112   0.0067   0.0046
     0.0041   0.0026   0.0017   0.0010   0.0001   0.0001   0.0000   0.0000
     0.0000   0.0000   0.0000   0.0000   0.0000   0.0000   0.0000   0.0000
     0.0000   0.0000   0.0000   0.0000   0.0000   0.0000   0.0000   0.0000
     0.0000   0.0000   0.0000

          k = 0.2500 0.0000 0.0000 ( 65257 PWs)   bands (ev):

   -92.6910 -92.6391 -92.5450 -92.4988 -92.4423 -92.3983 -92.3798 -92.2575
   -56.0444 -56.0260 -55.9024 -55.8917 -55.8851 -55.8785 -55.8422 -55.8142
   -55.7983 -55.7982 -55.7904 -55.7485 -55.7303 -55.6929 -55.6715 -55.6415
   -55.6345 -55.5856 -55.5846 -55.5832 -55.5748 -55.5319 -55.5102 -55.4237
   -31.2667 -31.2506 -31.1069 -31.0976 -31.0206 -30.9532 -30.8534 -30.6110
   -29.8378 -29.7957 -29.7689 -29.6609 -15.0384 -14.9935 -14.9269 -14.7790
   -14.6725 -14.4749 -14.3457 -14.1664 -14.1485 -14.1191 -14.0864 -14.0628
   -14.0256 -14.0114 -13.9918 -13.9556 -13.9368 -13.8304 -13.7992 -13.6494
   -13.5818 -13.5696 -13.5065 -13.4821 -13.4673 -13.3898 -13.3360 -13.3033
   -13.2128 -13.1518 -13.1473 -13.0748 -13.0508 -13.0333 -13.0162 -13.0000
   -12.9636 -12.9295 -12.9120 -12.8726 -12.8508 -12.8101 -12.7756 -12.7606
   -12.6625 -12.6269 -12.5539 -12.5364 -12.4735 -12.3962 -12.2394 -12.0484
   -11.9742 -11.8164 -11.7648 -11.7476 -11.7336 -11.7070 -11.6565 -11.6335
   -11.6252 -11.5751 -11.4849 -11.4295 -11.4237  -2.7952  -2.5738  -2.4434
    -2.2712  -2.2072  -2.0377  -1.8295  -1.7530  -1.7093  -1.6740  -1.5718
    -1.5588  -1.5244  -1.5054  -1.4353  -1.2554  -1.1476  -1.1155  -1.0888
    -1.0078  -0.9976  -0.9194  -0.8924  -0.8407  -0.8000  -0.7485  -0.7181
    -0.6699  -0.6431  -0.6202  -0.5699  -0.5553  -0.4643  -0.4546  -0.3841
    -0.2928  -0.2391  -0.1171  -0.1049  -0.0402   0.0046   0.0556   0.1006
     0.1452   0.1792   0.2229   0.5166   0.6417   0.6705   0.7625   0.8016
     0.8181   0.8399   0.9192   1.0342   1.0766   1.1016   1.1422   1.2864
     1.3241   1.3553   1.3627   1.4035   1.4501   1.4923   1.5253   1.5816
     1.6264   1.6444   1.6925   1.7476   1.7930   1.8177   1.8977   1.9025
     1.9441   1.9574   1.9889   2.1068   2.1727   2.2543   2.3073   2.3214
     2.4004   2.4628   2.4690   2.4761   2.5112   2.5484   2.5644   2.5715
     2.6322   2.7555   2.8697   2.8907   2.9236   2.9498   2.9553   2.9761
     2.9859   3.0000   3.0211   3.0270   3.0512   3.0639   3.0699   3.0830
     3.1040   3.1282   3.1329   3.1405   3.1466   3.1571   3.1665   3.2967
     3.5860   3.6411   3.8960   4.2992   4.4701   4.6916   5.0290   5.0900
     5.6469   5.8247   5.9451   6.0053   6.0802   6.1060   6.1922   6.5926
     6.8403   7.1153   7.1573   7.3416   7.4791   7.5650   7.5952   7.6133
     7.8367   7.8981   8.0403   8.1800   8.3043   8.3520   8.4096   8.4456
     8.5746   8.7956   8.9456

     occupation numbers 
     1.0000   1.0000   1.0000   1.0000   1.0000   1.0000   1.0000   1.0000
     1.0000   1.0000   1.0000   1.0000   1.0000   1.0000   1.0000   1.0000
     1.0000   1.0000   1.0000   1.0000   1.0000   1.0000   1.0000   1.0000
     1.0000   1.0000   1.0000   1.0000   1.0000   1.0000   1.0000   1.0000
     1.0000   1.0000   1.0000   1.0000   1.0000   1.0000   1.0000   1.0000
     1.0000   1.0000   1.0000   1.0000   1.0000   1.0000   1.0000   1.0000
     1.0000   1.0000   1.0000   1.0000   1.0000   1.0000   1.0000   1.0000
     1.0000   1.0000   1.0000   1.0000   1.0000   1.0000   1.0000   1.0000
[...]
     0.3556   0.3256   0.2031   0.0765   0.0462   0.0221   0.0060   0.0046
     0.0003   0.0001   0.0001   0.0000   0.0000   0.0000   0.0000   0.0000
     0.0000   0.0000   0.0000   0.0000   0.0000   0.0000   0.0000   0.0000
     0.0000   0.0000   0.0000   0.0000   0.0000   0.0000   0.0000   0.0000
     0.0000   0.0000   0.0000

          k =-0.5000 0.0000 0.0000 ( 65180 PWs)   bands (ev):

   -92.6910 -92.6391 -92.5450 -92.4988 -92.4423 -92.3983 -92.3798 -92.2575
   -56.0444 -56.0260 -55.9024 -55.8917 -55.8851 -55.8785 -55.8422 -55.8142
   -55.7983 -55.7982 -55.7904 -55.7485 -55.7303 -55.6929 -55.6715 -55.6415
   -55.6345 -55.5856 -55.5846 -55.5832 -55.5748 -55.5319 -55.5102 -55.4237
   -31.2646 -31.2528 -31.1065 -31.0975 -31.0210 -30.9531 -30.8535 -30.6111
   -29.8368 -29.7967 -29.7685 -29.6613 -15.0042 -14.9507 -14.8892 -14.7814
   -14.6767 -14.5346 -14.3838 -14.2469 -14.1224 -14.1104 -14.0985 -14.0344
   -13.9805 -13.9502 -13.9455 -13.8970 -13.8925 -13.8728 -13.8282 -13.8080
   -13.7014 -13.5449 -13.5132 -13.4845 -13.4774 -13.3793 -13.3540 -13.2963
   -13.2584 -13.2348 -13.2235 -13.0656 -13.0448 -13.0307 -13.0069 -12.9976
   -12.9542 -12.9350 -12.9144 -12.8729 -12.8532 -12.7674 -12.6309 -12.6295
   -12.6219 -12.6065 -12.5521 -12.5310 -12.4304 -12.3175 -12.3043 -12.1313
   -12.0780 -11.7688 -11.7472 -11.7405 -11.7252 -11.7072 -11.6661 -11.6033
   -11.5860 -11.5536 -11.5074 -11.4983 -11.4830  -2.5706  -2.5326  -2.3691
    -2.3301  -2.0158  -1.9412  -1.7929  -1.6757  -1.6365  -1.5915  -1.5425
    -1.5184  -1.3949  -1.3509  -1.3350  -1.2535  -1.2182  -1.2013  -1.1717
    -1.1129  -1.0948  -1.0415  -1.0156  -0.9836  -0.8884  -0.8434  -0.7943
    -0.7614  -0.7405  -0.7108  -0.6618  -0.6376  -0.5937  -0.4994  -0.4303
    -0.3601  -0.3011  -0.1171  -0.1047  -0.0453  -0.0075   0.0625   0.0911
     0.2155   0.2506   0.2793   0.4528   0.5512   0.6003   0.6748   0.7753
     0.8679   0.8927   1.0229   1.0450   1.0956   1.1215   1.1591   1.1803
     1.2191   1.2446   1.3178   1.3566   1.4033   1.4136   1.7222   1.7289
     1.7447   1.7790   1.8774   1.8888   1.9017   1.9058   1.9327   1.9503
     1.9891   2.0064   2.0332   2.0878   2.1043   2.1536   2.1787   2.2342
     2.3321   2.4503   2.4637   2.4730   2.5181   2.5439   2.6113   2.6365
     2.6693   2.7340   2.7425   2.7496   2.7783   2.8462   2.8950   2.9388
     2.9696   3.0094   3.0144   3.0159   3.0276   3.0415   3.0531   3.0686
     3.0714   3.0954   3.0973   3.1198   3.1391   3.1449   3.2746   3.2814
     4.0656   4.1468   4.2224   4.3348   4.8043   4.8876   5.0531   5.0583
     5.4940   5.5178   5.6122   5.6678   6.0466   6.0506   6.2632   6.5285
     6.8065   7.0116   7.2786   7.3265   7.3729   7.4601   7.6930   7.7869
     7.8974   7.9314   8.1996   8.2615   8.3988   8.4620   8.5282   8.6449
     8.7688   8.8106   8.8796

     occupation numbers 
     1.0000   1.0000   1.0000   1.0000   1.0000   1.0000   1.0000   1.0000
     1.0000   1.0000   1.0000   1.0000   1.0000   1.0000   1.0000   1.0000
     1.0000   1.0000   1.0000   1.0000   1.0000   1.0000   1.0000   1.0000
     1.0000   1.0000   1.0000   1.0000   1.0000   1.0000   1.0000   1.0000
     1.0000   1.0000   1.0000   1.0000   1.0000   1.0000   1.0000   1.0000
     1.0000   1.0000   1.0000   1.0000   1.0000   1.0000   1.0000   1.0000
     1.0000   1.0000   1.0000   1.0000   1.0000   1.0000   1.0000   1.0000
     1.0000   1.0000   1.0000   1.0000   1.0000   1.0000   1.0000   1.0000
     1.0000   1.0000   1.0000   1.0000   1.0000   1.0000   1.0000   1.0000
     1.0000   1.0000   1.0000   1.0000   1.0000   1.0000   1.0000   1.0000
     1.0000   1.0000   1.0000   1.0000   1.0000   1.0000   1.0000   1.0000
     1.0000   1.0000   1.0000   1.0000   1.0000   1.0000   1.0000   1.0000
     1.0000   1.0000   1.0000   1.0000   1.0000   1.0000   1.0000   1.0000
     1.0000   1.0000   1.0000   1.0000   1.0000   1.0000   1.0000   1.0000
     1.0000   1.0000   1.0000   1.0000   1.0000   1.0000   1.0000   1.0000
     1.0000   1.0000   1.0000   1.0000   1.0000   1.0000   1.0000   1.0000
     1.0000   1.0000   1.0000   1.0000   1.0000   1.0000   1.0000   1.0000
     1.0000   1.0000   1.0000   1.0000   1.0000   1.0000   1.0000   1.0000
     1.0000   1.0000   1.0000   1.0000   1.0000   1.0000   1.0000   1.0000
     1.0000   1.0000   1.0000   1.0000   1.0000   1.0000   1.0000   0.9999
     0.9999   0.9999   0.9997   0.9997   0.9996   0.9995   0.9994   0.9993
     0.9992   0.9991   0.9986   0.9984   0.9980   0.9979   0.9917   0.9915
     0.9910   0.9896   0.9849   0.9842   0.9834   0.9832   0.9815   0.9802
     0.9773   0.9759   0.9735   0.9682   0.9664   0.9605   0.9572   0.9492
     0.9321   0.9059   0.9025   0.9001   0.8879   0.8804   0.8593   0.8507
     0.8391   0.8146   0.8112   0.8083   0.7965   0.7668   0.7440   0.7227
     0.7071   0.6865   0.6838   0.6831   0.6768   0.6694   0.6631   0.6547
     0.6531   0.6399   0.6389   0.6263   0.6153   0.6121   0.5367   0.5327
     0.1395   0.1145   0.0942   0.0691   0.0147   0.0106   0.0054   0.0053
     0.0007   0.0006   0.0004   0.0003   0.0000   0.0000   0.0000   0.0000
     0.0000   0.0000   0.0000   0.0000   0.0000   0.0000   0.0000   0.0000
     0.0000   0.0000   0.0000   0.0000   0.0000   0.0000   0.0000   0.0000
     0.0000   0.0000   0.0000

          k =-0.2500 0.2500 0.0000 ( 65198 PWs)   bands (ev):

   -92.6910 -92.6391 -92.5450 -92.4988 -92.4423 -92.3983 -92.3798 -92.2575
   -56.0444 -56.0260 -55.9024 -55.8917 -55.8851 -55.8785 -55.8422 -55.8142
   -55.7983 -55.7982 -55.7904 -55.7485 -55.7303 -55.6929 -55.6715 -55.6415
   -55.6345 -55.5856 -55.5846 -55.5832 -55.5748 -55.5319 -55.5102 -55.4237
   -31.2666 -31.2505 -31.1071 -31.0974 -31.0208 -30.9534 -30.8533 -30.6111
   -29.8372 -29.7954 -29.7695 -29.6612 -15.0071 -14.9623 -14.8917 -14.7742
   -14.6620 -14.5336 -14.4519 -14.2436 -14.1052 -14.0761 -14.0626 -14.0135
   -13.9896 -13.9688 -13.9536 -13.9461 -13.9039 -13.8261 -13.8144 -13.6620
   -13.6354 -13.6051 -13.5861 -13.5370 -13.4860 -13.4259 -13.3939 -13.2934
   -13.2605 -13.2135 -13.1372 -13.0953 -13.0349 -13.0240 -12.9965 -12.9763
   -12.9397 -12.9172 -12.8952 -12.8728 -12.8063 -12.7892 -12.7607 -12.7319
   -12.6827 -12.6225 -12.5535 -12.4379 -12.4323 -12.3853 -12.2732 -12.0867
   -12.0121 -11.7886 -11.7673 -11.7398 -11.7279 -11.6868 -11.6518 -11.6290
   -11.6077 -11.5852 -11.4998 -11.4550 -11.4452  -2.6556  -2.4479  -2.3263
    -2.2384  -2.1199  -2.0540  -1.8506  -1.7054  -1.6875  -1.6580  -1.5643
    -1.5314  -1.4369  -1.4032  -1.3762  -1.2360  -1.1784  -1.1117  -1.0961
    -1.0785  -1.0195  -1.0002  -0.9603  -0.9315  -0.8911  -0.8285  -0.7800
    -0.7161  -0.6475  -0.6199  -0.5709  -0.5434  -0.4966  -0.4400  -0.3931
    -0.3547  -0.2507  -0.2206  -0.2065  -0.1648  -0.0993  -0.0006   0.0195
     0.0484   0.1350   0.1555   0.4023   0.5742   0.6142   0.6571   0.7256
     0.7727   0.8170   0.8886   0.9132   1.1939   1.3017   1.3435   1.3763
     1.3795   1.4236   1.4402   1.4851   1.5170   1.5304   1.5556   1.6036
     1.6200   1.6555   1.6751   1.7197   1.8276   1.8313   1.8524   1.8876
     1.9211   1.9561   2.0050   2.1155   2.2257   2.2473   2.2920   2.3095
     2.3772   2.4166   2.4443   2.4573   2.4709   2.4857   2.5105   2.5900
     2.6281   2.7177   2.8941   2.9027   2.9156   2.9251   2.9362   2.9510
     2.9576   2.9747   2.9821   2.9979   3.0072   3.0199   3.0288   3.0357
     3.0691   3.0794   3.0885   3.1223   3.4141   3.4955   3.5598   3.6299
     3.6749   3.8505   3.9731   4.3263   4.5180   4.7280   5.0117   5.1737
     5.6640   5.7095   5.7790   5.8440   5.9072   6.0874   6.1776   6.2075
     6.9007   6.9584   7.1056   7.2785   7.5718   7.6229   7.6826   7.8775
     7.8993   7.9933   8.1903   8.2418   8.3200   8.3565   8.4283   8.4585
     8.5569   8.7649   8.8896

     occupation numbers 
     1.0000   1.0000   1.0000   1.0000   1.0000   1.0000   1.0000   1.0000
     1.0000   1.0000   1.0000   1.0000   1.0000   1.0000   1.0000   1.0000
     1.0000   1.0000   1.0000   1.0000   1.0000   1.0000   1.0000   1.0000
     1.0000   1.0000   1.0000   1.0000   1.0000   1.0000   1.0000   1.0000
     1.0000   1.0000   1.0000   1.0000   1.0000   1.0000   1.0000   1.0000
     1.0000   1.0000   1.0000   1.0000   1.0000   1.0000   1.0000   1.0000
     1.0000   1.0000   1.0000   1.0000   1.0000   1.0000   1.0000   1.0000
     1.0000   1.0000   1.0000   1.0000   1.0000   1.0000   1.0000   1.0000
     1.0000   1.0000   1.0000   1.0000   1.0000   1.0000   1.0000   1.0000
     1.0000   1.0000   1.0000   1.0000   1.0000   1.0000   1.0000   1.0000
     1.0000   1.0000   1.0000   1.0000   1.0000   1.0000   1.0000   1.0000
     1.0000   1.0000   1.0000   1.0000   1.0000   1.0000   1.0000   1.0000
     1.0000   1.0000   1.0000   1.0000   1.0000   1.0000   1.0000   1.0000
     1.0000   1.0000   1.0000   1.0000   1.0000   1.0000   1.0000   1.0000
     1.0000   1.0000   1.0000   1.0000   1.0000   1.0000   1.0000   1.0000
     1.0000   1.0000   1.0000   1.0000   1.0000   1.0000   1.0000   1.0000
     1.0000   1.0000   1.0000   1.0000   1.0000   1.0000   1.0000   1.0000
     1.0000   1.0000   1.0000   1.0000   1.0000   1.0000   1.0000   1.0000
     1.0000   1.0000   1.0000   1.0000   1.0000   1.0000   1.0000   1.0000
     1.0000   1.0000   1.0000   1.0000   1.0000   1.0000   1.0000   0.9999
     0.9999   0.9999   0.9999   0.9998   0.9993   0.9987   0.9985   0.9982
     0.9982   0.9977   0.9976   0.9970   0.9966   0.9963   0.9959   0.9950
     0.9946   0.9937   0.9932   0.9918   0.9875   0.9873   0.9862   0.9843
     0.9822   0.9798   0.9760   0.9651   0.9505   0.9471   0.9396   0.9364
     0.9229   0.9141   0.9074   0.9042   0.9007   0.8968   0.8900   0.8662
     0.8536   0.8210   0.7445   0.7403   0.7341   0.7294   0.7240   0.7166
     0.7132   0.7045   0.7007   0.6925   0.6877   0.6809   0.6762   0.6725
     0.6544   0.6487   0.6437   0.6249   0.4542   0.4068   0.3702   0.3316
     0.3077   0.2227   0.1723   0.0708   0.0397   0.0194   0.0064   0.0032
     0.0003   0.0002   0.0001   0.0001   0.0001   0.0000   0.0000   0.0000
     0.0000   0.0000   0.0000   0.0000   0.0000   0.0000   0.0000   0.0000
     0.0000   0.0000   0.0000   0.0000   0.0000   0.0000   0.0000   0.0000
     0.0000   0.0000   0.0000

          k =-0.5000 0.2500 0.0000 ( 65138 PWs)   bands (ev):

   -92.6910 -92.6391 -92.5450 -92.4988 -92.4423 -92.3983 -92.3798 -92.2575
   -56.0444 -56.0260 -55.9024 -55.8917 -55.8851 -55.8785 -55.8422 -55.8142
   -55.7983 -55.7982 -55.7904 -55.7485 -55.7303 -55.6929 -55.6715 -55.6415
   -55.6345 -55.5856 -55.5846 -55.5832 -55.5748 -55.5319 -55.5102 -55.4237
   -31.2644 -31.2527 -31.1067 -31.0973 -31.0212 -30.9534 -30.8534 -30.6112
   -29.8362 -29.7964 -29.7691 -29.6616 -14.9710 -14.9246 -14.8461 -14.7478
   -14.7057 -14.5815 -14.4891 -14.3632 -14.0557 -14.0249 -14.0131 -13.9656
   -13.9492 -13.9449 -13.9199 -13.8841 -13.8781 -13.8525 -13.8147 -13.8046
   -13.6962 -13.6275 -13.5783 -13.5737 -13.5588 -13.4596 -13.4212 -13.3393
   -13.3004 -13.1906 -13.1552 -13.0604 -13.0268 -13.0136 -13.0057 -12.9746
   -12.9420 -12.9295 -12.9034 -12.8749 -12.8142 -12.7768 -12.6853 -12.6625
   -12.6131 -12.6062 -12.5556 -12.5291 -12.3794 -12.3127 -12.2539 -12.1278
   -12.0871 -11.7614 -11.7485 -11.7346 -11.7228 -11.7009 -11.6709 -11.5905
   -11.5815 -11.5589 -11.5220 -11.4942 -11.4856  -2.4280  -2.3868  -2.2387
    -2.1966  -2.0351  -1.9598  -1.8171  -1.6821  -1.6251  -1.5986  -1.5590
    -1.5206  -1.4401  -1.3251  -1.2676  -1.2451  -1.2191  -1.1411  -1.1165
    -1.0943  -1.0735  -1.0561  -0.9963  -0.9658  -0.9286  -0.8939  -0.8647
    -0.8065  -0.7788  -0.7369  -0.7021  -0.5986  -0.5683  -0.4811  -0.4237
    -0.3893  -0.3325  -0.2490  -0.2112  -0.1147  -0.0578  -0.0186   0.0431
     0.0734   0.1419   0.1589   0.1889   0.2417   0.2850   0.5944   0.7039
     0.7201   0.7427   1.0351   1.0858   1.1616   1.1867   1.3614   1.3979
     1.4351   1.4466   1.4646   1.4825   1.5531   1.5962   1.6417   1.6653
     1.8077   1.8374   1.8553   1.8649   1.9138   1.9365   1.9499   1.9633
     1.9824   2.0083   2.0460   2.0626   2.0972   2.1194   2.1586   2.2071
     2.3280   2.4298   2.4489   2.4656   2.4922   2.5373   2.5638   2.6275
     2.6646   2.6699   2.7075   2.7424   2.7638   2.8456   2.8903   2.9037
     2.9084   2.9290   2.9509   2.9635   2.9803   2.9923   3.0132   3.0249
     3.0362   3.0428   3.0535   3.0649   3.5908   3.6511   3.7833   3.8073
     4.0748   4.1739   4.2207   4.4179   4.7983   4.9043   5.0487   5.0874
     5.4175   5.4430   5.6025   5.6385   5.7578   5.8003   6.3665   6.4011
     6.5039   6.6655   7.2256   7.4042   7.5697   7.7245   7.8039   7.8270
     7.9021   8.0349   8.2650   8.4076   8.4431   8.5473   8.5802   8.5908
     8.6727   8.7341   8.7887

     occupation numbers 
     1.0000   1.0000   1.0000   1.0000   1.0000   1.0000   1.0000   1.0000
     1.0000   1.0000   1.0000   1.0000   1.0000   1.0000   1.0000   1.0000
     1.0000   1.0000   1.0000   1.0000   1.0000   1.0000   1.0000   1.0000
     1.0000   1.0000   1.0000   1.0000   1.0000   1.0000   1.0000   1.0000
     1.0000   1.0000   1.0000   1.0000   1.0000   1.0000   1.0000   1.0000
     1.0000   1.0000   1.0000   1.0000   1.0000   1.0000   1.0000   1.0000
     1.0000   1.0000   1.0000   1.0000   1.0000   1.0000   1.0000   1.0000
     1.0000   1.0000   1.0000   1.0000   1.0000   1.0000   1.0000   1.0000
     1.0000   1.0000   1.0000   1.0000   1.0000   1.0000   1.0000   1.0000
     1.0000   1.0000   1.0000   1.0000   1.0000   1.0000   1.0000   1.0000
     1.0000   1.0000   1.0000   1.0000   1.0000   1.0000   1.0000   1.0000
     1.0000   1.0000   1.0000   1.0000   1.0000   1.0000   1.0000   1.0000
     1.0000   1.0000   1.0000   1.0000   1.0000   1.0000   1.0000   1.0000
     1.0000   1.0000   1.0000   1.0000   1.0000   1.0000   1.0000   1.0000
     1.0000   1.0000   1.0000   1.0000   1.0000   1.0000   1.0000   1.0000
     1.0000   1.0000   1.0000   1.0000   1.0000   1.0000   1.0000   1.0000
     1.0000   1.0000   1.0000   1.0000   1.0000   1.0000   1.0000   1.0000
     1.0000   1.0000   1.0000   1.0000   1.0000   1.0000   1.0000   1.0000
     1.0000   1.0000   1.0000   1.0000   1.0000   1.0000   1.0000   1.0000
     1.0000   1.0000   1.0000   1.0000   1.0000   1.0000   1.0000   1.0000
     0.9999   0.9999   0.9997   0.9996   0.9994   0.9993   0.9983   0.9980
     0.9976   0.9975   0.9973   0.9970   0.9960   0.9951   0.9941   0.9935
     0.9884   0.9870   0.9861   0.9856   0.9827   0.9812   0.9803   0.9793
     0.9778   0.9757   0.9723   0.9707   0.9672   0.9646   0.9599   0.9533
     0.9329   0.9109   0.9063   0.9021   0.8951   0.8824   0.8744   0.8538
     0.8408   0.8389   0.8249   0.8112   0.8025   0.7670   0.7463   0.7398
     0.7376   0.7275   0.7166   0.7102   0.7016   0.6954   0.6845   0.6783
     0.6722   0.6687   0.6629   0.6567   0.3529   0.3203   0.2536   0.2423
     0.1365   0.1069   0.0946   0.0542   0.0150   0.0100   0.0055   0.0047
     0.0010   0.0009   0.0004   0.0003   0.0002   0.0001   0.0000   0.0000
     0.0000   0.0000   0.0000   0.0000   0.0000   0.0000   0.0000   0.0000
     0.0000   0.0000   0.0000   0.0000   0.0000   0.0000   0.0000   0.0000
     0.0000   0.0000   0.0000

     the Fermi energy is     3.3366 ev

!    total energy              =   -4441.65614072 Ry
     estimated scf accuracy    <          8.7E-09 Ry
     smearing contrib. (-TS)   =      -1.15468032 Ry
     internal energy E=F+TS    =   -4440.50146040 Ry

     The total energy is F=E-TS. E is the sum of the following terms:
     one-electron contribution =  -20805.19586758 Ry
     hartree contribution      =   10534.72937975 Ry
     xc contribution           =    -694.18039144 Ry
     ewald contribution        =    6800.31618116 Ry
     one-center paw contrib.   =    -276.17076230 Ry
      -> PAW hartree energy AE =      25.05903865 Ry
      -> PAW hartree energy PS =     -24.94412317 Ry
      -> PAW xc energy AE      =     -16.50256753 Ry
      -> PAW xc energy PS      =       6.86136817 Ry
      -> total E_H with PAW    =   10534.84429523 Ry
      -> total E_XC with PAW   =    -703.82159080 Ry

     convergence has been achieved in  44 iterations

     Writing all to output data dir /bsuhome/zayahcortright/scratch/pwscf.save/
 
     init_run     :      7.73s CPU      8.54s WALL (       1 calls)
     electrons    :    724.57s CPU    800.90s WALL (       1 calls)

     Called by init_run:
     wfcinit      :      6.21s CPU      6.43s WALL (       1 calls)
     wfcinit:atom :      0.05s CPU      0.07s WALL (       5 calls)
     wfcinit:wfcr :      5.90s CPU      6.03s WALL (       5 calls)
     potinit      :      0.18s CPU      0.21s WALL (       1 calls)
     hinit0       :      0.44s CPU      0.73s WALL (       1 calls)

     Called by electrons:
     c_bands      :    586.39s CPU    597.13s WALL (      44 calls)
     sum_band     :    102.90s CPU    138.91s WALL (      44 calls)
     v_of_rho     :      5.00s CPU      5.37s WALL (      45 calls)
     v_h          :      0.40s CPU      0.40s WALL (      45 calls)
     v_xc         :      4.60s CPU      4.96s WALL (      45 calls)
     newd         :     16.55s CPU     45.38s WALL (      45 calls)
     PAW_pot      :      1.48s CPU      1.53s WALL (      45 calls)
     mix_rho      :     11.98s CPU     12.39s WALL (      44 calls)

     Called by c_bands:
     init_us_2    :      6.01s CPU      6.12s WALL (     445 calls)
     init_us_2:cp :      6.01s CPU      6.12s WALL (     445 calls)
     cegterg      :    558.69s CPU    569.07s WALL (     220 calls)

     Called by sum_band:
     sum_band:wei :      0.32s CPU      0.32s WALL (      44 calls)
     sum_band:loo :     83.41s CPU     84.01s WALL (      44 calls)
     sum_band:buf :      1.19s CPU      1.23s WALL (     220 calls)
     sum_band:ini :      2.62s CPU      2.63s WALL (     220 calls)
     sum_band:cal :     17.43s CPU     17.47s WALL (     220 calls)
     sum_band:bec :      0.54s CPU      0.54s WALL (     220 calls)
     addusdens    :     15.23s CPU     50.55s WALL (      44 calls)
                                        0.00s GPU  (      44 calls)
     addusd:skk   :      0.27s CPU      2.23s WALL (     176 calls)
                                        0.00s GPU  (     176 calls)

     Called by *egterg:
     cdiaghg      :     56.51s CPU     56.76s WALL (    1267 calls)
     cegterg:over :     46.36s CPU     46.55s WALL (    1047 calls)
     cegterg:upda :     47.37s CPU     48.27s WALL (    1047 calls)
     cegterg:last :     64.90s CPU     65.18s WALL (     400 calls)
     cdiaghg:chol :      3.33s CPU      3.34s WALL (    1267 calls)
     cdiaghg:inve :      3.45s CPU      3.46s WALL (    1267 calls)
     cdiaghg:para :      7.36s CPU      7.40s WALL (    2534 calls)
     h_psi        :    278.90s CPU    283.08s WALL (    1272 calls)
     s_psi        :     39.43s CPU     39.57s WALL (    1272 calls)
     g_psi        :      2.14s CPU      2.15s WALL (    1047 calls)

     Called by h_psi:
     h_psi:calbec :     42.12s CPU     42.33s WALL (    1272 calls)
     vloc_psi     :    192.39s CPU    194.20s WALL (    1272 calls)
     add_vuspsi   :     39.77s CPU     39.99s WALL (    1272 calls)

     General routines
     calbec       :     59.54s CPU     59.79s WALL (    1492 calls)
     fft          :      5.75s CPU      5.80s WALL (     583 calls)
     ffts         :      4.38s CPU      4.42s WALL (    4642 calls)
     fftw         :    161.59s CPU    162.90s WALL (  300476 calls)
     interpolate  :      0.39s CPU      0.39s WALL (      45 calls)
 
     Parallel routines

     PAW routines
     PAW_pot      :      1.48s CPU      1.53s WALL (      45 calls)
 
     PWSCF        :  12m13.87s CPU  13m33.87s WALL

 
   This run was terminated on:  21: 1:44  21Jun2024            

=------------------------------------------------------------------------------=
   JOB DONE.
=------------------------------------------------------------------------------=
