
     Program PWSCF v.7.2 starts on 21Jun2024 at 21: 2:35 

     This program is part of the open-source Quantum ESPRESSO suite
     for quantum simulation of materials; please cite
         "P. Giannozzi et al., J. Phys.:Condens. Matter 21 395502 (2009);
         "P. Giannozzi et al., J. Phys.:Condens. Matter 29 465901 (2017);
         "P. Giannozzi et al., J. Chem. Phys. 152 154105 (2020);
          URL http://www.quantum-espresso.org", 
     in publications or presentations arising from this work. More details at
     http://www.quantum-espresso.org/quote

     Parallel version (MPI & OpenMP), running on      48 processor cores
     Number of MPI processes:                48
     Threads/MPI process:                     1

     MPI processes distributed on     1 nodes
     60583 MiB available memory on the printing compute node when the environment starts
 
     Reading input from espresso.pwi
Warning: card &CELL ignored
Warning: card / ignored
Warning: card &FCP ignored
Warning: card / ignored
Warning: card &RISM ignored
Warning: card / ignored

     Current dimensions of program PWSCF are:
     Max number of different atomic species (ntypx) = 10
     Max number of k-points (npk) =  40000
     Max angular momentum in pseudopotentials (lmaxx) =  4
     file O.pbe-n-kjpaw_psl.0.1.UPF: wavefunction(s)  2P renormalized
     signal trapping enabled: kill the code with -SIGUSR1 to stop cleanly the simulation 
 
     K-points division:     npool     =       2
     R & G space division:  proc/nbgrp/npool/nimage =      24
     Subspace diagonalization in iterative solution of the eigenvalue problem:
     one sub-group per band group will be used
     scalapack distributed-memory algorithm (size of sub-group:  3*  3 procs)

 
     Parallelization info
     --------------------
     sticks:   dense  smooth     PW     G-vecs:    dense   smooth      PW
     Min         350     175     47                61430    21716    3036
     Max         351     177     48                61449    21727    3041
     Sum        8421    4205   1137              1474595   521381   72913
 
     Using Slab Decomposition
 


     bravais-lattice index     =            0
     lattice parameter (alat)  =      14.8599  a.u.
     unit-cell volume          =    8305.1283 (a.u.)^3
     number of atoms/cell      =           49
     number of atomic types    =            3
     number of electrons       =       430.00
     number of Kohn-Sham states=          258
     kinetic-energy cutoff     =      60.0000  Ry
     charge density cutoff     =     480.0000  Ry
     scf convergence threshold =      1.0E-08
     mixing beta               =       0.1500
     number of iterations used =            8  local-TF  mixing
     Exchange-correlation= SLA  PW   PBE  PBE
                           (   1   4   3   4   0   0   0)

     celldm(1)=  14.859904  celldm(2)=   0.000000  celldm(3)=   0.000000
     celldm(4)=   0.000000  celldm(5)=   0.000000  celldm(6)=   0.000000

     crystal axes: (cart. coord. in units of alat)
               a(1) = (   1.000000   0.000000   0.000000 )  
               a(2) = (   0.000000   1.000000   0.000000 )  
               a(3) = (   0.000000   0.000000   2.531036 )  

     reciprocal axes: (cart. coord. in units 2 pi/alat)
               b(1) = (  1.000000  0.000000  0.000000 )  
               b(2) = (  0.000000  1.000000  0.000000 )  
               b(3) = (  0.000000  0.000000  0.395095 )  


     PseudoPot. # 1 for Sr read from file:
     /bsuhome/zayahcortright/q-e/pseudo/Sr_pbe_v1.uspp.F.UPF
     MD5 check sum: 6b418c05fbe9db5448babca5e47b7a5b
     Pseudo is Ultrasoft + core correction, Zval = 10.0
     Generated by new atomic code, or converted to UPF format
     Using radial grid of  883 points,  6 beta functions with: 
                l(1) =   0
                l(2) =   0
                l(3) =   1
                l(4) =   1
                l(5) =   2
                l(6) =   2
     Q(r) pseudized with  6 coefficients,  rinner =    1.400   1.400   1.400
                                                       1.400   1.400

     PseudoPot. # 2 for O  read from file:
     /bsuhome/zayahcortright/q-e/pseudo/O.pbe-n-kjpaw_psl.0.1.UPF
     MD5 check sum: 0234752ac141de4415c5fc33072bef88
     Pseudo is Projector augmented-wave + core cor, Zval =  6.0
     Generated using "atomic" code by A. Dal Corso  v.5.0.99 svn rev. 10869
     Shape of augmentation charge: BESSEL
     Using radial grid of 1095 points,  4 beta functions with: 
                l(1) =   0
                l(2) =   0
                l(3) =   1
                l(4) =   1
     Q(r) pseudized with 0 coefficients 


     PseudoPot. # 3 for Co read from file:
     /bsuhome/zayahcortright/q-e/pseudo/Co_pbe_v1.2.uspp.F.UPF
     MD5 check sum: 5f91765df6ddd3222702df6e7b74a16d
     Pseudo is Ultrasoft + core correction, Zval = 17.0
     Generated by new atomic code, or converted to UPF format
     Using radial grid of  863 points,  6 beta functions with: 
                l(1) =   0
                l(2) =   0
                l(3) =   1
                l(4) =   1
                l(5) =   2
                l(6) =   2
     Q(r) pseudized with  8 coefficients,  rinner =    1.200   1.200   1.200
                                                       1.200   1.200

     atomic species   valence    mass     pseudopotential
        Sr            10.00    87.62000     Sr( 1.00)
        O              6.00    15.99900     O ( 1.00)
        Co            17.00    58.93319     Co( 1.00)

     No symmetry found


                                    s                        frac. trans.

      isym =  1     identity                                     

 cryst.   s( 1) = (     1          0          0      )
                  (     0          1          0      )
                  (     0          0          1      )

 cart.    s( 1) = (  1.0000000  0.0000000  0.0000000 )
                  (  0.0000000  1.0000000  0.0000000 )
                  (  0.0000000  0.0000000  1.0000000 )


   Cartesian axes

     site n.     atom                  positions (alat units)
         1           Sr  tau(   1) = (   0.2508693   0.7491307   1.7574407  )
         2           O   tau(   2) = (   0.4985141   0.5014859   1.7715967  )
         3           Sr  tau(   3) = (   0.7482398   0.7454518   1.7648669  )
         4           Sr  tau(   4) = (   0.7441748   0.2558252   1.7667843  )
         5           Sr  tau(   5) = (   0.2508693   0.7491307   1.2696799  )
         6           Sr  tau(   6) = (   0.2508693   0.7491307   0.7632319  )
         7           Co  tau(   7) = (   0.4998914   0.5001086   1.0164559  )
         8           Co  tau(   8) = (   0.4936915   0.5063085   1.5135603  )
         9           O   tau(   9) = (   0.4988895   0.7610401   1.0164559  )
        10           O   tau(  10) = (   0.2389599   0.5011105   1.0164559  )
        11           O   tau(  11) = (   0.0070918   0.7374880   1.0164559  )
        12           O   tau(  12) = (   0.0088340   0.7405089   1.5135603  )
        13           O   tau(  13) = (   0.5066944   0.7415376   1.5135603  )
        14           O   tau(  14) = (   0.2584624   0.4933056   1.5135603  )
        15           O   tau(  15) = (   0.4985141   0.5014859   0.7773880  )
        16           O   tau(  16) = (   0.4985141   0.5014859   1.2555238  )
        17           Sr  tau(  17) = (   0.7482398   0.7454518   0.7706582  )
        18           Sr  tau(  18) = (   0.7482398   0.7454518   1.2622536  )
        19           Sr  tau(  19) = (   0.7441748   0.2558252   0.7725755  )
        20           Sr  tau(  20) = (   0.7441748   0.2558252   1.2603363  )
        21           O   tau(  21) = (   0.7322655   0.0078049   1.5135603  )
        22           O   tau(  22) = (   0.7558175   0.4996027   1.5135603  )
        23           O   tau(  23) = (   0.5003973   0.2441825   1.5135603  )
        24           O   tau(  24) = (   0.7527966   0.4978604   1.0164559  )
        25           O   tau(  25) = (   0.5021396   0.2472034   1.0164559  )
        26           O   tau(  26) = (   0.7517679   0.0000000   1.0164559  )
        27           O   tau(  27) = (   0.0114961   0.4948124   1.7455321  )
        28           O   tau(  28) = (   0.0048226   0.0077944   1.7715967  )
        29           Sr  tau(  29) = (   0.2545482   0.2517602   1.7648669  )
        30           O   tau(  30) = (   0.5048017   0.0015068   1.7786929  )
        31           Co  tau(  31) = (   0.0056869   0.5006215   1.0164559  )
        32           Co  tau(  32) = (   0.0065315   0.4997770   1.5135603  )
        33           Co  tau(  33) = (   0.0061999   0.0064171   1.0164559  )
        34           Co  tau(  34) = (   0.0000000   0.0126169   1.5135603  )
        35           O   tau(  35) = (   0.0114961   0.4948124   1.2815885  )
        36           O   tau(  36) = (   0.0114961   0.4948124   0.7513233  )
        37           O   tau(  37) = (   0.0051979   0.2673486   1.0164559  )
        38           O   tau(  38) = (   0.0130029   0.2478461   1.5135603  )
        39           O   tau(  39) = (   0.0048226   0.0077944   0.7773880  )
        40           O   tau(  40) = (   0.0048226   0.0077944   1.2555238  )
        41           Sr  tau(  41) = (   0.2545482   0.2517602   0.7706582  )
        42           Sr  tau(  42) = (   0.2545482   0.2517602   1.2622536  )
        43           Co  tau(  43) = (   0.4989925   0.0073160   1.5135603  )
        44           Co  tau(  44) = (   0.4998370   0.0064714   1.0164559  )
        45           O   tau(  45) = (   0.5048017   0.0015068   0.7844841  )
        46           O   tau(  46) = (   0.5048017   0.0015068   1.2484277  )
        47           O   tau(  47) = (   0.2621260   0.0059111   1.5135603  )
        48           O   tau(  48) = (   0.2591051   0.0041689   1.0164559  )
        49           O   tau(  49) = (   0.5686583   0.0000000   2.1602013  )

   Crystallographic axes

     site n.     atom                  positions (cryst. coord.)
         1           Sr  tau(   1) = (  0.2508693  0.7491307  0.6943562  )
         2           O   tau(   2) = (  0.4985141  0.5014859  0.6999492  )
         3           Sr  tau(   3) = (  0.7482398  0.7454518  0.6972903  )
         4           Sr  tau(   4) = (  0.7441748  0.2558252  0.6980478  )
         5           Sr  tau(   5) = (  0.2508693  0.7491307  0.5016443  )
         6           Sr  tau(   6) = (  0.2508693  0.7491307  0.3015492  )
         7           Co  tau(   7) = (  0.4998914  0.5001086  0.4015968  )
         8           Co  tau(   8) = (  0.4936915  0.5063085  0.5980003  )
         9           O   tau(   9) = (  0.4988895  0.7610401  0.4015968  )
        10           O   tau(  10) = (  0.2389599  0.5011105  0.4015968  )
        11           O   tau(  11) = (  0.0070918  0.7374880  0.4015968  )
        12           O   tau(  12) = (  0.0088340  0.7405089  0.5980003  )
        13           O   tau(  13) = (  0.5066944  0.7415376  0.5980003  )
        14           O   tau(  14) = (  0.2584624  0.4933056  0.5980003  )
        15           O   tau(  15) = (  0.4985141  0.5014859  0.3071422  )
        16           O   tau(  16) = (  0.4985141  0.5014859  0.4960513  )
        17           Sr  tau(  17) = (  0.7482398  0.7454518  0.3044833  )
        18           Sr  tau(  18) = (  0.7482398  0.7454518  0.4987103  )
        19           Sr  tau(  19) = (  0.7441748  0.2558252  0.3052408  )
        20           Sr  tau(  20) = (  0.7441748  0.2558252  0.4979527  )
        21           O   tau(  21) = (  0.7322655  0.0078049  0.5980003  )
        22           O   tau(  22) = (  0.7558175  0.4996027  0.5980003  )
        23           O   tau(  23) = (  0.5003973  0.2441825  0.5980003  )
        24           O   tau(  24) = (  0.7527966  0.4978604  0.4015968  )
        25           O   tau(  25) = (  0.5021396  0.2472034  0.4015968  )
        26           O   tau(  26) = (  0.7517679  0.0000000  0.4015968  )
        27           O   tau(  27) = (  0.0114961  0.4948124  0.6896512  )
        28           O   tau(  28) = (  0.0048226  0.0077944  0.6999492  )
        29           Sr  tau(  29) = (  0.2545482  0.2517602  0.6972903  )
        30           O   tau(  30) = (  0.5048017  0.0015068  0.7027529  )
        31           Co  tau(  31) = (  0.0056869  0.5006215  0.4015968  )
        32           Co  tau(  32) = (  0.0065315  0.4997770  0.5980003  )
        33           Co  tau(  33) = (  0.0061999  0.0064171  0.4015968  )
        34           Co  tau(  34) = (  0.0000000  0.0126169  0.5980003  )
        35           O   tau(  35) = (  0.0114961  0.4948124  0.5063494  )
        36           O   tau(  36) = (  0.0114961  0.4948124  0.2968442  )
        37           O   tau(  37) = (  0.0051979  0.2673486  0.4015968  )
        38           O   tau(  38) = (  0.0130029  0.2478461  0.5980003  )
        39           O   tau(  39) = (  0.0048226  0.0077944  0.3071422  )
        40           O   tau(  40) = (  0.0048226  0.0077944  0.4960513  )
        41           Sr  tau(  41) = (  0.2545482  0.2517602  0.3044833  )
        42           Sr  tau(  42) = (  0.2545482  0.2517602  0.4987103  )
        43           Co  tau(  43) = (  0.4989925  0.0073160  0.5980003  )
        44           Co  tau(  44) = (  0.4998370  0.0064714  0.4015968  )
        45           O   tau(  45) = (  0.5048017  0.0015068  0.3099459  )
        46           O   tau(  46) = (  0.5048017  0.0015068  0.4932477  )
        47           O   tau(  47) = (  0.2621260  0.0059111  0.5980003  )
        48           O   tau(  48) = (  0.2591051  0.0041689  0.4015968  )
        49           O   tau(  49) = (  0.5686583  0.0000000  0.8534850  )

     number of k points=    10  Gaussian smearing, width (Ry)=  0.0700
                       cart. coord. in units 2pi/alat
        k(    1) = (   0.0000000   0.0000000   0.0000000), wk =   0.1250000
        k(    2) = (   0.0000000   0.2500000   0.0000000), wk =   0.2500000
        k(    3) = (   0.0000000  -0.5000000   0.0000000), wk =   0.1250000
        k(    4) = (   0.2500000   0.2500000   0.0000000), wk =   0.2500000
        k(    5) = (   0.2500000  -0.5000000   0.0000000), wk =   0.2500000
        k(    6) = (  -0.5000000  -0.5000000   0.0000000), wk =   0.1250000
        k(    7) = (   0.2500000   0.0000000   0.0000000), wk =   0.2500000
        k(    8) = (  -0.5000000   0.0000000   0.0000000), wk =   0.1250000
        k(    9) = (  -0.2500000   0.2500000   0.0000000), wk =   0.2500000
        k(   10) = (  -0.5000000   0.2500000   0.0000000), wk =   0.2500000

                       cryst. coord.
        k(    1) = (   0.0000000   0.0000000   0.0000000), wk =   0.1250000
        k(    2) = (   0.0000000   0.2500000   0.0000000), wk =   0.2500000
        k(    3) = (   0.0000000  -0.5000000   0.0000000), wk =   0.1250000
        k(    4) = (   0.2500000   0.2500000   0.0000000), wk =   0.2500000
        k(    5) = (   0.2500000  -0.5000000   0.0000000), wk =   0.2500000
        k(    6) = (  -0.5000000  -0.5000000   0.0000000), wk =   0.1250000
        k(    7) = (   0.2500000   0.0000000   0.0000000), wk =   0.2500000
        k(    8) = (  -0.5000000   0.0000000   0.0000000), wk =   0.1250000
        k(    9) = (  -0.2500000   0.2500000   0.0000000), wk =   0.2500000
        k(   10) = (  -0.5000000   0.2500000   0.0000000), wk =   0.2500000

     Dense  grid:  1474595 G-vectors     FFT dimensions: ( 108, 108, 270)

     Smooth grid:   521381 G-vectors     FFT dimensions: (  75,  75, 192)

     Dynamical RAM for                 wfc:      10.69 MB

     Dynamical RAM for     wfc (w. buffer):      64.13 MB

     Dynamical RAM for           str. fact:       2.81 MB

     Dynamical RAM for           local pot:       0.00 MB

     Dynamical RAM for          nlocal pot:      24.53 MB

     Dynamical RAM for                qrad:       5.27 MB

     Dynamical RAM for          rho,v,vnew:       6.02 MB

     Dynamical RAM for               rhoin:       2.01 MB

     Dynamical RAM for            rho*nmix:      15.00 MB

     Dynamical RAM for           G-vectors:       3.68 MB

     Dynamical RAM for          h,s,v(r/c):       1.35 MB

     Dynamical RAM for          <psi|beta>:       2.33 MB

     Dynamical RAM for                 psi:      21.38 MB

     Dynamical RAM for                hpsi:      21.38 MB

     Dynamical RAM for                spsi:      21.38 MB

     Dynamical RAM for      wfcinit/wfcrot:      34.39 MB

     Dynamical RAM for           addusdens:     101.26 MB

     Estimated static dynamical RAM per process >     117.53 MB

     Estimated max dynamical RAM per process >     233.79 MB

     Estimated total dynamical RAM >      10.61 GB

     Check: negative core charge=   -0.000004

     Initial potential from superposition of free atoms

     starting charge     421.5961, renormalised to     430.0000

     negative rho (up, down):  7.826E-01 0.000E+00
     Starting wfcs are  376 randomized atomic wfcs
     Checking if some PAW data can be deallocated... 
       PAW data deallocated on   19 nodes for type:  2

     total cpu time spent up to now is        8.9 secs

     Self-consistent Calculation

     iteration #  1     ecut=    60.00 Ry     beta= 0.15
     Davidson diagonalization with overlap

---- Real-time Memory Report at c_bands before calling an iterative solver
             0 MiB given to the printing process from OS
             0 MiB allocation reported by mallinfo(arena+hblkhd)
         51474 MiB available memory on the node where the printing process lives
------------------
     ethr =  1.00E-02,  avg # of iterations =  2.0

     negative rho (up, down):  7.718E-01 0.000E+00

     total cpu time spent up to now is       24.0 secs

     total energy              =   -4445.29422719 Ry
     estimated scf accuracy    <      53.97121189 Ry

     iteration #  2     ecut=    60.00 Ry     beta= 0.15
     Davidson diagonalization with overlap

---- Real-time Memory Report at c_bands before calling an iterative solver
             0 MiB given to the printing process from OS
             0 MiB allocation reported by mallinfo(arena+hblkhd)
         51851 MiB available memory on the node where the printing process lives
------------------
     ethr =  1.00E-02,  avg # of iterations =  1.0

     negative rho (up, down):  7.582E-01 0.000E+00

     total cpu time spent up to now is       36.5 secs

     total energy              =   -4441.67215547 Ry
     estimated scf accuracy    <      29.09142013 Ry

     iteration #  3     ecut=    60.00 Ry     beta= 0.15
     Davidson diagonalization with overlap

---- Real-time Memory Report at c_bands before calling an iterative solver
             0 MiB given to the printing process from OS
             0 MiB allocation reported by mallinfo(arena+hblkhd)
         51055 MiB available memory on the node where the printing process lives
------------------
     ethr =  6.77E-03,  avg # of iterations =  1.0

     negative rho (up, down):  7.536E-01 0.000E+00

     total cpu time spent up to now is       49.4 secs

     total energy              =   -4442.68907244 Ry
     estimated scf accuracy    <      28.97867910 Ry

     iteration #  4     ecut=    60.00 Ry     beta= 0.15
     Davidson diagonalization with overlap

---- Real-time Memory Report at c_bands before calling an iterative solver
             0 MiB given to the printing process from OS
             0 MiB allocation reported by mallinfo(arena+hblkhd)
         51042 MiB available memory on the node where the printing process lives
------------------
     ethr =  6.74E-03,  avg # of iterations =  1.0

     negative rho (up, down):  7.529E-01 0.000E+00

     total cpu time spent up to now is       62.0 secs

     total energy              =   -4442.36585833 Ry
     estimated scf accuracy    <      25.59800276 Ry

     iteration #  5     ecut=    60.00 Ry     beta= 0.15
     Davidson diagonalization with overlap

---- Real-time Memory Report at c_bands before calling an iterative solver
             0 MiB given to the printing process from OS
             0 MiB allocation reported by mallinfo(arena+hblkhd)
         51025 MiB available memory on the node where the printing process lives
------------------
     ethr =  5.95E-03,  avg # of iterations =  1.0

     negative rho (up, down):  7.361E-01 0.000E+00

     total cpu time spent up to now is       74.4 secs

     total energy              =   -4441.09815676 Ry
     estimated scf accuracy    <      16.17931803 Ry

     iteration #  6     ecut=    60.00 Ry     beta= 0.15
     Davidson diagonalization with overlap

---- Real-time Memory Report at c_bands before calling an iterative solver
             0 MiB given to the printing process from OS
             0 MiB allocation reported by mallinfo(arena+hblkhd)
         51000 MiB available memory on the node where the printing process lives
------------------
     ethr =  3.76E-03,  avg # of iterations =  1.0

     negative rho (up, down):  7.427E-01 0.000E+00

     total cpu time spent up to now is       87.0 secs

     total energy              =   -4442.08681636 Ry
     estimated scf accuracy    <      47.10157744 Ry

     iteration #  7     ecut=    60.00 Ry     beta= 0.15
     Davidson diagonalization with overlap

---- Real-time Memory Report at c_bands before calling an iterative solver
             0 MiB given to the printing process from OS
             0 MiB allocation reported by mallinfo(arena+hblkhd)
         50975 MiB available memory on the node where the printing process lives
------------------
     ethr =  3.76E-03,  avg # of iterations =  1.0

     negative rho (up, down):  7.483E-01 0.000E+00

     total cpu time spent up to now is       99.3 secs

     total energy              =   -4439.54211809 Ry
     estimated scf accuracy    <      29.92383866 Ry

     iteration #  8     ecut=    60.00 Ry     beta= 0.15
     Davidson diagonalization with overlap

---- Real-time Memory Report at c_bands before calling an iterative solver
             0 MiB given to the printing process from OS
             0 MiB allocation reported by mallinfo(arena+hblkhd)
         50965 MiB available memory on the node where the printing process lives
------------------
     ethr =  3.76E-03,  avg # of iterations =  1.5

     negative rho (up, down):  7.498E-01 0.000E+00

     total cpu time spent up to now is      112.5 secs

     total energy              =   -4440.95364970 Ry
     estimated scf accuracy    <       5.72540029 Ry

     iteration #  9     ecut=    60.00 Ry     beta= 0.15
     Davidson diagonalization with overlap

---- Real-time Memory Report at c_bands before calling an iterative solver
             0 MiB given to the printing process from OS
             0 MiB allocation reported by mallinfo(arena+hblkhd)
         50949 MiB available memory on the node where the printing process lives
------------------
     ethr =  1.33E-03,  avg # of iterations =  1.8

     negative rho (up, down):  7.610E-01 0.000E+00

     total cpu time spent up to now is      126.0 secs

     total energy              =   -4440.24739905 Ry
     estimated scf accuracy    <       2.43470003 Ry

     iteration # 10     ecut=    60.00 Ry     beta= 0.15
     Davidson diagonalization with overlap

---- Real-time Memory Report at c_bands before calling an iterative solver
             0 MiB given to the printing process from OS
             0 MiB allocation reported by mallinfo(arena+hblkhd)
         50927 MiB available memory on the node where the printing process lives
------------------
     ethr =  5.66E-04,  avg # of iterations = 10.9

     negative rho (up, down):  7.670E-01 0.000E+00

     total cpu time spent up to now is      148.0 secs

     total energy              =   -4440.40204882 Ry
     estimated scf accuracy    <      23.58027685 Ry

     iteration # 11     ecut=    60.00 Ry     beta= 0.15
     Davidson diagonalization with overlap

---- Real-time Memory Report at c_bands before calling an iterative solver
             0 MiB given to the printing process from OS
             0 MiB allocation reported by mallinfo(arena+hblkhd)
         50306 MiB available memory on the node where the printing process lives
------------------
     ethr =  5.66E-04,  avg # of iterations =  1.0

     negative rho (up, down):  7.730E-01 0.000E+00

     total cpu time spent up to now is      160.4 secs

     total energy              =   -4440.40410044 Ry
     estimated scf accuracy    <      10.21141594 Ry

     iteration # 12     ecut=    60.00 Ry     beta= 0.15
     Davidson diagonalization with overlap

---- Real-time Memory Report at c_bands before calling an iterative solver
             0 MiB given to the printing process from OS
             0 MiB allocation reported by mallinfo(arena+hblkhd)
         50309 MiB available memory on the node where the printing process lives
------------------
     ethr =  5.66E-04,  avg # of iterations =  1.1

     negative rho (up, down):  7.793E-01 0.000E+00

     total cpu time spent up to now is      173.3 secs

     total energy              =   -4440.49601196 Ry
     estimated scf accuracy    <       0.99735449 Ry

     iteration # 13     ecut=    60.00 Ry     beta= 0.15
     Davidson diagonalization with overlap

---- Real-time Memory Report at c_bands before calling an iterative solver
             0 MiB given to the printing process from OS
             0 MiB allocation reported by mallinfo(arena+hblkhd)
         50332 MiB available memory on the node where the printing process lives
------------------
     ethr =  2.32E-04,  avg # of iterations =  1.7

     negative rho (up, down):  7.915E-01 0.000E+00

     total cpu time spent up to now is      186.1 secs

     total energy              =   -4440.48632642 Ry
     estimated scf accuracy    <       1.99895593 Ry

     iteration # 14     ecut=    60.00 Ry     beta= 0.15
     Davidson diagonalization with overlap

---- Real-time Memory Report at c_bands before calling an iterative solver
             0 MiB given to the printing process from OS
             0 MiB allocation reported by mallinfo(arena+hblkhd)
         50339 MiB available memory on the node where the printing process lives
------------------
     ethr =  2.32E-04,  avg # of iterations =  1.0

     negative rho (up, down):  8.065E-01 0.000E+00

     total cpu time spent up to now is      198.6 secs

     total energy              =   -4440.44529240 Ry
     estimated scf accuracy    <       2.29989239 Ry

     iteration # 15     ecut=    60.00 Ry     beta= 0.15
     Davidson diagonalization with overlap

---- Real-time Memory Report at c_bands before calling an iterative solver
             0 MiB given to the printing process from OS
             0 MiB allocation reported by mallinfo(arena+hblkhd)
         50353 MiB available memory on the node where the printing process lives
------------------
     ethr =  2.32E-04,  avg # of iterations =  1.1

     negative rho (up, down):  8.200E-01 0.000E+00

     total cpu time spent up to now is      211.4 secs

     total energy              =   -4440.42248600 Ry
     estimated scf accuracy    <       1.52349930 Ry

     iteration # 16     ecut=    60.00 Ry     beta= 0.15
     Davidson diagonalization with overlap

---- Real-time Memory Report at c_bands before calling an iterative solver
             0 MiB given to the printing process from OS
             0 MiB allocation reported by mallinfo(arena+hblkhd)
         50350 MiB available memory on the node where the printing process lives
------------------
     ethr =  2.32E-04,  avg # of iterations =  4.7

     negative rho (up, down):  8.066E-01 0.000E+00

     total cpu time spent up to now is      226.4 secs

     total energy              =   -4440.34611073 Ry
     estimated scf accuracy    <       3.19147987 Ry

     iteration # 17     ecut=    60.00 Ry     beta= 0.15
     Davidson diagonalization with overlap

---- Real-time Memory Report at c_bands before calling an iterative solver
             0 MiB given to the printing process from OS
             0 MiB allocation reported by mallinfo(arena+hblkhd)
         50343 MiB available memory on the node where the printing process lives
------------------
     ethr =  2.32E-04,  avg # of iterations =  3.7

     negative rho (up, down):  8.180E-01 0.000E+00

     total cpu time spent up to now is      241.0 secs

     total energy              =   -4440.35530610 Ry
     estimated scf accuracy    <       0.47052558 Ry

     iteration # 18     ecut=    60.00 Ry     beta= 0.15
     Davidson diagonalization with overlap

---- Real-time Memory Report at c_bands before calling an iterative solver
             0 MiB given to the printing process from OS
             0 MiB allocation reported by mallinfo(arena+hblkhd)
         50336 MiB available memory on the node where the printing process lives
------------------
     c_bands:  1 eigenvalues not converged
     ethr =  1.09E-04,  avg # of iterations = 14.8

     negative rho (up, down):  8.233E-01 0.000E+00

     total cpu time spent up to now is      260.7 secs

     total energy              =   -4440.33946992 Ry
     estimated scf accuracy    <       0.24513680 Ry

     iteration # 19     ecut=    60.00 Ry     beta= 0.15
     Davidson diagonalization with overlap

---- Real-time Memory Report at c_bands before calling an iterative solver
             0 MiB given to the printing process from OS
             0 MiB allocation reported by mallinfo(arena+hblkhd)
         50293 MiB available memory on the node where the printing process lives
------------------
     ethr =  5.70E-05,  avg # of iterations =  5.3

     negative rho (up, down):  8.205E-01 0.000E+00

     total cpu time spent up to now is      276.6 secs

     total energy              =   -4440.32763396 Ry
     estimated scf accuracy    <       0.17751615 Ry

     iteration # 20     ecut=    60.00 Ry     beta= 0.15
     Davidson diagonalization with overlap

---- Real-time Memory Report at c_bands before calling an iterative solver
             0 MiB given to the printing process from OS
             0 MiB allocation reported by mallinfo(arena+hblkhd)
         50300 MiB available memory on the node where the printing process lives
------------------
     ethr =  4.13E-05,  avg # of iterations =  4.7

     negative rho (up, down):  8.067E-01 0.000E+00

     total cpu time spent up to now is      292.0 secs

     total energy              =   -4440.30024974 Ry
     estimated scf accuracy    <       0.13954370 Ry

     iteration # 21     ecut=    60.00 Ry     beta= 0.15
     Davidson diagonalization with overlap

---- Real-time Memory Report at c_bands before calling an iterative solver
             0 MiB given to the printing process from OS
             0 MiB allocation reported by mallinfo(arena+hblkhd)
         50330 MiB available memory on the node where the printing process lives
------------------
     ethr =  3.25E-05,  avg # of iterations =  9.3

     negative rho (up, down):  8.399E-01 0.000E+00

     total cpu time spent up to now is      310.0 secs

     total energy              =   -4440.29816958 Ry
     estimated scf accuracy    <       0.07225902 Ry

     iteration # 22     ecut=    60.00 Ry     beta= 0.15
     Davidson diagonalization with overlap

---- Real-time Memory Report at c_bands before calling an iterative solver
             0 MiB given to the printing process from OS
             0 MiB allocation reported by mallinfo(arena+hblkhd)
         50302 MiB available memory on the node where the printing process lives
------------------
     ethr =  1.68E-05,  avg # of iterations =  7.9

     negative rho (up, down):  8.241E-01 0.000E+00

     total cpu time spent up to now is      327.5 secs

     total energy              =   -4440.29396371 Ry
     estimated scf accuracy    <       0.04398523 Ry

     iteration # 23     ecut=    60.00 Ry     beta= 0.15
     Davidson diagonalization with overlap

---- Real-time Memory Report at c_bands before calling an iterative solver
             0 MiB given to the printing process from OS
             0 MiB allocation reported by mallinfo(arena+hblkhd)
         50300 MiB available memory on the node where the printing process lives
------------------
     ethr =  1.02E-05,  avg # of iterations =  1.8

     negative rho (up, down):  8.261E-01 0.000E+00

     total cpu time spent up to now is      341.2 secs

     total energy              =   -4440.29446146 Ry
     estimated scf accuracy    <       0.02157786 Ry

     iteration # 24     ecut=    60.00 Ry     beta= 0.15
     Davidson diagonalization with overlap

---- Real-time Memory Report at c_bands before calling an iterative solver
             0 MiB given to the printing process from OS
             0 MiB allocation reported by mallinfo(arena+hblkhd)
         50303 MiB available memory on the node where the printing process lives
------------------
     c_bands:  1 eigenvalues not converged
     ethr =  5.02E-06,  avg # of iterations = 11.2

     negative rho (up, down):  8.106E-01 0.000E+00

     total cpu time spent up to now is      358.7 secs

     total energy              =   -4440.29297891 Ry
     estimated scf accuracy    <       0.01519503 Ry

     iteration # 25     ecut=    60.00 Ry     beta= 0.15
     Davidson diagonalization with overlap

---- Real-time Memory Report at c_bands before calling an iterative solver
             0 MiB given to the printing process from OS
             0 MiB allocation reported by mallinfo(arena+hblkhd)
         50296 MiB available memory on the node where the printing process lives
------------------
     ethr =  3.53E-06,  avg # of iterations =  2.8

     negative rho (up, down):  7.985E-01 0.000E+00

     total cpu time spent up to now is      373.5 secs

     total energy              =   -4440.29056621 Ry
     estimated scf accuracy    <       0.01175833 Ry

     iteration # 26     ecut=    60.00 Ry     beta= 0.15
     Davidson diagonalization with overlap

---- Real-time Memory Report at c_bands before calling an iterative solver
             0 MiB given to the printing process from OS
             0 MiB allocation reported by mallinfo(arena+hblkhd)
         50321 MiB available memory on the node where the printing process lives
------------------
     ethr =  2.73E-06,  avg # of iterations =  6.5

     negative rho (up, down):  7.994E-01 0.000E+00

     total cpu time spent up to now is      390.1 secs

     total energy              =   -4440.29050875 Ry
     estimated scf accuracy    <       0.00483063 Ry

     iteration # 27     ecut=    60.00 Ry     beta= 0.15
     Davidson diagonalization with overlap

---- Real-time Memory Report at c_bands before calling an iterative solver
             0 MiB given to the printing process from OS
             0 MiB allocation reported by mallinfo(arena+hblkhd)
         50339 MiB available memory on the node where the printing process lives
------------------
     ethr =  1.12E-06,  avg # of iterations =  9.3

     negative rho (up, down):  7.979E-01 0.000E+00

     total cpu time spent up to now is      407.9 secs

     total energy              =   -4440.29036087 Ry
     estimated scf accuracy    <       0.00270321 Ry

     iteration # 28     ecut=    60.00 Ry     beta= 0.15
     Davidson diagonalization with overlap

---- Real-time Memory Report at c_bands before calling an iterative solver
             0 MiB given to the printing process from OS
             0 MiB allocation reported by mallinfo(arena+hblkhd)
         50316 MiB available memory on the node where the printing process lives
------------------
     c_bands:  1 eigenvalues not converged
     c_bands:  1 eigenvalues not converged
     ethr =  6.29E-07,  avg # of iterations =  9.0

     negative rho (up, down):  8.002E-01 0.000E+00

     total cpu time spent up to now is      425.4 secs

     total energy              =   -4440.29046875 Ry
     estimated scf accuracy    <       0.00152824 Ry

     iteration # 29     ecut=    60.00 Ry     beta= 0.15
     Davidson diagonalization with overlap

---- Real-time Memory Report at c_bands before calling an iterative solver
             0 MiB given to the printing process from OS
             0 MiB allocation reported by mallinfo(arena+hblkhd)
         50316 MiB available memory on the node where the printing process lives
------------------
     c_bands:  1 eigenvalues not converged
     ethr =  3.55E-07,  avg # of iterations =  7.0

     negative rho (up, down):  7.964E-01 0.000E+00

     total cpu time spent up to now is      442.1 secs

     total energy              =   -4440.29022112 Ry
     estimated scf accuracy    <       0.00084252 Ry

     iteration # 30     ecut=    60.00 Ry     beta= 0.15
     Davidson diagonalization with overlap

---- Real-time Memory Report at c_bands before calling an iterative solver
             0 MiB given to the printing process from OS
             0 MiB allocation reported by mallinfo(arena+hblkhd)
         50321 MiB available memory on the node where the printing process lives
------------------
     ethr =  1.96E-07,  avg # of iterations =  9.3

     negative rho (up, down):  7.952E-01 0.000E+00

     total cpu time spent up to now is      460.3 secs

     total energy              =   -4440.29020026 Ry
     estimated scf accuracy    <       0.00039119 Ry

     iteration # 31     ecut=    60.00 Ry     beta= 0.15
     Davidson diagonalization with overlap

---- Real-time Memory Report at c_bands before calling an iterative solver
             0 MiB given to the printing process from OS
             0 MiB allocation reported by mallinfo(arena+hblkhd)
         50343 MiB available memory on the node where the printing process lives
------------------
     ethr =  9.10E-08,  avg # of iterations =  5.9

     negative rho (up, down):  7.946E-01 0.000E+00

     total cpu time spent up to now is      476.5 secs

     total energy              =   -4440.29021658 Ry
     estimated scf accuracy    <       0.00018142 Ry

     iteration # 32     ecut=    60.00 Ry     beta= 0.15
     Davidson diagonalization with overlap

---- Real-time Memory Report at c_bands before calling an iterative solver
             0 MiB given to the printing process from OS
             0 MiB allocation reported by mallinfo(arena+hblkhd)
         50274 MiB available memory on the node where the printing process lives
------------------
     ethr =  4.22E-08,  avg # of iterations =  1.0

     negative rho (up, down):  7.940E-01 0.000E+00

     total cpu time spent up to now is      489.3 secs

     total energy              =   -4440.29021731 Ry
     estimated scf accuracy    <       0.00013905 Ry

     iteration # 33     ecut=    60.00 Ry     beta= 0.15
     Davidson diagonalization with overlap

---- Real-time Memory Report at c_bands before calling an iterative solver
             0 MiB given to the printing process from OS
             0 MiB allocation reported by mallinfo(arena+hblkhd)
         50281 MiB available memory on the node where the printing process lives
------------------
     ethr =  3.23E-08,  avg # of iterations =  1.5

     negative rho (up, down):  7.930E-01 0.000E+00

     total cpu time spent up to now is      502.7 secs

     total energy              =   -4440.29023381 Ry
     estimated scf accuracy    <       0.00006715 Ry

     iteration # 34     ecut=    60.00 Ry     beta= 0.15
     Davidson diagonalization with overlap

---- Real-time Memory Report at c_bands before calling an iterative solver
             0 MiB given to the printing process from OS
             0 MiB allocation reported by mallinfo(arena+hblkhd)
         50302 MiB available memory on the node where the printing process lives
------------------
     ethr =  1.56E-08,  avg # of iterations =  3.1

     negative rho (up, down):  7.929E-01 0.000E+00

     total cpu time spent up to now is      517.9 secs

     total energy              =   -4440.29024034 Ry
     estimated scf accuracy    <       0.00000878 Ry

     iteration # 35     ecut=    60.00 Ry     beta= 0.15
     Davidson diagonalization with overlap

---- Real-time Memory Report at c_bands before calling an iterative solver
             0 MiB given to the printing process from OS
             0 MiB allocation reported by mallinfo(arena+hblkhd)
         50296 MiB available memory on the node where the printing process lives
------------------
     ethr =  2.04E-09,  avg # of iterations =  2.6

     negative rho (up, down):  7.928E-01 0.000E+00

     total cpu time spent up to now is      533.3 secs

     total energy              =   -4440.29024066 Ry
     estimated scf accuracy    <       0.00000495 Ry

     iteration # 36     ecut=    60.00 Ry     beta= 0.15
     Davidson diagonalization with overlap

---- Real-time Memory Report at c_bands before calling an iterative solver
             0 MiB given to the printing process from OS
             0 MiB allocation reported by mallinfo(arena+hblkhd)
         50310 MiB available memory on the node where the printing process lives
------------------
     ethr =  1.15E-09,  avg # of iterations =  1.5

     negative rho (up, down):  7.927E-01 0.000E+00

     total cpu time spent up to now is      546.9 secs

     total energy              =   -4440.29024056 Ry
     estimated scf accuracy    <       0.00000362 Ry

     iteration # 37     ecut=    60.00 Ry     beta= 0.15
     Davidson diagonalization with overlap

---- Real-time Memory Report at c_bands before calling an iterative solver
             0 MiB given to the printing process from OS
             0 MiB allocation reported by mallinfo(arena+hblkhd)
         50320 MiB available memory on the node where the printing process lives
------------------
     ethr =  8.42E-10,  avg # of iterations =  2.0

     negative rho (up, down):  7.926E-01 0.000E+00

     total cpu time spent up to now is      561.2 secs

     total energy              =   -4440.29024155 Ry
     estimated scf accuracy    <       0.00000245 Ry

     iteration # 38     ecut=    60.00 Ry     beta= 0.15
     Davidson diagonalization with overlap

---- Real-time Memory Report at c_bands before calling an iterative solver
             0 MiB given to the printing process from OS
             0 MiB allocation reported by mallinfo(arena+hblkhd)
         50332 MiB available memory on the node where the printing process lives
------------------
     ethr =  5.70E-10,  avg # of iterations =  2.2

     negative rho (up, down):  7.925E-01 0.000E+00

     total cpu time spent up to now is      575.5 secs

     total energy              =   -4440.29024216 Ry
     estimated scf accuracy    <       0.00000116 Ry

     iteration # 39     ecut=    60.00 Ry     beta= 0.15
     Davidson diagonalization with overlap

---- Real-time Memory Report at c_bands before calling an iterative solver
             0 MiB given to the printing process from OS
             0 MiB allocation reported by mallinfo(arena+hblkhd)
         50333 MiB available memory on the node where the printing process lives
------------------
     ethr =  2.69E-10,  avg # of iterations =  3.0

     negative rho (up, down):  7.925E-01 0.000E+00

     total cpu time spent up to now is      590.1 secs

     total energy              =   -4440.29024216 Ry
     estimated scf accuracy    <       0.00000099 Ry

     iteration # 40     ecut=    60.00 Ry     beta= 0.15
     Davidson diagonalization with overlap

---- Real-time Memory Report at c_bands before calling an iterative solver
             0 MiB given to the printing process from OS
             0 MiB allocation reported by mallinfo(arena+hblkhd)
         50342 MiB available memory on the node where the printing process lives
------------------
     ethr =  2.30E-10,  avg # of iterations =  2.0

     negative rho (up, down):  7.925E-01 0.000E+00

     total cpu time spent up to now is      604.0 secs

     total energy              =   -4440.29024214 Ry
     estimated scf accuracy    <       0.00000047 Ry

     iteration # 41     ecut=    60.00 Ry     beta= 0.15
     Davidson diagonalization with overlap

---- Real-time Memory Report at c_bands before calling an iterative solver
             0 MiB given to the printing process from OS
             0 MiB allocation reported by mallinfo(arena+hblkhd)
         50348 MiB available memory on the node where the printing process lives
------------------
     ethr =  1.08E-10,  avg # of iterations =  2.0

     negative rho (up, down):  7.925E-01 0.000E+00

     total cpu time spent up to now is      618.0 secs

     total energy              =   -4440.29024212 Ry
     estimated scf accuracy    <       0.00000034 Ry

     iteration # 42     ecut=    60.00 Ry     beta= 0.15
     Davidson diagonalization with overlap

---- Real-time Memory Report at c_bands before calling an iterative solver
             0 MiB given to the printing process from OS
             0 MiB allocation reported by mallinfo(arena+hblkhd)
         50358 MiB available memory on the node where the printing process lives
------------------
     ethr =  7.89E-11,  avg # of iterations =  1.0

     negative rho (up, down):  7.925E-01 0.000E+00

     total cpu time spent up to now is      630.5 secs

     total energy              =   -4440.29024211 Ry
     estimated scf accuracy    <       0.00000024 Ry

     iteration # 43     ecut=    60.00 Ry     beta= 0.15
     Davidson diagonalization with overlap

---- Real-time Memory Report at c_bands before calling an iterative solver
             0 MiB given to the printing process from OS
             0 MiB allocation reported by mallinfo(arena+hblkhd)
         50364 MiB available memory on the node where the printing process lives
------------------
     ethr =  5.64E-11,  avg # of iterations =  2.0

     negative rho (up, down):  7.925E-01 0.000E+00

     total cpu time spent up to now is      644.8 secs

     total energy              =   -4440.29024212 Ry
     estimated scf accuracy    <       0.00000015 Ry

     iteration # 44     ecut=    60.00 Ry     beta= 0.15
     Davidson diagonalization with overlap

---- Real-time Memory Report at c_bands before calling an iterative solver
             0 MiB given to the printing process from OS
             0 MiB allocation reported by mallinfo(arena+hblkhd)
         50362 MiB available memory on the node where the printing process lives
------------------
     ethr =  3.48E-11,  avg # of iterations =  2.4

     negative rho (up, down):  7.926E-01 0.000E+00

     total cpu time spent up to now is      659.2 secs

     total energy              =   -4440.29024213 Ry
     estimated scf accuracy    <       0.00000007 Ry

     iteration # 45     ecut=    60.00 Ry     beta= 0.15
     Davidson diagonalization with overlap

---- Real-time Memory Report at c_bands before calling an iterative solver
             0 MiB given to the printing process from OS
             0 MiB allocation reported by mallinfo(arena+hblkhd)
         50361 MiB available memory on the node where the printing process lives
------------------
     ethr =  1.67E-11,  avg # of iterations =  2.1

     negative rho (up, down):  7.926E-01 0.000E+00

     total cpu time spent up to now is      673.7 secs

     total energy              =   -4440.29024214 Ry
     estimated scf accuracy    <       0.00000004 Ry

     iteration # 46     ecut=    60.00 Ry     beta= 0.15
     Davidson diagonalization with overlap

---- Real-time Memory Report at c_bands before calling an iterative solver
             0 MiB given to the printing process from OS
             0 MiB allocation reported by mallinfo(arena+hblkhd)
         50354 MiB available memory on the node where the printing process lives
------------------
     ethr =  8.24E-12,  avg # of iterations =  2.6

     negative rho (up, down):  7.926E-01 0.000E+00

     total cpu time spent up to now is      688.1 secs

     total energy              =   -4440.29024214 Ry
     estimated scf accuracy    <       0.00000003 Ry

     iteration # 47     ecut=    60.00 Ry     beta= 0.15
     Davidson diagonalization with overlap

---- Real-time Memory Report at c_bands before calling an iterative solver
             0 MiB given to the printing process from OS
             0 MiB allocation reported by mallinfo(arena+hblkhd)
         50348 MiB available memory on the node where the printing process lives
------------------
     ethr =  6.07E-12,  avg # of iterations =  2.8

     negative rho (up, down):  7.926E-01 0.000E+00

     total cpu time spent up to now is      702.4 secs

     total energy              =   -4440.29024214 Ry
     estimated scf accuracy    <       0.00000002 Ry

     iteration # 48     ecut=    60.00 Ry     beta= 0.15
     Davidson diagonalization with overlap

---- Real-time Memory Report at c_bands before calling an iterative solver
             0 MiB given to the printing process from OS
             0 MiB allocation reported by mallinfo(arena+hblkhd)
         50359 MiB available memory on the node where the printing process lives
------------------
     ethr =  4.41E-12,  avg # of iterations =  2.0

     negative rho (up, down):  7.926E-01 0.000E+00

     total cpu time spent up to now is      716.4 secs

     total energy              =   -4440.29024214 Ry
     estimated scf accuracy    <       0.00000001 Ry

     iteration # 49     ecut=    60.00 Ry     beta= 0.15
     Davidson diagonalization with overlap

---- Real-time Memory Report at c_bands before calling an iterative solver
             0 MiB given to the printing process from OS
             0 MiB allocation reported by mallinfo(arena+hblkhd)
         50361 MiB available memory on the node where the printing process lives
------------------
     ethr =  2.40E-12,  avg # of iterations =  1.3

     negative rho (up, down):  7.926E-01 0.000E+00

     total cpu time spent up to now is      729.2 secs

     End of self-consistent calculation

          k = 0.0000 0.0000 0.0000 ( 65197 PWs)   bands (ev):

   -92.8450 -92.7904 -92.6983 -92.6449 -92.5935 -92.5512 -92.5336 -92.4122
   -56.1985 -56.1769 -56.0554 -56.0453 -56.0328 -56.0322 -55.9947 -55.9674
   -55.9524 -55.9510 -55.9412 -55.9006 -55.8799 -55.8441 -55.8248 -55.7937
   -55.7754 -55.7390 -55.7372 -55.7361 -55.7277 -55.6874 -55.6638 -55.5790
   -31.4098 -31.3903 -31.2484 -31.1619 -31.1414 -31.0516 -31.0263 -30.9067
   -29.9906 -29.9477 -29.9216 -29.8137 -15.2217 -15.1803 -15.0977 -14.9676
   -14.7746 -14.6508 -14.3594 -14.3388 -14.3098 -14.2627 -14.2172 -14.2076
   -14.1982 -14.1795 -14.1583 -14.1140 -14.0715 -13.9186 -13.7430 -13.7070
   -13.6770 -13.6481 -13.6292 -13.5697 -13.5384 -13.4527 -13.3847 -13.2483
   -13.2404 -13.2312 -13.2077 -13.1898 -13.1583 -13.1371 -13.1329 -13.1217
   -13.0855 -13.0556 -13.0343 -12.9904 -12.9700 -12.9550 -12.9257 -12.9053
   -12.8773 -12.8440 -12.8015 -12.7927 -12.4761 -12.3303 -12.1642 -12.0956
   -12.0041 -11.9659 -11.9300 -11.9189 -11.8963 -11.8786 -11.8151 -11.7976
   -11.7629 -11.7335 -11.6224 -11.5424 -11.5390  -3.0838  -2.8515  -2.6220
    -2.4749  -2.4123  -2.2699  -1.9624  -1.9485  -1.9290  -1.8447  -1.8251
    -1.7567  -1.7399  -1.6991  -1.6556  -1.4738  -1.2500  -1.2199  -1.0725
    -1.0582  -1.0132  -0.9938  -0.9472  -0.9307  -0.8762  -0.8491  -0.7749
    -0.7624  -0.6888  -0.5542  -0.5392  -0.5148  -0.4339  -0.4229  -0.4055
    -0.3378  -0.2706  -0.2131  -0.1716  -0.1391  -0.0761  -0.0054   0.0393
     0.0624   0.0736   0.3321   0.3467   0.5210   0.5850   0.6553   0.6965
     0.7858   0.7995   0.8145   0.8828   0.9088   0.9422   1.0011   1.1312
     1.1920   1.2113   1.2317   1.2460   1.3100   1.3790   1.4882   1.4983
     1.5674   1.5809   1.6219   1.6367   1.6440   1.7032   1.7581   1.7714
     1.8131   1.8550   1.8860   2.0178   2.1049   2.1441   2.1626   2.3162
     2.3324   2.3693   2.3727   2.4799   2.5153   2.5419   2.5604   2.5723
     2.6330   2.6478   2.6622   2.6835   2.7784   2.7974   2.8088   2.8164
     2.8839   2.8939   2.9112   2.9185   2.9279   2.9449   2.9506   2.9605
     2.9664   2.9796   2.9873   2.9946   3.0143   3.0359   3.0408   3.0539
     3.1155   3.1952   3.2897   3.9739   4.3134   4.6571   4.8494   4.9021
     5.7289   5.8161   5.8705   5.8891   6.1725   6.2191   6.4575   6.4665
     6.9616   6.9812   7.0965   7.1930   7.3786   7.4729   7.5405   7.5761
     7.5948   7.8930   7.9059   8.0572   8.0732   8.1448   8.3114   8.4164
     8.7381   8.8640

     occupation numbers 
     1.0000   1.0000   1.0000   1.0000   1.0000   1.0000   1.0000   1.0000
     1.0000   1.0000   1.0000   1.0000   1.0000   1.0000   1.0000   1.0000
     1.0000   1.0000   1.0000   1.0000   1.0000   1.0000   1.0000   1.0000
     1.0000   1.0000   1.0000   1.0000   1.0000   1.0000   1.0000   1.0000
     1.0000   1.0000   1.0000   1.0000   1.0000   1.0000   1.0000   1.0000
     1.0000   1.0000   1.0000   1.0000   1.0000   1.0000   1.0000   1.0000
     1.0000   1.0000   1.0000   1.0000   1.0000   1.0000   1.0000   1.0000
     1.0000   1.0000   1.0000   1.0000   1.0000   1.0000   1.0000   1.0000
     1.0000   1.0000   1.0000   1.0000   1.0000   1.0000   1.0000   1.0000
     1.0000   1.0000   1.0000   1.0000   1.0000   1.0000   1.0000   1.0000
     1.0000   1.0000   1.0000   1.0000   1.0000   1.0000   1.0000   1.0000
     1.0000   1.0000   1.0000   1.0000   1.0000   1.0000   1.0000   1.0000
     1.0000   1.0000   1.0000   1.0000   1.0000   1.0000   1.0000   1.0000
     1.0000   1.0000   1.0000   1.0000   1.0000   1.0000   1.0000   1.0000
     1.0000   1.0000   1.0000   1.0000   1.0000   1.0000   1.0000   1.0000
     1.0000   1.0000   1.0000   1.0000   1.0000   1.0000   1.0000   1.0000
     1.0000   1.0000   1.0000   1.0000   1.0000   1.0000   1.0000   1.0000
     1.0000   1.0000   1.0000   1.0000   1.0000   1.0000   1.0000   1.0000
     1.0000   1.0000   1.0000   1.0000   1.0000   1.0000   1.0000   1.0000
     1.0000   1.0000   1.0000   1.0000   1.0000   0.9999   0.9999   0.9999
     0.9998   0.9998   0.9998   0.9997   0.9996   0.9996   0.9994   0.9988
     0.9985   0.9983   0.9981   0.9980   0.9973   0.9963   0.9941   0.9938
     0.9918   0.9914   0.9898   0.9892   0.9889   0.9861   0.9829   0.9820
     0.9791   0.9758   0.9730   0.9583   0.9455   0.9387   0.9353   0.9012
     0.8970   0.8868   0.8858   0.8521   0.8396   0.8298   0.8227   0.8181
     0.7933   0.7870   0.7807   0.7713   0.7265   0.7170   0.7113   0.7074
     0.6720   0.6667   0.6573   0.6532   0.6481   0.6387   0.6355   0.6300
     0.6267   0.6192   0.6149   0.6107   0.5994   0.5870   0.5842   0.5765
     0.5405   0.4933   0.4376   0.1204   0.0468   0.0144   0.0067   0.0054
     0.0001   0.0000   0.0000   0.0000   0.0000   0.0000   0.0000   0.0000
     0.0000   0.0000   0.0000   0.0000   0.0000   0.0000   0.0000   0.0000
     0.0000   0.0000   0.0000   0.0000   0.0000   0.0000   0.0000   0.0000
     0.0000   0.0000

          k = 0.0000 0.2500 0.0000 ( 65257 PWs)   bands (ev):

   -92.8450 -92.7904 -92.6983 -92.6449 -92.5935 -92.5512 -92.5336 -92.4122
   -56.1985 -56.1769 -56.0554 -56.0453 -56.0328 -56.0322 -55.9947 -55.9674
   -55.9524 -55.9510 -55.9412 -55.9006 -55.8799 -55.8441 -55.8248 -55.7937
   -55.7754 -55.7390 -55.7372 -55.7361 -55.7277 -55.6874 -55.6638 -55.5790
   -31.4096 -31.3901 -31.2486 -31.1621 -31.1411 -31.0520 -31.0260 -30.9070
   -29.9900 -29.9474 -29.9223 -29.8141 -15.1851 -15.1541 -15.0726 -14.9383
   -14.8163 -14.6413 -14.5054 -14.3248 -14.2901 -14.2667 -14.2386 -14.1830
   -14.1751 -14.1615 -14.1410 -14.0874 -13.9906 -13.9497 -13.7851 -13.7679
   -13.7170 -13.6822 -13.6403 -13.5904 -13.5432 -13.4781 -13.4386 -13.3539
   -13.3073 -13.2798 -13.2410 -13.2233 -13.1490 -13.1197 -13.0938 -13.0671
   -13.0358 -13.0202 -13.0001 -12.9599 -12.9353 -12.9273 -12.9073 -12.8567
   -12.8509 -12.8242 -12.7159 -12.6438 -12.5374 -12.3816 -12.2197 -12.1624
   -11.9700 -11.9660 -11.9269 -11.8987 -11.8707 -11.8542 -11.8069 -11.7955
   -11.7727 -11.7385 -11.6368 -11.5842 -11.5736  -2.9485  -2.7271  -2.5896
    -2.4074  -2.3639  -2.2004  -1.9800  -1.8967  -1.8838  -1.8262  -1.7229
    -1.7070  -1.6736  -1.6459  -1.6022  -1.4049  -1.2762  -1.2647  -1.1883
    -1.1784  -1.0738  -1.0433  -0.9852  -0.9602  -0.9201  -0.8562  -0.8288
    -0.7976  -0.7625  -0.7467  -0.7151  -0.6384  -0.5907  -0.5277  -0.4096
    -0.3935  -0.3469  -0.2293  -0.1910  -0.1271  -0.0831  -0.0196  -0.0082
     0.0211   0.0835   0.3801   0.4668   0.4990   0.5879   0.6361   0.6564
     0.7696   0.7877   0.8864   0.9106   0.9343   1.0490   1.1436   1.1671
     1.1890   1.2076   1.2341   1.2936   1.3209   1.3490   1.3962   1.4338
     1.4636   1.5474   1.5787   1.6235   1.6687   1.7275   1.7780   1.7998
     1.8199   1.8421   1.9308   2.0536   2.1267   2.1448   2.2178   2.2681
     2.3081   2.3187   2.3752   2.4126   2.4968   2.5348   2.5505   2.6394
     2.6514   2.6691   2.7255   2.7556   2.7814   2.8008   2.8189   2.8254
     2.8324   2.8492   2.8718   2.8736   2.8946   2.8973   2.9067   2.9285
     2.9398   2.9499   2.9668   2.9767   2.9813   3.0165   3.0346   3.0955
     3.4804   3.5213   3.7383   4.1608   4.3193   4.5838   4.9228   5.0128
     5.5448   5.6534   5.8356   5.9430   5.9691   6.0081   6.0948   6.5714
     7.0176   7.0542   7.2037   7.2688   7.3789   7.4336   7.4590   7.5726
     7.7142   7.9842   8.0980   8.2046   8.3028   8.3138   8.3275   8.3474
     8.4668   8.8342

     occupation numbers 
     1.0000   1.0000   1.0000   1.0000   1.0000   1.0000   1.0000   1.0000
     1.0000   1.0000   1.0000   1.0000   1.0000   1.0000   1.0000   1.0000
     1.0000   1.0000   1.0000   1.0000   1.0000   1.0000   1.0000   1.0000
     1.0000   1.0000   1.0000   1.0000   1.0000   1.0000   1.0000   1.0000
     1.0000   1.0000   1.0000   1.0000   1.0000   1.0000   1.0000   1.0000
     1.0000   1.0000   1.0000   1.0000   1.0000   1.0000   1.0000   1.0000
     1.0000   1.0000   1.0000   1.0000   1.0000   1.0000   1.0000   1.0000
     1.0000   1.0000   1.0000   1.0000   1.0000   1.0000   1.0000   1.0000
     1.0000   1.0000   1.0000   1.0000   1.0000   1.0000   1.0000   1.0000
     1.0000   1.0000   1.0000   1.0000   1.0000   1.0000   1.0000   1.0000
     1.0000   1.0000   1.0000   1.0000   1.0000   1.0000   1.0000   1.0000
     1.0000   1.0000   1.0000   1.0000   1.0000   1.0000   1.0000   1.0000
     1.0000   1.0000   1.0000   1.0000   1.0000   1.0000   1.0000   1.0000
     1.0000   1.0000   1.0000   1.0000   1.0000   1.0000   1.0000   1.0000
     1.0000   1.0000   1.0000   1.0000   1.0000   1.0000   1.0000   1.0000
     1.0000   1.0000   1.0000   1.0000   1.0000   1.0000   1.0000   1.0000
     1.0000   1.0000   1.0000   1.0000   1.0000   1.0000   1.0000   1.0000
     1.0000   1.0000   1.0000   1.0000   1.0000   1.0000   1.0000   1.0000
     1.0000   1.0000   1.0000   1.0000   1.0000   1.0000   1.0000   1.0000
     1.0000   1.0000   1.0000   1.0000   1.0000   0.9999   0.9999   0.9999
     0.9998   0.9998   0.9997   0.9996   0.9996   0.9992   0.9988   0.9986
     0.9985   0.9983   0.9981   0.9975   0.9972   0.9968   0.9960   0.9953
     0.9947   0.9925   0.9914   0.9898   0.9878   0.9847   0.9816   0.9801
     0.9786   0.9768   0.9686   0.9534   0.9418   0.9386   0.9243   0.9131
     0.9033   0.9006   0.8851   0.8740   0.8462   0.8324   0.8265   0.7906
     0.7855   0.7777   0.7520   0.7376   0.7250   0.7153   0.7061   0.7028
     0.6992   0.6904   0.6785   0.6775   0.6663   0.6648   0.6597   0.6477
     0.6415   0.6359   0.6264   0.6208   0.6183   0.5982   0.5877   0.5523
     0.3299   0.3082   0.2052   0.0735   0.0459   0.0188   0.0049   0.0033
     0.0002   0.0001   0.0000   0.0000   0.0000   0.0000   0.0000   0.0000
     0.0000   0.0000   0.0000   0.0000   0.0000   0.0000   0.0000   0.0000
     0.0000   0.0000   0.0000   0.0000   0.0000   0.0000   0.0000   0.0000
     0.0000   0.0000

          k = 0.0000-0.5000 0.0000 ( 65180 PWs)   bands (ev):

   -92.8450 -92.7904 -92.6983 -92.6449 -92.5935 -92.5512 -92.5336 -92.4122
   -56.1985 -56.1769 -56.0554 -56.0453 -56.0328 -56.0322 -55.9947 -55.9674
   -55.9524 -55.9510 -55.9412 -55.9006 -55.8799 -55.8441 -55.8248 -55.7937
   -55.7754 -55.7390 -55.7372 -55.7361 -55.7277 -55.6874 -55.6638 -55.5790
   -31.4094 -31.3900 -31.2488 -31.1622 -31.1408 -31.0523 -31.0258 -30.9072
   -29.9894 -29.9471 -29.9229 -29.8144 -15.1511 -15.1019 -15.0490 -14.9211
   -14.8368 -14.6995 -14.5449 -14.4210 -14.2969 -14.2214 -14.1826 -14.1769
   -14.1255 -14.1095 -14.0607 -14.0411 -14.0155 -13.9796 -13.9415 -13.9005
   -13.7225 -13.6649 -13.6476 -13.5952 -13.5301 -13.4964 -13.4388 -13.4144
   -13.3911 -13.3491 -13.2418 -13.2242 -13.1366 -13.1024 -13.0920 -13.0648
   -13.0599 -13.0151 -12.9598 -12.9243 -12.9043 -12.8471 -12.8390 -12.8388
   -12.8262 -12.7850 -12.6483 -12.5740 -12.4568 -12.4274 -12.3274 -12.2843
   -11.9666 -11.9238 -11.9212 -11.8936 -11.8566 -11.8221 -11.8108 -11.7686
   -11.7647 -11.7202 -11.6586 -11.6449 -11.6308  -2.7342  -2.6740  -2.5242
    -2.4520  -2.1708  -2.0843  -1.9600  -1.8222  -1.7866  -1.7650  -1.6872
    -1.6554  -1.5735  -1.5378  -1.4609  -1.4205  -1.3826  -1.3551  -1.2978
    -1.2590  -1.2136  -1.1769  -1.1441  -1.1100  -1.0001  -0.9553  -0.9200
    -0.9191  -0.8328  -0.8006  -0.7778  -0.7269  -0.6445  -0.5671  -0.4878
    -0.4604  -0.3454  -0.3002  -0.1703  -0.1353  -0.1050  -0.0448   0.0884
     0.1326   0.2507   0.3197   0.3262   0.4549   0.5064   0.6177   0.7349
     0.8435   0.8734   0.9134   0.9172   0.9590   0.9727   1.0090   1.0286
     1.0374   1.1479   1.2110   1.2343   1.2586   1.5231   1.5591   1.5832
     1.6790   1.7067   1.7328   1.7479   1.7717   1.7930   1.8070   1.8341
     1.8605   1.8921   1.9233   1.9259   1.9598   2.0119   2.0955   2.1292
     2.3124   2.4609   2.4712   2.4900   2.5151   2.5278   2.5382   2.5821
     2.6015   2.6365   2.6546   2.6587   2.6765   2.6883   2.7616   2.7760
     2.8363   2.8597   2.8673   2.8692   2.8883   2.8963   2.9015   2.9032
     2.9072   2.9289   2.9364   2.9464   3.0016   3.0095   3.0243   3.0765
     3.9924   4.0426   4.0812   4.1236   4.5985   4.7701   4.9444   5.0250
     5.3239   5.3886   5.5234   5.6027   5.8845   5.9177   6.2539   6.6021
     6.8193   6.9136   7.1688   7.3294   7.5172   7.5831   7.6784   7.6919
     7.8083   7.9955   8.1280   8.1394   8.2686   8.3350   8.3809   8.5540
     8.7206   8.7700

     occupation numbers 
     1.0000   1.0000   1.0000   1.0000   1.0000   1.0000   1.0000   1.0000
     1.0000   1.0000   1.0000   1.0000   1.0000   1.0000   1.0000   1.0000
     1.0000   1.0000   1.0000   1.0000   1.0000   1.0000   1.0000   1.0000
     1.0000   1.0000   1.0000   1.0000   1.0000   1.0000   1.0000   1.0000
     1.0000   1.0000   1.0000   1.0000   1.0000   1.0000   1.0000   1.0000
     1.0000   1.0000   1.0000   1.0000   1.0000   1.0000   1.0000   1.0000
     1.0000   1.0000   1.0000   1.0000   1.0000   1.0000   1.0000   1.0000
     1.0000   1.0000   1.0000   1.0000   1.0000   1.0000   1.0000   1.0000
     1.0000   1.0000   1.0000   1.0000   1.0000   1.0000   1.0000   1.0000
     1.0000   1.0000   1.0000   1.0000   1.0000   1.0000   1.0000   1.0000
     1.0000   1.0000   1.0000   1.0000   1.0000   1.0000   1.0000   1.0000
     1.0000   1.0000   1.0000   1.0000   1.0000   1.0000   1.0000   1.0000
     1.0000   1.0000   1.0000   1.0000   1.0000   1.0000   1.0000   1.0000
     1.0000   1.0000   1.0000   1.0000   1.0000   1.0000   1.0000   1.0000
     1.0000   1.0000   1.0000   1.0000   1.0000   1.0000   1.0000   1.0000
     1.0000   1.0000   1.0000   1.0000   1.0000   1.0000   1.0000   1.0000
     1.0000   1.0000   1.0000   1.0000   1.0000   1.0000   1.0000   1.0000
     1.0000   1.0000   1.0000   1.0000   1.0000   1.0000   1.0000   1.0000
     1.0000   1.0000   1.0000   1.0000   1.0000   1.0000   1.0000   1.0000
     1.0000   1.0000   1.0000   1.0000   1.0000   1.0000   0.9999   0.9999
     0.9997   0.9997   0.9996   0.9996   0.9995   0.9995   0.9994   0.9993
     0.9993   0.9987   0.9983   0.9981   0.9979   0.9932   0.9921   0.9913
     0.9873   0.9859   0.9844   0.9835   0.9820   0.9806   0.9796   0.9775
     0.9753   0.9725   0.9694   0.9691   0.9654   0.9591   0.9470   0.9413
     0.9022   0.8585   0.8550   0.8486   0.8397   0.8350   0.8312   0.8143
     0.8065   0.7919   0.7841   0.7823   0.7744   0.7691   0.7347   0.7276
     0.6971   0.6849   0.6809   0.6799   0.6697   0.6653   0.6625   0.6616
     0.6595   0.6476   0.6434   0.6378   0.6067   0.6022   0.5937   0.5634
     0.1150   0.1011   0.0914   0.0815   0.0178   0.0093   0.0045   0.0031
     0.0007   0.0005   0.0003   0.0002   0.0000   0.0000   0.0000   0.0000
     0.0000   0.0000   0.0000   0.0000   0.0000   0.0000   0.0000   0.0000
     0.0000   0.0000   0.0000   0.0000   0.0000   0.0000   0.0000   0.0000
     0.0000   0.0000

          k = 0.2500 0.2500 0.0000 ( 65198 PWs)   bands (ev):

   -92.8450 -92.7904 -92.6983 -92.6449 -92.5935 -92.5512 -92.5336 -92.4122
   -56.1985 -56.1769 -56.0554 -56.0453 -56.0328 -56.0322 -55.9947 -55.9674
   -55.9524 -55.9510 -55.9412 -55.9006 -55.8799 -55.8441 -55.8248 -55.7937
   -55.7754 -55.7390 -55.7372 -55.7361 -55.7277 -55.6874 -55.6638 -55.5790
   -31.4079 -31.3918 -31.2483 -31.1625 -31.1409 -31.0518 -31.0263 -30.9072
   -29.9890 -29.9484 -29.9219 -29.8145 -15.1566 -15.1192 -15.0447 -14.9278
   -14.8084 -14.6824 -14.6108 -14.4031 -14.2478 -14.2334 -14.1978 -14.1694
   -14.1475 -14.1208 -14.0876 -14.0498 -13.9804 -13.9639 -13.8008 -13.7874
   -13.7599 -13.7372 -13.6926 -13.6486 -13.5718 -13.5613 -13.4182 -13.3877
   -13.3599 -13.2744 -13.2338 -13.1828 -13.1514 -13.1143 -13.1029 -13.0790
   -13.0500 -13.0144 -12.9825 -12.9311 -12.9000 -12.8845 -12.8767 -12.8477
   -12.8352 -12.8244 -12.6469 -12.5858 -12.5339 -12.4107 -12.2504 -12.2118
   -11.9664 -11.9419 -11.9104 -11.8993 -11.8921 -11.8300 -11.7948 -11.7884
   -11.7531 -11.7447 -11.6535 -11.6125 -11.5950  -2.8102  -2.6014  -2.4835
    -2.3890  -2.2686  -2.2035  -2.0051  -1.8616  -1.8422  -1.8127  -1.7179
    -1.6839  -1.5894  -1.5619  -1.5113  -1.3804  -1.3327  -1.2601  -1.2151
    -1.1706  -1.1470  -1.1226  -1.0797  -1.0649  -0.9741  -0.9237  -0.8590
    -0.8087  -0.7771  -0.7291  -0.7129  -0.6507  -0.6030  -0.5476  -0.5107
    -0.4257  -0.3709  -0.3425  -0.3049  -0.2489  -0.1649  -0.1339  -0.1107
    -0.0273   0.0025   0.2683   0.4159   0.4516   0.5120   0.5549   0.6167
     0.6724   0.7296   0.7634   1.0337   1.0987   1.1727   1.1989   1.2467
     1.2786   1.3125   1.3504   1.3675   1.3950   1.4417   1.4489   1.4635
     1.5074   1.5498   1.5872   1.6523   1.6928   1.6956   1.7401   1.7686
     1.8200   1.8566   1.9713   2.0354   2.0696   2.0929   2.1598   2.2314
     2.2554   2.2899   2.3170   2.3310   2.4405   2.4753   2.5631   2.6405
     2.6484   2.6881   2.7399   2.7526   2.7593   2.7743   2.7896   2.8023
     2.8151   2.8226   2.8354   2.8447   2.8581   2.8761   2.8819   2.8953
     2.9184   2.9290   2.9368   2.9688   3.2688   3.3655   3.4073   3.4770
     3.5488   3.7147   3.8130   4.1725   4.4064   4.5917   4.8425   5.1525
     5.5328   5.5878   5.6245   5.6986   5.7594   6.0846   6.1225   6.1872
     6.8585   7.0272   7.1544   7.3462   7.4829   7.5135   7.6233   7.7870
     7.8454   7.9872   8.2091   8.2357   8.3548   8.3872   8.4216   8.4553
     8.5315   8.6227

     occupation numbers 
     1.0000   1.0000   1.0000   1.0000   1.0000   1.0000   1.0000   1.0000
     1.0000   1.0000   1.0000   1.0000   1.0000   1.0000   1.0000   1.0000
     1.0000   1.0000   1.0000   1.0000   1.0000   1.0000   1.0000   1.0000
     1.0000   1.0000   1.0000   1.0000   1.0000   1.0000   1.0000   1.0000
     1.0000   1.0000   1.0000   1.0000   1.0000   1.0000   1.0000   1.0000
     1.0000   1.0000   1.0000   1.0000   1.0000   1.0000   1.0000   1.0000
     1.0000   1.0000   1.0000   1.0000   1.0000   1.0000   1.0000   1.0000
     1.0000   1.0000   1.0000   1.0000   1.0000   1.0000   1.0000   1.0000
     1.0000   1.0000   1.0000   1.0000   1.0000   1.0000   1.0000   1.0000
     1.0000   1.0000   1.0000   1.0000   1.0000   1.0000   1.0000   1.0000
     1.0000   1.0000   1.0000   1.0000   1.0000   1.0000   1.0000   1.0000
     1.0000   1.0000   1.0000   1.0000   1.0000   1.0000   1.0000   1.0000
     1.0000   1.0000   1.0000   1.0000   1.0000   1.0000   1.0000   1.0000
     1.0000   1.0000   1.0000   1.0000   1.0000   1.0000   1.0000   1.0000
     1.0000   1.0000   1.0000   1.0000   1.0000   1.0000   1.0000   1.0000
     1.0000   1.0000   1.0000   1.0000   1.0000   1.0000   1.0000   1.0000
     1.0000   1.0000   1.0000   1.0000   1.0000   1.0000   1.0000   1.0000
     1.0000   1.0000   1.0000   1.0000   1.0000   1.0000   1.0000   1.0000
     1.0000   1.0000   1.0000   1.0000   1.0000   1.0000   1.0000   1.0000
     1.0000   1.0000   1.0000   1.0000   1.0000   1.0000   1.0000   0.9999
     0.9999   0.9999   0.9998   0.9993   0.9990   0.9986   0.9984   0.9980
     0.9977   0.9973   0.9968   0.9965   0.9961   0.9952   0.9950   0.9947
     0.9936   0.9924   0.9911   0.9885   0.9866   0.9864   0.9840   0.9822
     0.9786   0.9756   0.9641   0.9559   0.9510   0.9474   0.9358   0.9214
     0.9160   0.9078   0.9010   0.8973   0.8652   0.8537   0.8217   0.7902
     0.7868   0.7692   0.7452   0.7391   0.7358   0.7285   0.7209   0.7145
     0.7080   0.7042   0.6976   0.6928   0.6857   0.6762   0.6731   0.6659
     0.6533   0.6475   0.6432   0.6253   0.4498   0.3937   0.3701   0.3317
     0.2940   0.2153   0.1751   0.0711   0.0347   0.0183   0.0069   0.0017
     0.0002   0.0002   0.0001   0.0001   0.0001   0.0000   0.0000   0.0000
     0.0000   0.0000   0.0000   0.0000   0.0000   0.0000   0.0000   0.0000
     0.0000   0.0000   0.0000   0.0000   0.0000   0.0000   0.0000   0.0000
     0.0000   0.0000

          k = 0.2500-0.5000 0.0000 ( 65138 PWs)   bands (ev):

   -92.8450 -92.7904 -92.6983 -92.6449 -92.5935 -92.5512 -92.5336 -92.4122
   -56.1985 -56.1769 -56.0554 -56.0453 -56.0328 -56.0322 -55.9947 -55.9674
   -55.9524 -55.9510 -55.9412 -55.9006 -55.8799 -55.8441 -55.8248 -55.7937
   -55.7754 -55.7390 -55.7372 -55.7361 -55.7277 -55.6874 -55.6638 -55.5790
   -31.4077 -31.3917 -31.2485 -31.1626 -31.1405 -31.0521 -31.0260 -30.9075
   -29.9884 -29.9480 -29.9225 -29.8148 -15.1207 -15.0751 -15.0062 -14.8911
   -14.8591 -14.7400 -14.6476 -14.5188 -14.2121 -14.1582 -14.1334 -14.1104
   -14.0943 -14.0818 -14.0458 -14.0299 -13.9960 -13.9566 -13.9335 -13.8895
   -13.8044 -13.7545 -13.7087 -13.6761 -13.6046 -13.5792 -13.4726 -13.4419
   -13.3397 -13.2745 -13.2525 -13.1674 -13.1229 -13.1079 -13.0936 -13.0772
   -13.0458 -13.0316 -12.9774 -12.9191 -12.9029 -12.8762 -12.8447 -12.8425
   -12.7889 -12.7569 -12.6548 -12.5478 -12.4543 -12.3980 -12.3192 -12.2873
   -11.9666 -11.9175 -11.9055 -11.8945 -11.8672 -11.8359 -11.8074 -11.7660
   -11.7390 -11.7166 -11.6717 -11.6460 -11.6349  -2.5924  -2.5255  -2.3980
    -2.3205  -2.1911  -2.1048  -1.9843  -1.8338  -1.7805  -1.7577  -1.6947
    -1.6820  -1.5842  -1.5173  -1.4326  -1.3825  -1.3730  -1.3105  -1.2678
    -1.2326  -1.1856  -1.1483  -1.1136  -1.0738  -1.0618  -1.0168  -0.9873
    -0.9459  -0.9145  -0.8477  -0.7472  -0.7032  -0.6269  -0.5610  -0.5134
    -0.4692  -0.4482  -0.3949  -0.2307  -0.2179  -0.1232  -0.0826  -0.0725
    -0.0323   0.0020   0.0458   0.0697   0.1341   0.4109   0.5071   0.5845
     0.6429   0.8948   0.9230   1.0075   1.0337   1.1960   1.2297   1.2732
     1.2953   1.3095   1.3302   1.3921   1.4389   1.4745   1.5576   1.6525
     1.6936   1.7091   1.7197   1.7575   1.7695   1.7782   1.8229   1.8307
     1.8596   1.8815   1.9005   1.9189   1.9556   2.0113   2.0500   2.1307
     2.2718   2.4134   2.4304   2.4492   2.4762   2.5001   2.5210   2.5494
     2.5543   2.5764   2.6383   2.6514   2.6836   2.7121   2.7440   2.7544
     2.7579   2.7710   2.7926   2.8054   2.8263   2.8319   2.8654   2.8780
     2.8899   2.8997   2.9082   2.9209   3.4533   3.4643   3.6011   3.6524
     4.0185   4.0506   4.0942   4.1799   4.6180   4.7910   4.9626   4.9945
     5.1764   5.3319   5.5278   5.5523   5.6638   5.6995   6.3369   6.3724
     6.4673   6.7176   7.1793   7.6152   7.6786   7.6912   7.7451   7.8151
     7.8534   7.9589   8.1814   8.3465   8.4151   8.4424   8.5784   8.5939
     8.6251   8.6648

     occupation numbers 
     1.0000   1.0000   1.0000   1.0000   1.0000   1.0000   1.0000   1.0000
     1.0000   1.0000   1.0000   1.0000   1.0000   1.0000   1.0000   1.0000
     1.0000   1.0000   1.0000   1.0000   1.0000   1.0000   1.0000   1.0000
     1.0000   1.0000   1.0000   1.0000   1.0000   1.0000   1.0000   1.0000
     1.0000   1.0000   1.0000   1.0000   1.0000   1.0000   1.0000   1.0000
     1.0000   1.0000   1.0000   1.0000   1.0000   1.0000   1.0000   1.0000
     1.0000   1.0000   1.0000   1.0000   1.0000   1.0000   1.0000   1.0000
     1.0000   1.0000   1.0000   1.0000   1.0000   1.0000   1.0000   1.0000
     1.0000   1.0000   1.0000   1.0000   1.0000   1.0000   1.0000   1.0000
     1.0000   1.0000   1.0000   1.0000   1.0000   1.0000   1.0000   1.0000
     1.0000   1.0000   1.0000   1.0000   1.0000   1.0000   1.0000   1.0000
     1.0000   1.0000   1.0000   1.0000   1.0000   1.0000   1.0000   1.0000
     1.0000   1.0000   1.0000   1.0000   1.0000   1.0000   1.0000   1.0000
     1.0000   1.0000   1.0000   1.0000   1.0000   1.0000   1.0000   1.0000
     1.0000   1.0000   1.0000   1.0000   1.0000   1.0000   1.0000   1.0000
     1.0000   1.0000   1.0000   1.0000   1.0000   1.0000   1.0000   1.0000
     1.0000   1.0000   1.0000   1.0000   1.0000   1.0000   1.0000   1.0000
     1.0000   1.0000   1.0000   1.0000   1.0000   1.0000   1.0000   1.0000
     1.0000   1.0000   1.0000   1.0000   1.0000   1.0000   1.0000   1.0000
     1.0000   1.0000   1.0000   1.0000   1.0000   1.0000   1.0000   0.9999
     0.9999   0.9997   0.9996   0.9994   0.9993   0.9984   0.9981   0.9977
     0.9975   0.9973   0.9970   0.9961   0.9952   0.9944   0.9921   0.9885
     0.9865   0.9857   0.9852   0.9829   0.9821   0.9816   0.9784   0.9778
     0.9754   0.9734   0.9717   0.9698   0.9659   0.9592   0.9539   0.9411
     0.9122   0.8737   0.8684   0.8624   0.8534   0.8451   0.8376   0.8270
     0.8251   0.8165   0.7911   0.7854   0.7712   0.7582   0.7432   0.7382
     0.7365   0.7301   0.7194   0.7130   0.7023   0.6994   0.6819   0.6752
     0.6688   0.6635   0.6589   0.6519   0.3446   0.3386   0.2678   0.2433
     0.1076   0.0991   0.0882   0.0696   0.0166   0.0085   0.0041   0.0036
     0.0015   0.0007   0.0003   0.0002   0.0001   0.0001   0.0000   0.0000
     0.0000   0.0000   0.0000   0.0000   0.0000   0.0000   0.0000   0.0000
     0.0000   0.0000   0.0000   0.0000   0.0000   0.0000   0.0000   0.0000
     0.0000   0.0000

          k =-0.5000-0.5000 0.0000 ( 65132 PWs)   bands (ev):

   -92.8450 -92.7904 -92.6983 -92.6449 -92.5935 -92.5512 -92.5336 -92.4122
   -56.1985 -56.1769 -56.0554 -56.0453 -56.0328 -56.0322 -55.9947 -55.9674
   -55.9524 -55.9510 -55.9412 -55.9006 -55.8799 -55.8441 -55.8248 -55.7937
   -55.7754 -55.7390 -55.7372 -55.7361 -55.7277 -55.6874 -55.6638 -55.5790
   -31.4056 -31.3938 -31.2481 -31.1630 -31.1403 -31.0519 -31.0263 -30.9077
   -29.9874 -29.9491 -29.9221 -29.8152 -15.0749 -15.0479 -14.9308 -14.9183
   -14.8217 -14.7881 -14.7504 -14.6187 -14.1249 -14.1106 -14.0787 -14.0576
   -14.0402 -14.0284 -14.0007 -13.9903 -13.9726 -13.9646 -13.9474 -13.8713
   -13.8622 -13.8300 -13.8007 -13.7980 -13.6925 -13.6416 -13.5079 -13.4844
   -13.2906 -13.2498 -13.1825 -13.1586 -13.1234 -13.1174 -13.1081 -13.0898
   -13.0602 -13.0009 -12.9714 -12.9241 -12.9153 -12.8853 -12.8711 -12.8535
   -12.7379 -12.7308 -12.6711 -12.5247 -12.4506 -12.3655 -12.3155 -12.2898
   -11.9665 -11.9142 -11.9017 -11.8837 -11.8670 -11.8319 -11.8145 -11.7793
   -11.7193 -11.6989 -11.6941 -11.6438 -11.6407  -2.3687  -2.2925  -2.2790
    -2.2102  -2.1719  -2.0931  -2.0256  -1.9001  -1.7839  -1.7528  -1.7158
    -1.6577  -1.5856  -1.5704  -1.5004  -1.4574  -1.3397  -1.3107  -1.2627
    -1.2344  -1.1703  -1.1237  -1.1047  -1.0919  -1.0396  -0.9947  -0.9788
    -0.8664  -0.8096  -0.7631  -0.7118  -0.6846  -0.6750  -0.6377  -0.5922
    -0.5596  -0.5479  -0.4632  -0.3954  -0.3518  -0.3239  -0.2516  -0.1939
    -0.1666  -0.1191  -0.1010  -0.0834  -0.0718   0.3813   0.4315   0.5327
     0.5646   0.9294   0.9402   0.9735   1.0106   1.2818   1.3021   1.3087
     1.3452   1.4752   1.5700   1.5981   1.6339   1.6585   1.6814   1.6888
     1.7201   1.7355   1.7558   1.7595   1.8059   1.8096   1.8383   1.8707
     1.8809   1.8951   1.9333   1.9536   1.9688   1.9973   2.0245   2.0910
     2.1584   2.4217   2.4559   2.4740   2.4951   2.5009   2.5346   2.5374
     2.5536   2.5666   2.5851   2.6055   2.6173   2.6399   2.6448   2.6841
     2.6897   2.6965   2.7127   2.7384   2.7455   2.7596   2.7692   2.7723
     2.8769   2.8799   2.9043   2.9142   3.8678   3.8956   3.9438   4.0193
     4.1769   4.2504   4.2759   4.5173   4.6386   4.7215   4.8557   4.9568
     4.9644   5.0641   5.2175   5.2581   5.8345   5.8665   5.9262   6.0190
     6.5204   6.8519   6.9144   7.3879   7.8722   7.8826   7.9611   8.0881
     8.1231   8.1744   8.2260   8.2432   8.3681   8.4914   8.5241   8.5388
     8.5643   8.6328

     occupation numbers 
     1.0000   1.0000   1.0000   1.0000   1.0000   1.0000   1.0000   1.0000
     1.0000   1.0000   1.0000   1.0000   1.0000   1.0000   1.0000   1.0000
     1.0000   1.0000   1.0000   1.0000   1.0000   1.0000   1.0000   1.0000
     1.0000   1.0000   1.0000   1.0000   1.0000   1.0000   1.0000   1.0000
     1.0000   1.0000   1.0000   1.0000   1.0000   1.0000   1.0000   1.0000
     1.0000   1.0000   1.0000   1.0000   1.0000   1.0000   1.0000   1.0000
     1.0000   1.0000   1.0000   1.0000   1.0000   1.0000   1.0000   1.0000
     1.0000   1.0000   1.0000   1.0000   1.0000   1.0000   1.0000   1.0000
     1.0000   1.0000   1.0000   1.0000   1.0000   1.0000   1.0000   1.0000
     1.0000   1.0000   1.0000   1.0000   1.0000   1.0000   1.0000   1.0000
     1.0000   1.0000   1.0000   1.0000   1.0000   1.0000   1.0000   1.0000
     1.0000   1.0000   1.0000   1.0000   1.0000   1.0000   1.0000   1.0000
     1.0000   1.0000   1.0000   1.0000   1.0000   1.0000   1.0000   1.0000
     1.0000   1.0000   1.0000   1.0000   1.0000   1.0000   1.0000   1.0000
     1.0000   1.0000   1.0000   1.0000   1.0000   1.0000   1.0000   1.0000
     1.0000   1.0000   1.0000   1.0000   1.0000   1.0000   1.0000   1.0000
     1.0000   1.0000   1.0000   1.0000   1.0000   1.0000   1.0000   1.0000
     1.0000   1.0000   1.0000   1.0000   1.0000   1.0000   1.0000   1.0000
     1.0000   1.0000   1.0000   1.0000   1.0000   1.0000   1.0000   1.0000
     1.0000   1.0000   1.0000   1.0000   1.0000   1.0000   1.0000   1.0000
     0.9999   0.9996   0.9996   0.9995   0.9994   0.9976   0.9974   0.9973
     0.9968   0.9944   0.9917   0.9907   0.9893   0.9882   0.9872   0.9868
     0.9851   0.9843   0.9830   0.9828   0.9796   0.9794   0.9771   0.9744
     0.9735   0.9722   0.9684   0.9661   0.9644   0.9610   0.9574   0.9477
     0.9361   0.8711   0.8602   0.8541   0.8468   0.8448   0.8325   0.8315
     0.8253   0.8204   0.8131   0.8048   0.7999   0.7904   0.7883   0.7710
     0.7685   0.7654   0.7580   0.7459   0.7425   0.7357   0.7310   0.7295
     0.6758   0.6742   0.6610   0.6556   0.1550   0.1453   0.1296   0.1074
     0.0702   0.0566   0.0525   0.0239   0.0154   0.0112   0.0065   0.0042
     0.0041   0.0026   0.0013   0.0010   0.0000   0.0000   0.0000   0.0000
     0.0000   0.0000   0.0000   0.0000   0.0000   0.0000   0.0000   0.0000
     0.0000   0.0000   0.0000   0.0000   0.0000   0.0000   0.0000   0.0000
     0.0000   0.0000

          k = 0.2500 0.0000 0.0000 ( 65257 PWs)   bands (ev):

   -92.8450 -92.7904 -92.6983 -92.6449 -92.5935 -92.5512 -92.5336 -92.4122
   -56.1985 -56.1769 -56.0554 -56.0453 -56.0328 -56.0322 -55.9947 -55.9674
   -55.9524 -55.9510 -55.9412 -55.9006 -55.8799 -55.8441 -55.8248 -55.7937
   -55.7754 -55.7390 -55.7372 -55.7361 -55.7277 -55.6874 -55.6638 -55.5790
   -31.4081 -31.3920 -31.2480 -31.1623 -31.1412 -31.0514 -31.0265 -30.9069
[...]
     0.6318   0.6211   0.6184   0.6136   0.6103   0.6045   0.5992   0.5161
     0.3458   0.3187   0.2042   0.0774   0.0407   0.0201   0.0050   0.0032
     0.0002   0.0001   0.0000   0.0000   0.0000   0.0000   0.0000   0.0000
     0.0000   0.0000   0.0000   0.0000   0.0000   0.0000   0.0000   0.0000
     0.0000   0.0000   0.0000   0.0000   0.0000   0.0000   0.0000   0.0000
     0.0000   0.0000

          k =-0.5000 0.0000 0.0000 ( 65180 PWs)   bands (ev):

   -92.8450 -92.7904 -92.6983 -92.6449 -92.5935 -92.5512 -92.5336 -92.4122
   -56.1985 -56.1769 -56.0554 -56.0453 -56.0328 -56.0322 -55.9947 -55.9674
   -55.9524 -55.9510 -55.9412 -55.9006 -55.8799 -55.8441 -55.8248 -55.7937
   -55.7754 -55.7390 -55.7372 -55.7361 -55.7277 -55.6874 -55.6638 -55.5790
   -31.4059 -31.3941 -31.2477 -31.1627 -31.1409 -31.0512 -31.0268 -30.9071
   -29.9886 -29.9497 -29.9208 -29.8146 -15.1555 -15.1054 -15.0432 -14.9316
   -14.8294 -14.6855 -14.5407 -14.3921 -14.2720 -14.2611 -14.2480 -14.1866
   -14.1289 -14.0989 -14.0501 -14.0408 -14.0257 -13.9757 -13.9532 -13.8477
   -13.6935 -13.6742 -13.6340 -13.6266 -13.5494 -13.5022 -13.4415 -13.3990
   -13.3756 -13.3560 -13.1867 -13.1740 -13.1487 -13.1417 -13.1287 -13.0854
   -13.0746 -13.0548 -12.9563 -12.9356 -12.9111 -12.8525 -12.8271 -12.8080
   -12.7738 -12.7643 -12.6744 -12.5784 -12.4608 -12.4356 -12.3213 -12.2866
   -11.9665 -11.9209 -11.8996 -11.8925 -11.8785 -11.8603 -11.8187 -11.7559
   -11.7379 -11.7046 -11.6613 -11.6521 -11.6361  -2.7238  -2.6851  -2.5219
    -2.4824  -2.1685  -2.0942  -1.9454  -1.8281  -1.7885  -1.7443  -1.6958
    -1.6706  -1.5469  -1.5028  -1.4876  -1.4053  -1.3693  -1.3553  -1.3227
    -1.2638  -1.1968  -1.1673  -1.1378  -1.0410  -0.9962  -0.9477  -0.9137
    -0.8928  -0.8633  -0.8138  -0.7894  -0.7493  -0.6551  -0.5769  -0.5153
    -0.4517  -0.2751  -0.2479  -0.1957  -0.1651  -0.0888  -0.0861   0.0599
     0.0851   0.1277   0.2996   0.3988   0.4469   0.5298   0.6157   0.7207
     0.7365   0.8722   0.8913   0.9437   0.9703   1.0102   1.0236   1.0677
     1.0904   1.1591   1.2091   1.2560   1.2616   1.5651   1.5733   1.5908
     1.6193   1.7190   1.7323   1.7502   1.7609   1.7846   1.7931   1.8351
     1.8570   1.8891   1.9362   1.9527   2.0012   2.0293   2.0802   2.1891
     2.2983   2.3580   2.3767   2.4505   2.4840   2.5124   2.5807   2.5875
     2.5961   2.6222   2.6394   2.6479   2.6790   2.7086   2.7536   2.7858
     2.8281   2.8592   2.8623   2.8644   2.8795   2.8896   2.9014   2.9158
     2.9205   2.9443   2.9526   2.9689   2.9868   2.9922   3.1228   3.1461
     3.9283   3.9874   4.0569   4.2491   4.6546   4.7344   4.9096   4.9707
     5.4027   5.4408   5.5119   5.5416   5.8885   5.9019   6.2642   6.5525
     6.7634   6.9664   7.2307   7.2777   7.5948   7.6238   7.6485   7.6826
     7.7946   7.9843   8.0961   8.1280   8.2531   8.4046   8.4200   8.5180
     8.6680   8.7786

     occupation numbers 
     1.0000   1.0000   1.0000   1.0000   1.0000   1.0000   1.0000   1.0000
     1.0000   1.0000   1.0000   1.0000   1.0000   1.0000   1.0000   1.0000
     1.0000   1.0000   1.0000   1.0000   1.0000   1.0000   1.0000   1.0000
     1.0000   1.0000   1.0000   1.0000   1.0000   1.0000   1.0000   1.0000
     1.0000   1.0000   1.0000   1.0000   1.0000   1.0000   1.0000   1.0000
     1.0000   1.0000   1.0000   1.0000   1.0000   1.0000   1.0000   1.0000
     1.0000   1.0000   1.0000   1.0000   1.0000   1.0000   1.0000   1.0000
     1.0000   1.0000   1.0000   1.0000   1.0000   1.0000   1.0000   1.0000
     1.0000   1.0000   1.0000   1.0000   1.0000   1.0000   1.0000   1.0000
     1.0000   1.0000   1.0000   1.0000   1.0000   1.0000   1.0000   1.0000
     1.0000   1.0000   1.0000   1.0000   1.0000   1.0000   1.0000   1.0000
     1.0000   1.0000   1.0000   1.0000   1.0000   1.0000   1.0000   1.0000
     1.0000   1.0000   1.0000   1.0000   1.0000   1.0000   1.0000   1.0000
     1.0000   1.0000   1.0000   1.0000   1.0000   1.0000   1.0000   1.0000
     1.0000   1.0000   1.0000   1.0000   1.0000   1.0000   1.0000   1.0000
     1.0000   1.0000   1.0000   1.0000   1.0000   1.0000   1.0000   1.0000
     1.0000   1.0000   1.0000   1.0000   1.0000   1.0000   1.0000   1.0000
     1.0000   1.0000   1.0000   1.0000   1.0000   1.0000   1.0000   1.0000
     1.0000   1.0000   1.0000   1.0000   1.0000   1.0000   1.0000   1.0000
     1.0000   1.0000   1.0000   1.0000   1.0000   1.0000   0.9999   0.9999
     0.9999   0.9997   0.9997   0.9996   0.9995   0.9994   0.9993   0.9992
     0.9991   0.9987   0.9983   0.9979   0.9978   0.9919   0.9916   0.9910
     0.9899   0.9852   0.9844   0.9834   0.9827   0.9811   0.9806   0.9774
     0.9756   0.9727   0.9680   0.9662   0.9605   0.9568   0.9494   0.9302
     0.9057   0.8900   0.8847   0.8619   0.8507   0.8407   0.8148   0.8121
     0.8086   0.7979   0.7906   0.7870   0.7733   0.7599   0.7386   0.7228
     0.7014   0.6852   0.6835   0.6824   0.6744   0.6690   0.6626   0.6548
     0.6522   0.6390   0.6344   0.6252   0.6151   0.6120   0.5362   0.5224
     0.1345   0.1164   0.0974   0.0569   0.0145   0.0107   0.0052   0.0040
     0.0005   0.0004   0.0003   0.0002   0.0000   0.0000   0.0000   0.0000
     0.0000   0.0000   0.0000   0.0000   0.0000   0.0000   0.0000   0.0000
     0.0000   0.0000   0.0000   0.0000   0.0000   0.0000   0.0000   0.0000
     0.0000   0.0000

          k =-0.2500 0.2500 0.0000 ( 65198 PWs)   bands (ev):

   -92.8450 -92.7904 -92.6983 -92.6449 -92.5935 -92.5512 -92.5336 -92.4122
   -56.1985 -56.1769 -56.0554 -56.0453 -56.0328 -56.0322 -55.9947 -55.9674
   -55.9524 -55.9510 -55.9412 -55.9006 -55.8799 -55.8441 -55.8248 -55.7937
   -55.7754 -55.7390 -55.7372 -55.7361 -55.7277 -55.6874 -55.6638 -55.5790
   -31.4079 -31.3918 -31.2483 -31.1625 -31.1409 -31.0518 -31.0263 -30.9072
   -29.9890 -29.9484 -29.9219 -29.8145 -15.1580 -15.1181 -15.0433 -14.9261
   -14.8144 -14.6875 -14.6025 -14.3941 -14.2545 -14.2248 -14.2099 -14.1656
   -14.1400 -14.1202 -14.1043 -14.0534 -13.9760 -13.9641 -13.8089 -13.7844
   -13.7576 -13.7342 -13.6956 -13.6356 -13.5709 -13.5633 -13.4185 -13.3921
   -13.3552 -13.2786 -13.2351 -13.1728 -13.1419 -13.1182 -13.1014 -13.0800
   -13.0593 -13.0083 -12.9963 -12.9422 -12.9053 -12.8934 -12.8770 -12.8444
   -12.8244 -12.8166 -12.6304 -12.5756 -12.5496 -12.4164 -12.2526 -12.2086
   -11.9664 -11.9410 -11.9196 -11.8925 -11.8802 -11.8395 -11.8046 -11.7817
   -11.7598 -11.7373 -11.6533 -11.6077 -11.5984  -2.8085  -2.6003  -2.4793
    -2.3906  -2.2729  -2.2062  -2.0027  -1.8584  -1.8399  -1.8108  -1.7184
    -1.6828  -1.5893  -1.5550  -1.5289  -1.3863  -1.3305  -1.2629  -1.2347
    -1.1742  -1.1524  -1.1125  -1.0836  -1.0437  -0.9802  -0.9322  -0.8705
    -0.8002  -0.7727  -0.7231  -0.6933  -0.6481  -0.5930  -0.5503  -0.5055
    -0.4066  -0.3738  -0.3593  -0.3185  -0.2505  -0.1700  -0.1293  -0.1022
    -0.0258   0.0011   0.2498   0.4176   0.4601   0.5007   0.5615   0.6174
     0.6760   0.7352   0.7617   1.0417   1.1494   1.1897   1.2226   1.2279
     1.2706   1.2888   1.3319   1.3636   1.3776   1.4033   1.4490   1.4652
     1.5078   1.5237   1.5708   1.6658   1.6844   1.6957   1.7446   1.7640
     1.8008   1.8648   1.9613   2.0653   2.0915   2.1385   2.1585   2.2306
     2.2681   2.2926   2.3170   2.3401   2.4411   2.4739   2.5629   2.6391
     2.6491   2.6884   2.7423   2.7525   2.7641   2.7750   2.7857   2.7987
     2.8056   2.8250   2.8353   2.8476   2.8553   2.8675   2.8772   2.8850
     2.9179   2.9299   2.9359   2.9704   3.2619   3.3452   3.4131   3.4960
     3.5413   3.6994   3.8216   4.1714   4.4061   4.5923   4.8519   5.1526
     5.5341   5.5844   5.6272   5.6955   5.7605   6.0881   6.1320   6.1740
     6.8593   7.0559   7.1165   7.3483   7.4933   7.5194   7.5964   7.7987
     7.8727   7.9509   8.2324   8.2430   8.3525   8.3746   8.4326   8.4503
     8.5444   8.6083

     occupation numbers 
     1.0000   1.0000   1.0000   1.0000   1.0000   1.0000   1.0000   1.0000
     1.0000   1.0000   1.0000   1.0000   1.0000   1.0000   1.0000   1.0000
     1.0000   1.0000   1.0000   1.0000   1.0000   1.0000   1.0000   1.0000
     1.0000   1.0000   1.0000   1.0000   1.0000   1.0000   1.0000   1.0000
     1.0000   1.0000   1.0000   1.0000   1.0000   1.0000   1.0000   1.0000
     1.0000   1.0000   1.0000   1.0000   1.0000   1.0000   1.0000   1.0000
     1.0000   1.0000   1.0000   1.0000   1.0000   1.0000   1.0000   1.0000
     1.0000   1.0000   1.0000   1.0000   1.0000   1.0000   1.0000   1.0000
     1.0000   1.0000   1.0000   1.0000   1.0000   1.0000   1.0000   1.0000
     1.0000   1.0000   1.0000   1.0000   1.0000   1.0000   1.0000   1.0000
     1.0000   1.0000   1.0000   1.0000   1.0000   1.0000   1.0000   1.0000
     1.0000   1.0000   1.0000   1.0000   1.0000   1.0000   1.0000   1.0000
     1.0000   1.0000   1.0000   1.0000   1.0000   1.0000   1.0000   1.0000
     1.0000   1.0000   1.0000   1.0000   1.0000   1.0000   1.0000   1.0000
     1.0000   1.0000   1.0000   1.0000   1.0000   1.0000   1.0000   1.0000
     1.0000   1.0000   1.0000   1.0000   1.0000   1.0000   1.0000   1.0000
     1.0000   1.0000   1.0000   1.0000   1.0000   1.0000   1.0000   1.0000
     1.0000   1.0000   1.0000   1.0000   1.0000   1.0000   1.0000   1.0000
     1.0000   1.0000   1.0000   1.0000   1.0000   1.0000   1.0000   1.0000
     1.0000   1.0000   1.0000   1.0000   1.0000   1.0000   1.0000   0.9999
     0.9999   0.9999   0.9998   0.9993   0.9987   0.9985   0.9982   0.9982
     0.9978   0.9976   0.9970   0.9966   0.9963   0.9959   0.9950   0.9946
     0.9936   0.9932   0.9917   0.9879   0.9870   0.9864   0.9837   0.9825
     0.9800   0.9749   0.9653   0.9517   0.9476   0.9397   0.9361   0.9216
     0.9131   0.9072   0.9010   0.8949   0.8650   0.8541   0.8218   0.7907
     0.7864   0.7691   0.7440   0.7391   0.7335   0.7281   0.7229   0.7163
     0.7129   0.7030   0.6977   0.6913   0.6872   0.6808   0.6756   0.6714
     0.6536   0.6470   0.6437   0.6244   0.4539   0.4054   0.3668   0.3215
     0.2978   0.2220   0.1718   0.0713   0.0348   0.0182   0.0066   0.0017
     0.0002   0.0002   0.0001   0.0001   0.0001   0.0000   0.0000   0.0000
     0.0000   0.0000   0.0000   0.0000   0.0000   0.0000   0.0000   0.0000
     0.0000   0.0000   0.0000   0.0000   0.0000   0.0000   0.0000   0.0000
     0.0000   0.0000

          k =-0.5000 0.2500 0.0000 ( 65138 PWs)   bands (ev):

   -92.8450 -92.7904 -92.6983 -92.6449 -92.5935 -92.5512 -92.5336 -92.4122
   -56.1985 -56.1769 -56.0554 -56.0453 -56.0328 -56.0322 -55.9947 -55.9674
   -55.9524 -55.9510 -55.9412 -55.9006 -55.8799 -55.8441 -55.8248 -55.7937
   -55.7754 -55.7390 -55.7372 -55.7361 -55.7277 -55.6874 -55.6638 -55.5790
   -31.4057 -31.3940 -31.2479 -31.1628 -31.1406 -31.0516 -31.0266 -30.9074
   -29.9880 -29.9494 -29.9215 -29.8149 -15.1230 -15.0788 -15.0002 -14.8985
   -14.8572 -14.7325 -14.6444 -14.5115 -14.2058 -14.1747 -14.1630 -14.1180
   -14.0954 -14.0709 -14.0362 -14.0263 -14.0052 -13.9628 -13.9515 -13.8420
   -13.7746 -13.7305 -13.7255 -13.7121 -13.6047 -13.5960 -13.4754 -13.4207
   -13.3326 -13.2970 -13.1993 -13.1598 -13.1488 -13.1202 -13.0912 -13.0804
   -13.0720 -13.0330 -12.9894 -12.9247 -12.8993 -12.8771 -12.8418 -12.8326
   -12.7554 -12.7479 -12.6725 -12.5497 -12.4560 -12.4024 -12.3150 -12.2892
   -11.9665 -11.9137 -11.9011 -11.8870 -11.8747 -11.8538 -11.8235 -11.7425
   -11.7344 -11.7106 -11.6756 -11.6477 -11.6386  -2.5814  -2.5393  -2.3915
    -2.3488  -2.1874  -2.1129  -1.9698  -1.8340  -1.7780  -1.7509  -1.7118
    -1.6732  -1.5925  -1.4768  -1.4195  -1.3962  -1.3714  -1.2952  -1.2655
    -1.2270  -1.2099  -1.1495  -1.1199  -1.0813  -1.0459  -1.0170  -0.9591
    -0.9313  -0.8891  -0.8549  -0.7515  -0.7226  -0.6376  -0.5703  -0.5423
    -0.4874  -0.3995  -0.3627  -0.2678  -0.2181  -0.1674  -0.1112  -0.0935
    -0.0185   0.0078   0.0397   0.0905   0.1299   0.4417   0.5107   0.5785
     0.6072   0.8822   0.9319   1.0096   1.0320   1.2092   1.2469   1.2835
     1.2944   1.3132   1.3308   1.4003   1.4440   1.4888   1.5120   1.6480
     1.6771   1.7047   1.7174   1.7671   1.7797   1.7959   1.8096   1.8305
     1.8521   1.9031   1.9126   1.9464   1.9694   2.0053   2.0586   2.1794
     2.2827   2.3067   2.3748   2.4108   2.4652   2.5106   2.5154   2.5533
     2.5864   2.6072   2.6405   2.6429   2.6847   2.7105   2.7467   2.7530
     2.7581   2.7799   2.8011   2.8128   2.8274   2.8415   2.8631   2.8749
     2.8841   2.8932   2.9018   2.9131   3.4425   3.5173   3.6321   3.6619
     3.9350   4.0157   4.0682   4.3080   4.6476   4.7476   4.9075   4.9826
     5.2671   5.3037   5.5248   5.5849   5.6501   5.6658   6.3500   6.3629
     6.4762   6.6643   7.2414   7.6327   7.6636   7.6999   7.7470   7.7918
     7.8588   7.9387   8.1866   8.3320   8.4433   8.4559   8.5340   8.5927
     8.6169   8.7225

     occupation numbers 
     1.0000   1.0000   1.0000   1.0000   1.0000   1.0000   1.0000   1.0000
     1.0000   1.0000   1.0000   1.0000   1.0000   1.0000   1.0000   1.0000
     1.0000   1.0000   1.0000   1.0000   1.0000   1.0000   1.0000   1.0000
     1.0000   1.0000   1.0000   1.0000   1.0000   1.0000   1.0000   1.0000
     1.0000   1.0000   1.0000   1.0000   1.0000   1.0000   1.0000   1.0000
     1.0000   1.0000   1.0000   1.0000   1.0000   1.0000   1.0000   1.0000
     1.0000   1.0000   1.0000   1.0000   1.0000   1.0000   1.0000   1.0000
     1.0000   1.0000   1.0000   1.0000   1.0000   1.0000   1.0000   1.0000
     1.0000   1.0000   1.0000   1.0000   1.0000   1.0000   1.0000   1.0000
     1.0000   1.0000   1.0000   1.0000   1.0000   1.0000   1.0000   1.0000
     1.0000   1.0000   1.0000   1.0000   1.0000   1.0000   1.0000   1.0000
     1.0000   1.0000   1.0000   1.0000   1.0000   1.0000   1.0000   1.0000
     1.0000   1.0000   1.0000   1.0000   1.0000   1.0000   1.0000   1.0000
     1.0000   1.0000   1.0000   1.0000   1.0000   1.0000   1.0000   1.0000
     1.0000   1.0000   1.0000   1.0000   1.0000   1.0000   1.0000   1.0000
     1.0000   1.0000   1.0000   1.0000   1.0000   1.0000   1.0000   1.0000
     1.0000   1.0000   1.0000   1.0000   1.0000   1.0000   1.0000   1.0000
     1.0000   1.0000   1.0000   1.0000   1.0000   1.0000   1.0000   1.0000
     1.0000   1.0000   1.0000   1.0000   1.0000   1.0000   1.0000   1.0000
     1.0000   1.0000   1.0000   1.0000   1.0000   1.0000   1.0000   0.9999
     0.9999   0.9997   0.9996   0.9994   0.9993   0.9983   0.9980   0.9976
     0.9975   0.9973   0.9970   0.9960   0.9951   0.9941   0.9935   0.9887
     0.9874   0.9860   0.9853   0.9823   0.9815   0.9804   0.9794   0.9778
     0.9760   0.9714   0.9705   0.9669   0.9643   0.9600   0.9526   0.9321
     0.9096   0.9036   0.8852   0.8745   0.8571   0.8413   0.8396   0.8255
     0.8125   0.8041   0.7901   0.7891   0.7708   0.7590   0.7419   0.7389
     0.7364   0.7257   0.7152   0.7092   0.7017   0.6945   0.6831   0.6768
     0.6719   0.6670   0.6624   0.6562   0.3505   0.3103   0.2529   0.2390
     0.1324   0.1084   0.0946   0.0476   0.0149   0.0101   0.0052   0.0038
     0.0010   0.0008   0.0003   0.0002   0.0001   0.0001   0.0000   0.0000
     0.0000   0.0000   0.0000   0.0000   0.0000   0.0000   0.0000   0.0000
     0.0000   0.0000   0.0000   0.0000   0.0000   0.0000   0.0000   0.0000
     0.0000   0.0000

     the Fermi energy is     3.1839 ev

!    total energy              =   -4440.29024214 Ry
     estimated scf accuracy    <          8.4E-09 Ry
     smearing contrib. (-TS)   =      -1.20535429 Ry
     internal energy E=F+TS    =   -4439.08488785 Ry

     The total energy is F=E-TS. E is the sum of the following terms:
     one-electron contribution =  -20891.26185717 Ry
     hartree contribution      =   10575.15434502 Ry
     xc contribution           =    -693.24366683 Ry
     ewald contribution        =    6846.45871440 Ry
     one-center paw contrib.   =    -276.19242327 Ry
      -> PAW hartree energy AE =      25.15978289 Ry
      -> PAW hartree energy PS =     -25.04370567 Ry
      -> PAW xc energy AE      =     -16.51707063 Ry
      -> PAW xc energy PS      =       6.87650627 Ry
      -> total E_H with PAW    =   10575.27042224 Ry
      -> total E_XC with PAW   =    -702.88423119 Ry

     convergence has been achieved in  49 iterations

     Writing all to output data dir /bsuhome/zayahcortright/scratch/pwscf.save/
 
     init_run     :      7.57s CPU      8.47s WALL (       1 calls)
     electrons    :    686.78s CPU    720.42s WALL (       1 calls)

     Called by init_run:
     wfcinit      :      6.13s CPU      6.35s WALL (       1 calls)
     wfcinit:atom :      0.05s CPU      0.07s WALL (       5 calls)
     wfcinit:wfcr :      5.81s CPU      5.94s WALL (       5 calls)
     potinit      :      0.18s CPU      0.21s WALL (       1 calls)
     hinit0       :      0.32s CPU      0.69s WALL (       1 calls)

     Called by electrons:
     c_bands      :    543.79s CPU    550.74s WALL (      49 calls)
     sum_band     :    107.08s CPU    121.92s WALL (      49 calls)
     v_of_rho     :      5.31s CPU      5.70s WALL (      50 calls)
     v_h          :      0.48s CPU      0.48s WALL (      50 calls)
     v_xc         :      4.84s CPU      5.21s WALL (      50 calls)
     newd         :     16.44s CPU     27.57s WALL (      50 calls)
     PAW_pot      :      1.58s CPU      1.62s WALL (      50 calls)
     mix_rho      :     12.23s CPU     12.60s WALL (      49 calls)

     Called by c_bands:
     init_us_2    :      7.06s CPU      7.18s WALL (     495 calls)
     init_us_2:cp :      7.06s CPU      7.18s WALL (     495 calls)
     cegterg      :    514.39s CPU    520.99s WALL (     245 calls)

     Called by sum_band:
     sum_band:wei :      0.35s CPU      0.35s WALL (      49 calls)
     sum_band:loo :     89.78s CPU     90.50s WALL (      49 calls)
     sum_band:buf :      1.52s CPU      1.56s WALL (     245 calls)
     sum_band:ini :      3.35s CPU      3.36s WALL (     245 calls)
     sum_band:cal :     19.45s CPU     19.51s WALL (     245 calls)
     sum_band:bec :      0.55s CPU      0.55s WALL (     245 calls)
     addusdens    :     15.67s CPU     29.72s WALL (      49 calls)
                                        0.00s GPU  (      49 calls)
     addusd:skk   :      0.30s CPU      0.96s WALL (     147 calls)
                                        0.00s GPU  (     147 calls)

     Called by *egterg:
     cdiaghg      :     51.62s CPU     51.86s WALL (    1171 calls)
     cegterg:over :     37.77s CPU     37.97s WALL (     926 calls)
     cegterg:upda :     27.18s CPU     27.73s WALL (     926 calls)
     cegterg:last :     53.03s CPU     53.24s WALL (     414 calls)
     cdiaghg:chol :      2.89s CPU      2.92s WALL (    1171 calls)
     cdiaghg:inve :      2.71s CPU      2.72s WALL (    1171 calls)
     cdiaghg:para :      6.78s CPU      6.82s WALL (    2342 calls)
     h_psi        :    290.00s CPU    293.20s WALL (    1176 calls)
     s_psi        :     39.21s CPU     39.33s WALL (    1176 calls)
     g_psi        :      1.09s CPU      1.11s WALL (     926 calls)

     Called by h_psi:
     h_psi:calbec :     43.93s CPU     44.13s WALL (    1176 calls)
     vloc_psi     :    204.03s CPU    206.12s WALL (    1176 calls)
     add_vuspsi   :     39.06s CPU     39.29s WALL (    1176 calls)

     General routines
     calbec       :     63.37s CPU     63.63s WALL (    1421 calls)
     fft          :      3.69s CPU      3.75s WALL (     648 calls)
     ffts         :      4.47s CPU      4.51s WALL (    5141 calls)
     fftw         :    172.30s CPU    173.91s WALL (  330312 calls)
     interpolate  :      0.41s CPU      0.41s WALL (      50 calls)
 
     Parallel routines

     PAW routines
     PAW_pot      :      1.58s CPU      1.62s WALL (      50 calls)
 
     PWSCF        :  11m36.02s CPU  12m13.54s WALL

 
   This run was terminated on:  21:14:49  21Jun2024            

=------------------------------------------------------------------------------=
   JOB DONE.
=------------------------------------------------------------------------------=
