
     Program PWSCF v.7.2 starts on 21Jun2024 at 21:39:18 

     This program is part of the open-source Quantum ESPRESSO suite
     for quantum simulation of materials; please cite
         "P. Giannozzi et al., J. Phys.:Condens. Matter 21 395502 (2009);
         "P. Giannozzi et al., J. Phys.:Condens. Matter 29 465901 (2017);
         "P. Giannozzi et al., J. Chem. Phys. 152 154105 (2020);
          URL http://www.quantum-espresso.org", 
     in publications or presentations arising from this work. More details at
     http://www.quantum-espresso.org/quote

     Parallel version (MPI & OpenMP), running on      48 processor cores
     Number of MPI processes:                48
     Threads/MPI process:                     1

     MPI processes distributed on     1 nodes
     60574 MiB available memory on the printing compute node when the environment starts
 
     Reading input from espresso.pwi
Warning: card &CELL ignored
Warning: card / ignored
Warning: card &FCP ignored
Warning: card / ignored
Warning: card &RISM ignored
Warning: card / ignored

     Current dimensions of program PWSCF are:
     Max number of different atomic species (ntypx) = 10
     Max number of k-points (npk) =  40000
     Max angular momentum in pseudopotentials (lmaxx) =  4
     file O.pbe-n-kjpaw_psl.0.1.UPF: wavefunction(s)  2P renormalized
     signal trapping enabled: kill the code with -SIGUSR1 to stop cleanly the simulation 
 
     K-points division:     npool     =       2
     R & G space division:  proc/nbgrp/npool/nimage =      24
     Subspace diagonalization in iterative solution of the eigenvalue problem:
     one sub-group per band group will be used
     scalapack distributed-memory algorithm (size of sub-group:  3*  3 procs)

 
     Parallelization info
     --------------------
     sticks:   dense  smooth     PW     G-vecs:    dense   smooth      PW
     Min         350     175     47                61430    21716    3036
     Max         351     177     48                61449    21727    3041
     Sum        8421    4205   1137              1474595   521381   72913
 
     Using Slab Decomposition
 


     bravais-lattice index     =            0
     lattice parameter (alat)  =      14.8599  a.u.
     unit-cell volume          =    8305.1283 (a.u.)^3
     number of atoms/cell      =           49
     number of atomic types    =            3
     number of electrons       =       430.00
     number of Kohn-Sham states=          258
     kinetic-energy cutoff     =      60.0000  Ry
     charge density cutoff     =     480.0000  Ry
     scf convergence threshold =      1.0E-08
     mixing beta               =       0.1500
     number of iterations used =            8  local-TF  mixing
     Exchange-correlation= SLA  PW   PBE  PBE
                           (   1   4   3   4   0   0   0)

     celldm(1)=  14.859904  celldm(2)=   0.000000  celldm(3)=   0.000000
     celldm(4)=   0.000000  celldm(5)=   0.000000  celldm(6)=   0.000000

     crystal axes: (cart. coord. in units of alat)
               a(1) = (   1.000000   0.000000   0.000000 )  
               a(2) = (   0.000000   1.000000   0.000000 )  
               a(3) = (   0.000000   0.000000   2.531036 )  

     reciprocal axes: (cart. coord. in units 2 pi/alat)
               b(1) = (  1.000000  0.000000  0.000000 )  
               b(2) = (  0.000000  1.000000  0.000000 )  
               b(3) = (  0.000000  0.000000  0.395095 )  


     PseudoPot. # 1 for Sr read from file:
     /bsuhome/zayahcortright/q-e/pseudo/Sr_pbe_v1.uspp.F.UPF
     MD5 check sum: 6b418c05fbe9db5448babca5e47b7a5b
     Pseudo is Ultrasoft + core correction, Zval = 10.0
     Generated by new atomic code, or converted to UPF format
     Using radial grid of  883 points,  6 beta functions with: 
                l(1) =   0
                l(2) =   0
                l(3) =   1
                l(4) =   1
                l(5) =   2
                l(6) =   2
     Q(r) pseudized with  6 coefficients,  rinner =    1.400   1.400   1.400
                                                       1.400   1.400

     PseudoPot. # 2 for O  read from file:
     /bsuhome/zayahcortright/q-e/pseudo/O.pbe-n-kjpaw_psl.0.1.UPF
     MD5 check sum: 0234752ac141de4415c5fc33072bef88
     Pseudo is Projector augmented-wave + core cor, Zval =  6.0
     Generated using "atomic" code by A. Dal Corso  v.5.0.99 svn rev. 10869
     Shape of augmentation charge: BESSEL
     Using radial grid of 1095 points,  4 beta functions with: 
                l(1) =   0
                l(2) =   0
                l(3) =   1
                l(4) =   1
     Q(r) pseudized with 0 coefficients 


     PseudoPot. # 3 for Co read from file:
     /bsuhome/zayahcortright/q-e/pseudo/Co_pbe_v1.2.uspp.F.UPF
     MD5 check sum: 5f91765df6ddd3222702df6e7b74a16d
     Pseudo is Ultrasoft + core correction, Zval = 17.0
     Generated by new atomic code, or converted to UPF format
     Using radial grid of  863 points,  6 beta functions with: 
                l(1) =   0
                l(2) =   0
                l(3) =   1
                l(4) =   1
                l(5) =   2
                l(6) =   2
     Q(r) pseudized with  8 coefficients,  rinner =    1.200   1.200   1.200
                                                       1.200   1.200

     atomic species   valence    mass     pseudopotential
        Sr            10.00    87.62000     Sr( 1.00)
        O              6.00    15.99900     O ( 1.00)
        Co            17.00    58.93319     Co( 1.00)

     No symmetry found


                                    s                        frac. trans.

      isym =  1     identity                                     

 cryst.   s( 1) = (     1          0          0      )
                  (     0          1          0      )
                  (     0          0          1      )

 cart.    s( 1) = (  1.0000000  0.0000000  0.0000000 )
                  (  0.0000000  1.0000000  0.0000000 )
                  (  0.0000000  0.0000000  1.0000000 )


   Cartesian axes

     site n.     atom                  positions (alat units)
         1           Sr  tau(   1) = (   0.2508693   0.7491307   1.7574407  )
         2           O   tau(   2) = (   0.4985141   0.5014859   1.7715967  )
         3           Sr  tau(   3) = (   0.7482398   0.7454518   1.7648669  )
         4           Sr  tau(   4) = (   0.7441748   0.2558252   1.7667843  )
         5           Sr  tau(   5) = (   0.2508693   0.7491307   1.2696799  )
         6           Sr  tau(   6) = (   0.2508693   0.7491307   0.7632319  )
         7           Co  tau(   7) = (   0.4998914   0.5001086   1.0164559  )
         8           Co  tau(   8) = (   0.4936915   0.5063085   1.5135603  )
         9           O   tau(   9) = (   0.4988895   0.7610401   1.0164559  )
        10           O   tau(  10) = (   0.2389599   0.5011105   1.0164559  )
        11           O   tau(  11) = (   0.0070918   0.7374880   1.0164559  )
        12           O   tau(  12) = (   0.0088340   0.7405089   1.5135603  )
        13           O   tau(  13) = (   0.5066944   0.7415376   1.5135603  )
        14           O   tau(  14) = (   0.2584624   0.4933056   1.5135603  )
        15           O   tau(  15) = (   0.4985141   0.5014859   0.7773880  )
        16           O   tau(  16) = (   0.4985141   0.5014859   1.2555238  )
        17           Sr  tau(  17) = (   0.7482398   0.7454518   0.7706582  )
        18           Sr  tau(  18) = (   0.7482398   0.7454518   1.2622536  )
        19           Sr  tau(  19) = (   0.7441748   0.2558252   0.7725755  )
        20           Sr  tau(  20) = (   0.7441748   0.2558252   1.2603363  )
        21           O   tau(  21) = (   0.7322655   0.0078049   1.5135603  )
        22           O   tau(  22) = (   0.7558175   0.4996027   1.5135603  )
        23           O   tau(  23) = (   0.5003973   0.2441825   1.5135603  )
        24           O   tau(  24) = (   0.7527966   0.4978604   1.0164559  )
        25           O   tau(  25) = (   0.5021396   0.2472034   1.0164559  )
        26           O   tau(  26) = (   0.7517679   0.0000000   1.0164559  )
        27           O   tau(  27) = (   0.0114961   0.4948124   1.7455321  )
        28           O   tau(  28) = (   0.0048226   0.0077944   1.7715967  )
        29           Sr  tau(  29) = (   0.2545482   0.2517602   1.7648669  )
        30           O   tau(  30) = (   0.5048017   0.0015068   1.7786929  )
        31           Co  tau(  31) = (   0.0056869   0.5006215   1.0164559  )
        32           Co  tau(  32) = (   0.0065315   0.4997770   1.5135603  )
        33           Co  tau(  33) = (   0.0061999   0.0064171   1.0164559  )
        34           Co  tau(  34) = (   0.0000000   0.0126169   1.5135603  )
        35           O   tau(  35) = (   0.0114961   0.4948124   1.2815885  )
        36           O   tau(  36) = (   0.0114961   0.4948124   0.7513233  )
        37           O   tau(  37) = (   0.0051979   0.2673486   1.0164559  )
        38           O   tau(  38) = (   0.0130029   0.2478461   1.5135603  )
        39           O   tau(  39) = (   0.0048226   0.0077944   0.7773880  )
        40           O   tau(  40) = (   0.0048226   0.0077944   1.2555238  )
        41           Sr  tau(  41) = (   0.2545482   0.2517602   0.7706582  )
        42           Sr  tau(  42) = (   0.2545482   0.2517602   1.2622536  )
        43           Co  tau(  43) = (   0.4989925   0.0073160   1.5135603  )
        44           Co  tau(  44) = (   0.4998370   0.0064714   1.0164559  )
        45           O   tau(  45) = (   0.5048017   0.0015068   0.7844841  )
        46           O   tau(  46) = (   0.5048017   0.0015068   1.2484277  )
        47           O   tau(  47) = (   0.2621260   0.0059111   1.5135603  )
        48           O   tau(  48) = (   0.2591051   0.0041689   1.0164559  )
        49           O   tau(  49) = (   0.5686583   0.4264937   2.1602013  )

   Crystallographic axes

     site n.     atom                  positions (cryst. coord.)
         1           Sr  tau(   1) = (  0.2508693  0.7491307  0.6943562  )
         2           O   tau(   2) = (  0.4985141  0.5014859  0.6999492  )
         3           Sr  tau(   3) = (  0.7482398  0.7454518  0.6972903  )
         4           Sr  tau(   4) = (  0.7441748  0.2558252  0.6980478  )
         5           Sr  tau(   5) = (  0.2508693  0.7491307  0.5016443  )
         6           Sr  tau(   6) = (  0.2508693  0.7491307  0.3015492  )
         7           Co  tau(   7) = (  0.4998914  0.5001086  0.4015968  )
         8           Co  tau(   8) = (  0.4936915  0.5063085  0.5980003  )
         9           O   tau(   9) = (  0.4988895  0.7610401  0.4015968  )
        10           O   tau(  10) = (  0.2389599  0.5011105  0.4015968  )
        11           O   tau(  11) = (  0.0070918  0.7374880  0.4015968  )
        12           O   tau(  12) = (  0.0088340  0.7405089  0.5980003  )
        13           O   tau(  13) = (  0.5066944  0.7415376  0.5980003  )
        14           O   tau(  14) = (  0.2584624  0.4933056  0.5980003  )
        15           O   tau(  15) = (  0.4985141  0.5014859  0.3071422  )
        16           O   tau(  16) = (  0.4985141  0.5014859  0.4960513  )
        17           Sr  tau(  17) = (  0.7482398  0.7454518  0.3044833  )
        18           Sr  tau(  18) = (  0.7482398  0.7454518  0.4987103  )
        19           Sr  tau(  19) = (  0.7441748  0.2558252  0.3052408  )
        20           Sr  tau(  20) = (  0.7441748  0.2558252  0.4979527  )
        21           O   tau(  21) = (  0.7322655  0.0078049  0.5980003  )
        22           O   tau(  22) = (  0.7558175  0.4996027  0.5980003  )
        23           O   tau(  23) = (  0.5003973  0.2441825  0.5980003  )
        24           O   tau(  24) = (  0.7527966  0.4978604  0.4015968  )
        25           O   tau(  25) = (  0.5021396  0.2472034  0.4015968  )
        26           O   tau(  26) = (  0.7517679  0.0000000  0.4015968  )
        27           O   tau(  27) = (  0.0114961  0.4948124  0.6896512  )
        28           O   tau(  28) = (  0.0048226  0.0077944  0.6999492  )
        29           Sr  tau(  29) = (  0.2545482  0.2517602  0.6972903  )
        30           O   tau(  30) = (  0.5048017  0.0015068  0.7027529  )
        31           Co  tau(  31) = (  0.0056869  0.5006215  0.4015968  )
        32           Co  tau(  32) = (  0.0065315  0.4997770  0.5980003  )
        33           Co  tau(  33) = (  0.0061999  0.0064171  0.4015968  )
        34           Co  tau(  34) = (  0.0000000  0.0126169  0.5980003  )
        35           O   tau(  35) = (  0.0114961  0.4948124  0.5063494  )
        36           O   tau(  36) = (  0.0114961  0.4948124  0.2968442  )
        37           O   tau(  37) = (  0.0051979  0.2673486  0.4015968  )
        38           O   tau(  38) = (  0.0130029  0.2478461  0.5980003  )
        39           O   tau(  39) = (  0.0048226  0.0077944  0.3071422  )
        40           O   tau(  40) = (  0.0048226  0.0077944  0.4960513  )
        41           Sr  tau(  41) = (  0.2545482  0.2517602  0.3044833  )
        42           Sr  tau(  42) = (  0.2545482  0.2517602  0.4987103  )
        43           Co  tau(  43) = (  0.4989925  0.0073160  0.5980003  )
        44           Co  tau(  44) = (  0.4998370  0.0064714  0.4015968  )
        45           O   tau(  45) = (  0.5048017  0.0015068  0.3099459  )
        46           O   tau(  46) = (  0.5048017  0.0015068  0.4932477  )
        47           O   tau(  47) = (  0.2621260  0.0059111  0.5980003  )
        48           O   tau(  48) = (  0.2591051  0.0041689  0.4015968  )
        49           O   tau(  49) = (  0.5686583  0.4264937  0.8534850  )

     number of k points=    10  Gaussian smearing, width (Ry)=  0.0700
                       cart. coord. in units 2pi/alat
        k(    1) = (   0.0000000   0.0000000   0.0000000), wk =   0.1250000
        k(    2) = (   0.0000000   0.2500000   0.0000000), wk =   0.2500000
        k(    3) = (   0.0000000  -0.5000000   0.0000000), wk =   0.1250000
        k(    4) = (   0.2500000   0.2500000   0.0000000), wk =   0.2500000
        k(    5) = (   0.2500000  -0.5000000   0.0000000), wk =   0.2500000
        k(    6) = (  -0.5000000  -0.5000000   0.0000000), wk =   0.1250000
        k(    7) = (   0.2500000   0.0000000   0.0000000), wk =   0.2500000
        k(    8) = (  -0.5000000   0.0000000   0.0000000), wk =   0.1250000
        k(    9) = (  -0.2500000   0.2500000   0.0000000), wk =   0.2500000
        k(   10) = (  -0.5000000   0.2500000   0.0000000), wk =   0.2500000

                       cryst. coord.
        k(    1) = (   0.0000000   0.0000000   0.0000000), wk =   0.1250000
        k(    2) = (   0.0000000   0.2500000   0.0000000), wk =   0.2500000
        k(    3) = (   0.0000000  -0.5000000   0.0000000), wk =   0.1250000
        k(    4) = (   0.2500000   0.2500000   0.0000000), wk =   0.2500000
        k(    5) = (   0.2500000  -0.5000000   0.0000000), wk =   0.2500000
        k(    6) = (  -0.5000000  -0.5000000   0.0000000), wk =   0.1250000
        k(    7) = (   0.2500000   0.0000000   0.0000000), wk =   0.2500000
        k(    8) = (  -0.5000000   0.0000000   0.0000000), wk =   0.1250000
        k(    9) = (  -0.2500000   0.2500000   0.0000000), wk =   0.2500000
        k(   10) = (  -0.5000000   0.2500000   0.0000000), wk =   0.2500000

     Dense  grid:  1474595 G-vectors     FFT dimensions: ( 108, 108, 270)

     Smooth grid:   521381 G-vectors     FFT dimensions: (  75,  75, 192)

     Dynamical RAM for                 wfc:      10.69 MB

     Dynamical RAM for     wfc (w. buffer):      64.13 MB

     Dynamical RAM for           str. fact:       2.81 MB

     Dynamical RAM for           local pot:       0.00 MB

     Dynamical RAM for          nlocal pot:      24.53 MB

     Dynamical RAM for                qrad:       5.27 MB

     Dynamical RAM for          rho,v,vnew:       6.02 MB

     Dynamical RAM for               rhoin:       2.01 MB

     Dynamical RAM for            rho*nmix:      15.00 MB

     Dynamical RAM for           G-vectors:       3.68 MB

     Dynamical RAM for          h,s,v(r/c):       1.35 MB

     Dynamical RAM for          <psi|beta>:       2.33 MB

     Dynamical RAM for                 psi:      21.38 MB

     Dynamical RAM for                hpsi:      21.38 MB

     Dynamical RAM for                spsi:      21.38 MB

     Dynamical RAM for      wfcinit/wfcrot:      34.39 MB

     Dynamical RAM for           addusdens:     101.26 MB

     Estimated static dynamical RAM per process >     117.53 MB

     Estimated max dynamical RAM per process >     233.79 MB

     Estimated total dynamical RAM >      10.61 GB

     Check: negative core charge=   -0.000004

     Initial potential from superposition of free atoms

     starting charge     421.5961, renormalised to     430.0000

     negative rho (up, down):  7.826E-01 0.000E+00
     Starting wfcs are  376 randomized atomic wfcs
     Checking if some PAW data can be deallocated... 
       PAW data deallocated on   19 nodes for type:  2

     total cpu time spent up to now is        9.1 secs

     Self-consistent Calculation

     iteration #  1     ecut=    60.00 Ry     beta= 0.15
     Davidson diagonalization with overlap

---- Real-time Memory Report at c_bands before calling an iterative solver
             0 MiB given to the printing process from OS
             0 MiB allocation reported by mallinfo(arena+hblkhd)
         51481 MiB available memory on the node where the printing process lives
------------------
     ethr =  1.00E-02,  avg # of iterations =  2.0

     negative rho (up, down):  7.716E-01 0.000E+00

     total cpu time spent up to now is       25.0 secs

     total energy              =   -4445.20655603 Ry
     estimated scf accuracy    <      54.03148404 Ry

     iteration #  2     ecut=    60.00 Ry     beta= 0.15
     Davidson diagonalization with overlap

---- Real-time Memory Report at c_bands before calling an iterative solver
             0 MiB given to the printing process from OS
             0 MiB allocation reported by mallinfo(arena+hblkhd)
         51855 MiB available memory on the node where the printing process lives
------------------
     ethr =  1.00E-02,  avg # of iterations =  1.0

     negative rho (up, down):  7.589E-01 0.000E+00

     total cpu time spent up to now is       37.8 secs

     total energy              =   -4441.90218569 Ry
     estimated scf accuracy    <      28.34790122 Ry

     iteration #  3     ecut=    60.00 Ry     beta= 0.15
     Davidson diagonalization with overlap

---- Real-time Memory Report at c_bands before calling an iterative solver
             0 MiB given to the printing process from OS
             0 MiB allocation reported by mallinfo(arena+hblkhd)
         51089 MiB available memory on the node where the printing process lives
------------------
     ethr =  6.59E-03,  avg # of iterations =  1.0

     negative rho (up, down):  7.531E-01 0.000E+00

     total cpu time spent up to now is       50.8 secs

     total energy              =   -4442.61818802 Ry
     estimated scf accuracy    <      29.10008241 Ry

     iteration #  4     ecut=    60.00 Ry     beta= 0.15
     Davidson diagonalization with overlap

---- Real-time Memory Report at c_bands before calling an iterative solver
             0 MiB given to the printing process from OS
             0 MiB allocation reported by mallinfo(arena+hblkhd)
         51037 MiB available memory on the node where the printing process lives
------------------
     ethr =  6.59E-03,  avg # of iterations =  1.0

     negative rho (up, down):  7.539E-01 0.000E+00

     total cpu time spent up to now is       63.4 secs

     total energy              =   -4442.53701858 Ry
     estimated scf accuracy    <      26.98057651 Ry

     iteration #  5     ecut=    60.00 Ry     beta= 0.15
     Davidson diagonalization with overlap

---- Real-time Memory Report at c_bands before calling an iterative solver
             0 MiB given to the printing process from OS
             0 MiB allocation reported by mallinfo(arena+hblkhd)
         51015 MiB available memory on the node where the printing process lives
------------------
     ethr =  6.27E-03,  avg # of iterations =  1.0

     negative rho (up, down):  7.375E-01 0.000E+00

     total cpu time spent up to now is       76.0 secs

     total energy              =   -4441.53193444 Ry
     estimated scf accuracy    <      19.87059204 Ry

     iteration #  6     ecut=    60.00 Ry     beta= 0.15
     Davidson diagonalization with overlap

---- Real-time Memory Report at c_bands before calling an iterative solver
             0 MiB given to the printing process from OS
             0 MiB allocation reported by mallinfo(arena+hblkhd)
         50999 MiB available memory on the node where the printing process lives
------------------
     ethr =  4.62E-03,  avg # of iterations =  1.7

     negative rho (up, down):  7.388E-01 0.000E+00

     total cpu time spent up to now is       89.6 secs

     total energy              =   -4444.28250386 Ry
     estimated scf accuracy    <      66.17938440 Ry

     iteration #  7     ecut=    60.00 Ry     beta= 0.15
     Davidson diagonalization with overlap

---- Real-time Memory Report at c_bands before calling an iterative solver
             0 MiB given to the printing process from OS
             0 MiB allocation reported by mallinfo(arena+hblkhd)
         50984 MiB available memory on the node where the printing process lives
------------------
     ethr =  4.62E-03,  avg # of iterations =  1.0

     negative rho (up, down):  7.417E-01 0.000E+00

     total cpu time spent up to now is      102.2 secs

     total energy              =   -4442.96217537 Ry
     estimated scf accuracy    <      64.92937800 Ry

     iteration #  8     ecut=    60.00 Ry     beta= 0.15
     Davidson diagonalization with overlap

---- Real-time Memory Report at c_bands before calling an iterative solver
             0 MiB given to the printing process from OS
             0 MiB allocation reported by mallinfo(arena+hblkhd)
         50970 MiB available memory on the node where the printing process lives
------------------
     ethr =  4.62E-03,  avg # of iterations =  1.0

     negative rho (up, down):  7.512E-01 0.000E+00

     total cpu time spent up to now is      114.7 secs

     total energy              =   -4440.79982616 Ry
     estimated scf accuracy    <      36.31222986 Ry

     iteration #  9     ecut=    60.00 Ry     beta= 0.15
     Davidson diagonalization with overlap

---- Real-time Memory Report at c_bands before calling an iterative solver
             0 MiB given to the printing process from OS
             0 MiB allocation reported by mallinfo(arena+hblkhd)
         50955 MiB available memory on the node where the printing process lives
------------------
     ethr =  4.62E-03,  avg # of iterations =  1.0

     negative rho (up, down):  7.501E-01 0.000E+00

     total cpu time spent up to now is      127.3 secs

     total energy              =   -4441.18129340 Ry
     estimated scf accuracy    <       6.28526536 Ry

     iteration # 10     ecut=    60.00 Ry     beta= 0.15
     Davidson diagonalization with overlap

---- Real-time Memory Report at c_bands before calling an iterative solver
             0 MiB given to the printing process from OS
             0 MiB allocation reported by mallinfo(arena+hblkhd)
         50924 MiB available memory on the node where the printing process lives
------------------
     ethr =  1.46E-03,  avg # of iterations =  3.0

     negative rho (up, down):  7.616E-01 0.000E+00

     total cpu time spent up to now is      141.7 secs

     total energy              =   -4440.59804980 Ry
     estimated scf accuracy    <      10.53423445 Ry

     iteration # 11     ecut=    60.00 Ry     beta= 0.15
     Davidson diagonalization with overlap

---- Real-time Memory Report at c_bands before calling an iterative solver
             0 MiB given to the printing process from OS
             0 MiB allocation reported by mallinfo(arena+hblkhd)
         50893 MiB available memory on the node where the printing process lives
------------------
     ethr =  1.46E-03,  avg # of iterations =  2.3

     negative rho (up, down):  7.813E-01 0.000E+00

     total cpu time spent up to now is      156.2 secs

     total energy              =   -4439.94229747 Ry
     estimated scf accuracy    <      12.50451941 Ry

     iteration # 12     ecut=    60.00 Ry     beta= 0.15
     Davidson diagonalization with overlap

---- Real-time Memory Report at c_bands before calling an iterative solver
             0 MiB given to the printing process from OS
             0 MiB allocation reported by mallinfo(arena+hblkhd)
         50891 MiB available memory on the node where the printing process lives
------------------
     ethr =  1.46E-03,  avg # of iterations =  3.6

     negative rho (up, down):  7.847E-01 0.000E+00

     total cpu time spent up to now is      170.8 secs

     total energy              =   -4440.69370737 Ry
     estimated scf accuracy    <       3.86895846 Ry

     iteration # 13     ecut=    60.00 Ry     beta= 0.15
     Davidson diagonalization with overlap

---- Real-time Memory Report at c_bands before calling an iterative solver
             0 MiB given to the printing process from OS
             0 MiB allocation reported by mallinfo(arena+hblkhd)
         50861 MiB available memory on the node where the printing process lives
------------------
     ethr =  9.00E-04,  avg # of iterations =  9.2

     negative rho (up, down):  7.863E-01 0.000E+00

     total cpu time spent up to now is      188.5 secs

     total energy              =   -4440.48313507 Ry
     estimated scf accuracy    <       3.39651621 Ry

     iteration # 14     ecut=    60.00 Ry     beta= 0.15
     Davidson diagonalization with overlap

---- Real-time Memory Report at c_bands before calling an iterative solver
             0 MiB given to the printing process from OS
             0 MiB allocation reported by mallinfo(arena+hblkhd)
         50623 MiB available memory on the node where the printing process lives
------------------
     ethr =  7.90E-04,  avg # of iterations =  3.8

     negative rho (up, down):  7.906E-01 0.000E+00

     total cpu time spent up to now is      203.4 secs

     total energy              =   -4440.48413691 Ry
     estimated scf accuracy    <       1.59448950 Ry

     iteration # 15     ecut=    60.00 Ry     beta= 0.15
     Davidson diagonalization with overlap

---- Real-time Memory Report at c_bands before calling an iterative solver
             0 MiB given to the printing process from OS
             0 MiB allocation reported by mallinfo(arena+hblkhd)
         50599 MiB available memory on the node where the printing process lives
------------------
     ethr =  3.71E-04,  avg # of iterations =  6.3

     negative rho (up, down):  8.013E-01 0.000E+00

     total cpu time spent up to now is      219.2 secs

     total energy              =   -4440.38485449 Ry
     estimated scf accuracy    <       0.81367020 Ry

     iteration # 16     ecut=    60.00 Ry     beta= 0.15
     Davidson diagonalization with overlap

---- Real-time Memory Report at c_bands before calling an iterative solver
             0 MiB given to the printing process from OS
             0 MiB allocation reported by mallinfo(arena+hblkhd)
         50522 MiB available memory on the node where the printing process lives
------------------
     ethr =  1.89E-04,  avg # of iterations =  8.9

     negative rho (up, down):  8.038E-01 0.000E+00

     total cpu time spent up to now is      235.9 secs

     total energy              =   -4440.40272817 Ry
     estimated scf accuracy    <       2.74984999 Ry

     iteration # 17     ecut=    60.00 Ry     beta= 0.15
     Davidson diagonalization with overlap

---- Real-time Memory Report at c_bands before calling an iterative solver
             0 MiB given to the printing process from OS
             0 MiB allocation reported by mallinfo(arena+hblkhd)
         50501 MiB available memory on the node where the printing process lives
------------------
     ethr =  1.89E-04,  avg # of iterations =  2.2

     negative rho (up, down):  8.217E-01 0.000E+00

     total cpu time spent up to now is      249.7 secs

     total energy              =   -4440.36698923 Ry
     estimated scf accuracy    <       0.40844812 Ry

     iteration # 18     ecut=    60.00 Ry     beta= 0.15
     Davidson diagonalization with overlap

---- Real-time Memory Report at c_bands before calling an iterative solver
             0 MiB given to the printing process from OS
             0 MiB allocation reported by mallinfo(arena+hblkhd)
         50504 MiB available memory on the node where the printing process lives
------------------
     ethr =  9.50E-05,  avg # of iterations = 14.1

     negative rho (up, down):  8.234E-01 0.000E+00

     total cpu time spent up to now is      269.0 secs

     total energy              =   -4440.35348619 Ry
     estimated scf accuracy    <       1.90362127 Ry

     iteration # 19     ecut=    60.00 Ry     beta= 0.15
     Davidson diagonalization with overlap

---- Real-time Memory Report at c_bands before calling an iterative solver
             0 MiB given to the printing process from OS
             0 MiB allocation reported by mallinfo(arena+hblkhd)
         50464 MiB available memory on the node where the printing process lives
------------------
     ethr =  9.50E-05,  avg # of iterations =  3.1

     negative rho (up, down):  8.194E-01 0.000E+00

     total cpu time spent up to now is      282.9 secs

     total energy              =   -4440.35596487 Ry
     estimated scf accuracy    <       0.22825571 Ry

     iteration # 20     ecut=    60.00 Ry     beta= 0.15
     Davidson diagonalization with overlap

---- Real-time Memory Report at c_bands before calling an iterative solver
             0 MiB given to the printing process from OS
             0 MiB allocation reported by mallinfo(arena+hblkhd)
         50455 MiB available memory on the node where the printing process lives
------------------
     ethr =  5.31E-05,  avg # of iterations =  4.8

     negative rho (up, down):  8.115E-01 0.000E+00

     total cpu time spent up to now is      298.2 secs

     total energy              =   -4440.34301336 Ry
     estimated scf accuracy    <       0.24939620 Ry

     iteration # 21     ecut=    60.00 Ry     beta= 0.15
     Davidson diagonalization with overlap

---- Real-time Memory Report at c_bands before calling an iterative solver
             0 MiB given to the printing process from OS
             0 MiB allocation reported by mallinfo(arena+hblkhd)
         50476 MiB available memory on the node where the printing process lives
------------------
     ethr =  5.31E-05,  avg # of iterations =  2.5

     negative rho (up, down):  8.042E-01 0.000E+00

     total cpu time spent up to now is      312.4 secs

     total energy              =   -4440.32478162 Ry
     estimated scf accuracy    <       0.36081993 Ry

     iteration # 22     ecut=    60.00 Ry     beta= 0.15
     Davidson diagonalization with overlap

---- Real-time Memory Report at c_bands before calling an iterative solver
             0 MiB given to the printing process from OS
             0 MiB allocation reported by mallinfo(arena+hblkhd)
         50486 MiB available memory on the node where the printing process lives
------------------
     ethr =  5.31E-05,  avg # of iterations =  5.5

     negative rho (up, down):  8.230E-01 0.000E+00

     total cpu time spent up to now is      328.0 secs

     total energy              =   -4440.30747028 Ry
     estimated scf accuracy    <       0.15712009 Ry

     iteration # 23     ecut=    60.00 Ry     beta= 0.15
     Davidson diagonalization with overlap

---- Real-time Memory Report at c_bands before calling an iterative solver
             0 MiB given to the printing process from OS
             0 MiB allocation reported by mallinfo(arena+hblkhd)
         50499 MiB available memory on the node where the printing process lives
------------------
     ethr =  3.65E-05,  avg # of iterations =  8.4

     negative rho (up, down):  8.243E-01 0.000E+00

     total cpu time spent up to now is      345.2 secs

     total energy              =   -4440.30867699 Ry
     estimated scf accuracy    <       0.04452850 Ry

     iteration # 24     ecut=    60.00 Ry     beta= 0.15
     Davidson diagonalization with overlap

---- Real-time Memory Report at c_bands before calling an iterative solver
             0 MiB given to the printing process from OS
             0 MiB allocation reported by mallinfo(arena+hblkhd)
         50404 MiB available memory on the node where the printing process lives
------------------
     c_bands:  1 eigenvalues not converged
     ethr =  1.04E-05,  avg # of iterations =  7.3

     negative rho (up, down):  8.253E-01 0.000E+00

     total cpu time spent up to now is      361.9 secs

     total energy              =   -4440.30631703 Ry
     estimated scf accuracy    <       0.04047519 Ry

     iteration # 25     ecut=    60.00 Ry     beta= 0.15
     Davidson diagonalization with overlap

---- Real-time Memory Report at c_bands before calling an iterative solver
             0 MiB given to the printing process from OS
             0 MiB allocation reported by mallinfo(arena+hblkhd)
         50481 MiB available memory on the node where the printing process lives
------------------
     ethr =  9.41E-06,  avg # of iterations =  5.4

     negative rho (up, down):  8.024E-01 0.000E+00

     total cpu time spent up to now is      377.4 secs

     total energy              =   -4440.30192560 Ry
     estimated scf accuracy    <       0.03671107 Ry

     iteration # 26     ecut=    60.00 Ry     beta= 0.15
     Davidson diagonalization with overlap

---- Real-time Memory Report at c_bands before calling an iterative solver
             0 MiB given to the printing process from OS
             0 MiB allocation reported by mallinfo(arena+hblkhd)
         50425 MiB available memory on the node where the printing process lives
------------------
     ethr =  8.54E-06,  avg # of iterations =  5.7

     negative rho (up, down):  7.915E-01 0.000E+00

     total cpu time spent up to now is      393.3 secs

     total energy              =   -4440.30022690 Ry
     estimated scf accuracy    <       0.01949776 Ry

     iteration # 27     ecut=    60.00 Ry     beta= 0.15
     Davidson diagonalization with overlap

---- Real-time Memory Report at c_bands before calling an iterative solver
             0 MiB given to the printing process from OS
             0 MiB allocation reported by mallinfo(arena+hblkhd)
         50455 MiB available memory on the node where the printing process lives
------------------
     c_bands:  1 eigenvalues not converged
     ethr =  4.53E-06,  avg # of iterations =  9.3

     negative rho (up, down):  7.895E-01 0.000E+00

     total cpu time spent up to now is      411.8 secs

     total energy              =   -4440.30024602 Ry
     estimated scf accuracy    <       0.00726810 Ry

     iteration # 28     ecut=    60.00 Ry     beta= 0.15
     Davidson diagonalization with overlap

---- Real-time Memory Report at c_bands before calling an iterative solver
             0 MiB given to the printing process from OS
             0 MiB allocation reported by mallinfo(arena+hblkhd)
         50411 MiB available memory on the node where the printing process lives
------------------
     ethr =  1.69E-06,  avg # of iterations =  2.2

     negative rho (up, down):  7.899E-01 0.000E+00

     total cpu time spent up to now is      426.1 secs

     total energy              =   -4440.29969545 Ry
     estimated scf accuracy    <       0.00567380 Ry

     iteration # 29     ecut=    60.00 Ry     beta= 0.15
     Davidson diagonalization with overlap

---- Real-time Memory Report at c_bands before calling an iterative solver
             0 MiB given to the printing process from OS
             0 MiB allocation reported by mallinfo(arena+hblkhd)
         50420 MiB available memory on the node where the printing process lives
------------------
     ethr =  1.32E-06,  avg # of iterations =  5.2

     negative rho (up, down):  7.946E-01 0.000E+00

     total cpu time spent up to now is      441.7 secs

     total energy              =   -4440.29932989 Ry
     estimated scf accuracy    <       0.00303580 Ry

     iteration # 30     ecut=    60.00 Ry     beta= 0.15
     Davidson diagonalization with overlap

---- Real-time Memory Report at c_bands before calling an iterative solver
             0 MiB given to the printing process from OS
             0 MiB allocation reported by mallinfo(arena+hblkhd)
         50413 MiB available memory on the node where the printing process lives
------------------
     ethr =  7.06E-07,  avg # of iterations =  9.4

     negative rho (up, down):  7.972E-01 0.000E+00

     total cpu time spent up to now is      459.5 secs

     total energy              =   -4440.29949780 Ry
     estimated scf accuracy    <       0.00107543 Ry

     iteration # 31     ecut=    60.00 Ry     beta= 0.15
     Davidson diagonalization with overlap

---- Real-time Memory Report at c_bands before calling an iterative solver
             0 MiB given to the printing process from OS
             0 MiB allocation reported by mallinfo(arena+hblkhd)
         50383 MiB available memory on the node where the printing process lives
------------------
     c_bands:  1 eigenvalues not converged
     ethr =  2.50E-07,  avg # of iterations =  7.7

     negative rho (up, down):  7.987E-01 0.000E+00

     total cpu time spent up to now is      476.4 secs

     total energy              =   -4440.29955752 Ry
     estimated scf accuracy    <       0.00054237 Ry

     iteration # 32     ecut=    60.00 Ry     beta= 0.15
     Davidson diagonalization with overlap

---- Real-time Memory Report at c_bands before calling an iterative solver
             0 MiB given to the printing process from OS
             0 MiB allocation reported by mallinfo(arena+hblkhd)
         50390 MiB available memory on the node where the printing process lives
------------------
     c_bands:  1 eigenvalues not converged
     ethr =  1.26E-07,  avg # of iterations =  5.6

     negative rho (up, down):  7.972E-01 0.000E+00

     total cpu time spent up to now is      492.4 secs

     total energy              =   -4440.29951046 Ry
     estimated scf accuracy    <       0.00023850 Ry

     iteration # 33     ecut=    60.00 Ry     beta= 0.15
     Davidson diagonalization with overlap

---- Real-time Memory Report at c_bands before calling an iterative solver
             0 MiB given to the printing process from OS
             0 MiB allocation reported by mallinfo(arena+hblkhd)
         50282 MiB available memory on the node where the printing process lives
------------------
     ethr =  5.55E-08,  avg # of iterations =  3.4

     negative rho (up, down):  7.956E-01 0.000E+00

     total cpu time spent up to now is      507.5 secs

     total energy              =   -4440.29947350 Ry
     estimated scf accuracy    <       0.00015728 Ry

     iteration # 34     ecut=    60.00 Ry     beta= 0.15
     Davidson diagonalization with overlap

---- Real-time Memory Report at c_bands before calling an iterative solver
             0 MiB given to the printing process from OS
             0 MiB allocation reported by mallinfo(arena+hblkhd)
         50297 MiB available memory on the node where the printing process lives
------------------
     ethr =  3.66E-08,  avg # of iterations =  5.3

     negative rho (up, down):  7.937E-01 0.000E+00

     total cpu time spent up to now is      523.2 secs

     total energy              =   -4440.29945538 Ry
     estimated scf accuracy    <       0.00006894 Ry

     iteration # 35     ecut=    60.00 Ry     beta= 0.15
     Davidson diagonalization with overlap

---- Real-time Memory Report at c_bands before calling an iterative solver
             0 MiB given to the printing process from OS
             0 MiB allocation reported by mallinfo(arena+hblkhd)
         50344 MiB available memory on the node where the printing process lives
------------------
     ethr =  1.60E-08,  avg # of iterations =  3.1

     negative rho (up, down):  7.933E-01 0.000E+00

     total cpu time spent up to now is      538.3 secs

     total energy              =   -4440.29946327 Ry
     estimated scf accuracy    <       0.00003655 Ry

     iteration # 36     ecut=    60.00 Ry     beta= 0.15
     Davidson diagonalization with overlap

---- Real-time Memory Report at c_bands before calling an iterative solver
             0 MiB given to the printing process from OS
             0 MiB allocation reported by mallinfo(arena+hblkhd)
         50313 MiB available memory on the node where the printing process lives
------------------
     ethr =  8.50E-09,  avg # of iterations =  2.0

     negative rho (up, down):  7.926E-01 0.000E+00

     total cpu time spent up to now is      552.3 secs

     total energy              =   -4440.29947106 Ry
     estimated scf accuracy    <       0.00002383 Ry

     iteration # 37     ecut=    60.00 Ry     beta= 0.15
     Davidson diagonalization with overlap

---- Real-time Memory Report at c_bands before calling an iterative solver
             0 MiB given to the printing process from OS
             0 MiB allocation reported by mallinfo(arena+hblkhd)
         50320 MiB available memory on the node where the printing process lives
------------------
     ethr =  5.54E-09,  avg # of iterations =  2.6

     negative rho (up, down):  7.924E-01 0.000E+00

     total cpu time spent up to now is      566.4 secs

     total energy              =   -4440.29947571 Ry
     estimated scf accuracy    <       0.00001103 Ry

     iteration # 38     ecut=    60.00 Ry     beta= 0.15
     Davidson diagonalization with overlap

---- Real-time Memory Report at c_bands before calling an iterative solver
             0 MiB given to the printing process from OS
             0 MiB allocation reported by mallinfo(arena+hblkhd)
         50326 MiB available memory on the node where the printing process lives
------------------
     ethr =  2.56E-09,  avg # of iterations =  2.8

     negative rho (up, down):  7.923E-01 0.000E+00

     total cpu time spent up to now is      580.8 secs

     total energy              =   -4440.29947390 Ry
     estimated scf accuracy    <       0.00000784 Ry

     iteration # 39     ecut=    60.00 Ry     beta= 0.15
     Davidson diagonalization with overlap

---- Real-time Memory Report at c_bands before calling an iterative solver
             0 MiB given to the printing process from OS
             0 MiB allocation reported by mallinfo(arena+hblkhd)
         50323 MiB available memory on the node where the printing process lives
------------------
     ethr =  1.82E-09,  avg # of iterations =  2.7

     negative rho (up, down):  7.923E-01 0.000E+00

     total cpu time spent up to now is      595.1 secs

     total energy              =   -4440.29947345 Ry
     estimated scf accuracy    <       0.00000508 Ry

     iteration # 40     ecut=    60.00 Ry     beta= 0.15
     Davidson diagonalization with overlap

---- Real-time Memory Report at c_bands before calling an iterative solver
             0 MiB given to the printing process from OS
             0 MiB allocation reported by mallinfo(arena+hblkhd)
         50334 MiB available memory on the node where the printing process lives
------------------
     ethr =  1.18E-09,  avg # of iterations =  2.0

     negative rho (up, down):  7.923E-01 0.000E+00

     total cpu time spent up to now is      609.1 secs

     total energy              =   -4440.29947343 Ry
     estimated scf accuracy    <       0.00000478 Ry

     iteration # 41     ecut=    60.00 Ry     beta= 0.15
     Davidson diagonalization with overlap

---- Real-time Memory Report at c_bands before calling an iterative solver
             0 MiB given to the printing process from OS
             0 MiB allocation reported by mallinfo(arena+hblkhd)
         50345 MiB available memory on the node where the printing process lives
------------------
     ethr =  1.11E-09,  avg # of iterations =  2.0

     negative rho (up, down):  7.924E-01 0.000E+00

     total cpu time spent up to now is      623.2 secs

     total energy              =   -4440.29947451 Ry
     estimated scf accuracy    <       0.00000393 Ry

     iteration # 42     ecut=    60.00 Ry     beta= 0.15
     Davidson diagonalization with overlap

---- Real-time Memory Report at c_bands before calling an iterative solver
             0 MiB given to the printing process from OS
             0 MiB allocation reported by mallinfo(arena+hblkhd)
         50346 MiB available memory on the node where the printing process lives
------------------
     ethr =  9.14E-10,  avg # of iterations =  1.7

     negative rho (up, down):  7.925E-01 0.000E+00

     total cpu time spent up to now is      637.0 secs

     total energy              =   -4440.29947652 Ry
     estimated scf accuracy    <       0.00000235 Ry

     iteration # 43     ecut=    60.00 Ry     beta= 0.15
     Davidson diagonalization with overlap

---- Real-time Memory Report at c_bands before calling an iterative solver
             0 MiB given to the printing process from OS
             0 MiB allocation reported by mallinfo(arena+hblkhd)
         50343 MiB available memory on the node where the printing process lives
------------------
     ethr =  5.46E-10,  avg # of iterations =  2.5

     negative rho (up, down):  7.925E-01 0.000E+00

     total cpu time spent up to now is      651.4 secs

     total energy              =   -4440.29947751 Ry
     estimated scf accuracy    <       0.00000153 Ry

     iteration # 44     ecut=    60.00 Ry     beta= 0.15
     Davidson diagonalization with overlap

---- Real-time Memory Report at c_bands before calling an iterative solver
             0 MiB given to the printing process from OS
             0 MiB allocation reported by mallinfo(arena+hblkhd)
         50347 MiB available memory on the node where the printing process lives
------------------
     ethr =  3.55E-10,  avg # of iterations =  2.5

     negative rho (up, down):  7.926E-01 0.000E+00

     total cpu time spent up to now is      665.5 secs

     total energy              =   -4440.29947775 Ry
     estimated scf accuracy    <       0.00000095 Ry

     iteration # 45     ecut=    60.00 Ry     beta= 0.15
     Davidson diagonalization with overlap

---- Real-time Memory Report at c_bands before calling an iterative solver
             0 MiB given to the printing process from OS
             0 MiB allocation reported by mallinfo(arena+hblkhd)
         50352 MiB available memory on the node where the printing process lives
------------------
     ethr =  2.22E-10,  avg # of iterations =  2.7

     negative rho (up, down):  7.927E-01 0.000E+00

     total cpu time spent up to now is      679.9 secs

     total energy              =   -4440.29947763 Ry
     estimated scf accuracy    <       0.00000059 Ry

     iteration # 46     ecut=    60.00 Ry     beta= 0.15
     Davidson diagonalization with overlap

---- Real-time Memory Report at c_bands before calling an iterative solver
             0 MiB given to the printing process from OS
             0 MiB allocation reported by mallinfo(arena+hblkhd)
         50361 MiB available memory on the node where the printing process lives
------------------
     ethr =  1.38E-10,  avg # of iterations =  2.0

     negative rho (up, down):  7.927E-01 0.000E+00

     total cpu time spent up to now is      693.8 secs

     total energy              =   -4440.29947761 Ry
     estimated scf accuracy    <       0.00000028 Ry

     iteration # 47     ecut=    60.00 Ry     beta= 0.15
     Davidson diagonalization with overlap

---- Real-time Memory Report at c_bands before calling an iterative solver
             0 MiB given to the printing process from OS
             0 MiB allocation reported by mallinfo(arena+hblkhd)
         50368 MiB available memory on the node where the printing process lives
------------------
     ethr =  6.54E-11,  avg # of iterations =  2.0

     negative rho (up, down):  7.927E-01 0.000E+00

     total cpu time spent up to now is      708.0 secs

     total energy              =   -4440.29947768 Ry
     estimated scf accuracy    <       0.00000018 Ry

     iteration # 48     ecut=    60.00 Ry     beta= 0.15
     Davidson diagonalization with overlap

---- Real-time Memory Report at c_bands before calling an iterative solver
             0 MiB given to the printing process from OS
             0 MiB allocation reported by mallinfo(arena+hblkhd)
         50369 MiB available memory on the node where the printing process lives
------------------
     ethr =  4.12E-11,  avg # of iterations =  2.0

     negative rho (up, down):  7.926E-01 0.000E+00

     total cpu time spent up to now is      722.0 secs

     total energy              =   -4440.29947774 Ry
     estimated scf accuracy    <       0.00000010 Ry

     iteration # 49     ecut=    60.00 Ry     beta= 0.15
     Davidson diagonalization with overlap

---- Real-time Memory Report at c_bands before calling an iterative solver
             0 MiB given to the printing process from OS
             0 MiB allocation reported by mallinfo(arena+hblkhd)
         50370 MiB available memory on the node where the printing process lives
------------------
     ethr =  2.30E-11,  avg # of iterations =  2.0

     negative rho (up, down):  7.926E-01 0.000E+00

     total cpu time spent up to now is      736.4 secs

     total energy              =   -4440.29947778 Ry
     estimated scf accuracy    <       0.00000005 Ry

     iteration # 50     ecut=    60.00 Ry     beta= 0.15
     Davidson diagonalization with overlap

---- Real-time Memory Report at c_bands before calling an iterative solver
             0 MiB given to the printing process from OS
             0 MiB allocation reported by mallinfo(arena+hblkhd)
         50372 MiB available memory on the node where the printing process lives
------------------
     ethr =  1.13E-11,  avg # of iterations =  2.0

     negative rho (up, down):  7.926E-01 0.000E+00

     total cpu time spent up to now is      750.4 secs

     total energy              =   -4440.29947779 Ry
     estimated scf accuracy    <       0.00000003 Ry

     iteration # 51     ecut=    60.00 Ry     beta= 0.15
     Davidson diagonalization with overlap

---- Real-time Memory Report at c_bands before calling an iterative solver
             0 MiB given to the printing process from OS
             0 MiB allocation reported by mallinfo(arena+hblkhd)
         50373 MiB available memory on the node where the printing process lives
------------------
     ethr =  7.21E-12,  avg # of iterations =  2.6

     negative rho (up, down):  7.926E-01 0.000E+00

     total cpu time spent up to now is      764.9 secs

     total energy              =   -4440.29947780 Ry
     estimated scf accuracy    <       0.00000002 Ry

     iteration # 52     ecut=    60.00 Ry     beta= 0.15
     Davidson diagonalization with overlap

---- Real-time Memory Report at c_bands before calling an iterative solver
             0 MiB given to the printing process from OS
             0 MiB allocation reported by mallinfo(arena+hblkhd)
         50356 MiB available memory on the node where the printing process lives
------------------
     ethr =  3.52E-12,  avg # of iterations =  3.5

     negative rho (up, down):  7.926E-01 0.000E+00

     total cpu time spent up to now is      779.7 secs

     End of self-consistent calculation

          k = 0.0000 0.0000 0.0000 ( 65197 PWs)   bands (ev):

   -92.8710 -92.8197 -92.7250 -92.6791 -92.6164 -92.5784 -92.5598 -92.4375
   -56.2246 -56.2066 -56.0819 -56.0714 -56.0649 -56.0583 -56.0221 -55.9939
   -55.9785 -55.9784 -55.9711 -55.9246 -55.9107 -55.8692 -55.8517 -55.8146
   -55.8126 -55.7652 -55.7641 -55.7629 -55.7545 -55.7121 -55.6900 -55.6035
   -31.4349 -31.4153 -31.2730 -31.1983 -31.1866 -31.0627 -30.9654 -30.8847
   -30.0161 -29.9734 -29.9467 -29.8387 -15.2475 -15.2030 -15.1222 -14.9916
   -14.7954 -14.6715 -14.3837 -14.3639 -14.3350 -14.2879 -14.2384 -14.2270
   -14.2215 -14.1996 -14.1826 -14.1333 -14.0973 -13.9434 -13.7614 -13.7300
   -13.7013 -13.6675 -13.6521 -13.5888 -13.5547 -13.4775 -13.4100 -13.2774
   -13.2670 -13.2575 -13.2330 -13.2146 -13.1880 -13.1603 -13.1494 -13.1405
   -13.1079 -13.0802 -13.0587 -13.0132 -12.9932 -12.9729 -12.9038 -12.8924
   -12.8767 -12.8200 -12.7873 -12.7621 -12.5009 -12.3553 -12.1709 -12.0934
   -12.0293 -11.9843 -11.9556 -11.9442 -11.9216 -11.9038 -11.8403 -11.8227
   -11.7884 -11.7588 -11.6470 -11.5677 -11.5641  -3.1087  -2.8771  -2.6469
    -2.5005  -2.4376  -2.2960  -1.9881  -1.9737  -1.9550  -1.8699  -1.8500
    -1.7809  -1.7643  -1.7221  -1.6817  -1.4987  -1.2742  -1.2424  -1.0983
    -1.0837  -1.0374  -1.0170  -0.9706  -0.9543  -0.9020  -0.8742  -0.7968
    -0.7886  -0.7144  -0.5791  -0.5656  -0.5391  -0.4591  -0.4260  -0.4242
    -0.3642  -0.2951  -0.2301  -0.1960  -0.1666  -0.0867  -0.0350   0.0146
     0.0338   0.0542   0.3093   0.3245   0.4971   0.5616   0.6304   0.6766
     0.7615   0.7730   0.7875   0.8588   0.8849   0.9179   0.9769   1.1058
     1.1668   1.1875   1.2099   1.2275   1.2858   1.3528   1.4679   1.4788
     1.5463   1.5540   1.6000   1.6121   1.6247   1.6793   1.7415   1.7515
     1.7927   1.8198   1.8626   1.9945   2.0895   2.1236   2.1348   2.2918
     2.3042   2.3434   2.3539   2.4537   2.4906   2.5154   2.5349   2.5510
     2.5952   2.6267   2.6347   2.6520   2.7440   2.7732   2.7865   2.7900
     2.8570   2.8639   2.8865   2.8929   2.9033   2.9146   2.9223   2.9362
     2.9451   2.9556   2.9619   2.9771   2.9890   3.0099   3.0148   3.0272
     3.0659   3.1708   3.2690   3.9547   4.2730   4.6190   4.8358   4.8947
     5.7667   5.8274   5.8410   5.8705   6.1466   6.1929   6.4430   6.4510
     6.9466   6.9890   7.0868   7.1709   7.4824   7.5403   7.5546   7.5765
     7.6172   7.8155   7.8871   8.0403   8.0963   8.1505   8.2722   8.4557
     8.7542   8.9366

     occupation numbers 
     1.0000   1.0000   1.0000   1.0000   1.0000   1.0000   1.0000   1.0000
     1.0000   1.0000   1.0000   1.0000   1.0000   1.0000   1.0000   1.0000
     1.0000   1.0000   1.0000   1.0000   1.0000   1.0000   1.0000   1.0000
     1.0000   1.0000   1.0000   1.0000   1.0000   1.0000   1.0000   1.0000
     1.0000   1.0000   1.0000   1.0000   1.0000   1.0000   1.0000   1.0000
     1.0000   1.0000   1.0000   1.0000   1.0000   1.0000   1.0000   1.0000
     1.0000   1.0000   1.0000   1.0000   1.0000   1.0000   1.0000   1.0000
     1.0000   1.0000   1.0000   1.0000   1.0000   1.0000   1.0000   1.0000
     1.0000   1.0000   1.0000   1.0000   1.0000   1.0000   1.0000   1.0000
     1.0000   1.0000   1.0000   1.0000   1.0000   1.0000   1.0000   1.0000
     1.0000   1.0000   1.0000   1.0000   1.0000   1.0000   1.0000   1.0000
     1.0000   1.0000   1.0000   1.0000   1.0000   1.0000   1.0000   1.0000
     1.0000   1.0000   1.0000   1.0000   1.0000   1.0000   1.0000   1.0000
     1.0000   1.0000   1.0000   1.0000   1.0000   1.0000   1.0000   1.0000
     1.0000   1.0000   1.0000   1.0000   1.0000   1.0000   1.0000   1.0000
     1.0000   1.0000   1.0000   1.0000   1.0000   1.0000   1.0000   1.0000
     1.0000   1.0000   1.0000   1.0000   1.0000   1.0000   1.0000   1.0000
     1.0000   1.0000   1.0000   1.0000   1.0000   1.0000   1.0000   1.0000
     1.0000   1.0000   1.0000   1.0000   1.0000   1.0000   1.0000   1.0000
     1.0000   1.0000   1.0000   1.0000   1.0000   0.9999   0.9999   0.9999
     0.9998   0.9998   0.9998   0.9997   0.9996   0.9996   0.9994   0.9988
     0.9984   0.9983   0.9981   0.9979   0.9973   0.9963   0.9939   0.9937
     0.9916   0.9914   0.9896   0.9891   0.9886   0.9859   0.9823   0.9816
     0.9787   0.9765   0.9728   0.9579   0.9436   0.9377   0.9356   0.9007
     0.8975   0.8867   0.8837   0.8521   0.8390   0.8299   0.8224   0.8162
     0.7982   0.7848   0.7813   0.7736   0.7305   0.7160   0.7092   0.7075
     0.6724   0.6687   0.6564   0.6529   0.6472   0.6409   0.6366   0.6289
     0.6239   0.6179   0.6144   0.6057   0.5989   0.5868   0.5840   0.5768
     0.5542   0.4922   0.4344   0.1183   0.0489   0.0150   0.0064   0.0050
     0.0001   0.0000   0.0000   0.0000   0.0000   0.0000   0.0000   0.0000
     0.0000   0.0000   0.0000   0.0000   0.0000   0.0000   0.0000   0.0000
     0.0000   0.0000   0.0000   0.0000   0.0000   0.0000   0.0000   0.0000
     0.0000   0.0000

          k = 0.0000 0.2500 0.0000 ( 65257 PWs)   bands (ev):

   -92.8710 -92.8197 -92.7250 -92.6791 -92.6164 -92.5784 -92.5598 -92.4375
   -56.2246 -56.2066 -56.0819 -56.0714 -56.0649 -56.0583 -56.0221 -55.9939
   -55.9785 -55.9784 -55.9711 -55.9246 -55.9107 -55.8692 -55.8517 -55.8146
   -55.8126 -55.7652 -55.7641 -55.7629 -55.7545 -55.7121 -55.6900 -55.6035
   -31.4347 -31.4152 -31.2732 -31.1982 -31.1867 -31.0626 -30.9655 -30.8849
   -30.0155 -29.9731 -29.9473 -29.8390 -15.2109 -15.1768 -15.0969 -14.9623
   -14.8381 -14.6618 -14.5300 -14.3498 -14.3136 -14.2923 -14.2631 -14.2057
   -14.1957 -14.1833 -14.1643 -14.1028 -14.0157 -13.9748 -13.8100 -13.7851
   -13.7419 -13.7051 -13.6590 -13.6132 -13.5498 -13.5034 -13.4636 -13.3824
   -13.3224 -13.3046 -13.2662 -13.2498 -13.1779 -13.1417 -13.1165 -13.0913
   -13.0605 -13.0287 -13.0202 -12.9934 -12.9717 -12.9552 -12.8773 -12.8298
   -12.8156 -12.7855 -12.7280 -12.6535 -12.5621 -12.4064 -12.2260 -12.1580
   -11.9949 -11.9845 -11.9524 -11.9239 -11.8959 -11.8795 -11.8321 -11.8207
   -11.7979 -11.7641 -11.6614 -11.6092 -11.5988  -2.9733  -2.7528  -2.6145
    -2.4330  -2.3892  -2.2260  -2.0051  -1.9226  -1.9094  -1.8510  -1.7457
    -1.7320  -1.6997  -1.6706  -1.6269  -1.4298  -1.3001  -1.2892  -1.2127
    -1.2033  -1.0992  -1.0689  -1.0090  -0.9837  -0.9452  -0.8808  -0.8528
    -0.8216  -0.7873  -0.7714  -0.7392  -0.6633  -0.6156  -0.5468  -0.4276
    -0.4112  -0.3689  -0.2513  -0.2005  -0.1563  -0.1029  -0.0514  -0.0327
    -0.0035   0.0612   0.3578   0.4445   0.4822   0.5650   0.6105   0.6355
     0.7422   0.7612   0.8627   0.8862   0.9103   1.0231   1.1218   1.1431
     1.1688   1.1849   1.2081   1.2690   1.2961   1.3260   1.3710   1.4102
     1.4410   1.5328   1.5633   1.5982   1.6469   1.7069   1.7569   1.7751
     1.7934   1.8110   1.9082   2.0365   2.1068   2.1212   2.1928   2.2417
     2.2867   2.2959   2.3489   2.3869   2.4702   2.5108   2.5272   2.5946
     2.6265   2.6508   2.6986   2.7251   2.7554   2.7799   2.7908   2.7991
     2.8083   2.8163   2.8458   2.8481   2.8654   2.8713   2.8800   2.9006
     2.9142   2.9230   2.9401   2.9526   2.9572   2.9912   3.0073   3.0705
     3.4532   3.4916   3.7111   4.1478   4.2683   4.5643   4.9056   4.9976
     5.5297   5.6438   5.8168   5.9252   5.9667   6.0305   6.0755   6.5553
     7.0281   7.0651   7.2170   7.2527   7.3574   7.4148   7.5537   7.6451
     7.7169   7.9609   8.0804   8.1843   8.2585   8.3058   8.3524   8.3671
     8.5104   8.8300

     occupation numbers 
     1.0000   1.0000   1.0000   1.0000   1.0000   1.0000   1.0000   1.0000
     1.0000   1.0000   1.0000   1.0000   1.0000   1.0000   1.0000   1.0000
     1.0000   1.0000   1.0000   1.0000   1.0000   1.0000   1.0000   1.0000
     1.0000   1.0000   1.0000   1.0000   1.0000   1.0000   1.0000   1.0000
     1.0000   1.0000   1.0000   1.0000   1.0000   1.0000   1.0000   1.0000
     1.0000   1.0000   1.0000   1.0000   1.0000   1.0000   1.0000   1.0000
     1.0000   1.0000   1.0000   1.0000   1.0000   1.0000   1.0000   1.0000
     1.0000   1.0000   1.0000   1.0000   1.0000   1.0000   1.0000   1.0000
     1.0000   1.0000   1.0000   1.0000   1.0000   1.0000   1.0000   1.0000
     1.0000   1.0000   1.0000   1.0000   1.0000   1.0000   1.0000   1.0000
     1.0000   1.0000   1.0000   1.0000   1.0000   1.0000   1.0000   1.0000
     1.0000   1.0000   1.0000   1.0000   1.0000   1.0000   1.0000   1.0000
     1.0000   1.0000   1.0000   1.0000   1.0000   1.0000   1.0000   1.0000
     1.0000   1.0000   1.0000   1.0000   1.0000   1.0000   1.0000   1.0000
     1.0000   1.0000   1.0000   1.0000   1.0000   1.0000   1.0000   1.0000
     1.0000   1.0000   1.0000   1.0000   1.0000   1.0000   1.0000   1.0000
     1.0000   1.0000   1.0000   1.0000   1.0000   1.0000   1.0000   1.0000
     1.0000   1.0000   1.0000   1.0000   1.0000   1.0000   1.0000   1.0000
     1.0000   1.0000   1.0000   1.0000   1.0000   1.0000   1.0000   1.0000
     1.0000   1.0000   1.0000   1.0000   1.0000   0.9999   0.9999   0.9999
     0.9998   0.9998   0.9997   0.9996   0.9996   0.9992   0.9987   0.9986
     0.9984   0.9983   0.9981   0.9975   0.9971   0.9967   0.9960   0.9953
     0.9946   0.9921   0.9910   0.9897   0.9876   0.9844   0.9812   0.9800
     0.9786   0.9772   0.9682   0.9520   0.9407   0.9381   0.9240   0.9131
     0.9021   0.8997   0.8851   0.8738   0.8464   0.8316   0.8254   0.7985
     0.7849   0.7742   0.7523   0.7397   0.7249   0.7126   0.7071   0.7028
     0.6980   0.6939   0.6783   0.6772   0.6679   0.6647   0.6600   0.6487
     0.6411   0.6363   0.6267   0.6197   0.6171   0.5976   0.5883   0.5515
     0.3304   0.3100   0.2056   0.0708   0.0496   0.0184   0.0047   0.0031
     0.0002   0.0001   0.0000   0.0000   0.0000   0.0000   0.0000   0.0000
     0.0000   0.0000   0.0000   0.0000   0.0000   0.0000   0.0000   0.0000
     0.0000   0.0000   0.0000   0.0000   0.0000   0.0000   0.0000   0.0000
     0.0000   0.0000

          k = 0.0000-0.5000 0.0000 ( 65180 PWs)   bands (ev):

   -92.8710 -92.8197 -92.7250 -92.6791 -92.6164 -92.5784 -92.5598 -92.4375
   -56.2246 -56.2066 -56.0819 -56.0714 -56.0649 -56.0583 -56.0221 -55.9939
   -55.9785 -55.9784 -55.9711 -55.9246 -55.9107 -55.8692 -55.8517 -55.8146
   -55.8126 -55.7652 -55.7641 -55.7629 -55.7545 -55.7121 -55.6900 -55.6035
   -31.4345 -31.4151 -31.2735 -31.1980 -31.1868 -31.0624 -30.9656 -30.8851
   -30.0149 -29.9728 -29.9480 -29.8393 -15.1754 -15.1275 -15.0720 -14.9440
   -14.8594 -14.7255 -14.5623 -14.4473 -14.3225 -14.2457 -14.2058 -14.1986
   -14.1473 -14.1343 -14.0849 -14.0618 -14.0392 -14.0055 -13.9610 -13.9134
   -13.7477 -13.6894 -13.6635 -13.6210 -13.5237 -13.5195 -13.4660 -13.4395
   -13.4218 -13.3738 -13.2671 -13.2510 -13.1692 -13.1260 -13.1135 -13.0860
   -13.0589 -13.0403 -12.9946 -12.9658 -12.8670 -12.8644 -12.8299 -12.8100
   -12.8027 -12.7816 -12.6729 -12.5929 -12.4815 -12.4541 -12.3209 -12.2735
   -11.9847 -11.9494 -11.9463 -11.9188 -11.8817 -11.8471 -11.8360 -11.7943
   -11.7902 -11.7460 -11.6830 -11.6695 -11.6559  -2.7581  -2.7002  -2.5495
    -2.4780  -2.1941  -2.1118  -1.9840  -1.8483  -1.8093  -1.7898  -1.7133
    -1.6807  -1.5983  -1.5635  -1.4842  -1.4459  -1.4084  -1.3810  -1.3213
    -1.2842  -1.2379  -1.2019  -1.1687  -1.1362  -1.0251  -0.9813  -0.9435
    -0.9414  -0.8556  -0.8262  -0.8027  -0.7548  -0.6676  -0.5894  -0.5030
    -0.4771  -0.3520  -0.3324  -0.1968  -0.1534  -0.1204  -0.0796   0.0491
     0.1270   0.2250   0.2947   0.3055   0.4311   0.4982   0.5790   0.7159
     0.8147   0.8481   0.8901   0.9013   0.9312   0.9496   0.9845   1.0016
     1.0193   1.1271   1.1859   1.2122   1.2345   1.5115   1.5369   1.5658
     1.6533   1.6707   1.7123   1.7338   1.7478   1.7720   1.7874   1.8030
     1.8369   1.8671   1.8964   1.9010   1.9319   1.9867   2.0749   2.1232
     2.2780   2.4348   2.4390   2.4623   2.5000   2.5045   2.5129   2.5604
     2.5744   2.6021   2.6233   2.6326   2.6557   2.6668   2.7328   2.7456
     2.8174   2.8191   2.8442   2.8467   2.8619   2.8662   2.8696   2.8766
     2.8827   2.9002   2.9099   2.9185   2.9772   2.9799   2.9970   3.0610
     3.9587   3.9885   4.0671   4.1054   4.5675   4.7637   4.9144   5.0160
     5.2955   5.3754   5.4987   5.5938   5.8683   5.8863   6.3412   6.6081
     6.7958   6.9054   7.1472   7.3197   7.5749   7.6452   7.7385   7.7459
     7.7871   7.9875   8.0578   8.1328   8.2376   8.3551   8.4407   8.5331
     8.6989   8.7933

     occupation numbers 
     1.0000   1.0000   1.0000   1.0000   1.0000   1.0000   1.0000   1.0000
     1.0000   1.0000   1.0000   1.0000   1.0000   1.0000   1.0000   1.0000
     1.0000   1.0000   1.0000   1.0000   1.0000   1.0000   1.0000   1.0000
     1.0000   1.0000   1.0000   1.0000   1.0000   1.0000   1.0000   1.0000
     1.0000   1.0000   1.0000   1.0000   1.0000   1.0000   1.0000   1.0000
     1.0000   1.0000   1.0000   1.0000   1.0000   1.0000   1.0000   1.0000
     1.0000   1.0000   1.0000   1.0000   1.0000   1.0000   1.0000   1.0000
     1.0000   1.0000   1.0000   1.0000   1.0000   1.0000   1.0000   1.0000
     1.0000   1.0000   1.0000   1.0000   1.0000   1.0000   1.0000   1.0000
     1.0000   1.0000   1.0000   1.0000   1.0000   1.0000   1.0000   1.0000
     1.0000   1.0000   1.0000   1.0000   1.0000   1.0000   1.0000   1.0000
     1.0000   1.0000   1.0000   1.0000   1.0000   1.0000   1.0000   1.0000
     1.0000   1.0000   1.0000   1.0000   1.0000   1.0000   1.0000   1.0000
     1.0000   1.0000   1.0000   1.0000   1.0000   1.0000   1.0000   1.0000
     1.0000   1.0000   1.0000   1.0000   1.0000   1.0000   1.0000   1.0000
     1.0000   1.0000   1.0000   1.0000   1.0000   1.0000   1.0000   1.0000
     1.0000   1.0000   1.0000   1.0000   1.0000   1.0000   1.0000   1.0000
     1.0000   1.0000   1.0000   1.0000   1.0000   1.0000   1.0000   1.0000
     1.0000   1.0000   1.0000   1.0000   1.0000   1.0000   1.0000   1.0000
     1.0000   1.0000   1.0000   1.0000   1.0000   1.0000   0.9999   0.9999
     0.9997   0.9997   0.9996   0.9996   0.9995   0.9995   0.9994   0.9993
     0.9993   0.9987   0.9983   0.9981   0.9979   0.9927   0.9920   0.9910
     0.9873   0.9864   0.9841   0.9828   0.9818   0.9802   0.9791   0.9779
     0.9751   0.9723   0.9695   0.9690   0.9656   0.9590   0.9461   0.9377
     0.9043   0.8584   0.8570   0.8491   0.8356   0.8339   0.8308   0.8125
     0.8068   0.7953   0.7863   0.7822   0.7720   0.7670   0.7359   0.7297
     0.6933   0.6924   0.6792   0.6779   0.6697   0.6674   0.6656   0.6618
     0.6585   0.6489   0.6435   0.6388   0.6057   0.6041   0.5943   0.5571
     0.1171   0.1087   0.0885   0.0797   0.0182   0.0085   0.0045   0.0029
     0.0008   0.0005   0.0003   0.0001   0.0000   0.0000   0.0000   0.0000
     0.0000   0.0000   0.0000   0.0000   0.0000   0.0000   0.0000   0.0000
     0.0000   0.0000   0.0000   0.0000   0.0000   0.0000   0.0000   0.0000
     0.0000   0.0000

          k = 0.2500 0.2500 0.0000 ( 65198 PWs)   bands (ev):

   -92.8710 -92.8197 -92.7250 -92.6791 -92.6164 -92.5784 -92.5598 -92.4375
   -56.2246 -56.2066 -56.0819 -56.0714 -56.0649 -56.0583 -56.0221 -55.9939
   -55.9785 -55.9784 -55.9711 -55.9246 -55.9107 -55.8692 -55.8517 -55.8146
   -55.8126 -55.7652 -55.7641 -55.7629 -55.7545 -55.7121 -55.6900 -55.6035
   -31.4330 -31.4169 -31.2729 -31.1979 -31.1871 -31.0628 -30.9651 -30.8853
   -30.0145 -29.9741 -29.9469 -29.8394 -15.1821 -15.1424 -15.0689 -14.9519
   -14.8303 -14.7040 -14.6356 -14.4259 -14.2727 -14.2583 -14.2222 -14.1941
   -14.1689 -14.1420 -14.1091 -14.0659 -14.0052 -13.9884 -13.8247 -13.8116
   -13.7825 -13.7629 -13.7071 -13.6730 -13.5874 -13.5659 -13.4451 -13.4140
   -13.3847 -13.2997 -13.2589 -13.2085 -13.1766 -13.1485 -13.1258 -13.1040
   -13.0738 -13.0235 -12.9858 -12.9322 -12.9028 -12.8887 -12.8725 -12.8664
   -12.8212 -12.8154 -12.6418 -12.6105 -12.5349 -12.4355 -12.2601 -12.2041
   -11.9847 -11.9671 -11.9358 -11.9246 -11.9173 -11.8554 -11.8200 -11.8137
   -11.7782 -11.7699 -11.6782 -11.6374 -11.6203  -2.8349  -2.6270  -2.5079
    -2.4144  -2.2938  -2.2294  -2.0298  -1.8872  -1.8683  -1.8380  -1.7406
    -1.7101  -1.6147  -1.5867  -1.5359  -1.4058  -1.3575  -1.2841  -1.2397
    -1.1945  -1.1720  -1.1480  -1.1043  -1.0903  -0.9991  -0.9484  -0.8806
    -0.8321  -0.8006  -0.7547  -0.7384  -0.6753  -0.6266  -0.5671  -0.5344
    -0.4464  -0.3926  -0.3658  -0.3278  -0.2725  -0.1746  -0.1598  -0.1353
    -0.0499  -0.0234   0.2457   0.3970   0.4284   0.4927   0.5367   0.5899
     0.6374   0.7088   0.7411   1.0116   1.0749   1.1485   1.1743   1.2258
     1.2528   1.2891   1.3276   1.3441   1.3718   1.4213   1.4270   1.4412
     1.4844   1.5222   1.5634   1.6392   1.6687   1.6773   1.7176   1.7447
     1.7987   1.8235   1.9460   2.0157   2.0513   2.0670   2.1360   2.2030
     2.2303   2.2652   2.2960   2.3074   2.4139   2.4523   2.5406   2.5925
     2.6232   2.6612   2.7111   2.7279   2.7323   2.7505   2.7663   2.7788
     2.7908   2.7954   2.8072   2.8200   2.8324   2.8494   2.8564   2.8681
     2.8907   2.9019   2.9115   2.9427   3.2424   3.3361   3.3826   3.4574
     3.5062   3.6946   3.7869   4.1608   4.3538   4.5647   4.8325   5.1376
     5.5179   5.5717   5.6082   5.6716   5.7341   6.0982   6.1556   6.1711
     6.8440   7.1420   7.1791   7.3716   7.4638   7.4934   7.6028   7.7689
     7.8969   7.9618   8.2142   8.2349   8.3357   8.3677   8.4322   8.4690
     8.5489   8.6253

     occupation numbers 
     1.0000   1.0000   1.0000   1.0000   1.0000   1.0000   1.0000   1.0000
     1.0000   1.0000   1.0000   1.0000   1.0000   1.0000   1.0000   1.0000
     1.0000   1.0000   1.0000   1.0000   1.0000   1.0000   1.0000   1.0000
     1.0000   1.0000   1.0000   1.0000   1.0000   1.0000   1.0000   1.0000
     1.0000   1.0000   1.0000   1.0000   1.0000   1.0000   1.0000   1.0000
     1.0000   1.0000   1.0000   1.0000   1.0000   1.0000   1.0000   1.0000
     1.0000   1.0000   1.0000   1.0000   1.0000   1.0000   1.0000   1.0000
     1.0000   1.0000   1.0000   1.0000   1.0000   1.0000   1.0000   1.0000
     1.0000   1.0000   1.0000   1.0000   1.0000   1.0000   1.0000   1.0000
     1.0000   1.0000   1.0000   1.0000   1.0000   1.0000   1.0000   1.0000
     1.0000   1.0000   1.0000   1.0000   1.0000   1.0000   1.0000   1.0000
     1.0000   1.0000   1.0000   1.0000   1.0000   1.0000   1.0000   1.0000
     1.0000   1.0000   1.0000   1.0000   1.0000   1.0000   1.0000   1.0000
     1.0000   1.0000   1.0000   1.0000   1.0000   1.0000   1.0000   1.0000
     1.0000   1.0000   1.0000   1.0000   1.0000   1.0000   1.0000   1.0000
     1.0000   1.0000   1.0000   1.0000   1.0000   1.0000   1.0000   1.0000
     1.0000   1.0000   1.0000   1.0000   1.0000   1.0000   1.0000   1.0000
     1.0000   1.0000   1.0000   1.0000   1.0000   1.0000   1.0000   1.0000
     1.0000   1.0000   1.0000   1.0000   1.0000   1.0000   1.0000   1.0000
     1.0000   1.0000   1.0000   1.0000   1.0000   1.0000   1.0000   0.9999
     0.9999   0.9999   0.9998   0.9993   0.9990   0.9986   0.9984   0.9979
     0.9977   0.9972   0.9967   0.9965   0.9960   0.9950   0.9949   0.9946
     0.9935   0.9924   0.9910   0.9879   0.9865   0.9860   0.9838   0.9821
     0.9782   0.9762   0.9640   0.9550   0.9498   0.9473   0.9354   0.9218
     0.9158   0.9075   0.8996   0.8966   0.8653   0.8526   0.8203   0.7993
     0.7863   0.7695   0.7464   0.7383   0.7362   0.7273   0.7194   0.7131
     0.7071   0.7047   0.6986   0.6920   0.6855   0.6765   0.6727   0.6664
     0.6541   0.6480   0.6427   0.6252   0.4499   0.3956   0.3692   0.3282
     0.3024   0.2127   0.1751   0.0682   0.0379   0.0183   0.0064   0.0016
     0.0002   0.0002   0.0001   0.0001   0.0001   0.0000   0.0000   0.0000
     0.0000   0.0000   0.0000   0.0000   0.0000   0.0000   0.0000   0.0000
     0.0000   0.0000   0.0000   0.0000   0.0000   0.0000   0.0000   0.0000
     0.0000   0.0000

          k = 0.2500-0.5000 0.0000 ( 65138 PWs)   bands (ev):

   -92.8710 -92.8197 -92.7250 -92.6791 -92.6164 -92.5784 -92.5598 -92.4375
   -56.2246 -56.2066 -56.0819 -56.0714 -56.0649 -56.0583 -56.0221 -55.9939
   -55.9785 -55.9784 -55.9711 -55.9246 -55.9107 -55.8692 -55.8517 -55.8146
   -55.8126 -55.7652 -55.7641 -55.7629 -55.7545 -55.7121 -55.6900 -55.6035
   -31.4329 -31.4168 -31.2731 -31.1978 -31.1872 -31.0626 -30.9653 -30.8855
   -30.0139 -29.9738 -29.9476 -29.8398 -15.1449 -15.1007 -15.0292 -14.9151
   -14.8812 -14.7658 -14.6672 -14.5432 -14.2376 -14.1818 -14.1580 -14.1314
   -14.1182 -14.1063 -14.0688 -14.0503 -14.0212 -13.9821 -13.9569 -13.9006
   -13.8291 -13.7804 -13.7221 -13.7015 -13.6286 -13.5660 -13.5029 -13.4733
   -13.3649 -13.2994 -13.2785 -13.1933 -13.1471 -13.1323 -13.1306 -13.1015
   -13.0701 -13.0172 -13.0030 -12.9460 -12.8767 -12.8503 -12.8349 -12.8195
   -12.8115 -12.7814 -12.6794 -12.5534 -12.4789 -12.4112 -12.3136 -12.2826
   -11.9847 -11.9429 -11.9307 -11.9198 -11.8924 -11.8613 -11.8323 -11.7917
   -11.7642 -11.7422 -11.6962 -11.6707 -11.6601  -2.6157  -2.5518  -2.4232
    -2.3465  -2.2144  -2.1318  -2.0084  -1.8595  -1.8048  -1.7821  -1.7204
    -1.7077  -1.6089  -1.5432  -1.4580  -1.4068  -1.3975  -1.3361  -1.2921
    -1.2584  -1.2105  -1.1733  -1.1382  -1.0995  -1.0853  -1.0423  -1.0125
    -0.9693  -0.9384  -0.8722  -0.7695  -0.7305  -0.6502  -0.5828  -0.5320
    -0.4928  -0.4734  -0.4076  -0.2533  -0.2378  -0.1415  -0.1105  -0.1027
    -0.0598  -0.0153   0.0150   0.0509   0.1107   0.4022   0.5051   0.5467
     0.6038   0.8825   0.8966   0.9842   1.0123   1.1723   1.2080   1.2485
     1.2735   1.2842   1.3062   1.3694   1.4193   1.4527   1.5270   1.6435
     1.6711   1.6868   1.6925   1.7347   1.7419   1.7646   1.8012   1.8061
     1.8317   1.8543   1.8741   1.8943   1.9281   1.9868   2.0307   2.1144
     2.2434   2.3866   2.4039   2.4221   2.4494   2.4719   2.5005   2.5229
     2.5376   2.5536   2.5987   2.6241   2.6608   2.6736   2.7128   2.7294
     2.7337   2.7483   2.7668   2.7794   2.8000   2.8073   2.8416   2.8502
     2.8666   2.8733   2.8818   2.8922   3.4107   3.4468   3.5746   3.6389
     3.9678   4.0250   4.0641   4.1618   4.5874   4.7820   4.9339   4.9823
     5.1457   5.3153   5.5136   5.5387   5.6379   5.6838   6.3449   6.4374
     6.4576   6.7192   7.3265   7.5932   7.6721   7.7001   7.7349   7.7725
     7.8885   7.9522   8.2326   8.2986   8.4076   8.4318   8.5602   8.5976
     8.6251   8.6486

     occupation numbers 
     1.0000   1.0000   1.0000   1.0000   1.0000   1.0000   1.0000   1.0000
     1.0000   1.0000   1.0000   1.0000   1.0000   1.0000   1.0000   1.0000
     1.0000   1.0000   1.0000   1.0000   1.0000   1.0000   1.0000   1.0000
     1.0000   1.0000   1.0000   1.0000   1.0000   1.0000   1.0000   1.0000
     1.0000   1.0000   1.0000   1.0000   1.0000   1.0000   1.0000   1.0000
     1.0000   1.0000   1.0000   1.0000   1.0000   1.0000   1.0000   1.0000
     1.0000   1.0000   1.0000   1.0000   1.0000   1.0000   1.0000   1.0000
     1.0000   1.0000   1.0000   1.0000   1.0000   1.0000   1.0000   1.0000
     1.0000   1.0000   1.0000   1.0000   1.0000   1.0000   1.0000   1.0000
     1.0000   1.0000   1.0000   1.0000   1.0000   1.0000   1.0000   1.0000
     1.0000   1.0000   1.0000   1.0000   1.0000   1.0000   1.0000   1.0000
     1.0000   1.0000   1.0000   1.0000   1.0000   1.0000   1.0000   1.0000
     1.0000   1.0000   1.0000   1.0000   1.0000   1.0000   1.0000   1.0000
     1.0000   1.0000   1.0000   1.0000   1.0000   1.0000   1.0000   1.0000
     1.0000   1.0000   1.0000   1.0000   1.0000   1.0000   1.0000   1.0000
     1.0000   1.0000   1.0000   1.0000   1.0000   1.0000   1.0000   1.0000
     1.0000   1.0000   1.0000   1.0000   1.0000   1.0000   1.0000   1.0000
     1.0000   1.0000   1.0000   1.0000   1.0000   1.0000   1.0000   1.0000
     1.0000   1.0000   1.0000   1.0000   1.0000   1.0000   1.0000   1.0000
     1.0000   1.0000   1.0000   1.0000   1.0000   1.0000   1.0000   0.9999
     0.9999   0.9996   0.9996   0.9994   0.9993   0.9984   0.9981   0.9977
     0.9974   0.9973   0.9970   0.9960   0.9951   0.9943   0.9923   0.9877
     0.9864   0.9855   0.9852   0.9827   0.9822   0.9807   0.9780   0.9776
     0.9755   0.9735   0.9717   0.9697   0.9661   0.9590   0.9529   0.9393
     0.9127   0.8739   0.8685   0.8626   0.8535   0.8457   0.8354   0.8271
     0.8214   0.8151   0.7968   0.7859   0.7697   0.7639   0.7456   0.7376
     0.7355   0.7284   0.7192   0.7128   0.7023   0.6986   0.6806   0.6760
     0.6672   0.6636   0.6590   0.6533   0.3536   0.3339   0.2679   0.2374
     0.1145   0.0989   0.0892   0.0680   0.0169   0.0079   0.0042   0.0034
     0.0016   0.0007   0.0002   0.0002   0.0001   0.0001   0.0000   0.0000
     0.0000   0.0000   0.0000   0.0000   0.0000   0.0000   0.0000   0.0000
     0.0000   0.0000   0.0000   0.0000   0.0000   0.0000   0.0000   0.0000
     0.0000   0.0000

          k =-0.5000-0.5000 0.0000 ( 65132 PWs)   bands (ev):

   -92.8710 -92.8197 -92.7250 -92.6791 -92.6164 -92.5784 -92.5598 -92.4375
   -56.2246 -56.2066 -56.0819 -56.0714 -56.0649 -56.0583 -56.0221 -55.9939
   -55.9785 -55.9784 -55.9711 -55.9246 -55.9107 -55.8692 -55.8517 -55.8146
   -55.8126 -55.7652 -55.7641 -55.7629 -55.7545 -55.7121 -55.6900 -55.6035
   -31.4307 -31.4189 -31.2727 -31.1976 -31.1876 -31.0629 -30.9649 -30.8859
   -30.0129 -29.9748 -29.9472 -29.8402 -15.0985 -15.0734 -14.9556 -14.9417
   -14.8427 -14.8134 -14.7725 -14.6417 -14.1496 -14.1331 -14.1046 -14.0831
   -14.0660 -14.0473 -14.0263 -14.0144 -13.9928 -13.9889 -13.9720 -13.8956
   -13.8883 -13.8489 -13.8239 -13.8095 -13.7163 -13.6233 -13.5362 -13.5171
   -13.3159 -13.2760 -13.2071 -13.1835 -13.1474 -13.1422 -13.1328 -13.1152
   -13.1010 -13.0075 -12.9500 -12.9371 -12.8976 -12.8876 -12.8544 -12.8467
   -12.7630 -12.7556 -12.6955 -12.5212 -12.4752 -12.3658 -12.3068 -12.2980
   -11.9846 -11.9394 -11.9269 -11.9091 -11.8923 -11.8573 -11.8403 -11.8042
   -11.7444 -11.7243 -11.7189 -11.6685 -11.6659  -2.3907  -2.3151  -2.3068
    -2.2361  -2.1971  -2.1184  -2.0501  -1.9250  -1.8099  -1.7797  -1.7398
    -1.6831  -1.6110  -1.5956  -1.5249  -1.4832  -1.3652  -1.3348  -1.2875
    -1.2605  -1.1960  -1.1476  -1.1294  -1.1166  -1.0632  -1.0206  -1.0016
    -0.8912  -0.8348  -0.7877  -0.7359  -0.7087  -0.6964  -0.6608  -0.6170
    -0.5809  -0.5730  -0.4886  -0.4153  -0.3773  -0.3458  -0.2761  -0.2066
    -0.1990  -0.1370  -0.1148  -0.1100  -0.1007   0.3686   0.4461   0.4911
     0.5201   0.9095   0.9231   0.9538   0.9869   1.2592   1.2789   1.2853
     1.3220   1.4518   1.5440   1.5731   1.6097   1.6460   1.6555   1.6659
     1.6985   1.7165   1.7338   1.7492   1.7790   1.7874   1.8128   1.8469
     1.8497   1.8658   1.9080   1.9281   1.9414   1.9729   2.0034   2.0659
     2.1331   2.3998   2.4296   2.4512   2.4674   2.4782   2.5007   2.5104
     2.5308   2.5436   2.5609   2.5767   2.5884   2.6048   2.6243   2.6575
     2.6621   2.6830   2.6869   2.6993   2.7196   2.7313   2.7398   2.7511
     2.8466   2.8538   2.8791   2.8901   3.8323   3.8799   3.9059   3.9901
     4.1499   4.2235   4.2495   4.4908   4.6134   4.6952   4.8281   4.9296
     4.9634   5.0406   5.1781   5.2612   5.8259   5.8443   5.9048   6.0164
     6.6156   6.8974   6.9880   7.4162   7.8491   7.8626   7.9427   8.0687
     8.1439   8.1743   8.2540   8.2623   8.4296   8.4684   8.4879   8.5033
     8.5471   8.6374

     occupation numbers 
     1.0000   1.0000   1.0000   1.0000   1.0000   1.0000   1.0000   1.0000
     1.0000   1.0000   1.0000   1.0000   1.0000   1.0000   1.0000   1.0000
     1.0000   1.0000   1.0000   1.0000   1.0000   1.0000   1.0000   1.0000
     1.0000   1.0000   1.0000   1.0000   1.0000   1.0000   1.0000   1.0000
     1.0000   1.0000   1.0000   1.0000   1.0000   1.0000   1.0000   1.0000
     1.0000   1.0000   1.0000   1.0000   1.0000   1.0000   1.0000   1.0000
     1.0000   1.0000   1.0000   1.0000   1.0000   1.0000   1.0000   1.0000
     1.0000   1.0000   1.0000   1.0000   1.0000   1.0000   1.0000   1.0000
     1.0000   1.0000   1.0000   1.0000   1.0000   1.0000   1.0000   1.0000
     1.0000   1.0000   1.0000   1.0000   1.0000   1.0000   1.0000   1.0000
     1.0000   1.0000   1.0000   1.0000   1.0000   1.0000   1.0000   1.0000
     1.0000   1.0000   1.0000   1.0000   1.0000   1.0000   1.0000   1.0000
[...]
     0.6323   0.6210   0.6183   0.6134   0.6105   0.6047   0.5990   0.5189
     0.3525   0.3147   0.2011   0.0731   0.0447   0.0209   0.0046   0.0030
     0.0002   0.0001   0.0000   0.0000   0.0000   0.0000   0.0000   0.0000
     0.0000   0.0000   0.0000   0.0000   0.0000   0.0000   0.0000   0.0000
     0.0000   0.0000   0.0000   0.0000   0.0000   0.0000   0.0000   0.0000
     0.0000   0.0000

          k =-0.5000 0.0000 0.0000 ( 65180 PWs)   bands (ev):

   -92.8710 -92.8197 -92.7250 -92.6791 -92.6164 -92.5784 -92.5598 -92.4375
   -56.2246 -56.2066 -56.0819 -56.0714 -56.0649 -56.0583 -56.0221 -55.9939
   -55.9785 -55.9784 -55.9711 -55.9246 -55.9107 -55.8692 -55.8517 -55.8146
   -55.8126 -55.7652 -55.7641 -55.7629 -55.7545 -55.7121 -55.6900 -55.6035
   -31.4311 -31.4192 -31.2723 -31.1979 -31.1873 -31.0632 -30.9646 -30.8855
   -30.0141 -29.9754 -29.9459 -29.8395 -15.1808 -15.1292 -15.0672 -14.9533
   -14.8538 -14.7099 -14.5634 -14.4112 -14.2976 -14.2836 -14.2737 -14.2108
   -14.1527 -14.1230 -14.0735 -14.0609 -14.0463 -13.9999 -13.9704 -13.8707
   -13.7197 -13.6889 -13.6588 -13.6522 -13.5433 -13.5267 -13.4708 -13.4238
   -13.4005 -13.3838 -13.2117 -13.1997 -13.1768 -13.1698 -13.1445 -13.1050
   -13.0919 -13.0732 -12.9524 -12.9348 -12.8904 -12.8448 -12.8311 -12.8131
   -12.7991 -12.7895 -12.6990 -12.5678 -12.4854 -12.4234 -12.3272 -12.2898
   -11.9846 -11.9461 -11.9248 -11.9178 -11.9040 -11.8857 -11.8442 -11.7810
   -11.7628 -11.7298 -11.6861 -11.6770 -11.6613  -2.7485  -2.7101  -2.5474
    -2.5079  -2.1931  -2.1184  -1.9715  -1.8536  -1.8139  -1.7690  -1.7208
    -1.6964  -1.5721  -1.5284  -1.5125  -1.4308  -1.3949  -1.3794  -1.3482
    -1.2876  -1.2212  -1.1932  -1.1605  -1.0649  -1.0212  -0.9724  -0.9380
    -0.9180  -0.8870  -0.8382  -0.8142  -0.7712  -0.6740  -0.6055  -0.5333
    -0.4746  -0.2952  -0.2757  -0.2213  -0.1797  -0.1136  -0.0957   0.0380
     0.0672   0.0998   0.2747   0.3742   0.4238   0.5038   0.5928   0.6918
     0.7138   0.8490   0.8684   0.9198   0.9485   0.9838   1.0015   1.0449
     1.0663   1.1407   1.1837   1.2291   1.2399   1.5431   1.5546   1.5717
     1.6036   1.7022   1.7115   1.7283   1.7327   1.7608   1.7745   1.8134
     1.8298   1.8582   1.9108   1.9300   1.9777   2.0009   2.0564   2.1595
     2.2799   2.3361   2.3525   2.4308   2.4578   2.4862   2.5502   2.5611
     2.5699   2.5928   2.6012   2.6272   2.6647   2.6723   2.7207   2.7655
     2.7989   2.8320   2.8370   2.8407   2.8500   2.8639   2.8755   2.8909
     2.8948   2.9184   2.9238   2.9426   2.9607   2.9679   3.0964   3.1119
     3.8923   3.9778   4.0614   4.1729   4.6315   4.7257   4.8926   4.9378
     5.3811   5.4197   5.4977   5.5269   5.8742   5.8813   6.3105   6.6645
     6.7476   6.9512   7.2132   7.2633   7.6059   7.6433   7.6818   7.6969
     7.7811   8.0121   8.0859   8.1960   8.2132   8.3789   8.3846   8.4948
     8.6471   8.7763

     occupation numbers 
     1.0000   1.0000   1.0000   1.0000   1.0000   1.0000   1.0000   1.0000
     1.0000   1.0000   1.0000   1.0000   1.0000   1.0000   1.0000   1.0000
     1.0000   1.0000   1.0000   1.0000   1.0000   1.0000   1.0000   1.0000
     1.0000   1.0000   1.0000   1.0000   1.0000   1.0000   1.0000   1.0000
     1.0000   1.0000   1.0000   1.0000   1.0000   1.0000   1.0000   1.0000
     1.0000   1.0000   1.0000   1.0000   1.0000   1.0000   1.0000   1.0000
     1.0000   1.0000   1.0000   1.0000   1.0000   1.0000   1.0000   1.0000
     1.0000   1.0000   1.0000   1.0000   1.0000   1.0000   1.0000   1.0000
     1.0000   1.0000   1.0000   1.0000   1.0000   1.0000   1.0000   1.0000
     1.0000   1.0000   1.0000   1.0000   1.0000   1.0000   1.0000   1.0000
     1.0000   1.0000   1.0000   1.0000   1.0000   1.0000   1.0000   1.0000
     1.0000   1.0000   1.0000   1.0000   1.0000   1.0000   1.0000   1.0000
     1.0000   1.0000   1.0000   1.0000   1.0000   1.0000   1.0000   1.0000
     1.0000   1.0000   1.0000   1.0000   1.0000   1.0000   1.0000   1.0000
     1.0000   1.0000   1.0000   1.0000   1.0000   1.0000   1.0000   1.0000
     1.0000   1.0000   1.0000   1.0000   1.0000   1.0000   1.0000   1.0000
     1.0000   1.0000   1.0000   1.0000   1.0000   1.0000   1.0000   1.0000
     1.0000   1.0000   1.0000   1.0000   1.0000   1.0000   1.0000   1.0000
     1.0000   1.0000   1.0000   1.0000   1.0000   1.0000   1.0000   1.0000
     1.0000   1.0000   1.0000   1.0000   1.0000   1.0000   0.9999   0.9999
     0.9999   0.9997   0.9997   0.9996   0.9995   0.9994   0.9993   0.9991
     0.9991   0.9986   0.9983   0.9979   0.9978   0.9917   0.9914   0.9907
     0.9895   0.9847   0.9841   0.9831   0.9828   0.9810   0.9800   0.9770
     0.9757   0.9732   0.9680   0.9658   0.9601   0.9571   0.9490   0.9309
     0.9038   0.8888   0.8841   0.8598   0.8506   0.8406   0.8165   0.8122
     0.8086   0.7992   0.7957   0.7846   0.7679   0.7645   0.7418   0.7198
     0.7029   0.6857   0.6831   0.6811   0.6761   0.6687   0.6624   0.6540
     0.6519   0.6388   0.6358   0.6253   0.6151   0.6110   0.5362   0.5271
     0.1377   0.1117   0.0898   0.0659   0.0143   0.0099   0.0050   0.0041
     0.0005   0.0004   0.0003   0.0002   0.0000   0.0000   0.0000   0.0000
     0.0000   0.0000   0.0000   0.0000   0.0000   0.0000   0.0000   0.0000
     0.0000   0.0000   0.0000   0.0000   0.0000   0.0000   0.0000   0.0000
     0.0000   0.0000

          k =-0.2500 0.2500 0.0000 ( 65198 PWs)   bands (ev):

   -92.8710 -92.8197 -92.7250 -92.6791 -92.6164 -92.5784 -92.5598 -92.4375
   -56.2246 -56.2066 -56.0819 -56.0714 -56.0649 -56.0583 -56.0221 -55.9939
   -55.9785 -55.9784 -55.9711 -55.9246 -55.9107 -55.8692 -55.8517 -55.8146
   -55.8126 -55.7652 -55.7641 -55.7629 -55.7545 -55.7121 -55.6900 -55.6035
   -31.4330 -31.4169 -31.2729 -31.1979 -31.1871 -31.0628 -30.9651 -30.8853
   -30.0145 -29.9741 -29.9470 -29.8394 -15.1835 -15.1411 -15.0677 -14.9502
   -14.8361 -14.7093 -14.6271 -14.4165 -14.2791 -14.2503 -14.2350 -14.1886
   -14.1643 -14.1410 -14.1237 -14.0705 -14.0005 -13.9889 -13.8335 -13.8087
   -13.7792 -13.7586 -13.7095 -13.6605 -13.5952 -13.5631 -13.4470 -13.4118
   -13.3796 -13.3039 -13.2605 -13.1981 -13.1680 -13.1448 -13.1311 -13.1022
   -13.0842 -13.0254 -12.9850 -12.9491 -12.9293 -12.8888 -12.8707 -12.8512
   -12.8287 -12.7978 -12.6336 -12.6003 -12.5386 -12.4412 -12.2583 -12.2068
   -11.9846 -11.9662 -11.9450 -11.9179 -11.9055 -11.8648 -11.8297 -11.8071
   -11.7849 -11.7627 -11.6779 -11.6331 -11.6233  -2.8332  -2.6259  -2.5038
    -2.4161  -2.2980  -2.2322  -2.0274  -1.8841  -1.8659  -1.8360  -1.7411
    -1.7091  -1.6143  -1.5799  -1.5535  -1.4115  -1.3554  -1.2871  -1.2591
    -1.1978  -1.1776  -1.1377  -1.1089  -1.0687  -1.0055  -0.9567  -0.8922
    -0.8237  -0.7965  -0.7481  -0.7200  -0.6730  -0.6162  -0.5695  -0.5299
    -0.4255  -0.3974  -0.3819  -0.3406  -0.2741  -0.1812  -0.1564  -0.1251
    -0.0449  -0.0267   0.2263   0.3985   0.4371   0.4804   0.5454   0.5896
     0.6418   0.7130   0.7402   1.0200   1.1248   1.1665   1.1999   1.2048
     1.2470   1.2637   1.3081   1.3412   1.3534   1.3788   1.4287   1.4448
     1.4810   1.5011   1.5468   1.6559   1.6582   1.6781   1.7150   1.7430
     1.7822   1.8313   1.9363   2.0490   2.0697   2.1143   2.1333   2.2013
     2.2420   2.2687   2.2985   2.3153   2.4137   2.4513   2.5408   2.5905
     2.6242   2.6596   2.7166   2.7271   2.7410   2.7481   2.7595   2.7772
     2.7817   2.8000   2.8057   2.8201   2.8294   2.8420   2.8507   2.8586
     2.8921   2.9020   2.9105   2.9448   3.2357   3.3173   3.3854   3.4575
     3.5179   3.6796   3.7961   4.1601   4.3516   4.5663   4.8413   5.1377
     5.5197   5.5678   5.6116   5.6680   5.7351   6.1141   6.1435   6.1664
     6.8449   7.1149   7.2097   7.3706   7.4744   7.4980   7.5781   7.7797
     7.8928   7.9617   8.2129   8.2397   8.3375   8.3850   8.4460   8.4658
     8.5309   8.6073

     occupation numbers 
     1.0000   1.0000   1.0000   1.0000   1.0000   1.0000   1.0000   1.0000
     1.0000   1.0000   1.0000   1.0000   1.0000   1.0000   1.0000   1.0000
     1.0000   1.0000   1.0000   1.0000   1.0000   1.0000   1.0000   1.0000
     1.0000   1.0000   1.0000   1.0000   1.0000   1.0000   1.0000   1.0000
     1.0000   1.0000   1.0000   1.0000   1.0000   1.0000   1.0000   1.0000
     1.0000   1.0000   1.0000   1.0000   1.0000   1.0000   1.0000   1.0000
     1.0000   1.0000   1.0000   1.0000   1.0000   1.0000   1.0000   1.0000
     1.0000   1.0000   1.0000   1.0000   1.0000   1.0000   1.0000   1.0000
     1.0000   1.0000   1.0000   1.0000   1.0000   1.0000   1.0000   1.0000
     1.0000   1.0000   1.0000   1.0000   1.0000   1.0000   1.0000   1.0000
     1.0000   1.0000   1.0000   1.0000   1.0000   1.0000   1.0000   1.0000
     1.0000   1.0000   1.0000   1.0000   1.0000   1.0000   1.0000   1.0000
     1.0000   1.0000   1.0000   1.0000   1.0000   1.0000   1.0000   1.0000
     1.0000   1.0000   1.0000   1.0000   1.0000   1.0000   1.0000   1.0000
     1.0000   1.0000   1.0000   1.0000   1.0000   1.0000   1.0000   1.0000
     1.0000   1.0000   1.0000   1.0000   1.0000   1.0000   1.0000   1.0000
     1.0000   1.0000   1.0000   1.0000   1.0000   1.0000   1.0000   1.0000
     1.0000   1.0000   1.0000   1.0000   1.0000   1.0000   1.0000   1.0000
     1.0000   1.0000   1.0000   1.0000   1.0000   1.0000   1.0000   1.0000
     1.0000   1.0000   1.0000   1.0000   1.0000   1.0000   0.9999   0.9999
     0.9999   0.9999   0.9998   0.9992   0.9987   0.9984   0.9982   0.9981
     0.9977   0.9975   0.9970   0.9965   0.9963   0.9959   0.9949   0.9945
     0.9936   0.9931   0.9916   0.9871   0.9870   0.9860   0.9839   0.9822
     0.9794   0.9756   0.9651   0.9502   0.9469   0.9393   0.9359   0.9222
     0.9130   0.9066   0.8990   0.8945   0.8654   0.8529   0.8202   0.8002
     0.7859   0.7702   0.7438   0.7387   0.7320   0.7285   0.7228   0.7140
     0.7117   0.7023   0.6994   0.6919   0.6871   0.6804   0.6758   0.6715
     0.6534   0.6479   0.6432   0.6241   0.4539   0.4064   0.3676   0.3281
     0.2964   0.2192   0.1716   0.0683   0.0381   0.0182   0.0062   0.0016
     0.0002   0.0002   0.0001   0.0001   0.0001   0.0000   0.0000   0.0000
     0.0000   0.0000   0.0000   0.0000   0.0000   0.0000   0.0000   0.0000
     0.0000   0.0000   0.0000   0.0000   0.0000   0.0000   0.0000   0.0000
     0.0000   0.0000

          k =-0.5000 0.2500 0.0000 ( 65138 PWs)   bands (ev):

   -92.8710 -92.8197 -92.7250 -92.6791 -92.6164 -92.5784 -92.5598 -92.4375
   -56.2246 -56.2066 -56.0819 -56.0714 -56.0649 -56.0583 -56.0221 -55.9939
   -55.9785 -55.9784 -55.9711 -55.9246 -55.9107 -55.8692 -55.8517 -55.8146
   -55.8126 -55.7652 -55.7641 -55.7629 -55.7545 -55.7121 -55.6900 -55.6035
   -31.4309 -31.4190 -31.2725 -31.1977 -31.1875 -31.0630 -30.9647 -30.8857
   -30.0135 -29.9751 -29.9466 -29.8399 -15.1480 -15.1028 -15.0243 -14.9212
   -14.8802 -14.7574 -14.6672 -14.5328 -14.2306 -14.1997 -14.1876 -14.1412
   -14.1186 -14.0951 -14.0601 -14.0461 -14.0268 -13.9862 -13.9705 -13.8658
   -13.8003 -13.7516 -13.7467 -13.7322 -13.6293 -13.5837 -13.5041 -13.4510
   -13.3578 -13.3224 -13.2244 -13.1850 -13.1738 -13.1480 -13.1219 -13.1017
   -13.0956 -13.0482 -12.9552 -12.9399 -12.8903 -12.8704 -12.8347 -12.8313
   -12.7803 -12.7727 -12.6970 -12.5433 -12.4806 -12.3953 -12.3177 -12.2923
   -11.9846 -11.9389 -11.9264 -11.9125 -11.9000 -11.8792 -11.8490 -11.7674
   -11.7596 -11.7359 -11.7004 -11.6726 -11.6637  -2.6056  -2.5642  -2.4169
    -2.3743  -2.2123  -2.1370  -1.9956  -1.8596  -1.8031  -1.7761  -1.7372
    -1.6986  -1.6178  -1.5021  -1.4448  -1.4216  -1.3962  -1.3192  -1.2908
    -1.2512  -1.2350  -1.1746  -1.1431  -1.1065  -1.0714  -1.0423  -0.9837
    -0.9553  -0.9133  -0.8786  -0.7750  -0.7452  -0.6563  -0.5971  -0.5659
    -0.5082  -0.4249  -0.3866  -0.2915  -0.2360  -0.1912  -0.1309  -0.1084
    -0.0385  -0.0185   0.0135   0.0648   0.1066   0.4231   0.5139   0.5429
     0.5665   0.8615   0.9120   0.9887   1.0114   1.1856   1.2225   1.2595
     1.2690   1.2878   1.3058   1.3758   1.4212   1.4678   1.4912   1.6326
     1.6647   1.6822   1.6924   1.7374   1.7613   1.7753   1.7865   1.8063
     1.8319   1.8717   1.8866   1.9218   1.9452   1.9787   2.0314   2.1533
     2.2557   2.2875   2.3527   2.3848   2.4477   2.4829   2.4891   2.5300
     2.5536   2.5776   2.6000   2.6234   2.6658   2.6759   2.7170   2.7268
     2.7375   2.7531   2.7732   2.7863   2.8027   2.8169   2.8364   2.8476
     2.8587   2.8651   2.8764   2.8879   3.4164   3.4859   3.6053   3.6303
     3.9010   4.0044   4.0582   4.2505   4.6237   4.7376   4.8852   4.9531
     5.2473   5.2807   5.5087   5.5755   5.6281   5.6498   6.3474   6.4108
     6.4602   6.7811   7.2616   7.6139   7.6815   7.7179   7.7463   7.7898
     7.8671   7.9208   8.2473   8.3146   8.4083   8.4334   8.5132   8.5738
     8.5980   8.7108

     occupation numbers 
     1.0000   1.0000   1.0000   1.0000   1.0000   1.0000   1.0000   1.0000
     1.0000   1.0000   1.0000   1.0000   1.0000   1.0000   1.0000   1.0000
     1.0000   1.0000   1.0000   1.0000   1.0000   1.0000   1.0000   1.0000
     1.0000   1.0000   1.0000   1.0000   1.0000   1.0000   1.0000   1.0000
     1.0000   1.0000   1.0000   1.0000   1.0000   1.0000   1.0000   1.0000
     1.0000   1.0000   1.0000   1.0000   1.0000   1.0000   1.0000   1.0000
     1.0000   1.0000   1.0000   1.0000   1.0000   1.0000   1.0000   1.0000
     1.0000   1.0000   1.0000   1.0000   1.0000   1.0000   1.0000   1.0000
     1.0000   1.0000   1.0000   1.0000   1.0000   1.0000   1.0000   1.0000
     1.0000   1.0000   1.0000   1.0000   1.0000   1.0000   1.0000   1.0000
     1.0000   1.0000   1.0000   1.0000   1.0000   1.0000   1.0000   1.0000
     1.0000   1.0000   1.0000   1.0000   1.0000   1.0000   1.0000   1.0000
     1.0000   1.0000   1.0000   1.0000   1.0000   1.0000   1.0000   1.0000
     1.0000   1.0000   1.0000   1.0000   1.0000   1.0000   1.0000   1.0000
     1.0000   1.0000   1.0000   1.0000   1.0000   1.0000   1.0000   1.0000
     1.0000   1.0000   1.0000   1.0000   1.0000   1.0000   1.0000   1.0000
     1.0000   1.0000   1.0000   1.0000   1.0000   1.0000   1.0000   1.0000
     1.0000   1.0000   1.0000   1.0000   1.0000   1.0000   1.0000   1.0000
     1.0000   1.0000   1.0000   1.0000   1.0000   1.0000   1.0000   1.0000
     1.0000   1.0000   1.0000   1.0000   1.0000   1.0000   1.0000   0.9999
     0.9999   0.9997   0.9996   0.9994   0.9993   0.9983   0.9980   0.9976
     0.9975   0.9973   0.9970   0.9959   0.9950   0.9940   0.9933   0.9882
     0.9867   0.9858   0.9852   0.9825   0.9809   0.9799   0.9791   0.9776
     0.9755   0.9719   0.9704   0.9668   0.9641   0.9600   0.9528   0.9321
     0.9098   0.9018   0.8840   0.8745   0.8541   0.8418   0.8396   0.8244
     0.8152   0.8055   0.7962   0.7862   0.7674   0.7628   0.7436   0.7388
     0.7337   0.7260   0.7160   0.7094   0.7009   0.6936   0.6833   0.6774
     0.6715   0.6680   0.6619   0.6557   0.3504   0.3130   0.2531   0.2414
     0.1348   0.1043   0.0906   0.0523   0.0147   0.0095   0.0052   0.0038
     0.0010   0.0008   0.0002   0.0002   0.0001   0.0001   0.0000   0.0000
     0.0000   0.0000   0.0000   0.0000   0.0000   0.0000   0.0000   0.0000
     0.0000   0.0000   0.0000   0.0000   0.0000   0.0000   0.0000   0.0000
     0.0000   0.0000

     the Fermi energy is     3.1577 ev

!    total energy              =   -4440.29947779 Ry
     estimated scf accuracy    <          8.1E-09 Ry
     smearing contrib. (-TS)   =      -1.20637399 Ry
     internal energy E=F+TS    =   -4439.09310380 Ry

     The total energy is F=E-TS. E is the sum of the following terms:
     one-electron contribution =  -20890.75471844 Ry
     hartree contribution      =   10574.55120388 Ry
     xc contribution           =    -693.24510542 Ry
     ewald contribution        =    6846.54737449 Ry
     one-center paw contrib.   =    -276.19185830 Ry
      -> PAW hartree energy AE =      25.02397566 Ry
      -> PAW hartree energy PS =     -24.90951816 Ry
      -> PAW xc energy AE      =     -16.49748152 Ry
      -> PAW xc energy PS      =       6.85606549 Ry
      -> total E_H with PAW    =   10574.66566138 Ry
      -> total E_XC with PAW   =    -702.88652146 Ry

     convergence has been achieved in  52 iterations

     Writing all to output data dir /bsuhome/zayahcortright/scratch/pwscf.save/
 
     init_run     :      7.74s CPU      8.39s WALL (       1 calls)
     electrons    :    735.54s CPU    770.74s WALL (       1 calls)

     Called by init_run:
     wfcinit      :      6.01s CPU      6.22s WALL (       1 calls)
     wfcinit:atom :      0.04s CPU      0.07s WALL (       5 calls)
     wfcinit:wfcr :      5.70s CPU      5.83s WALL (       5 calls)
     potinit      :      0.18s CPU      0.22s WALL (       1 calls)
     hinit0       :      0.59s CPU      0.70s WALL (       1 calls)

     Called by electrons:
     c_bands      :    583.03s CPU    589.81s WALL (      52 calls)
     sum_band     :    114.11s CPU    129.58s WALL (      52 calls)
     v_of_rho     :      5.62s CPU      6.05s WALL (      53 calls)
     v_h          :      0.50s CPU      0.50s WALL (      53 calls)
     v_xc         :      5.13s CPU      5.54s WALL (      53 calls)
     newd         :     17.04s CPU     29.25s WALL (      53 calls)
     PAW_pot      :      1.69s CPU      1.73s WALL (      53 calls)
     mix_rho      :     13.63s CPU     13.98s WALL (      52 calls)

     Called by c_bands:
     init_us_2    :      7.20s CPU      7.30s WALL (     525 calls)
     init_us_2:cp :      7.20s CPU      7.30s WALL (     525 calls)
     cegterg      :    551.94s CPU    558.39s WALL (     260 calls)

     Called by sum_band:
     sum_band:wei :      0.37s CPU      0.38s WALL (      52 calls)
     sum_band:loo :     95.45s CPU     96.11s WALL (      52 calls)
     sum_band:buf :      1.49s CPU      1.54s WALL (     260 calls)
     sum_band:ini :      3.32s CPU      3.33s WALL (     260 calls)
     sum_band:cal :     20.87s CPU     20.93s WALL (     260 calls)
     sum_band:bec :      0.57s CPU      0.58s WALL (     260 calls)
     addusdens    :     16.83s CPU     31.55s WALL (      52 calls)
                                        0.00s GPU  (      52 calls)
     addusd:skk   :      0.32s CPU      1.02s WALL (     156 calls)
                                        0.00s GPU  (     156 calls)

     Called by *egterg:
     cdiaghg      :     55.73s CPU     55.95s WALL (    1291 calls)
     cegterg:over :     40.13s CPU     40.27s WALL (    1031 calls)
     cegterg:upda :     29.17s CPU     29.66s WALL (    1031 calls)
     cegterg:last :     63.08s CPU     63.32s WALL (     474 calls)
     cdiaghg:chol :      3.10s CPU      3.12s WALL (    1291 calls)
     cdiaghg:inve :      2.86s CPU      2.88s WALL (    1291 calls)
     cdiaghg:para :      7.17s CPU      7.20s WALL (    2582 calls)
     h_psi        :    305.85s CPU    308.98s WALL (    1296 calls)
     s_psi        :     41.00s CPU     41.12s WALL (    1296 calls)
     g_psi        :      1.09s CPU      1.10s WALL (    1031 calls)

     Called by h_psi:
     h_psi:calbec :     47.23s CPU     47.47s WALL (    1296 calls)
     vloc_psi     :    214.76s CPU    216.76s WALL (    1296 calls)
     add_vuspsi   :     40.92s CPU     41.14s WALL (    1296 calls)

     General routines
     calbec       :     68.09s CPU     68.39s WALL (    1556 calls)
     fft          :      3.81s CPU      3.88s WALL (     687 calls)
     ffts         :      5.01s CPU      5.06s WALL (    5570 calls)
     fftw         :    184.68s CPU    186.15s WALL (  348448 calls)
     interpolate  :      0.42s CPU      0.44s WALL (      53 calls)
 
     Parallel routines

     PAW routines
     PAW_pot      :      1.69s CPU      1.73s WALL (      53 calls)
 
     PWSCF        :  12m25.15s CPU  13m 3.77s WALL

 
   This run was terminated on:  21:52:21  21Jun2024            

=------------------------------------------------------------------------------=
   JOB DONE.
=------------------------------------------------------------------------------=
