
     Program PWSCF v.7.2 starts on 18Jun2024 at 21:28: 9 

     This program is part of the open-source Quantum ESPRESSO suite
     for quantum simulation of materials; please cite
         "P. Giannozzi et al., J. Phys.:Condens. Matter 21 395502 (2009);
         "P. Giannozzi et al., J. Phys.:Condens. Matter 29 465901 (2017);
         "P. Giannozzi et al., J. Chem. Phys. 152 154105 (2020);
          URL http://www.quantum-espresso.org", 
     in publications or presentations arising from this work. More details at
     http://www.quantum-espresso.org/quote

     Parallel version (MPI & OpenMP), running on      48 processor cores
     Number of MPI processes:                48
     Threads/MPI process:                     1

     MPI processes distributed on     1 nodes
     16427 MiB available memory on the printing compute node when the environment starts
 
     Reading input from espresso.pwi
Warning: card &CELL ignored
Warning: card / ignored
Warning: card &FCP ignored
Warning: card / ignored
Warning: card &RISM ignored
Warning: card / ignored

     Current dimensions of program PWSCF are:
     Max number of different atomic species (ntypx) = 10
     Max number of k-points (npk) =  40000
     Max angular momentum in pseudopotentials (lmaxx) =  4
     file O.pbe-n-kjpaw_psl.0.1.UPF: wavefunction(s)  2P renormalized
     signal trapping enabled: kill the code with -SIGUSR1 to stop cleanly the simulation 
 
     K-points division:     npool     =       2
     R & G space division:  proc/nbgrp/npool/nimage =      24
     Subspace diagonalization in iterative solution of the eigenvalue problem:
     one sub-group per band group will be used
     scalapack distributed-memory algorithm (size of sub-group:  3*  3 procs)

 
     Parallelization info
     --------------------
     sticks:   dense  smooth     PW     G-vecs:    dense   smooth      PW
     Min         350     175     47                61430    21716    3036
     Max         351     177     48                61449    21727    3041
     Sum        8421    4205   1137              1474595   521381   72913
 
     Using Slab Decomposition
 


     bravais-lattice index     =            0
     lattice parameter (alat)  =      14.8599  a.u.
     unit-cell volume          =    8305.1283 (a.u.)^3
     number of atoms/cell      =           51
     number of atomic types    =            4
     number of electrons       =       437.00
     number of Kohn-Sham states=          263
     kinetic-energy cutoff     =      60.0000  Ry
     charge density cutoff     =     480.0000  Ry
     scf convergence threshold =      1.0E-08
     mixing beta               =       0.1500
     number of iterations used =            8  local-TF  mixing
     Exchange-correlation= PBE
                           (   1   4   3   4   0   0   0)

     celldm(1)=  14.859904  celldm(2)=   0.000000  celldm(3)=   0.000000
     celldm(4)=   0.000000  celldm(5)=   0.000000  celldm(6)=   0.000000

     crystal axes: (cart. coord. in units of alat)
               a(1) = (   1.000000   0.000000   0.000000 )  
               a(2) = (   0.000000   1.000000   0.000000 )  
               a(3) = (   0.000000   0.000000   2.531036 )  

     reciprocal axes: (cart. coord. in units 2 pi/alat)
               b(1) = (  1.000000  0.000000  0.000000 )  
               b(2) = (  0.000000  1.000000  0.000000 )  
               b(3) = (  0.000000  0.000000  0.395095 )  


     PseudoPot. # 1 for Sr read from file:
     /bsuhome/zayahcortright/q-e/pseudo/Sr_pbe_v1.uspp.F.UPF
     MD5 check sum: 6b418c05fbe9db5448babca5e47b7a5b
     Pseudo is Ultrasoft + core correction, Zval = 10.0
     Generated by new atomic code, or converted to UPF format
     Using radial grid of  883 points,  6 beta functions with: 
                l(1) =   0
                l(2) =   0
                l(3) =   1
                l(4) =   1
                l(5) =   2
                l(6) =   2
     Q(r) pseudized with  6 coefficients,  rinner =    1.400   1.400   1.400
                                                       1.400   1.400

     PseudoPot. # 2 for O  read from file:
     /bsuhome/zayahcortright/q-e/pseudo/O.pbe-n-kjpaw_psl.0.1.UPF
     MD5 check sum: 0234752ac141de4415c5fc33072bef88
     Pseudo is Projector augmented-wave + core cor, Zval =  6.0
     Generated using "atomic" code by A. Dal Corso  v.5.0.99 svn rev. 10869
     Shape of augmentation charge: BESSEL
     Using radial grid of 1095 points,  4 beta functions with: 
                l(1) =   0
                l(2) =   0
                l(3) =   1
                l(4) =   1
     Q(r) pseudized with 0 coefficients 


     PseudoPot. # 3 for Co read from file:
     /bsuhome/zayahcortright/q-e/pseudo/Co_pbe_v1.2.uspp.F.UPF
     MD5 check sum: 5f91765df6ddd3222702df6e7b74a16d
     Pseudo is Ultrasoft + core correction, Zval = 17.0
     Generated by new atomic code, or converted to UPF format
     Using radial grid of  863 points,  6 beta functions with: 
                l(1) =   0
                l(2) =   0
                l(3) =   1
                l(4) =   1
                l(5) =   2
                l(6) =   2
     Q(r) pseudized with  8 coefficients,  rinner =    1.200   1.200   1.200
                                                       1.200   1.200

     PseudoPot. # 4 for H  read from file:
     /bsuhome/zayahcortright/q-e/pseudo/H.pbe-rrkjus_psl.1.0.0.UPF
     MD5 check sum: f52b6d4d1c606e5624b1dc7b2218f220
     Pseudo is Ultrasoft, Zval =  1.0
     Generated using "atomic" code by A. Dal Corso  v.5.1
     Using radial grid of  929 points,  2 beta functions with: 
                l(1) =   0
                l(2) =   0
     Q(r) pseudized with 0 coefficients 


     atomic species   valence    mass     pseudopotential
        Sr            10.00    87.62000     Sr( 1.00)
        O              6.00    15.99900     O ( 1.00)
        Co            17.00    58.93319     Co( 1.00)
        H              1.00     1.00800     H ( 1.00)

     No symmetry found


                                    s                        frac. trans.

      isym =  1     identity                                     

 cryst.   s( 1) = (     1          0          0      )
                  (     0          1          0      )
                  (     0          0          1      )

 cart.    s( 1) = (  1.0000000  0.0000000  0.0000000 )
                  (  0.0000000  1.0000000  0.0000000 )
                  (  0.0000000  0.0000000  1.0000000 )


   Cartesian axes

     site n.     atom                  positions (alat units)
         1           Sr  tau(   1) = (   0.2508693   0.7491307   1.7574407  )
         2           O   tau(   2) = (   0.4985141   0.5014859   1.7715967  )
         3           Sr  tau(   3) = (   0.7482398   0.7454518   1.7648669  )
         4           Sr  tau(   4) = (   0.7441748   0.2558252   1.7667843  )
         5           Sr  tau(   5) = (   0.2508693   0.7491307   1.2696799  )
         6           Sr  tau(   6) = (   0.2508693   0.7491307   0.7632319  )
         7           Co  tau(   7) = (   0.4998914   0.5001086   1.0164559  )
         8           Co  tau(   8) = (   0.4936915   0.5063085   1.5135603  )
         9           O   tau(   9) = (   0.4988895   0.7610401   1.0164559  )
        10           O   tau(  10) = (   0.2389599   0.5011105   1.0164559  )
        11           O   tau(  11) = (   0.0070918   0.7374880   1.0164559  )
        12           O   tau(  12) = (   0.0088340   0.7405089   1.5135603  )
        13           O   tau(  13) = (   0.5066944   0.7415376   1.5135603  )
        14           O   tau(  14) = (   0.2584624   0.4933056   1.5135603  )
        15           O   tau(  15) = (   0.4985141   0.5014859   0.7773880  )
        16           O   tau(  16) = (   0.4985141   0.5014859   1.2555238  )
        17           Sr  tau(  17) = (   0.7482398   0.7454518   0.7706582  )
        18           Sr  tau(  18) = (   0.7482398   0.7454518   1.2622536  )
        19           Sr  tau(  19) = (   0.7441748   0.2558252   0.7725755  )
        20           Sr  tau(  20) = (   0.7441748   0.2558252   1.2603363  )
        21           O   tau(  21) = (   0.7322655   0.0078049   1.5135603  )
        22           O   tau(  22) = (   0.7558175   0.4996027   1.5135603  )
        23           O   tau(  23) = (   0.5003973   0.2441825   1.5135603  )
        24           O   tau(  24) = (   0.7527966   0.4978604   1.0164559  )
        25           O   tau(  25) = (   0.5021396   0.2472034   1.0164559  )
        26           O   tau(  26) = (   0.7517679   0.0000000   1.0164559  )
        27           O   tau(  27) = (   0.0114961   0.4948124   1.7455321  )
        28           O   tau(  28) = (   0.0048226   0.0077944   1.7715967  )
        29           Sr  tau(  29) = (   0.2545482   0.2517602   1.7648669  )
        30           O   tau(  30) = (   0.5048017   0.0015068   1.7786929  )
        31           Co  tau(  31) = (   0.0056869   0.5006215   1.0164559  )
        32           Co  tau(  32) = (   0.0065315   0.4997770   1.5135603  )
        33           Co  tau(  33) = (   0.0061999   0.0064171   1.0164559  )
        34           Co  tau(  34) = (   0.0000000   0.0126169   1.5135603  )
        35           O   tau(  35) = (   0.0114961   0.4948124   1.2815885  )
        36           O   tau(  36) = (   0.0114961   0.4948124   0.7513233  )
        37           O   tau(  37) = (   0.0051979   0.2673486   1.0164559  )
        38           O   tau(  38) = (   0.0130029   0.2478461   1.5135603  )
        39           O   tau(  39) = (   0.0048226   0.0077944   0.7773880  )
        40           O   tau(  40) = (   0.0048226   0.0077944   1.2555238  )
        41           Sr  tau(  41) = (   0.2545482   0.2517602   0.7706582  )
        42           Sr  tau(  42) = (   0.2545482   0.2517602   1.2622536  )
        43           Co  tau(  43) = (   0.4989925   0.0073160   1.5135603  )
        44           Co  tau(  44) = (   0.4998370   0.0064714   1.0164559  )
        45           O   tau(  45) = (   0.5048017   0.0015068   0.7844841  )
        46           O   tau(  46) = (   0.5048017   0.0015068   1.2484277  )
        47           O   tau(  47) = (   0.2621260   0.0059111   1.5135603  )
        48           O   tau(  48) = (   0.2591051   0.0041689   1.0164559  )
        49           O   tau(  49) = (   0.2843291   0.1421646   2.1602013  )
        50           O   tau(  50) = (   0.2843291   0.1421646   2.3186489  )
        51           H   tau(  51) = (   0.2843291   0.1421646   2.4431567  )

   Crystallographic axes

     site n.     atom                  positions (cryst. coord.)
         1           Sr  tau(   1) = (  0.2508693  0.7491307  0.6943562  )
         2           O   tau(   2) = (  0.4985141  0.5014859  0.6999492  )
         3           Sr  tau(   3) = (  0.7482398  0.7454518  0.6972903  )
         4           Sr  tau(   4) = (  0.7441748  0.2558252  0.6980478  )
         5           Sr  tau(   5) = (  0.2508693  0.7491307  0.5016443  )
         6           Sr  tau(   6) = (  0.2508693  0.7491307  0.3015492  )
         7           Co  tau(   7) = (  0.4998914  0.5001086  0.4015968  )
         8           Co  tau(   8) = (  0.4936915  0.5063085  0.5980003  )
         9           O   tau(   9) = (  0.4988895  0.7610401  0.4015968  )
        10           O   tau(  10) = (  0.2389599  0.5011105  0.4015968  )
        11           O   tau(  11) = (  0.0070918  0.7374880  0.4015968  )
        12           O   tau(  12) = (  0.0088340  0.7405089  0.5980003  )
        13           O   tau(  13) = (  0.5066944  0.7415376  0.5980003  )
        14           O   tau(  14) = (  0.2584624  0.4933056  0.5980003  )
        15           O   tau(  15) = (  0.4985141  0.5014859  0.3071422  )
        16           O   tau(  16) = (  0.4985141  0.5014859  0.4960513  )
        17           Sr  tau(  17) = (  0.7482398  0.7454518  0.3044833  )
        18           Sr  tau(  18) = (  0.7482398  0.7454518  0.4987103  )
        19           Sr  tau(  19) = (  0.7441748  0.2558252  0.3052408  )
        20           Sr  tau(  20) = (  0.7441748  0.2558252  0.4979527  )
        21           O   tau(  21) = (  0.7322655  0.0078049  0.5980003  )
        22           O   tau(  22) = (  0.7558175  0.4996027  0.5980003  )
        23           O   tau(  23) = (  0.5003973  0.2441825  0.5980003  )
        24           O   tau(  24) = (  0.7527966  0.4978604  0.4015968  )
        25           O   tau(  25) = (  0.5021396  0.2472034  0.4015968  )
        26           O   tau(  26) = (  0.7517679  0.0000000  0.4015968  )
        27           O   tau(  27) = (  0.0114961  0.4948124  0.6896512  )
        28           O   tau(  28) = (  0.0048226  0.0077944  0.6999492  )
        29           Sr  tau(  29) = (  0.2545482  0.2517602  0.6972903  )
        30           O   tau(  30) = (  0.5048017  0.0015068  0.7027529  )
        31           Co  tau(  31) = (  0.0056869  0.5006215  0.4015968  )
        32           Co  tau(  32) = (  0.0065315  0.4997770  0.5980003  )
        33           Co  tau(  33) = (  0.0061999  0.0064171  0.4015968  )
        34           Co  tau(  34) = (  0.0000000  0.0126169  0.5980003  )
        35           O   tau(  35) = (  0.0114961  0.4948124  0.5063494  )
        36           O   tau(  36) = (  0.0114961  0.4948124  0.2968442  )
        37           O   tau(  37) = (  0.0051979  0.2673486  0.4015968  )
        38           O   tau(  38) = (  0.0130029  0.2478461  0.5980003  )
        39           O   tau(  39) = (  0.0048226  0.0077944  0.3071422  )
        40           O   tau(  40) = (  0.0048226  0.0077944  0.4960513  )
        41           Sr  tau(  41) = (  0.2545482  0.2517602  0.3044833  )
        42           Sr  tau(  42) = (  0.2545482  0.2517602  0.4987103  )
        43           Co  tau(  43) = (  0.4989925  0.0073160  0.5980003  )
        44           Co  tau(  44) = (  0.4998370  0.0064714  0.4015968  )
        45           O   tau(  45) = (  0.5048017  0.0015068  0.3099459  )
        46           O   tau(  46) = (  0.5048017  0.0015068  0.4932477  )
        47           O   tau(  47) = (  0.2621260  0.0059111  0.5980003  )
        48           O   tau(  48) = (  0.2591051  0.0041689  0.4015968  )
        49           O   tau(  49) = (  0.2843291  0.1421646  0.8534850  )
        50           O   tau(  50) = (  0.2843291  0.1421646  0.9160869  )
        51           H   tau(  51) = (  0.2843291  0.1421646  0.9652793  )

     number of k points=    10  Gaussian smearing, width (Ry)=  0.0700
                       cart. coord. in units 2pi/alat
        k(    1) = (   0.0000000   0.0000000   0.0000000), wk =   0.1250000
        k(    2) = (   0.0000000   0.2500000   0.0000000), wk =   0.2500000
        k(    3) = (   0.0000000  -0.5000000   0.0000000), wk =   0.1250000
        k(    4) = (   0.2500000   0.2500000   0.0000000), wk =   0.2500000
        k(    5) = (   0.2500000  -0.5000000   0.0000000), wk =   0.2500000
        k(    6) = (  -0.5000000  -0.5000000   0.0000000), wk =   0.1250000
        k(    7) = (   0.2500000   0.0000000   0.0000000), wk =   0.2500000
        k(    8) = (  -0.5000000   0.0000000   0.0000000), wk =   0.1250000
        k(    9) = (  -0.2500000   0.2500000   0.0000000), wk =   0.2500000
        k(   10) = (  -0.5000000   0.2500000   0.0000000), wk =   0.2500000

                       cryst. coord.
        k(    1) = (   0.0000000   0.0000000   0.0000000), wk =   0.1250000
        k(    2) = (   0.0000000   0.2500000   0.0000000), wk =   0.2500000
        k(    3) = (   0.0000000  -0.5000000   0.0000000), wk =   0.1250000
        k(    4) = (   0.2500000   0.2500000   0.0000000), wk =   0.2500000
        k(    5) = (   0.2500000  -0.5000000   0.0000000), wk =   0.2500000
        k(    6) = (  -0.5000000  -0.5000000   0.0000000), wk =   0.1250000
        k(    7) = (   0.2500000   0.0000000   0.0000000), wk =   0.2500000
        k(    8) = (  -0.5000000   0.0000000   0.0000000), wk =   0.1250000
        k(    9) = (  -0.2500000   0.2500000   0.0000000), wk =   0.2500000
        k(   10) = (  -0.5000000   0.2500000   0.0000000), wk =   0.2500000

     Dense  grid:  1474595 G-vectors     FFT dimensions: ( 108, 108, 270)

     Smooth grid:   521381 G-vectors     FFT dimensions: (  75,  75, 192)

     Dynamical RAM for                 wfc:      10.90 MB

     Dynamical RAM for     wfc (w. buffer):      65.37 MB

     Dynamical RAM for           str. fact:       3.75 MB

     Dynamical RAM for           local pot:       0.00 MB

     Dynamical RAM for          nlocal pot:      24.94 MB

     Dynamical RAM for                qrad:       7.03 MB

     Dynamical RAM for          rho,v,vnew:       6.02 MB

     Dynamical RAM for               rhoin:       2.01 MB

     Dynamical RAM for            rho*nmix:      15.00 MB

     Dynamical RAM for           G-vectors:       3.68 MB

     Dynamical RAM for          h,s,v(r/c):       1.40 MB

     Dynamical RAM for          <psi|beta>:       2.42 MB

     Dynamical RAM for                 psi:      21.79 MB

     Dynamical RAM for                hpsi:      21.79 MB

     Dynamical RAM for                spsi:      21.79 MB

     Dynamical RAM for      wfcinit/wfcrot:      34.89 MB

     Dynamical RAM for           addusdens:     101.73 MB

     Estimated static dynamical RAM per process >     122.82 MB

     Estimated max dynamical RAM per process >     239.55 MB

     Estimated total dynamical RAM >      10.88 GB

     Check: negative core charge=   -0.000004

     Initial potential from superposition of free atoms

     starting charge     428.5961, renormalised to     437.0000

     negative rho (up, down):  7.813E-01 0.000E+00
     Starting wfcs are  381 randomized atomic wfcs
     Checking if some PAW data can be deallocated... 
       PAW data deallocated on   18 nodes for type:  2

     total cpu time spent up to now is        9.3 secs

     Self-consistent Calculation

     iteration #  1     ecut=    60.00 Ry     beta= 0.15
     Davidson diagonalization with overlap

---- Real-time Memory Report at c_bands before calling an iterative solver
             0 MiB given to the printing process from OS
             0 MiB allocation reported by mallinfo(arena+hblkhd)
          6899 MiB available memory on the node where the printing process lives
------------------
     ethr =  1.00E-02,  avg # of iterations =  2.0

     negative rho (up, down):  7.716E-01 0.000E+00

     total cpu time spent up to now is       25.2 secs

     total energy              =   -4489.31159944 Ry
     estimated scf accuracy    <      49.68112288 Ry

     iteration #  2     ecut=    60.00 Ry     beta= 0.15
     Davidson diagonalization with overlap

---- Real-time Memory Report at c_bands before calling an iterative solver
             0 MiB given to the printing process from OS
             0 MiB allocation reported by mallinfo(arena+hblkhd)
          7207 MiB available memory on the node where the printing process lives
------------------
     ethr =  1.00E-02,  avg # of iterations =  1.0

     negative rho (up, down):  7.613E-01 0.000E+00

     total cpu time spent up to now is       38.1 secs

     total energy              =   -4486.80155152 Ry
     estimated scf accuracy    <      35.34570141 Ry

     iteration #  3     ecut=    60.00 Ry     beta= 0.15
     Davidson diagonalization with overlap

---- Real-time Memory Report at c_bands before calling an iterative solver
             0 MiB given to the printing process from OS
             0 MiB allocation reported by mallinfo(arena+hblkhd)
          6430 MiB available memory on the node where the printing process lives
------------------
     ethr =  8.09E-03,  avg # of iterations =  1.0

     negative rho (up, down):  7.563E-01 0.000E+00

     total cpu time spent up to now is       51.3 secs

     total energy              =   -4486.77426378 Ry
     estimated scf accuracy    <      35.44393579 Ry

     iteration #  4     ecut=    60.00 Ry     beta= 0.15
     Davidson diagonalization with overlap

---- Real-time Memory Report at c_bands before calling an iterative solver
             0 MiB given to the printing process from OS
             0 MiB allocation reported by mallinfo(arena+hblkhd)
          6398 MiB available memory on the node where the printing process lives
------------------
     ethr =  8.09E-03,  avg # of iterations =  1.0

     negative rho (up, down):  7.577E-01 0.000E+00

     total cpu time spent up to now is       64.3 secs

     total energy              =   -4486.57630341 Ry
     estimated scf accuracy    <      34.24456271 Ry

     iteration #  5     ecut=    60.00 Ry     beta= 0.15
     Davidson diagonalization with overlap

---- Real-time Memory Report at c_bands before calling an iterative solver
             0 MiB given to the printing process from OS
             0 MiB allocation reported by mallinfo(arena+hblkhd)
          6383 MiB available memory on the node where the printing process lives
------------------
     ethr =  7.84E-03,  avg # of iterations =  1.0

     negative rho (up, down):  7.337E-01 0.000E+00

     total cpu time spent up to now is       77.2 secs

     total energy              =   -4482.44688491 Ry
     estimated scf accuracy    <      22.55279002 Ry

     iteration #  6     ecut=    60.00 Ry     beta= 0.15
     Davidson diagonalization with overlap

---- Real-time Memory Report at c_bands before calling an iterative solver
             0 MiB given to the printing process from OS
             0 MiB allocation reported by mallinfo(arena+hblkhd)
          6367 MiB available memory on the node where the printing process lives
------------------
     ethr =  5.16E-03,  avg # of iterations =  2.0

     negative rho (up, down):  7.490E-01 0.000E+00

     total cpu time spent up to now is       91.6 secs

     total energy              =   -4483.52685197 Ry
     estimated scf accuracy    <      33.96238557 Ry

     iteration #  7     ecut=    60.00 Ry     beta= 0.15
     Davidson diagonalization with overlap

---- Real-time Memory Report at c_bands before calling an iterative solver
             0 MiB given to the printing process from OS
             0 MiB allocation reported by mallinfo(arena+hblkhd)
          6337 MiB available memory on the node where the printing process lives
------------------
     ethr =  5.16E-03,  avg # of iterations =  1.0

     negative rho (up, down):  7.541E-01 0.000E+00

     total cpu time spent up to now is      104.6 secs

     total energy              =   -4483.58083931 Ry
     estimated scf accuracy    <      34.10528321 Ry

     iteration #  8     ecut=    60.00 Ry     beta= 0.15
     Davidson diagonalization with overlap

---- Real-time Memory Report at c_bands before calling an iterative solver
             0 MiB given to the printing process from OS
             0 MiB allocation reported by mallinfo(arena+hblkhd)
          6317 MiB available memory on the node where the printing process lives
------------------
     ethr =  5.16E-03,  avg # of iterations =  1.0

     negative rho (up, down):  7.516E-01 0.000E+00

     total cpu time spent up to now is      117.7 secs

     total energy              =   -4483.87936005 Ry
     estimated scf accuracy    <       6.52325395 Ry

     iteration #  9     ecut=    60.00 Ry     beta= 0.15
     Davidson diagonalization with overlap

---- Real-time Memory Report at c_bands before calling an iterative solver
             0 MiB given to the printing process from OS
             0 MiB allocation reported by mallinfo(arena+hblkhd)
          6292 MiB available memory on the node where the printing process lives
------------------
     ethr =  1.49E-03,  avg # of iterations =  3.4

     negative rho (up, down):  7.666E-01 0.000E+00

     total cpu time spent up to now is      132.7 secs

     total energy              =   -4483.75457577 Ry
     estimated scf accuracy    <       3.85171743 Ry

     iteration # 10     ecut=    60.00 Ry     beta= 0.15
     Davidson diagonalization with overlap

---- Real-time Memory Report at c_bands before calling an iterative solver
             0 MiB given to the printing process from OS
             0 MiB allocation reported by mallinfo(arena+hblkhd)
          6266 MiB available memory on the node where the printing process lives
------------------
     ethr =  8.81E-04,  avg # of iterations = 10.8

     negative rho (up, down):  7.895E-01 0.000E+00

     total cpu time spent up to now is      151.7 secs

     total energy              =   -4483.49245583 Ry
     estimated scf accuracy    <       4.37913783 Ry

     iteration # 11     ecut=    60.00 Ry     beta= 0.15
     Davidson diagonalization with overlap

---- Real-time Memory Report at c_bands before calling an iterative solver
             0 MiB given to the printing process from OS
             0 MiB allocation reported by mallinfo(arena+hblkhd)
          5912 MiB available memory on the node where the printing process lives
------------------
     ethr =  8.81E-04,  avg # of iterations =  6.5

     negative rho (up, down):  7.927E-01 0.000E+00

     total cpu time spent up to now is      168.5 secs

     total energy              =   -4483.19077479 Ry
     estimated scf accuracy    <       3.91745326 Ry

     iteration # 12     ecut=    60.00 Ry     beta= 0.15
     Davidson diagonalization with overlap

---- Real-time Memory Report at c_bands before calling an iterative solver
             0 MiB given to the printing process from OS
             0 MiB allocation reported by mallinfo(arena+hblkhd)
          5859 MiB available memory on the node where the printing process lives
------------------
     ethr =  8.81E-04,  avg # of iterations =  7.3

     negative rho (up, down):  8.019E-01 0.000E+00

     total cpu time spent up to now is      185.3 secs

     total energy              =   -4483.22533973 Ry
     estimated scf accuracy    <       1.99849919 Ry

     iteration # 13     ecut=    60.00 Ry     beta= 0.15
     Davidson diagonalization with overlap

---- Real-time Memory Report at c_bands before calling an iterative solver
             0 MiB given to the printing process from OS
             0 MiB allocation reported by mallinfo(arena+hblkhd)
          5830 MiB available memory on the node where the printing process lives
------------------
     ethr =  4.57E-04,  avg # of iterations =  2.0

     negative rho (up, down):  8.047E-01 0.000E+00

     total cpu time spent up to now is      199.7 secs

     total energy              =   -4483.24987448 Ry
     estimated scf accuracy    <       0.96130871 Ry

     iteration # 14     ecut=    60.00 Ry     beta= 0.15
     Davidson diagonalization with overlap

---- Real-time Memory Report at c_bands before calling an iterative solver
             0 MiB given to the printing process from OS
             0 MiB allocation reported by mallinfo(arena+hblkhd)
          5846 MiB available memory on the node where the printing process lives
------------------
     c_bands:  1 eigenvalues not converged
     ethr =  2.20E-04,  avg # of iterations = 10.7

     negative rho (up, down):  8.170E-01 0.000E+00

     total cpu time spent up to now is      219.1 secs

     total energy              =   -4483.10266197 Ry
     estimated scf accuracy    <       0.67817512 Ry

     iteration # 15     ecut=    60.00 Ry     beta= 0.15
     Davidson diagonalization with overlap

---- Real-time Memory Report at c_bands before calling an iterative solver
             0 MiB given to the printing process from OS
             0 MiB allocation reported by mallinfo(arena+hblkhd)
          5800 MiB available memory on the node where the printing process lives
------------------
     ethr =  1.55E-04,  avg # of iterations =  6.1

     negative rho (up, down):  8.195E-01 0.000E+00

     total cpu time spent up to now is      236.4 secs

     total energy              =   -4483.13565662 Ry
     estimated scf accuracy    <       3.10755127 Ry

     iteration # 16     ecut=    60.00 Ry     beta= 0.15
     Davidson diagonalization with overlap

---- Real-time Memory Report at c_bands before calling an iterative solver
             0 MiB given to the printing process from OS
             0 MiB allocation reported by mallinfo(arena+hblkhd)
          5839 MiB available memory on the node where the printing process lives
------------------
     ethr =  1.55E-04,  avg # of iterations =  2.3

     negative rho (up, down):  8.164E-01 0.000E+00

     total cpu time spent up to now is      250.8 secs

     total energy              =   -4483.10370306 Ry
     estimated scf accuracy    <       1.32126078 Ry

     iteration # 17     ecut=    60.00 Ry     beta= 0.15
     Davidson diagonalization with overlap

---- Real-time Memory Report at c_bands before calling an iterative solver
             0 MiB given to the printing process from OS
             0 MiB allocation reported by mallinfo(arena+hblkhd)
          5820 MiB available memory on the node where the printing process lives
------------------
     ethr =  1.55E-04,  avg # of iterations =  1.5

     negative rho (up, down):  8.199E-01 0.000E+00

     total cpu time spent up to now is      264.9 secs

     total energy              =   -4483.05413956 Ry
     estimated scf accuracy    <       0.39184536 Ry

     iteration # 18     ecut=    60.00 Ry     beta= 0.15
     Davidson diagonalization with overlap

---- Real-time Memory Report at c_bands before calling an iterative solver
             0 MiB given to the printing process from OS
             0 MiB allocation reported by mallinfo(arena+hblkhd)
          5834 MiB available memory on the node where the printing process lives
------------------
     ethr =  8.97E-05,  avg # of iterations = 12.4

     negative rho (up, down):  8.201E-01 0.000E+00

     total cpu time spent up to now is      284.4 secs

     total energy              =   -4483.03231140 Ry
     estimated scf accuracy    <       1.40531595 Ry

     iteration # 19     ecut=    60.00 Ry     beta= 0.15
     Davidson diagonalization with overlap

---- Real-time Memory Report at c_bands before calling an iterative solver
             0 MiB given to the printing process from OS
             0 MiB allocation reported by mallinfo(arena+hblkhd)
          5821 MiB available memory on the node where the printing process lives
------------------
     ethr =  8.97E-05,  avg # of iterations =  2.5

     negative rho (up, down):  8.319E-01 0.000E+00

     total cpu time spent up to now is      299.2 secs

     total energy              =   -4483.02511232 Ry
     estimated scf accuracy    <       0.40118613 Ry

     iteration # 20     ecut=    60.00 Ry     beta= 0.15
     Davidson diagonalization with overlap

---- Real-time Memory Report at c_bands before calling an iterative solver
             0 MiB given to the printing process from OS
             0 MiB allocation reported by mallinfo(arena+hblkhd)
          5832 MiB available memory on the node where the printing process lives
------------------
     ethr =  8.97E-05,  avg # of iterations =  6.4

     negative rho (up, down):  8.231E-01 0.000E+00

     total cpu time spent up to now is      315.7 secs

     total energy              =   -4482.97878941 Ry
     estimated scf accuracy    <       0.81681078 Ry

     iteration # 21     ecut=    60.00 Ry     beta= 0.15
     Davidson diagonalization with overlap

---- Real-time Memory Report at c_bands before calling an iterative solver
             0 MiB given to the printing process from OS
             0 MiB allocation reported by mallinfo(arena+hblkhd)
          5827 MiB available memory on the node where the printing process lives
------------------
     ethr =  8.97E-05,  avg # of iterations =  7.3

     negative rho (up, down):  8.436E-01 0.000E+00

     total cpu time spent up to now is      333.2 secs

     total energy              =   -4482.98304998 Ry
     estimated scf accuracy    <       0.09052198 Ry

     iteration # 22     ecut=    60.00 Ry     beta= 0.15
     Davidson diagonalization with overlap

---- Real-time Memory Report at c_bands before calling an iterative solver
             0 MiB given to the printing process from OS
             0 MiB allocation reported by mallinfo(arena+hblkhd)
          5807 MiB available memory on the node where the printing process lives
------------------
     ethr =  2.07E-05,  avg # of iterations = 10.1

     negative rho (up, down):  8.465E-01 0.000E+00

     total cpu time spent up to now is      353.0 secs

     total energy              =   -4482.98120029 Ry
     estimated scf accuracy    <       0.04658255 Ry

     iteration # 23     ecut=    60.00 Ry     beta= 0.15
     Davidson diagonalization with overlap

---- Real-time Memory Report at c_bands before calling an iterative solver
             0 MiB given to the printing process from OS
             0 MiB allocation reported by mallinfo(arena+hblkhd)
          5622 MiB available memory on the node where the printing process lives
------------------
     ethr =  1.07E-05,  avg # of iterations =  3.8

     negative rho (up, down):  8.319E-01 0.000E+00

     total cpu time spent up to now is      368.7 secs

     total energy              =   -4482.97741852 Ry
     estimated scf accuracy    <       0.02857437 Ry

     iteration # 24     ecut=    60.00 Ry     beta= 0.15
     Davidson diagonalization with overlap

---- Real-time Memory Report at c_bands before calling an iterative solver
             0 MiB given to the printing process from OS
             0 MiB allocation reported by mallinfo(arena+hblkhd)
          5636 MiB available memory on the node where the printing process lives
------------------
     ethr =  6.54E-06,  avg # of iterations = 11.1

     negative rho (up, down):  8.204E-01 0.000E+00

     total cpu time spent up to now is      388.1 secs

     total energy              =   -4482.97693700 Ry
     estimated scf accuracy    <       0.01657592 Ry

     iteration # 25     ecut=    60.00 Ry     beta= 0.15
     Davidson diagonalization with overlap

---- Real-time Memory Report at c_bands before calling an iterative solver
             0 MiB given to the printing process from OS
             0 MiB allocation reported by mallinfo(arena+hblkhd)
          5608 MiB available memory on the node where the printing process lives
------------------
     ethr =  3.79E-06,  avg # of iterations =  2.1

     negative rho (up, down):  8.092E-01 0.000E+00

     total cpu time spent up to now is      402.6 secs

     total energy              =   -4482.97451571 Ry
     estimated scf accuracy    <       0.01266732 Ry

     iteration # 26     ecut=    60.00 Ry     beta= 0.15
     Davidson diagonalization with overlap

---- Real-time Memory Report at c_bands before calling an iterative solver
             0 MiB given to the printing process from OS
             0 MiB allocation reported by mallinfo(arena+hblkhd)
          5629 MiB available memory on the node where the printing process lives
------------------
     ethr =  2.90E-06,  avg # of iterations =  6.4

     negative rho (up, down):  8.011E-01 0.000E+00

     total cpu time spent up to now is      419.5 secs

     total energy              =   -4482.97393956 Ry
     estimated scf accuracy    <       0.00549081 Ry

     iteration # 27     ecut=    60.00 Ry     beta= 0.15
     Davidson diagonalization with overlap

---- Real-time Memory Report at c_bands before calling an iterative solver
             0 MiB given to the printing process from OS
             0 MiB allocation reported by mallinfo(arena+hblkhd)
          5625 MiB available memory on the node where the printing process lives
------------------
     c_bands:  1 eigenvalues not converged
     ethr =  1.26E-06,  avg # of iterations =  9.6

     negative rho (up, down):  7.992E-01 0.000E+00

     total cpu time spent up to now is      439.2 secs

     total energy              =   -4482.97421920 Ry
     estimated scf accuracy    <       0.00200462 Ry

     iteration # 28     ecut=    60.00 Ry     beta= 0.15
     Davidson diagonalization with overlap

---- Real-time Memory Report at c_bands before calling an iterative solver
             0 MiB given to the printing process from OS
             0 MiB allocation reported by mallinfo(arena+hblkhd)
          5531 MiB available memory on the node where the printing process lives
------------------
     ethr =  4.59E-07,  avg # of iterations =  4.0

     negative rho (up, down):  7.960E-01 0.000E+00

     total cpu time spent up to now is      454.4 secs

     total energy              =   -4482.97412222 Ry
     estimated scf accuracy    <       0.00135333 Ry

     iteration # 29     ecut=    60.00 Ry     beta= 0.15
     Davidson diagonalization with overlap

---- Real-time Memory Report at c_bands before calling an iterative solver
             0 MiB given to the printing process from OS
             0 MiB allocation reported by mallinfo(arena+hblkhd)
          5534 MiB available memory on the node where the printing process lives
------------------
     ethr =  3.10E-07,  avg # of iterations =  6.4

     negative rho (up, down):  7.933E-01 0.000E+00

     total cpu time spent up to now is      471.1 secs

     total energy              =   -4482.97389713 Ry
     estimated scf accuracy    <       0.00082580 Ry

     iteration # 30     ecut=    60.00 Ry     beta= 0.15
     Davidson diagonalization with overlap

---- Real-time Memory Report at c_bands before calling an iterative solver
             0 MiB given to the printing process from OS
             0 MiB allocation reported by mallinfo(arena+hblkhd)
          5571 MiB available memory on the node where the printing process lives
------------------
     ethr =  1.89E-07,  avg # of iterations =  8.7

     negative rho (up, down):  7.927E-01 0.000E+00

     total cpu time spent up to now is      489.7 secs

     total energy              =   -4482.97394914 Ry
     estimated scf accuracy    <       0.00025545 Ry

     iteration # 31     ecut=    60.00 Ry     beta= 0.15
     Davidson diagonalization with overlap

---- Real-time Memory Report at c_bands before calling an iterative solver
             0 MiB given to the printing process from OS
             0 MiB allocation reported by mallinfo(arena+hblkhd)
          5567 MiB available memory on the node where the printing process lives
------------------
     ethr =  5.85E-08,  avg # of iterations =  3.3

     negative rho (up, down):  7.925E-01 0.000E+00

     total cpu time spent up to now is      504.7 secs

     total energy              =   -4482.97392078 Ry
     estimated scf accuracy    <       0.00016716 Ry

     iteration # 32     ecut=    60.00 Ry     beta= 0.15
     Davidson diagonalization with overlap

---- Real-time Memory Report at c_bands before calling an iterative solver
             0 MiB given to the printing process from OS
             0 MiB allocation reported by mallinfo(arena+hblkhd)
          5559 MiB available memory on the node where the printing process lives
------------------
     ethr =  3.83E-08,  avg # of iterations =  6.6

     negative rho (up, down):  7.925E-01 0.000E+00

     total cpu time spent up to now is      521.8 secs

     total energy              =   -4482.97392563 Ry
     estimated scf accuracy    <       0.00009402 Ry

     iteration # 33     ecut=    60.00 Ry     beta= 0.15
     Davidson diagonalization with overlap

---- Real-time Memory Report at c_bands before calling an iterative solver
             0 MiB given to the printing process from OS
             0 MiB allocation reported by mallinfo(arena+hblkhd)
          5585 MiB available memory on the node where the printing process lives
------------------
     ethr =  2.15E-08,  avg # of iterations =  3.5

     negative rho (up, down):  7.924E-01 0.000E+00

     total cpu time spent up to now is      536.9 secs

     total energy              =   -4482.97392782 Ry
     estimated scf accuracy    <       0.00006775 Ry

     iteration # 34     ecut=    60.00 Ry     beta= 0.15
     Davidson diagonalization with overlap

---- Real-time Memory Report at c_bands before calling an iterative solver
             0 MiB given to the printing process from OS
             0 MiB allocation reported by mallinfo(arena+hblkhd)
          5536 MiB available memory on the node where the printing process lives
------------------
     ethr =  1.55E-08,  avg # of iterations =  3.0

     negative rho (up, down):  7.923E-01 0.000E+00

     total cpu time spent up to now is      551.7 secs

     total energy              =   -4482.97394084 Ry
     estimated scf accuracy    <       0.00005336 Ry

     iteration # 35     ecut=    60.00 Ry     beta= 0.15
     Davidson diagonalization with overlap

---- Real-time Memory Report at c_bands before calling an iterative solver
             0 MiB given to the printing process from OS
             0 MiB allocation reported by mallinfo(arena+hblkhd)
          5536 MiB available memory on the node where the printing process lives
------------------
     ethr =  1.22E-08,  avg # of iterations =  2.4

     negative rho (up, down):  7.923E-01 0.000E+00

     total cpu time spent up to now is      566.4 secs

     total energy              =   -4482.97394757 Ry
     estimated scf accuracy    <       0.00003805 Ry

     iteration # 36     ecut=    60.00 Ry     beta= 0.15
     Davidson diagonalization with overlap

---- Real-time Memory Report at c_bands before calling an iterative solver
             0 MiB given to the printing process from OS
             0 MiB allocation reported by mallinfo(arena+hblkhd)
          5553 MiB available memory on the node where the printing process lives
------------------
     ethr =  8.71E-09,  avg # of iterations =  2.0

     negative rho (up, down):  7.922E-01 0.000E+00

     total cpu time spent up to now is      580.9 secs

     total energy              =   -4482.97396099 Ry
     estimated scf accuracy    <       0.00002513 Ry

     iteration # 37     ecut=    60.00 Ry     beta= 0.15
     Davidson diagonalization with overlap

---- Real-time Memory Report at c_bands before calling an iterative solver
             0 MiB given to the printing process from OS
             0 MiB allocation reported by mallinfo(arena+hblkhd)
          5561 MiB available memory on the node where the printing process lives
------------------
     ethr =  5.75E-09,  avg # of iterations =  4.9

     negative rho (up, down):  7.921E-01 0.000E+00

     total cpu time spent up to now is      597.0 secs

     total energy              =   -4482.97396413 Ry
     estimated scf accuracy    <       0.00001451 Ry

     iteration # 38     ecut=    60.00 Ry     beta= 0.15
     Davidson diagonalization with overlap

---- Real-time Memory Report at c_bands before calling an iterative solver
             0 MiB given to the printing process from OS
             0 MiB allocation reported by mallinfo(arena+hblkhd)
          5570 MiB available memory on the node where the printing process lives
------------------
     ethr =  3.32E-09,  avg # of iterations =  3.8

     negative rho (up, down):  7.922E-01 0.000E+00

     total cpu time spent up to now is      612.4 secs

     total energy              =   -4482.97396370 Ry
     estimated scf accuracy    <       0.00000680 Ry

     iteration # 39     ecut=    60.00 Ry     beta= 0.15
     Davidson diagonalization with overlap

---- Real-time Memory Report at c_bands before calling an iterative solver
             0 MiB given to the printing process from OS
             0 MiB allocation reported by mallinfo(arena+hblkhd)
          5575 MiB available memory on the node where the printing process lives
------------------
     ethr =  1.56E-09,  avg # of iterations =  3.2

     negative rho (up, down):  7.922E-01 0.000E+00

     total cpu time spent up to now is      627.5 secs

     total energy              =   -4482.97396338 Ry
     estimated scf accuracy    <       0.00000550 Ry

     iteration # 40     ecut=    60.00 Ry     beta= 0.15
     Davidson diagonalization with overlap

---- Real-time Memory Report at c_bands before calling an iterative solver
             0 MiB given to the printing process from OS
             0 MiB allocation reported by mallinfo(arena+hblkhd)
          5572 MiB available memory on the node where the printing process lives
------------------
     ethr =  1.26E-09,  avg # of iterations =  2.6

     negative rho (up, down):  7.922E-01 0.000E+00

     total cpu time spent up to now is      642.4 secs

     total energy              =   -4482.97396303 Ry
     estimated scf accuracy    <       0.00000457 Ry

     iteration # 41     ecut=    60.00 Ry     beta= 0.15
     Davidson diagonalization with overlap

---- Real-time Memory Report at c_bands before calling an iterative solver
             0 MiB given to the printing process from OS
             0 MiB allocation reported by mallinfo(arena+hblkhd)
          5579 MiB available memory on the node where the printing process lives
------------------
     ethr =  1.05E-09,  avg # of iterations =  2.2

     negative rho (up, down):  7.922E-01 0.000E+00

     total cpu time spent up to now is      657.0 secs

     total energy              =   -4482.97396310 Ry
     estimated scf accuracy    <       0.00000436 Ry

     iteration # 42     ecut=    60.00 Ry     beta= 0.15
     Davidson diagonalization with overlap

---- Real-time Memory Report at c_bands before calling an iterative solver
             0 MiB given to the printing process from OS
             0 MiB allocation reported by mallinfo(arena+hblkhd)
          5576 MiB available memory on the node where the printing process lives
------------------
     ethr =  9.98E-10,  avg # of iterations =  3.4

     negative rho (up, down):  7.922E-01 0.000E+00

     total cpu time spent up to now is      672.4 secs

     total energy              =   -4482.97396313 Ry
     estimated scf accuracy    <       0.00000298 Ry

     iteration # 43     ecut=    60.00 Ry     beta= 0.15
     Davidson diagonalization with overlap

---- Real-time Memory Report at c_bands before calling an iterative solver
             0 MiB given to the printing process from OS
             0 MiB allocation reported by mallinfo(arena+hblkhd)
          5576 MiB available memory on the node where the printing process lives
------------------
     ethr =  6.82E-10,  avg # of iterations =  2.6

     negative rho (up, down):  7.922E-01 0.000E+00

     total cpu time spent up to now is      687.7 secs

     total energy              =   -4482.97396330 Ry
     estimated scf accuracy    <       0.00000253 Ry

     iteration # 44     ecut=    60.00 Ry     beta= 0.15
     Davidson diagonalization with overlap

---- Real-time Memory Report at c_bands before calling an iterative solver
             0 MiB given to the printing process from OS
             0 MiB allocation reported by mallinfo(arena+hblkhd)
          5571 MiB available memory on the node where the printing process lives
------------------
     ethr =  5.80E-10,  avg # of iterations =  2.0

     negative rho (up, down):  7.922E-01 0.000E+00

     total cpu time spent up to now is      702.2 secs

     total energy              =   -4482.97396364 Ry
     estimated scf accuracy    <       0.00000199 Ry

     iteration # 45     ecut=    60.00 Ry     beta= 0.15
     Davidson diagonalization with overlap

---- Real-time Memory Report at c_bands before calling an iterative solver
             0 MiB given to the printing process from OS
             0 MiB allocation reported by mallinfo(arena+hblkhd)
          5573 MiB available memory on the node where the printing process lives
------------------
     ethr =  4.56E-10,  avg # of iterations =  3.8

     negative rho (up, down):  7.922E-01 0.000E+00

     total cpu time spent up to now is      717.8 secs

     total energy              =   -4482.97396377 Ry
     estimated scf accuracy    <       0.00000098 Ry

     iteration # 46     ecut=    60.00 Ry     beta= 0.15
     Davidson diagonalization with overlap

---- Real-time Memory Report at c_bands before calling an iterative solver
             0 MiB given to the printing process from OS
             0 MiB allocation reported by mallinfo(arena+hblkhd)
          5571 MiB available memory on the node where the printing process lives
------------------
     ethr =  2.23E-10,  avg # of iterations =  4.5

     negative rho (up, down):  7.922E-01 0.000E+00

     total cpu time spent up to now is      733.6 secs

     total energy              =   -4482.97396378 Ry
     estimated scf accuracy    <       0.00000054 Ry

     iteration # 47     ecut=    60.00 Ry     beta= 0.15
     Davidson diagonalization with overlap

---- Real-time Memory Report at c_bands before calling an iterative solver
             0 MiB given to the printing process from OS
             0 MiB allocation reported by mallinfo(arena+hblkhd)
          5583 MiB available memory on the node where the printing process lives
------------------
     ethr =  1.23E-10,  avg # of iterations =  4.5

     negative rho (up, down):  7.923E-01 0.000E+00

     total cpu time spent up to now is      749.5 secs

     total energy              =   -4482.97396379 Ry
     estimated scf accuracy    <       0.00000021 Ry

     iteration # 48     ecut=    60.00 Ry     beta= 0.15
     Davidson diagonalization with overlap

---- Real-time Memory Report at c_bands before calling an iterative solver
             0 MiB given to the printing process from OS
             0 MiB allocation reported by mallinfo(arena+hblkhd)
          5581 MiB available memory on the node where the printing process lives
------------------
     ethr =  4.85E-11,  avg # of iterations =  4.7

     negative rho (up, down):  7.923E-01 0.000E+00

     total cpu time spent up to now is      765.8 secs

     total energy              =   -4482.97396388 Ry
     estimated scf accuracy    <       0.00000010 Ry

     iteration # 49     ecut=    60.00 Ry     beta= 0.15
     Davidson diagonalization with overlap

---- Real-time Memory Report at c_bands before calling an iterative solver
             0 MiB given to the printing process from OS
             0 MiB allocation reported by mallinfo(arena+hblkhd)
          5580 MiB available memory on the node where the printing process lives
------------------
     ethr =  2.26E-11,  avg # of iterations =  3.9

     negative rho (up, down):  7.923E-01 0.000E+00

     total cpu time spent up to now is      781.7 secs

     total energy              =   -4482.97396392 Ry
     estimated scf accuracy    <       0.00000004 Ry

     iteration # 50     ecut=    60.00 Ry     beta= 0.15
     Davidson diagonalization with overlap

---- Real-time Memory Report at c_bands before calling an iterative solver
             0 MiB given to the printing process from OS
             0 MiB allocation reported by mallinfo(arena+hblkhd)
          5601 MiB available memory on the node where the printing process lives
------------------
     ethr =  1.03E-11,  avg # of iterations =  4.5

     negative rho (up, down):  7.923E-01 0.000E+00

     total cpu time spent up to now is      797.8 secs

     total energy              =   -4482.97396393 Ry
     estimated scf accuracy    <       0.00000003 Ry

     iteration # 51     ecut=    60.00 Ry     beta= 0.15
     Davidson diagonalization with overlap

---- Real-time Memory Report at c_bands before calling an iterative solver
             0 MiB given to the printing process from OS
             0 MiB allocation reported by mallinfo(arena+hblkhd)
          5601 MiB available memory on the node where the printing process lives
------------------
     ethr =  5.87E-12,  avg # of iterations =  3.8

     negative rho (up, down):  7.923E-01 0.000E+00

     total cpu time spent up to now is      813.7 secs

     total energy              =   -4482.97396394 Ry
     estimated scf accuracy    <       0.00000001 Ry

     iteration # 52     ecut=    60.00 Ry     beta= 0.15
     Davidson diagonalization with overlap

---- Real-time Memory Report at c_bands before calling an iterative solver
             0 MiB given to the printing process from OS
             0 MiB allocation reported by mallinfo(arena+hblkhd)
          5604 MiB available memory on the node where the printing process lives
------------------
     ethr =  2.70E-12,  avg # of iterations =  3.9

     negative rho (up, down):  7.923E-01 0.000E+00

     total cpu time spent up to now is      828.8 secs

     End of self-consistent calculation

          k = 0.0000 0.0000 0.0000 ( 65197 PWs)   bands (ev):

   -92.3387 -92.2828 -92.1924 -92.1443 -92.0851 -92.0449 -92.0276 -91.9048
   -55.6918 -55.6691 -55.5503 -55.5398 -55.5319 -55.5265 -55.4881 -55.4621
   -55.4457 -55.4439 -55.4342 -55.3937 -55.3757 -55.3368 -55.3183 -55.2848
   -55.2795 -55.2338 -55.2318 -55.2307 -55.2222 -55.1791 -55.1584 -55.0717
   -30.9257 -30.9063 -30.8368 -30.7653 -30.7228 -30.6786 -30.5941 -30.3064
   -29.4907 -29.4463 -29.4206 -29.3118 -22.2523 -14.7234 -14.6850 -14.6016
   -14.4708 -14.2875 -14.1631 -13.8652 -13.8479 -13.8155 -13.7830 -13.7731
   -13.7312 -13.7208 -13.7090 -13.6910 -13.6744 -13.6416 -13.5738 -13.4257
   -13.2559 -13.2153 -13.1822 -13.1580 -13.1366 -13.0914 -13.0518 -12.9724
   -12.8998 -12.8399 -12.8077 -12.7583 -12.7492 -12.7236 -12.7075 -12.6976
   -12.6639 -12.6441 -12.6284 -12.6192 -12.6032 -12.5770 -12.5668 -12.5496
   -12.5154 -12.4959 -12.4713 -12.2865 -12.2832 -12.2477 -11.9906 -11.8456
   -11.6948 -11.6280 -11.5038 -11.4296 -11.4182 -11.3956 -11.3778 -11.3140
   -11.2967 -11.2623 -11.2339 -11.1213 -11.0413 -11.0377  -5.9343  -3.1538
    -3.1491  -2.5840  -2.3504  -2.1211  -1.9751  -1.9108  -1.7678  -1.4620
    -1.4478  -1.4266  -1.3451  -1.3258  -1.2579  -1.2417  -1.2001  -1.1553
    -0.9741  -0.7525  -0.7228  -0.5719  -0.5583  -0.5146  -0.4964  -0.4524
    -0.4369  -0.3754  -0.3492  -0.2811  -0.2677  -0.1882  -0.0623  -0.0477
    -0.0184   0.0608   0.0642   0.0792   0.1494   0.2281   0.2596   0.3208
     0.3450   0.3999   0.4809   0.5376   0.5573   0.5653   0.8215   0.8350
     1.0062   1.0782   1.1416   1.1804   1.2740   1.2900   1.3051   1.3748
     1.4038   1.4380   1.4973   1.6320   1.6852   1.7059   1.7224   1.7320
     1.8025   1.8820   1.9743   1.9866   2.0475   2.0697   2.1058   2.1267
     2.1332   2.1889   2.2396   2.2524   2.2804   2.3268   2.3801   2.5098
     2.5891   2.6385   2.6498   2.8039   2.8184   2.8638   2.8737   2.9722
     3.0140   3.0371   3.0465   3.0559   3.0684   3.0760   3.1508   3.2633
     3.2958   3.3109   3.3179   3.3850   3.3877   3.4126   3.4216   3.4289
     3.4384   3.4472   3.4597   3.4658   3.4795   3.4887   3.4961   3.5167
     3.5376   3.5429   3.5545   3.5775   3.6957   3.7430   4.4215   4.7466
     4.7977   5.1388   5.3883   5.4702   5.6887   6.2749   6.3185   6.3505
     6.6262   6.6379   6.6748   6.7238   6.9609   7.1360   7.2288   7.3116
     7.6435   7.6626   7.8129   7.8331   7.9400   7.9512   7.9671   8.0483
     8.3120   8.3439   8.3678   8.4313   8.5583   8.5838   8.6897

     occupation numbers 
     1.0000   1.0000   1.0000   1.0000   1.0000   1.0000   1.0000   1.0000
     1.0000   1.0000   1.0000   1.0000   1.0000   1.0000   1.0000   1.0000
     1.0000   1.0000   1.0000   1.0000   1.0000   1.0000   1.0000   1.0000
     1.0000   1.0000   1.0000   1.0000   1.0000   1.0000   1.0000   1.0000
     1.0000   1.0000   1.0000   1.0000   1.0000   1.0000   1.0000   1.0000
     1.0000   1.0000   1.0000   1.0000   1.0000   1.0000   1.0000   1.0000
     1.0000   1.0000   1.0000   1.0000   1.0000   1.0000   1.0000   1.0000
     1.0000   1.0000   1.0000   1.0000   1.0000   1.0000   1.0000   1.0000
     1.0000   1.0000   1.0000   1.0000   1.0000   1.0000   1.0000   1.0000
     1.0000   1.0000   1.0000   1.0000   1.0000   1.0000   1.0000   1.0000
     1.0000   1.0000   1.0000   1.0000   1.0000   1.0000   1.0000   1.0000
     1.0000   1.0000   1.0000   1.0000   1.0000   1.0000   1.0000   1.0000
     1.0000   1.0000   1.0000   1.0000   1.0000   1.0000   1.0000   1.0000
     1.0000   1.0000   1.0000   1.0000   1.0000   1.0000   1.0000   1.0000
     1.0000   1.0000   1.0000   1.0000   1.0000   1.0000   1.0000   1.0000
     1.0000   1.0000   1.0000   1.0000   1.0000   1.0000   1.0000   1.0000
     1.0000   1.0000   1.0000   1.0000   1.0000   1.0000   1.0000   1.0000
     1.0000   1.0000   1.0000   1.0000   1.0000   1.0000   1.0000   1.0000
     1.0000   1.0000   1.0000   1.0000   1.0000   1.0000   1.0000   1.0000
     1.0000   1.0000   1.0000   1.0000   1.0000   1.0000   1.0000   1.0000
     1.0000   0.9999   0.9999   0.9999   0.9998   0.9998   0.9998   0.9997
     0.9997   0.9996   0.9994   0.9989   0.9985   0.9984   0.9982   0.9982
     0.9974   0.9963   0.9945   0.9942   0.9926   0.9919   0.9906   0.9898
     0.9895   0.9870   0.9842   0.9835   0.9817   0.9783   0.9739   0.9599
     0.9486   0.9404   0.9384   0.9053   0.9016   0.8894   0.8866   0.8560
     0.8415   0.8330   0.8295   0.8259   0.8211   0.8182   0.7874   0.7357
     0.7197   0.7121   0.7086   0.6735   0.6720   0.6586   0.6536   0.6496
     0.6444   0.6395   0.6326   0.6292   0.6214   0.6162   0.6120   0.6003
     0.5882   0.5852   0.5784   0.5650   0.4953   0.4673   0.1380   0.0579
     0.0497   0.0156   0.0058   0.0041   0.0015   0.0001   0.0000   0.0000
     0.0000   0.0000   0.0000   0.0000   0.0000   0.0000   0.0000   0.0000
     0.0000   0.0000   0.0000   0.0000   0.0000   0.0000   0.0000   0.0000
     0.0000   0.0000   0.0000   0.0000   0.0000   0.0000   0.0000

          k = 0.0000 0.2500 0.0000 ( 65257 PWs)   bands (ev):

   -92.3387 -92.2828 -92.1924 -92.1443 -92.0851 -92.0449 -92.0276 -91.9048
   -55.6918 -55.6691 -55.5503 -55.5398 -55.5319 -55.5265 -55.4881 -55.4621
   -55.4457 -55.4439 -55.4342 -55.3937 -55.3757 -55.3368 -55.3183 -55.2848
   -55.2795 -55.2338 -55.2318 -55.2307 -55.2222 -55.1791 -55.1584 -55.0717
   -30.9255 -30.9062 -30.8366 -30.7655 -30.7230 -30.6788 -30.5940 -30.3065
   -29.4901 -29.4460 -29.4212 -29.3121 -22.2523 -14.6866 -14.6586 -14.5764
   -14.4417 -14.3257 -14.1543 -14.0093 -13.8303 -13.8013 -13.7858 -13.7751
   -13.7502 -13.6930 -13.6868 -13.6705 -13.6565 -13.6242 -13.4937 -13.4567
   -13.2944 -13.2811 -13.2250 -13.1899 -13.1496 -13.1069 -13.0703 -12.9916
   -12.9590 -12.9277 -12.8737 -12.8107 -12.7951 -12.7562 -12.7403 -12.6791
   -12.6301 -12.6064 -12.5838 -12.5781 -12.5596 -12.5381 -12.5154 -12.5123
   -12.4463 -12.4446 -12.4104 -12.2539 -12.2132 -12.1639 -12.0519 -11.8969
   -11.7482 -11.6909 -11.4692 -11.4264 -11.3987 -11.3698 -11.3530 -11.3061
   -11.2947 -11.2723 -11.2387 -11.1355 -11.0829 -11.0723  -5.9343  -3.1540
    -3.1491  -2.4488  -2.2260  -2.0891  -1.9069  -1.8634  -1.6986  -1.4821
    -1.3942  -1.3812  -1.3262  -1.2226  -1.2076  -1.1732  -1.1476  -1.1042
    -0.9052  -0.7778  -0.7654  -0.6903  -0.6785  -0.5740  -0.5433  -0.4881
    -0.4640  -0.4196  -0.3582  -0.3332  -0.2991  -0.2691  -0.2517  -0.2188
    -0.1461  -0.0928  -0.0362   0.0767   0.0939   0.1385   0.2601   0.2926
     0.3537   0.4057   0.4621   0.4832   0.5144   0.5718   0.8687   0.9565
     0.9858   1.0736   1.1173   1.1364   1.2646   1.2835   1.3755   1.4012
     1.4326   1.5471   1.6324   1.6610   1.6837   1.6985   1.7305   1.7918
     1.8162   1.8438   1.8929   1.9231   1.9515   2.0296   2.0623   2.1007
     2.1537   2.2071   2.2421   2.2706   2.3041   2.3266   2.4148   2.5456
     2.6166   2.6340   2.7164   2.7610   2.7990   2.8060   2.8702   2.9133
     2.9901   3.0295   3.0440   3.0462   3.0704   3.2243   3.2460   3.2783
     3.2981   3.3168   3.3259   3.3338   3.3424   3.3721   3.3738   3.3909
     3.3948   3.4075   3.4233   3.4341   3.4446   3.4676   3.4780   3.4827
     3.5183   3.5348   3.5953   3.9532   3.9734   4.2351   4.6067   4.7492
     4.9045   5.0820   5.4106   5.5095   5.8186   5.9119   6.1581   6.3089
     6.3390   6.4568   6.5249   6.7500   6.9034   7.0166   7.2430   7.5531
     7.5748   7.7030   7.7928   7.8702   7.8968   7.9485   8.0892   8.2059
     8.3388   8.3712   8.5579   8.5926   8.6359   8.6862   8.9207

     occupation numbers 
     1.0000   1.0000   1.0000   1.0000   1.0000   1.0000   1.0000   1.0000
     1.0000   1.0000   1.0000   1.0000   1.0000   1.0000   1.0000   1.0000
     1.0000   1.0000   1.0000   1.0000   1.0000   1.0000   1.0000   1.0000
     1.0000   1.0000   1.0000   1.0000   1.0000   1.0000   1.0000   1.0000
     1.0000   1.0000   1.0000   1.0000   1.0000   1.0000   1.0000   1.0000
     1.0000   1.0000   1.0000   1.0000   1.0000   1.0000   1.0000   1.0000
     1.0000   1.0000   1.0000   1.0000   1.0000   1.0000   1.0000   1.0000
     1.0000   1.0000   1.0000   1.0000   1.0000   1.0000   1.0000   1.0000
     1.0000   1.0000   1.0000   1.0000   1.0000   1.0000   1.0000   1.0000
     1.0000   1.0000   1.0000   1.0000   1.0000   1.0000   1.0000   1.0000
     1.0000   1.0000   1.0000   1.0000   1.0000   1.0000   1.0000   1.0000
     1.0000   1.0000   1.0000   1.0000   1.0000   1.0000   1.0000   1.0000
     1.0000   1.0000   1.0000   1.0000   1.0000   1.0000   1.0000   1.0000
     1.0000   1.0000   1.0000   1.0000   1.0000   1.0000   1.0000   1.0000
     1.0000   1.0000   1.0000   1.0000   1.0000   1.0000   1.0000   1.0000
     1.0000   1.0000   1.0000   1.0000   1.0000   1.0000   1.0000   1.0000
     1.0000   1.0000   1.0000   1.0000   1.0000   1.0000   1.0000   1.0000
     1.0000   1.0000   1.0000   1.0000   1.0000   1.0000   1.0000   1.0000
     1.0000   1.0000   1.0000   1.0000   1.0000   1.0000   1.0000   1.0000
     1.0000   1.0000   1.0000   1.0000   1.0000   1.0000   1.0000   1.0000
     1.0000   0.9999   0.9999   0.9999   0.9998   0.9998   0.9997   0.9997
     0.9996   0.9993   0.9989   0.9987   0.9985   0.9984   0.9982   0.9976
     0.9973   0.9969   0.9962   0.9956   0.9950   0.9931   0.9921   0.9908
     0.9886   0.9860   0.9841   0.9823   0.9800   0.9784   0.9706   0.9550
     0.9441   0.9412   0.9254   0.9156   0.9065   0.9048   0.8876   0.8749
     0.8499   0.8358   0.8304   0.8296   0.8204   0.7543   0.7441   0.7284
     0.7186   0.7091   0.7045   0.7004   0.6960   0.6803   0.6794   0.6703
     0.6682   0.6613   0.6527   0.6468   0.6409   0.6281   0.6223   0.6196
     0.5993   0.5898   0.5546   0.3467   0.3357   0.2082   0.0862   0.0575
     0.0354   0.0192   0.0053   0.0034   0.0008   0.0005   0.0001   0.0000
     0.0000   0.0000   0.0000   0.0000   0.0000   0.0000   0.0000   0.0000
     0.0000   0.0000   0.0000   0.0000   0.0000   0.0000   0.0000   0.0000
     0.0000   0.0000   0.0000   0.0000   0.0000   0.0000   0.0000

          k = 0.0000-0.5000 0.0000 ( 65180 PWs)   bands (ev):

   -92.3387 -92.2828 -92.1924 -92.1443 -92.0851 -92.0449 -92.0276 -91.9048
   -55.6918 -55.6691 -55.5503 -55.5398 -55.5319 -55.5265 -55.4881 -55.4621
   -55.4457 -55.4439 -55.4342 -55.3937 -55.3757 -55.3368 -55.3183 -55.2848
   -55.2795 -55.2338 -55.2318 -55.2307 -55.2222 -55.1791 -55.1584 -55.0717
   -30.9253 -30.9061 -30.8363 -30.7657 -30.7233 -30.6789 -30.5939 -30.3066
   -29.4895 -29.4456 -29.4218 -29.3124 -22.2523 -14.6533 -14.6053 -14.5516
   -14.4301 -14.3394 -14.2054 -14.0538 -13.9373 -13.8000 -13.7829 -13.7411
   -13.6955 -13.6809 -13.6370 -13.6165 -13.5681 -13.5543 -13.5236 -13.4921
   -13.4765 -13.4233 -13.2269 -13.1712 -13.1588 -13.1004 -13.0842 -13.0050
   -12.9922 -12.9476 -12.9324 -12.8672 -12.8036 -12.7564 -12.7341 -12.7184
   -12.6150 -12.6050 -12.5780 -12.5755 -12.5370 -12.5308 -12.5182 -12.4162
   -12.3893 -12.3532 -12.2999 -12.2524 -12.1629 -12.1014 -11.9888 -11.9722
   -11.8406 -11.7971 -11.4233 -11.4210 -11.3937 -11.3552 -11.3214 -11.3105
   -11.2683 -11.2643 -11.2203 -11.1570 -11.1433 -11.1291  -5.9343  -3.1542
    -3.1491  -2.2341  -2.1746  -2.0227  -1.9505  -1.6713  -1.5872  -1.4584
    -1.3207  -1.2855  -1.2645  -1.1857  -1.1560  -1.0724  -1.0382  -0.9620
    -0.9205  -0.8812  -0.8548  -0.7975  -0.7612  -0.7160  -0.6799  -0.6442
    -0.6117  -0.5003  -0.4554  -0.4235  -0.4216  -0.3358  -0.3033  -0.2808
    -0.2325  -0.1488  -0.0790   0.0011   0.0275   0.1344   0.1792   0.3282
     0.3512   0.3878   0.4361   0.5581   0.6113   0.7503   0.8149   0.8228
     0.9515   0.9878   1.0887   1.2307   1.3364   1.3669   1.4013   1.4093
     1.4459   1.4672   1.5031   1.5184   1.5314   1.6396   1.6992   1.7248
     1.7499   2.0076   2.0447   2.0627   2.1558   2.1829   2.2144   2.2314
     2.2655   2.2752   2.2803   2.3179   2.3557   2.3835   2.4065   2.4242
     2.4533   2.5066   2.5861   2.6132   2.7953   2.9602   2.9691   2.9830
     3.0233   3.0285   3.0397   3.0450   3.0618   3.0962   3.1052   3.1590
     3.1797   3.2532   3.2677   3.3355   3.3441   3.3684   3.3695   3.3902
     3.3935   3.3964   3.4015   3.4046   3.4168   3.4379   3.4383   3.5039
     3.5085   3.5245   3.5789   4.4746   4.4936   4.5258   4.5883   4.9634
     5.1112   5.2293   5.3944   5.5105   5.6093   5.8267   5.9342   6.0030
     6.2069   6.3700   6.3966   6.4502   7.0083   7.0521   7.1504   7.4235
     7.5337   7.6366   7.7182   7.9958   8.0690   8.1887   8.2555   8.3762
     8.4532   8.5877   8.6495   8.7273   8.7626   8.8487   8.9579

     occupation numbers 
     1.0000   1.0000   1.0000   1.0000   1.0000   1.0000   1.0000   1.0000
     1.0000   1.0000   1.0000   1.0000   1.0000   1.0000   1.0000   1.0000
     1.0000   1.0000   1.0000   1.0000   1.0000   1.0000   1.0000   1.0000
     1.0000   1.0000   1.0000   1.0000   1.0000   1.0000   1.0000   1.0000
     1.0000   1.0000   1.0000   1.0000   1.0000   1.0000   1.0000   1.0000
     1.0000   1.0000   1.0000   1.0000   1.0000   1.0000   1.0000   1.0000
     1.0000   1.0000   1.0000   1.0000   1.0000   1.0000   1.0000   1.0000
     1.0000   1.0000   1.0000   1.0000   1.0000   1.0000   1.0000   1.0000
     1.0000   1.0000   1.0000   1.0000   1.0000   1.0000   1.0000   1.0000
     1.0000   1.0000   1.0000   1.0000   1.0000   1.0000   1.0000   1.0000
     1.0000   1.0000   1.0000   1.0000   1.0000   1.0000   1.0000   1.0000
     1.0000   1.0000   1.0000   1.0000   1.0000   1.0000   1.0000   1.0000
     1.0000   1.0000   1.0000   1.0000   1.0000   1.0000   1.0000   1.0000
     1.0000   1.0000   1.0000   1.0000   1.0000   1.0000   1.0000   1.0000
     1.0000   1.0000   1.0000   1.0000   1.0000   1.0000   1.0000   1.0000
     1.0000   1.0000   1.0000   1.0000   1.0000   1.0000   1.0000   1.0000
     1.0000   1.0000   1.0000   1.0000   1.0000   1.0000   1.0000   1.0000
     1.0000   1.0000   1.0000   1.0000   1.0000   1.0000   1.0000   1.0000
     1.0000   1.0000   1.0000   1.0000   1.0000   1.0000   1.0000   1.0000
     1.0000   1.0000   1.0000   1.0000   1.0000   1.0000   1.0000   1.0000
     1.0000   1.0000   0.9999   0.9999   0.9998   0.9997   0.9997   0.9996
     0.9996   0.9995   0.9994   0.9994   0.9993   0.9988   0.9984   0.9982
     0.9980   0.9937   0.9927   0.9921   0.9885   0.9873   0.9857   0.9847
     0.9827   0.9820   0.9817   0.9790   0.9760   0.9736   0.9714   0.9697
     0.9666   0.9603   0.9491   0.9447   0.9074   0.8600   0.8570   0.8523
     0.8381   0.8362   0.8321   0.8301   0.8237   0.8101   0.8065   0.7838
     0.7747   0.7406   0.7336   0.6995   0.6951   0.6823   0.6817   0.6707
     0.6689   0.6673   0.6646   0.6629   0.6563   0.6447   0.6445   0.6076
     0.6049   0.5958   0.5642   0.1213   0.1157   0.1067   0.0906   0.0291
     0.0173   0.0110   0.0056   0.0034   0.0022   0.0007   0.0004   0.0003
     0.0001   0.0000   0.0000   0.0000   0.0000   0.0000   0.0000   0.0000
     0.0000   0.0000   0.0000   0.0000   0.0000   0.0000   0.0000   0.0000
     0.0000   0.0000   0.0000   0.0000   0.0000   0.0000   0.0000

          k = 0.2500 0.2500 0.0000 ( 65198 PWs)   bands (ev):

   -92.3387 -92.2828 -92.1924 -92.1443 -92.0851 -92.0449 -92.0276 -91.9048
   -55.6918 -55.6691 -55.5503 -55.5398 -55.5319 -55.5265 -55.4881 -55.4621
   -55.4457 -55.4439 -55.4342 -55.3937 -55.3757 -55.3368 -55.3183 -55.2848
   -55.2795 -55.2338 -55.2318 -55.2307 -55.2222 -55.1791 -55.1584 -55.0717
   -30.9238 -30.9079 -30.8365 -30.7651 -30.7230 -30.6791 -30.5942 -30.3066
   -29.4891 -29.4469 -29.4208 -29.3125 -22.2523 -14.6584 -14.6228 -14.5485
   -14.4315 -14.3178 -14.1925 -14.1151 -13.9164 -13.7830 -13.7537 -13.7426
   -13.7091 -13.6780 -13.6562 -13.6296 -13.6038 -13.5857 -13.4864 -13.4713
   -13.3105 -13.2980 -13.2659 -13.2471 -13.2117 -13.1585 -13.1192 -13.0738
   -12.9846 -12.9538 -12.8790 -12.7969 -12.7755 -12.7473 -12.7012 -12.6758
   -12.6668 -12.6188 -12.5963 -12.5903 -12.5542 -12.5274 -12.5094 -12.4642
   -12.3919 -12.3735 -12.3620 -12.2559 -12.1898 -12.1004 -12.0527 -11.9261
   -11.7716 -11.7422 -11.4415 -11.4096 -11.3990 -11.3920 -11.3292 -11.2939
   -11.2874 -11.2524 -11.2450 -11.1520 -11.1111 -11.0937  -5.9343  -3.1540
    -3.1493  -2.3107  -2.1003  -1.9832  -1.8898  -1.7674  -1.7018  -1.5072
    -1.3595  -1.3395  -1.3127  -1.2176  -1.1832  -1.0903  -1.0625  -1.0134
    -0.8807  -0.8327  -0.7621  -0.7160  -0.6721  -0.6477  -0.6224  -0.5808
    -0.5647  -0.4753  -0.4253  -0.3634  -0.3135  -0.2835  -0.2303  -0.2201
    -0.1567  -0.1068  -0.0547  -0.0158   0.0653   0.1202   0.1483   0.1904
     0.2436   0.3105   0.3535   0.3770   0.4482   0.4854   0.7618   0.9068
     0.9467   0.9962   1.0415   1.0924   1.1559   1.2095   1.2496   1.5218
     1.5943   1.6686   1.6948   1.7371   1.7742   1.8090   1.8460   1.8636
     1.8917   1.9308   1.9396   1.9587   1.9978   2.0392   2.0805   2.1292
     2.1671   2.1773   2.2071   2.2474   2.2974   2.3288   2.4572   2.5247
     2.5647   2.5937   2.6498   2.7209   2.7512   2.7885   2.8123   2.8238
     2.9347   2.9719   3.0435   3.0584   3.0692   3.2351   3.2524   3.2592
     3.2752   3.2883   3.3016   3.3147   3.3224   3.3321   3.3453   3.3566
     3.3772   3.3832   3.3942   3.4139   3.4288   3.4388   3.4690   3.7712
     3.8631   3.8984   3.9656   3.9836   4.2044   4.3129   4.6440   4.7973
     4.9806   5.1282   5.3266   5.5595   5.9232   5.9612   5.9686   6.1197
     6.2005   6.2512   6.3635   6.4052   6.9148   7.0045   7.0862   7.1949
     7.7132   7.7877   7.9016   7.9071   8.0276   8.1437   8.2108   8.2900
     8.3630   8.4649   8.5126   8.6965   8.7241   8.7786   8.8885

     occupation numbers 
     1.0000   1.0000   1.0000   1.0000   1.0000   1.0000   1.0000   1.0000
     1.0000   1.0000   1.0000   1.0000   1.0000   1.0000   1.0000   1.0000
     1.0000   1.0000   1.0000   1.0000   1.0000   1.0000   1.0000   1.0000
     1.0000   1.0000   1.0000   1.0000   1.0000   1.0000   1.0000   1.0000
     1.0000   1.0000   1.0000   1.0000   1.0000   1.0000   1.0000   1.0000
     1.0000   1.0000   1.0000   1.0000   1.0000   1.0000   1.0000   1.0000
     1.0000   1.0000   1.0000   1.0000   1.0000   1.0000   1.0000   1.0000
     1.0000   1.0000   1.0000   1.0000   1.0000   1.0000   1.0000   1.0000
     1.0000   1.0000   1.0000   1.0000   1.0000   1.0000   1.0000   1.0000
     1.0000   1.0000   1.0000   1.0000   1.0000   1.0000   1.0000   1.0000
     1.0000   1.0000   1.0000   1.0000   1.0000   1.0000   1.0000   1.0000
     1.0000   1.0000   1.0000   1.0000   1.0000   1.0000   1.0000   1.0000
     1.0000   1.0000   1.0000   1.0000   1.0000   1.0000   1.0000   1.0000
     1.0000   1.0000   1.0000   1.0000   1.0000   1.0000   1.0000   1.0000
     1.0000   1.0000   1.0000   1.0000   1.0000   1.0000   1.0000   1.0000
     1.0000   1.0000   1.0000   1.0000   1.0000   1.0000   1.0000   1.0000
     1.0000   1.0000   1.0000   1.0000   1.0000   1.0000   1.0000   1.0000
     1.0000   1.0000   1.0000   1.0000   1.0000   1.0000   1.0000   1.0000
     1.0000   1.0000   1.0000   1.0000   1.0000   1.0000   1.0000   1.0000
     1.0000   1.0000   1.0000   1.0000   1.0000   1.0000   1.0000   1.0000
     1.0000   1.0000   1.0000   0.9999   0.9999   0.9999   0.9999   0.9994
     0.9991   0.9986   0.9985   0.9981   0.9978   0.9974   0.9969   0.9966
     0.9962   0.9955   0.9953   0.9949   0.9940   0.9928   0.9915   0.9897
     0.9880   0.9875   0.9860   0.9838   0.9805   0.9782   0.9662   0.9579
     0.9523   0.9479   0.9384   0.9244   0.9178   0.9091   0.9032   0.9002
     0.8683   0.8561   0.8306   0.8250   0.8208   0.7493   0.7410   0.7377
     0.7299   0.7235   0.7168   0.7102   0.7062   0.7013   0.6944   0.6885
     0.6776   0.6744   0.6685   0.6578   0.6497   0.6442   0.6273   0.4507
     0.3973   0.3772   0.3400   0.3302   0.2215   0.1766   0.0778   0.0497
     0.0274   0.0162   0.0075   0.0027   0.0005   0.0004   0.0004   0.0002
     0.0001   0.0001   0.0000   0.0000   0.0000   0.0000   0.0000   0.0000
     0.0000   0.0000   0.0000   0.0000   0.0000   0.0000   0.0000   0.0000
     0.0000   0.0000   0.0000   0.0000   0.0000   0.0000   0.0000

          k = 0.2500-0.5000 0.0000 ( 65138 PWs)   bands (ev):

   -92.3387 -92.2828 -92.1924 -92.1443 -92.0851 -92.0449 -92.0276 -91.9048
   -55.6918 -55.6691 -55.5503 -55.5398 -55.5319 -55.5265 -55.4881 -55.4621
   -55.4457 -55.4439 -55.4342 -55.3937 -55.3757 -55.3368 -55.3183 -55.2848
   -55.2795 -55.2338 -55.2318 -55.2307 -55.2222 -55.1791 -55.1584 -55.0717
   -30.9236 -30.9078 -30.8362 -30.7653 -30.7232 -30.6793 -30.5941 -30.3067
   -29.4885 -29.4466 -29.4214 -29.3128 -22.2523 -14.6227 -14.5783 -14.5084
   -14.3994 -14.3637 -14.2449 -14.1575 -14.0321 -13.7823 -13.7176 -13.6715
   -13.6413 -13.6205 -13.6045 -13.5874 -13.5538 -13.5420 -13.5066 -13.4665
   -13.4557 -13.4175 -13.3107 -13.2629 -13.2294 -13.1830 -13.1416 -13.1142
   -13.0415 -13.0091 -12.8548 -12.7914 -12.7842 -12.7411 -12.6896 -12.6789
   -12.6366 -12.6162 -12.5913 -12.5697 -12.5602 -12.5274 -12.5094 -12.4408
   -12.4210 -12.3043 -12.2745 -12.2535 -12.1696 -12.0747 -11.9699 -11.9590
   -11.8311 -11.8029 -11.4171 -11.4052 -11.3940 -11.3669 -11.3356 -11.3068
   -11.2663 -11.2376 -11.2162 -11.1701 -11.1445 -11.1333  -5.9343  -3.1542
    -3.1492  -2.0928  -2.0267  -1.8967  -1.8194  -1.6919  -1.6074  -1.4830
    -1.3323  -1.2796  -1.2572  -1.1943  -1.1808  -1.0832  -1.0175  -0.9316
    -0.8839  -0.8743  -0.8095  -0.7683  -0.7333  -0.6865  -0.6500  -0.6146
    -0.5735  -0.5626  -0.5179  -0.4895  -0.4489  -0.4176  -0.3500  -0.2505
    -0.2101  -0.1333  -0.0695  -0.0222   0.0229   0.0452   0.0929   0.2562
     0.2655   0.3638   0.4083   0.4153   0.4621   0.4898   0.5316   0.5593
     0.6326   0.8909   0.9836   1.0545   1.1200   1.3798   1.4053   1.4937
     1.5227   1.6909   1.7217   1.7664   1.7899   1.8081   1.8275   1.8874
     1.9304   1.9688   2.0445   2.1292   2.1724   2.1928   2.2044   2.2414
     2.2562   2.2599   2.3053   2.3194   2.3362   2.3638   2.3889   2.4156
     2.4462   2.5048   2.5413   2.6180   2.7630   2.9138   2.9292   2.9474
     2.9727   2.9979   3.0238   3.0407   3.0524   3.0609   3.0678   3.0963
     3.1854   3.2324   3.2542   3.2551   3.2719   3.2926   3.3065   3.3252
     3.3323   3.3621   3.3744   3.3910   3.3993   3.4076   3.4188   3.9335
     3.9431   4.1024   4.1515   4.4874   4.5321   4.5368   4.6569   5.0277
     5.1365   5.2632   5.4240   5.4933   5.6190   5.6962   5.8756   5.9403
     6.0767   6.1125   6.2765   6.5051   6.5593   6.6637   7.0864   7.2916
     7.5672   7.7036   7.9640   8.0748   8.1683   8.1989   8.3269   8.3975
     8.5192   8.6080   8.6904   8.8026   8.8398   8.9233   8.9643

     occupation numbers 
     1.0000   1.0000   1.0000   1.0000   1.0000   1.0000   1.0000   1.0000
     1.0000   1.0000   1.0000   1.0000   1.0000   1.0000   1.0000   1.0000
     1.0000   1.0000   1.0000   1.0000   1.0000   1.0000   1.0000   1.0000
     1.0000   1.0000   1.0000   1.0000   1.0000   1.0000   1.0000   1.0000
     1.0000   1.0000   1.0000   1.0000   1.0000   1.0000   1.0000   1.0000
     1.0000   1.0000   1.0000   1.0000   1.0000   1.0000   1.0000   1.0000
     1.0000   1.0000   1.0000   1.0000   1.0000   1.0000   1.0000   1.0000
     1.0000   1.0000   1.0000   1.0000   1.0000   1.0000   1.0000   1.0000
     1.0000   1.0000   1.0000   1.0000   1.0000   1.0000   1.0000   1.0000
     1.0000   1.0000   1.0000   1.0000   1.0000   1.0000   1.0000   1.0000
     1.0000   1.0000   1.0000   1.0000   1.0000   1.0000   1.0000   1.0000
     1.0000   1.0000   1.0000   1.0000   1.0000   1.0000   1.0000   1.0000
     1.0000   1.0000   1.0000   1.0000   1.0000   1.0000   1.0000   1.0000
     1.0000   1.0000   1.0000   1.0000   1.0000   1.0000   1.0000   1.0000
     1.0000   1.0000   1.0000   1.0000   1.0000   1.0000   1.0000   1.0000
     1.0000   1.0000   1.0000   1.0000   1.0000   1.0000   1.0000   1.0000
     1.0000   1.0000   1.0000   1.0000   1.0000   1.0000   1.0000   1.0000
     1.0000   1.0000   1.0000   1.0000   1.0000   1.0000   1.0000   1.0000
     1.0000   1.0000   1.0000   1.0000   1.0000   1.0000   1.0000   1.0000
     1.0000   1.0000   1.0000   1.0000   1.0000   1.0000   1.0000   1.0000
     1.0000   1.0000   1.0000   1.0000   0.9999   0.9997   0.9996   0.9994
     0.9993   0.9985   0.9982   0.9978   0.9976   0.9974   0.9971   0.9962
     0.9955   0.9947   0.9927   0.9897   0.9878   0.9868   0.9862   0.9841
     0.9832   0.9830   0.9800   0.9789   0.9776   0.9753   0.9731   0.9706
     0.9674   0.9605   0.9557   0.9439   0.9152   0.8748   0.8700   0.8642
     0.8558   0.8472   0.8379   0.8317   0.8273   0.8240   0.8214   0.8101
     0.7721   0.7505   0.7402   0.7397   0.7315   0.7213   0.7143   0.7048
     0.7012   0.6857   0.6791   0.6703   0.6658   0.6613   0.6552   0.3576
     0.3523   0.2690   0.2455   0.1175   0.1050   0.1037   0.0751   0.0233
     0.0157   0.0097   0.0050   0.0037   0.0021   0.0014   0.0006   0.0004
     0.0002   0.0002   0.0001   0.0000   0.0000   0.0000   0.0000   0.0000
     0.0000   0.0000   0.0000   0.0000   0.0000   0.0000   0.0000   0.0000
     0.0000   0.0000   0.0000   0.0000   0.0000   0.0000   0.0000

          k =-0.5000-0.5000 0.0000 ( 65132 PWs)   bands (ev):

   -92.3387 -92.2828 -92.1924 -92.1443 -92.0851 -92.0449 -92.0276 -91.9048
   -55.6918 -55.6691 -55.5503 -55.5398 -55.5319 -55.5265 -55.4881 -55.4621
   -55.4457 -55.4439 -55.4342 -55.3937 -55.3757 -55.3368 -55.3183 -55.2848
   -55.2795 -55.2338 -55.2318 -55.2307 -55.2222 -55.1791 -55.1584 -55.0717
   -30.9214 -30.9100 -30.8361 -30.7650 -30.7232 -30.6797 -30.5942 -30.3068
   -29.4875 -29.4476 -29.4210 -29.3133 -22.2523 -14.5758 -14.5507 -14.4343
   -14.4209 -14.3302 -14.2902 -14.2651 -14.1304 -13.7821 -13.6304 -13.6203
   -13.5820 -13.5675 -13.5484 -13.5350 -13.5041 -13.4950 -13.4821 -13.4767
   -13.4613 -13.3809 -13.3735 -13.3545 -13.3239 -13.3105 -13.2178 -13.2082
   -13.0860 -13.0609 -12.8066 -12.7793 -12.7162 -12.7005 -12.6741 -12.6605
   -12.6326 -12.6274 -12.6206 -12.6019 -12.5404 -12.5288 -12.4994 -12.4773
   -12.4466 -12.2686 -12.2509 -12.2422 -12.1861 -12.0505 -11.9664 -11.9297
   -11.8185 -11.8133 -11.4130 -11.4016 -11.3839 -11.3665 -11.3325 -11.3139
   -11.2793 -11.2175 -11.1983 -11.1925 -11.1425 -11.1393  -5.9343  -3.1541
    -3.1494  -1.8697  -1.7934  -1.7830  -1.7100  -1.6712  -1.5930  -1.5251
    -1.4002  -1.2825  -1.2527  -1.2141  -1.1556  -1.0846  -1.0699  -0.9991
    -0.9566  -0.8412  -0.8129  -0.7656  -0.7324  -0.6685  -0.6247  -0.6055
    -0.5942  -0.5422  -0.4936  -0.4827  -0.3675  -0.3097  -0.2615  -0.2143
    -0.1911  -0.1796  -0.1419  -0.1013  -0.0681  -0.0538   0.0329   0.0980
     0.1483   0.1690   0.2448   0.2943   0.3104   0.3667   0.3822   0.4039
     0.4136   0.8576   0.9009   1.0004   1.0309   1.4130   1.4248   1.4579
     1.4977   1.7731   1.7919   1.7998   1.8373   1.9732   2.0691   2.0949
     2.1305   2.1418   2.1693   2.1794   2.2108   2.2179   2.2314   2.2417
     2.3000   2.3050   2.3303   2.3446   2.3628   2.3748   2.4143   2.4432
     2.4518   2.4892   2.5114   2.5874   2.6545   2.9243   2.9584   2.9740
     2.9974   3.0070   3.0276   3.0353   3.0450   3.0478   3.0733   3.0823
     3.0901   3.1108   3.1250   3.1862   3.1895   3.2111   3.2252   3.2341
     3.2535   3.2605   3.2687   3.3698   3.3746   3.4028   3.4131   4.3534
     4.3764   4.4108   4.4171   4.6792   4.7489   4.7792   5.0192   5.1383
     5.1478   5.2257   5.3487   5.4032   5.4320   5.5620   5.6447   5.7092
[...]
     0.0000   0.0000   0.0000   0.0000   0.0000   0.0000   0.0000   0.0000
     0.0000   0.0000   0.0000   0.0000   0.0000   0.0000   0.0000

          k =-0.5000 0.0000 0.0000 ( 65180 PWs)   bands (ev):

   -92.3387 -92.2828 -92.1924 -92.1443 -92.0851 -92.0449 -92.0276 -91.9048
   -55.6918 -55.6691 -55.5503 -55.5398 -55.5319 -55.5265 -55.4881 -55.4621
   -55.4457 -55.4439 -55.4342 -55.3937 -55.3757 -55.3368 -55.3183 -55.2848
   -55.2795 -55.2338 -55.2318 -55.2307 -55.2222 -55.1791 -55.1584 -55.0717
   -30.9218 -30.9103 -30.8366 -30.7646 -30.7226 -30.6794 -30.5944 -30.3066
   -29.4887 -29.4482 -29.4198 -29.3126 -22.2523 -14.6577 -14.6074 -14.5459
   -14.4433 -14.3320 -14.1896 -14.0464 -13.9158 -13.7866 -13.7756 -13.7710
   -13.7504 -13.7008 -13.6387 -13.6043 -13.5615 -13.5560 -13.5411 -13.4847
   -13.4823 -13.3808 -13.1984 -13.1831 -13.1394 -13.1310 -13.0986 -13.0096
   -12.9836 -12.9174 -12.8992 -12.8938 -12.8130 -12.7025 -12.7024 -12.6935
   -12.6769 -12.6597 -12.6173 -12.6017 -12.5896 -12.5660 -12.5009 -12.3481
   -12.3277 -12.2881 -12.2795 -12.2532 -12.1890 -12.1425 -12.0301 -11.9762
   -11.8267 -11.7875 -11.4208 -11.3994 -11.3926 -11.3769 -11.3592 -11.3182
   -11.2549 -11.2378 -11.2059 -11.1593 -11.1501 -11.1345  -5.9343  -3.1538
    -3.1494  -2.2240  -2.1853  -2.0202  -1.9814  -1.6697  -1.5951  -1.4444
    -1.3272  -1.2890  -1.2435  -1.1944  -1.1687  -1.0472  -1.0017  -0.9881
    -0.9045  -0.8697  -0.8556  -0.8221  -0.7670  -0.6971  -0.6667  -0.6409
    -0.5470  -0.4965  -0.4483  -0.4162  -0.3939  -0.3663  -0.3172  -0.2926
    -0.2543  -0.1616  -0.0859  -0.0268   0.0371   0.1981   0.2353   0.3008
     0.3214   0.3856   0.4092   0.5388   0.5758   0.6171   0.7985   0.8964
     0.9424   1.0114   1.0841   1.2161   1.2232   1.3572   1.3849   1.4380
     1.4607   1.5019   1.5173   1.5592   1.5882   1.6506   1.6971   1.7454
     1.7527   2.0506   2.0523   2.0745   2.0848   2.2076   2.2182   2.2248
     2.2428   2.2716   2.2835   2.3215   2.3513   2.3692   2.4357   2.4397
     2.4975   2.5130   2.5757   2.6769   2.7811   2.8582   2.8725   2.9547
     2.9868   3.0124   3.0420   3.0672   3.0795   3.0907   3.0980   3.1260
     3.1950   3.2392   3.2812   3.3135   3.3579   3.3627   3.3638   3.3763
     3.3903   3.4023   3.4174   3.4205   3.4423   3.4475   3.4687   3.4896
     3.4942   3.6228   3.6266   4.4166   4.4640   4.5290   4.6584   4.9713
     5.1312   5.2555   5.3208   5.4489   5.6812   5.8724   5.9253   5.9887
     6.1462   6.3792   6.3877   6.4874   6.9687   7.0450   7.1917   7.4410
     7.5135   7.6577   7.7125   7.9431   8.0914   8.1525   8.1947   8.4000
     8.4831   8.6413   8.6723   8.7295   8.7882   8.8622   8.9458

     occupation numbers 
     1.0000   1.0000   1.0000   1.0000   1.0000   1.0000   1.0000   1.0000
     1.0000   1.0000   1.0000   1.0000   1.0000   1.0000   1.0000   1.0000
     1.0000   1.0000   1.0000   1.0000   1.0000   1.0000   1.0000   1.0000
     1.0000   1.0000   1.0000   1.0000   1.0000   1.0000   1.0000   1.0000
     1.0000   1.0000   1.0000   1.0000   1.0000   1.0000   1.0000   1.0000
     1.0000   1.0000   1.0000   1.0000   1.0000   1.0000   1.0000   1.0000
     1.0000   1.0000   1.0000   1.0000   1.0000   1.0000   1.0000   1.0000
     1.0000   1.0000   1.0000   1.0000   1.0000   1.0000   1.0000   1.0000
     1.0000   1.0000   1.0000   1.0000   1.0000   1.0000   1.0000   1.0000
     1.0000   1.0000   1.0000   1.0000   1.0000   1.0000   1.0000   1.0000
     1.0000   1.0000   1.0000   1.0000   1.0000   1.0000   1.0000   1.0000
     1.0000   1.0000   1.0000   1.0000   1.0000   1.0000   1.0000   1.0000
     1.0000   1.0000   1.0000   1.0000   1.0000   1.0000   1.0000   1.0000
     1.0000   1.0000   1.0000   1.0000   1.0000   1.0000   1.0000   1.0000
     1.0000   1.0000   1.0000   1.0000   1.0000   1.0000   1.0000   1.0000
     1.0000   1.0000   1.0000   1.0000   1.0000   1.0000   1.0000   1.0000
     1.0000   1.0000   1.0000   1.0000   1.0000   1.0000   1.0000   1.0000
     1.0000   1.0000   1.0000   1.0000   1.0000   1.0000   1.0000   1.0000
     1.0000   1.0000   1.0000   1.0000   1.0000   1.0000   1.0000   1.0000
     1.0000   1.0000   1.0000   1.0000   1.0000   1.0000   1.0000   1.0000
     1.0000   1.0000   0.9999   0.9999   0.9999   0.9997   0.9997   0.9996
     0.9995   0.9994   0.9994   0.9992   0.9991   0.9988   0.9984   0.9980
     0.9980   0.9925   0.9924   0.9917   0.9913   0.9860   0.9854   0.9851
     0.9840   0.9823   0.9815   0.9788   0.9764   0.9749   0.9685   0.9681
     0.9614   0.9595   0.9507   0.9333   0.9109   0.8910   0.8870   0.8618
     0.8510   0.8420   0.8312   0.8216   0.8168   0.8123   0.8094   0.7979
     0.7678   0.7473   0.7270   0.7108   0.6879   0.6853   0.6847   0.6781
     0.6707   0.6641   0.6560   0.6543   0.6422   0.6393   0.6275   0.6157
     0.6131   0.5384   0.5362   0.1396   0.1245   0.1058   0.0748   0.0283
     0.0160   0.0100   0.0077   0.0045   0.0015   0.0006   0.0004   0.0003
     0.0001   0.0000   0.0000   0.0000   0.0000   0.0000   0.0000   0.0000
     0.0000   0.0000   0.0000   0.0000   0.0000   0.0000   0.0000   0.0000
     0.0000   0.0000   0.0000   0.0000   0.0000   0.0000   0.0000

          k =-0.2500 0.2500 0.0000 ( 65198 PWs)   bands (ev):

   -92.3387 -92.2828 -92.1924 -92.1443 -92.0851 -92.0449 -92.0276 -91.9048
   -55.6918 -55.6691 -55.5503 -55.5398 -55.5319 -55.5265 -55.4881 -55.4621
   -55.4457 -55.4439 -55.4342 -55.3937 -55.3757 -55.3368 -55.3183 -55.2848
   -55.2795 -55.2338 -55.2318 -55.2307 -55.2222 -55.1791 -55.1584 -55.0717
   -30.9238 -30.9079 -30.8365 -30.7651 -30.7230 -30.6791 -30.5942 -30.3066
   -29.4891 -29.4469 -29.4208 -29.3125 -22.2523 -14.6597 -14.6216 -14.5474
   -14.4293 -14.3243 -14.1975 -14.1068 -13.9072 -13.7830 -13.7616 -13.7315
   -13.7214 -13.6731 -13.6479 -13.6327 -13.6216 -13.5868 -13.4827 -13.4718
   -13.3195 -13.2934 -13.2652 -13.2440 -13.2126 -13.1433 -13.1095 -13.0834
   -12.9917 -12.9613 -12.8725 -12.7976 -12.7724 -12.7451 -12.6921 -12.6742
   -12.6490 -12.6244 -12.6141 -12.5853 -12.5748 -12.5427 -12.5216 -12.4558
   -12.4184 -12.3442 -12.3393 -12.2531 -12.1486 -12.1066 -12.0902 -11.9319
   -11.7845 -11.7250 -11.4408 -11.4193 -11.3917 -11.3797 -11.3389 -11.3036
   -11.2810 -11.2596 -11.2371 -11.1518 -11.1064 -11.0970  -5.9343  -3.1540
    -3.1493  -2.3091  -2.0993  -1.9791  -1.8916  -1.7716  -1.7045  -1.5048
    -1.3561  -1.3372  -1.3107  -1.2181  -1.1821  -1.0897  -1.0570  -1.0304
    -0.8863  -0.8315  -0.7644  -0.7346  -0.6762  -0.6531  -0.6128  -0.5837
    -0.5436  -0.4818  -0.4346  -0.3748  -0.3049  -0.2797  -0.2260  -0.1983
    -0.1535  -0.0977  -0.0569  -0.0110   0.0841   0.1216   0.1281   0.1769
     0.2416   0.3103   0.3563   0.3816   0.4509   0.4830   0.7441   0.9075
     0.9546   0.9892   1.0464   1.0940   1.1564   1.2186   1.2455   1.5288
     1.6456   1.6847   1.7148   1.7242   1.7670   1.7842   1.8281   1.8581
     1.8750   1.9011   1.9399   1.9537   1.9998   2.0146   2.0590   2.1394
     2.1591   2.1782   2.2141   2.2431   2.2813   2.3318   2.4463   2.5543
     2.5897   2.6317   2.6534   2.7206   2.7633   2.7907   2.8121   2.8341
     2.9355   2.9703   3.0438   3.0604   3.0680   3.2418   3.2505   3.2640
     3.2745   3.2851   3.2984   3.3044   3.3220   3.3300   3.3469   3.3560
     3.3690   3.3781   3.3844   3.4160   3.4279   3.4377   3.4712   3.7643
     3.8454   3.9017   3.9718   3.9900   4.1884   4.3215   4.6417   4.7993
     4.9743   5.1338   5.3366   5.5637   5.9128   5.9234   6.0078   6.1303
     6.1984   6.2433   6.3533   6.4235   6.9280   6.9529   7.1029   7.2229
     7.7058   7.8115   7.8504   7.9232   7.9835   8.1707   8.2101   8.3315
     8.3934   8.4200   8.5191   8.7056   8.7217   8.7752   8.8869

     occupation numbers 
     1.0000   1.0000   1.0000   1.0000   1.0000   1.0000   1.0000   1.0000
     1.0000   1.0000   1.0000   1.0000   1.0000   1.0000   1.0000   1.0000
     1.0000   1.0000   1.0000   1.0000   1.0000   1.0000   1.0000   1.0000
     1.0000   1.0000   1.0000   1.0000   1.0000   1.0000   1.0000   1.0000
     1.0000   1.0000   1.0000   1.0000   1.0000   1.0000   1.0000   1.0000
     1.0000   1.0000   1.0000   1.0000   1.0000   1.0000   1.0000   1.0000
     1.0000   1.0000   1.0000   1.0000   1.0000   1.0000   1.0000   1.0000
     1.0000   1.0000   1.0000   1.0000   1.0000   1.0000   1.0000   1.0000
     1.0000   1.0000   1.0000   1.0000   1.0000   1.0000   1.0000   1.0000
     1.0000   1.0000   1.0000   1.0000   1.0000   1.0000   1.0000   1.0000
     1.0000   1.0000   1.0000   1.0000   1.0000   1.0000   1.0000   1.0000
     1.0000   1.0000   1.0000   1.0000   1.0000   1.0000   1.0000   1.0000
     1.0000   1.0000   1.0000   1.0000   1.0000   1.0000   1.0000   1.0000
     1.0000   1.0000   1.0000   1.0000   1.0000   1.0000   1.0000   1.0000
     1.0000   1.0000   1.0000   1.0000   1.0000   1.0000   1.0000   1.0000
     1.0000   1.0000   1.0000   1.0000   1.0000   1.0000   1.0000   1.0000
     1.0000   1.0000   1.0000   1.0000   1.0000   1.0000   1.0000   1.0000
     1.0000   1.0000   1.0000   1.0000   1.0000   1.0000   1.0000   1.0000
     1.0000   1.0000   1.0000   1.0000   1.0000   1.0000   1.0000   1.0000
     1.0000   1.0000   1.0000   1.0000   1.0000   1.0000   1.0000   1.0000
     1.0000   1.0000   1.0000   0.9999   0.9999   0.9999   0.9999   0.9993
     0.9988   0.9985   0.9983   0.9982   0.9978   0.9976   0.9971   0.9967
     0.9964   0.9960   0.9953   0.9950   0.9939   0.9935   0.9922   0.9893
     0.9884   0.9875   0.9857   0.9840   0.9816   0.9780   0.9674   0.9538
     0.9485   0.9416   0.9377   0.9245   0.9151   0.9086   0.9032   0.8975
     0.8680   0.8566   0.8305   0.8242   0.8213   0.7461   0.7419   0.7354
     0.7303   0.7250   0.7184   0.7154   0.7065   0.7024   0.6936   0.6889
     0.6820   0.6771   0.6738   0.6567   0.6502   0.6448   0.6261   0.4547
     0.4074   0.3753   0.3366   0.3268   0.2286   0.1733   0.0783   0.0494
     0.0280   0.0159   0.0072   0.0027   0.0005   0.0005   0.0003   0.0001
     0.0001   0.0001   0.0000   0.0000   0.0000   0.0000   0.0000   0.0000
     0.0000   0.0000   0.0000   0.0000   0.0000   0.0000   0.0000   0.0000
     0.0000   0.0000   0.0000   0.0000   0.0000   0.0000   0.0000

          k =-0.5000 0.2500 0.0000 ( 65138 PWs)   bands (ev):

   -92.3387 -92.2828 -92.1924 -92.1443 -92.0851 -92.0449 -92.0276 -91.9048
   -55.6918 -55.6691 -55.5503 -55.5398 -55.5319 -55.5265 -55.4881 -55.4621
   -55.4457 -55.4439 -55.4342 -55.3937 -55.3757 -55.3368 -55.3183 -55.2848
   -55.2795 -55.2338 -55.2318 -55.2307 -55.2222 -55.1791 -55.1584 -55.0717
   -30.9216 -30.9101 -30.8363 -30.7648 -30.7229 -30.6795 -30.5943 -30.3067
   -29.4881 -29.4479 -29.4204 -29.3129 -22.2523 -14.6250 -14.5809 -14.5027
   -14.4083 -14.3626 -14.2359 -14.1515 -14.0280 -13.7824 -13.7118 -13.6824
   -13.6698 -13.6246 -13.6090 -13.5776 -13.5486 -13.5409 -13.5171 -13.4829
   -13.4646 -13.3690 -13.2830 -13.2440 -13.2323 -13.2225 -13.1587 -13.1160
   -13.0320 -12.9902 -12.8488 -12.8146 -12.7640 -12.7167 -12.6794 -12.6658
   -12.6621 -12.6311 -12.6170 -12.5929 -12.5833 -12.5478 -12.5101 -12.4055
   -12.3870 -12.2722 -12.2658 -12.2507 -12.1873 -12.0912 -11.9783 -11.9714
   -11.8227 -11.7980 -11.4134 -11.4005 -11.3865 -11.3749 -11.3531 -11.3230
   -11.2426 -11.2331 -11.2108 -11.1738 -11.1460 -11.1370  -5.9343  -3.1540
    -3.1494  -2.0821  -2.0398  -1.8900  -1.8482  -1.6891  -1.6138  -1.4687
    -1.3337  -1.2776  -1.2503  -1.2106  -1.1711  -1.0912  -0.9767  -0.9198
    -0.8967  -0.8718  -0.7955  -0.7661  -0.7294  -0.7099  -0.6493  -0.6222
    -0.5817  -0.5462  -0.5175  -0.4606  -0.4346  -0.3927  -0.3590  -0.2553
    -0.2280  -0.1447  -0.0803  -0.0479   0.0062   0.0944   0.1254   0.2281
     0.2607   0.3193   0.3679   0.3888   0.4721   0.4997   0.5308   0.5892
     0.6265   0.9253   0.9836   1.0524   1.0772   1.3642   1.4188   1.4952
     1.5222   1.7024   1.7399   1.7768   1.7918   1.8097   1.8276   1.8967
     1.9373   1.9761   2.0024   2.1198   2.1545   2.1924   2.2025   2.2406
     2.2669   2.2794   2.2947   2.3181   2.3400   2.3836   2.4074   2.4377
     2.4613   2.4884   2.5538   2.6699   2.7751   2.8031   2.8721   2.9132
     2.9706   3.0090   3.0173   3.0396   3.0549   3.0685   3.0900   3.1107
     3.1948   3.2354   3.2494   3.2564   3.2770   3.3009   3.3132   3.3277
     3.3399   3.3596   3.3726   3.3842   3.3915   3.4017   3.4136   3.9354
     3.9781   4.1328   4.1553   4.4252   4.4907   4.5413   4.7482   5.0398
     5.1348   5.2588   5.3559   5.4530   5.7184   5.7651   5.8235   5.9136
     6.0558   6.1014   6.2616   6.5227   6.5813   6.6660   7.0843   7.2656
     7.5765   7.7060   7.9760   8.0636   8.1826   8.1976   8.3181   8.3648
     8.5421   8.5838   8.6826   8.8244   8.8341   8.9216   8.9827

     occupation numbers 
     1.0000   1.0000   1.0000   1.0000   1.0000   1.0000   1.0000   1.0000
     1.0000   1.0000   1.0000   1.0000   1.0000   1.0000   1.0000   1.0000
     1.0000   1.0000   1.0000   1.0000   1.0000   1.0000   1.0000   1.0000
     1.0000   1.0000   1.0000   1.0000   1.0000   1.0000   1.0000   1.0000
     1.0000   1.0000   1.0000   1.0000   1.0000   1.0000   1.0000   1.0000
     1.0000   1.0000   1.0000   1.0000   1.0000   1.0000   1.0000   1.0000
     1.0000   1.0000   1.0000   1.0000   1.0000   1.0000   1.0000   1.0000
     1.0000   1.0000   1.0000   1.0000   1.0000   1.0000   1.0000   1.0000
     1.0000   1.0000   1.0000   1.0000   1.0000   1.0000   1.0000   1.0000
     1.0000   1.0000   1.0000   1.0000   1.0000   1.0000   1.0000   1.0000
     1.0000   1.0000   1.0000   1.0000   1.0000   1.0000   1.0000   1.0000
     1.0000   1.0000   1.0000   1.0000   1.0000   1.0000   1.0000   1.0000
     1.0000   1.0000   1.0000   1.0000   1.0000   1.0000   1.0000   1.0000
     1.0000   1.0000   1.0000   1.0000   1.0000   1.0000   1.0000   1.0000
     1.0000   1.0000   1.0000   1.0000   1.0000   1.0000   1.0000   1.0000
     1.0000   1.0000   1.0000   1.0000   1.0000   1.0000   1.0000   1.0000
     1.0000   1.0000   1.0000   1.0000   1.0000   1.0000   1.0000   1.0000
     1.0000   1.0000   1.0000   1.0000   1.0000   1.0000   1.0000   1.0000
     1.0000   1.0000   1.0000   1.0000   1.0000   1.0000   1.0000   1.0000
     1.0000   1.0000   1.0000   1.0000   1.0000   1.0000   1.0000   1.0000
     1.0000   1.0000   1.0000   1.0000   0.9999   0.9997   0.9996   0.9994
     0.9993   0.9984   0.9981   0.9977   0.9976   0.9974   0.9971   0.9961
     0.9953   0.9945   0.9938   0.9900   0.9886   0.9868   0.9863   0.9842
     0.9826   0.9817   0.9807   0.9790   0.9773   0.9736   0.9714   0.9683
     0.9657   0.9625   0.9539   0.9347   0.9123   0.9055   0.8871   0.8749
     0.8565   0.8432   0.8403   0.8321   0.8263   0.8211   0.8126   0.8042
     0.7679   0.7491   0.7424   0.7391   0.7290   0.7171   0.7110   0.7036
     0.6972   0.6870   0.6801   0.6739   0.6700   0.6645   0.6580   0.3565
     0.3332   0.2544   0.2438   0.1367   0.1166   0.1025   0.0577   0.0223
     0.0158   0.0098   0.0066   0.0044   0.0013   0.0010   0.0008   0.0005
     0.0002   0.0002   0.0001   0.0000   0.0000   0.0000   0.0000   0.0000
     0.0000   0.0000   0.0000   0.0000   0.0000   0.0000   0.0000   0.0000
     0.0000   0.0000   0.0000   0.0000   0.0000   0.0000   0.0000

     the Fermi energy is     3.6877 ev

!    total energy              =   -4482.97396396 Ry
     estimated scf accuracy    <          7.7E-09 Ry
     smearing contrib. (-TS)   =      -1.17262620 Ry
     internal energy E=F+TS    =   -4481.80133776 Ry

     The total energy is F=E-TS. E is the sum of the following terms:
     one-electron contribution =  -20253.73076846 Ry
     hartree contribution      =   10266.52525670 Ry
     xc contribution           =    -701.58468593 Ry
     ewald contribution        =    6492.64340118 Ry
     one-center paw contrib.   =    -285.65454125 Ry
      -> PAW hartree energy AE =      25.17783937 Ry
      -> PAW hartree energy PS =     -25.06161030 Ry
      -> PAW xc energy AE      =     -16.51954261 Ry
      -> PAW xc energy PS      =       6.87913152 Ry
      -> total E_H with PAW    =   10266.64148576 Ry
      -> total E_XC with PAW   =    -711.22509702 Ry

     convergence has been achieved in  52 iterations

     Writing all to output data dir /bsuhome/zayahcortright/scratch/pwscf.save/
 
     init_run     :      7.76s CPU      8.67s WALL (       1 calls)
     electrons    :    784.94s CPU    819.71s WALL (       1 calls)

     Called by init_run:
     wfcinit      :      6.36s CPU      6.62s WALL (       1 calls)
     wfcinit:atom :      0.06s CPU      0.08s WALL (       5 calls)
     wfcinit:wfcr :      6.01s CPU      6.18s WALL (       5 calls)
     potinit      :      0.18s CPU      0.20s WALL (       1 calls)
     hinit0       :      0.36s CPU      0.75s WALL (       1 calls)

     Called by electrons:
     c_bands      :    628.23s CPU    635.87s WALL (      52 calls)
     sum_band     :    118.33s CPU    133.71s WALL (      52 calls)
     v_of_rho     :      5.61s CPU      5.99s WALL (      53 calls)
     v_h          :      0.49s CPU      0.49s WALL (      53 calls)
     v_xc         :      5.12s CPU      5.49s WALL (      53 calls)
     newd         :     17.36s CPU     28.30s WALL (      53 calls)
     PAW_pot      :      1.81s CPU      1.84s WALL (      53 calls)
     mix_rho      :     13.13s CPU     13.54s WALL (      52 calls)

     Called by c_bands:
     init_us_2    :      7.23s CPU      7.30s WALL (     525 calls)
     init_us_2:cp :      7.22s CPU      7.29s WALL (     525 calls)
     cegterg      :    590.59s CPU    597.89s WALL (     260 calls)

     Called by sum_band:
     sum_band:wei :      0.37s CPU      0.37s WALL (      52 calls)
     sum_band:loo :     98.61s CPU     99.43s WALL (      52 calls)
     sum_band:buf :      1.58s CPU      1.63s WALL (     260 calls)
     sum_band:ini :      3.32s CPU      3.34s WALL (     260 calls)
     sum_band:cal :     21.50s CPU     21.58s WALL (     260 calls)
     sum_band:bec :      0.64s CPU      0.68s WALL (     260 calls)
     addusdens    :     16.73s CPU     31.26s WALL (      52 calls)
                                        0.00s GPU  (      52 calls)
     addusd:skk   :      0.34s CPU      1.04s WALL (     208 calls)
                                        0.00s GPU  (     208 calls)

     Called by *egterg:
     cdiaghg      :     62.86s CPU     63.11s WALL (    1436 calls)
     cegterg:over :     43.74s CPU     43.98s WALL (    1176 calls)
     cegterg:upda :     32.75s CPU     33.30s WALL (    1176 calls)
     cegterg:last :     67.23s CPU     67.51s WALL (     482 calls)
     cdiaghg:chol :      3.64s CPU      3.66s WALL (    1436 calls)
     cdiaghg:inve :      3.81s CPU      3.82s WALL (    1436 calls)
     cdiaghg:para :      8.19s CPU      8.25s WALL (    2872 calls)
     h_psi        :    322.25s CPU    325.80s WALL (    1441 calls)
     s_psi        :     44.36s CPU     44.56s WALL (    1441 calls)
     g_psi        :      1.13s CPU      1.13s WALL (    1176 calls)

     Called by h_psi:
     h_psi:calbec :     49.98s CPU     50.24s WALL (    1441 calls)
     vloc_psi     :    225.15s CPU    227.38s WALL (    1441 calls)
     add_vuspsi   :     44.04s CPU     44.30s WALL (    1441 calls)

     General routines
     calbec       :     71.47s CPU     71.81s WALL (    1701 calls)
     fft          :      3.81s CPU      3.86s WALL (     687 calls)
     ffts         :      4.82s CPU      4.87s WALL (    5526 calls)
     fftw         :    189.16s CPU    190.74s WALL (  358386 calls)
     interpolate  :      0.45s CPU      0.46s WALL (      53 calls)
 
     Parallel routines

     PAW routines
     PAW_pot      :      1.81s CPU      1.84s WALL (      53 calls)
 
     PWSCF        :  13m14.68s CPU  13m55.74s WALL

 
   This run was terminated on:  21:42: 4  18Jun2024            

=------------------------------------------------------------------------------=
   JOB DONE.
=------------------------------------------------------------------------------=
