
     Program PWSCF v.7.2 starts on 18Jun2024 at 22:53:21 

     This program is part of the open-source Quantum ESPRESSO suite
     for quantum simulation of materials; please cite
         "P. Giannozzi et al., J. Phys.:Condens. Matter 21 395502 (2009);
         "P. Giannozzi et al., J. Phys.:Condens. Matter 29 465901 (2017);
         "P. Giannozzi et al., J. Chem. Phys. 152 154105 (2020);
          URL http://www.quantum-espresso.org", 
     in publications or presentations arising from this work. More details at
     http://www.quantum-espresso.org/quote

     Parallel version (MPI & OpenMP), running on      48 processor cores
     Number of MPI processes:                48
     Threads/MPI process:                     1

     MPI processes distributed on     1 nodes
     16420 MiB available memory on the printing compute node when the environment starts
 
     Reading input from espresso.pwi
Warning: card &CELL ignored
Warning: card / ignored
Warning: card &FCP ignored
Warning: card / ignored
Warning: card &RISM ignored
Warning: card / ignored

     Current dimensions of program PWSCF are:
     Max number of different atomic species (ntypx) = 10
     Max number of k-points (npk) =  40000
     Max angular momentum in pseudopotentials (lmaxx) =  4
     file O.pbe-n-kjpaw_psl.0.1.UPF: wavefunction(s)  2P renormalized
     signal trapping enabled: kill the code with -SIGUSR1 to stop cleanly the simulation 
 
     K-points division:     npool     =       2
     R & G space division:  proc/nbgrp/npool/nimage =      24
     Subspace diagonalization in iterative solution of the eigenvalue problem:
     one sub-group per band group will be used
     scalapack distributed-memory algorithm (size of sub-group:  3*  3 procs)

 
     Parallelization info
     --------------------
     sticks:   dense  smooth     PW     G-vecs:    dense   smooth      PW
     Min         350     175     47                61430    21716    3036
     Max         351     177     48                61449    21727    3041
     Sum        8421    4205   1137              1474595   521381   72913
 
     Using Slab Decomposition
 


     bravais-lattice index     =            0
     lattice parameter (alat)  =      14.8599  a.u.
     unit-cell volume          =    8305.1283 (a.u.)^3
     number of atoms/cell      =           51
     number of atomic types    =            4
     number of electrons       =       437.00
     number of Kohn-Sham states=          263
     kinetic-energy cutoff     =      60.0000  Ry
     charge density cutoff     =     480.0000  Ry
     scf convergence threshold =      1.0E-08
     mixing beta               =       0.1500
     number of iterations used =            8  local-TF  mixing
     Exchange-correlation= PBE
                           (   1   4   3   4   0   0   0)

     celldm(1)=  14.859904  celldm(2)=   0.000000  celldm(3)=   0.000000
     celldm(4)=   0.000000  celldm(5)=   0.000000  celldm(6)=   0.000000

     crystal axes: (cart. coord. in units of alat)
               a(1) = (   1.000000   0.000000   0.000000 )  
               a(2) = (   0.000000   1.000000   0.000000 )  
               a(3) = (   0.000000   0.000000   2.531036 )  

     reciprocal axes: (cart. coord. in units 2 pi/alat)
               b(1) = (  1.000000  0.000000  0.000000 )  
               b(2) = (  0.000000  1.000000  0.000000 )  
               b(3) = (  0.000000  0.000000  0.395095 )  


     PseudoPot. # 1 for Sr read from file:
     /bsuhome/zayahcortright/q-e/pseudo/Sr_pbe_v1.uspp.F.UPF
     MD5 check sum: 6b418c05fbe9db5448babca5e47b7a5b
     Pseudo is Ultrasoft + core correction, Zval = 10.0
     Generated by new atomic code, or converted to UPF format
     Using radial grid of  883 points,  6 beta functions with: 
                l(1) =   0
                l(2) =   0
                l(3) =   1
                l(4) =   1
                l(5) =   2
                l(6) =   2
     Q(r) pseudized with  6 coefficients,  rinner =    1.400   1.400   1.400
                                                       1.400   1.400

     PseudoPot. # 2 for O  read from file:
     /bsuhome/zayahcortright/q-e/pseudo/O.pbe-n-kjpaw_psl.0.1.UPF
     MD5 check sum: 0234752ac141de4415c5fc33072bef88
     Pseudo is Projector augmented-wave + core cor, Zval =  6.0
     Generated using "atomic" code by A. Dal Corso  v.5.0.99 svn rev. 10869
     Shape of augmentation charge: BESSEL
     Using radial grid of 1095 points,  4 beta functions with: 
                l(1) =   0
                l(2) =   0
                l(3) =   1
                l(4) =   1
     Q(r) pseudized with 0 coefficients 


     PseudoPot. # 3 for Co read from file:
     /bsuhome/zayahcortright/q-e/pseudo/Co_pbe_v1.2.uspp.F.UPF
     MD5 check sum: 5f91765df6ddd3222702df6e7b74a16d
     Pseudo is Ultrasoft + core correction, Zval = 17.0
     Generated by new atomic code, or converted to UPF format
     Using radial grid of  863 points,  6 beta functions with: 
                l(1) =   0
                l(2) =   0
                l(3) =   1
                l(4) =   1
                l(5) =   2
                l(6) =   2
     Q(r) pseudized with  8 coefficients,  rinner =    1.200   1.200   1.200
                                                       1.200   1.200

     PseudoPot. # 4 for H  read from file:
     /bsuhome/zayahcortright/q-e/pseudo/H.pbe-rrkjus_psl.1.0.0.UPF
     MD5 check sum: f52b6d4d1c606e5624b1dc7b2218f220
     Pseudo is Ultrasoft, Zval =  1.0
     Generated using "atomic" code by A. Dal Corso  v.5.1
     Using radial grid of  929 points,  2 beta functions with: 
                l(1) =   0
                l(2) =   0
     Q(r) pseudized with 0 coefficients 


     atomic species   valence    mass     pseudopotential
        Sr            10.00    87.62000     Sr( 1.00)
        O              6.00    15.99900     O ( 1.00)
        Co            17.00    58.93319     Co( 1.00)
        H              1.00     1.00800     H ( 1.00)

     No symmetry found


                                    s                        frac. trans.

      isym =  1     identity                                     

 cryst.   s( 1) = (     1          0          0      )
                  (     0          1          0      )
                  (     0          0          1      )

 cart.    s( 1) = (  1.0000000  0.0000000  0.0000000 )
                  (  0.0000000  1.0000000  0.0000000 )
                  (  0.0000000  0.0000000  1.0000000 )


   Cartesian axes

     site n.     atom                  positions (alat units)
         1           Sr  tau(   1) = (   0.2508693   0.7491307   1.7574407  )
         2           O   tau(   2) = (   0.4985141   0.5014859   1.7715967  )
         3           Sr  tau(   3) = (   0.7482398   0.7454518   1.7648669  )
         4           Sr  tau(   4) = (   0.7441748   0.2558252   1.7667843  )
         5           Sr  tau(   5) = (   0.2508693   0.7491307   1.2696799  )
         6           Sr  tau(   6) = (   0.2508693   0.7491307   0.7632319  )
         7           Co  tau(   7) = (   0.4998914   0.5001086   1.0164559  )
         8           Co  tau(   8) = (   0.4936915   0.5063085   1.5135603  )
         9           O   tau(   9) = (   0.4988895   0.7610401   1.0164559  )
        10           O   tau(  10) = (   0.2389599   0.5011105   1.0164559  )
        11           O   tau(  11) = (   0.0070918   0.7374880   1.0164559  )
        12           O   tau(  12) = (   0.0088340   0.7405089   1.5135603  )
        13           O   tau(  13) = (   0.5066944   0.7415376   1.5135603  )
        14           O   tau(  14) = (   0.2584624   0.4933056   1.5135603  )
        15           O   tau(  15) = (   0.4985141   0.5014859   0.7773880  )
        16           O   tau(  16) = (   0.4985141   0.5014859   1.2555238  )
        17           Sr  tau(  17) = (   0.7482398   0.7454518   0.7706582  )
        18           Sr  tau(  18) = (   0.7482398   0.7454518   1.2622536  )
        19           Sr  tau(  19) = (   0.7441748   0.2558252   0.7725755  )
        20           Sr  tau(  20) = (   0.7441748   0.2558252   1.2603363  )
        21           O   tau(  21) = (   0.7322655   0.0078049   1.5135603  )
        22           O   tau(  22) = (   0.7558175   0.4996027   1.5135603  )
        23           O   tau(  23) = (   0.5003973   0.2441825   1.5135603  )
        24           O   tau(  24) = (   0.7527966   0.4978604   1.0164559  )
        25           O   tau(  25) = (   0.5021396   0.2472034   1.0164559  )
        26           O   tau(  26) = (   0.7517679   0.0000000   1.0164559  )
        27           O   tau(  27) = (   0.0114961   0.4948124   1.7455321  )
        28           O   tau(  28) = (   0.0048226   0.0077944   1.7715967  )
        29           Sr  tau(  29) = (   0.2545482   0.2517602   1.7648669  )
        30           O   tau(  30) = (   0.5048017   0.0015068   1.7786929  )
        31           Co  tau(  31) = (   0.0056869   0.5006215   1.0164559  )
        32           Co  tau(  32) = (   0.0065315   0.4997770   1.5135603  )
        33           Co  tau(  33) = (   0.0061999   0.0064171   1.0164559  )
        34           Co  tau(  34) = (   0.0000000   0.0126169   1.5135603  )
        35           O   tau(  35) = (   0.0114961   0.4948124   1.2815885  )
        36           O   tau(  36) = (   0.0114961   0.4948124   0.7513233  )
        37           O   tau(  37) = (   0.0051979   0.2673486   1.0164559  )
        38           O   tau(  38) = (   0.0130029   0.2478461   1.5135603  )
        39           O   tau(  39) = (   0.0048226   0.0077944   0.7773880  )
        40           O   tau(  40) = (   0.0048226   0.0077944   1.2555238  )
        41           Sr  tau(  41) = (   0.2545482   0.2517602   0.7706582  )
        42           Sr  tau(  42) = (   0.2545482   0.2517602   1.2622536  )
        43           Co  tau(  43) = (   0.4989925   0.0073160   1.5135603  )
        44           Co  tau(  44) = (   0.4998370   0.0064714   1.0164559  )
        45           O   tau(  45) = (   0.5048017   0.0015068   0.7844841  )
        46           O   tau(  46) = (   0.5048017   0.0015068   1.2484277  )
        47           O   tau(  47) = (   0.2621260   0.0059111   1.5135603  )
        48           O   tau(  48) = (   0.2591051   0.0041689   1.0164559  )
        49           O   tau(  49) = (   0.2843291   0.9951520   2.1602013  )
        50           O   tau(  50) = (   0.2843291   0.9951520   2.3186489  )
        51           H   tau(  51) = (   0.2843291   0.9951520   2.4431567  )

   Crystallographic axes

     site n.     atom                  positions (cryst. coord.)
         1           Sr  tau(   1) = (  0.2508693  0.7491307  0.6943562  )
         2           O   tau(   2) = (  0.4985141  0.5014859  0.6999492  )
         3           Sr  tau(   3) = (  0.7482398  0.7454518  0.6972903  )
         4           Sr  tau(   4) = (  0.7441748  0.2558252  0.6980478  )
         5           Sr  tau(   5) = (  0.2508693  0.7491307  0.5016443  )
         6           Sr  tau(   6) = (  0.2508693  0.7491307  0.3015492  )
         7           Co  tau(   7) = (  0.4998914  0.5001086  0.4015968  )
         8           Co  tau(   8) = (  0.4936915  0.5063085  0.5980003  )
         9           O   tau(   9) = (  0.4988895  0.7610401  0.4015968  )
        10           O   tau(  10) = (  0.2389599  0.5011105  0.4015968  )
        11           O   tau(  11) = (  0.0070918  0.7374880  0.4015968  )
        12           O   tau(  12) = (  0.0088340  0.7405089  0.5980003  )
        13           O   tau(  13) = (  0.5066944  0.7415376  0.5980003  )
        14           O   tau(  14) = (  0.2584624  0.4933056  0.5980003  )
        15           O   tau(  15) = (  0.4985141  0.5014859  0.3071422  )
        16           O   tau(  16) = (  0.4985141  0.5014859  0.4960513  )
        17           Sr  tau(  17) = (  0.7482398  0.7454518  0.3044833  )
        18           Sr  tau(  18) = (  0.7482398  0.7454518  0.4987103  )
        19           Sr  tau(  19) = (  0.7441748  0.2558252  0.3052408  )
        20           Sr  tau(  20) = (  0.7441748  0.2558252  0.4979527  )
        21           O   tau(  21) = (  0.7322655  0.0078049  0.5980003  )
        22           O   tau(  22) = (  0.7558175  0.4996027  0.5980003  )
        23           O   tau(  23) = (  0.5003973  0.2441825  0.5980003  )
        24           O   tau(  24) = (  0.7527966  0.4978604  0.4015968  )
        25           O   tau(  25) = (  0.5021396  0.2472034  0.4015968  )
        26           O   tau(  26) = (  0.7517679  0.0000000  0.4015968  )
        27           O   tau(  27) = (  0.0114961  0.4948124  0.6896512  )
        28           O   tau(  28) = (  0.0048226  0.0077944  0.6999492  )
        29           Sr  tau(  29) = (  0.2545482  0.2517602  0.6972903  )
        30           O   tau(  30) = (  0.5048017  0.0015068  0.7027529  )
        31           Co  tau(  31) = (  0.0056869  0.5006215  0.4015968  )
        32           Co  tau(  32) = (  0.0065315  0.4997770  0.5980003  )
        33           Co  tau(  33) = (  0.0061999  0.0064171  0.4015968  )
        34           Co  tau(  34) = (  0.0000000  0.0126169  0.5980003  )
        35           O   tau(  35) = (  0.0114961  0.4948124  0.5063494  )
        36           O   tau(  36) = (  0.0114961  0.4948124  0.2968442  )
        37           O   tau(  37) = (  0.0051979  0.2673486  0.4015968  )
        38           O   tau(  38) = (  0.0130029  0.2478461  0.5980003  )
        39           O   tau(  39) = (  0.0048226  0.0077944  0.3071422  )
        40           O   tau(  40) = (  0.0048226  0.0077944  0.4960513  )
        41           Sr  tau(  41) = (  0.2545482  0.2517602  0.3044833  )
        42           Sr  tau(  42) = (  0.2545482  0.2517602  0.4987103  )
        43           Co  tau(  43) = (  0.4989925  0.0073160  0.5980003  )
        44           Co  tau(  44) = (  0.4998370  0.0064714  0.4015968  )
        45           O   tau(  45) = (  0.5048017  0.0015068  0.3099459  )
        46           O   tau(  46) = (  0.5048017  0.0015068  0.4932477  )
        47           O   tau(  47) = (  0.2621260  0.0059111  0.5980003  )
        48           O   tau(  48) = (  0.2591051  0.0041689  0.4015968  )
        49           O   tau(  49) = (  0.2843291  0.9951520  0.8534850  )
        50           O   tau(  50) = (  0.2843291  0.9951520  0.9160869  )
        51           H   tau(  51) = (  0.2843291  0.9951520  0.9652793  )

     number of k points=    10  Gaussian smearing, width (Ry)=  0.0700
                       cart. coord. in units 2pi/alat
        k(    1) = (   0.0000000   0.0000000   0.0000000), wk =   0.1250000
        k(    2) = (   0.0000000   0.2500000   0.0000000), wk =   0.2500000
        k(    3) = (   0.0000000  -0.5000000   0.0000000), wk =   0.1250000
        k(    4) = (   0.2500000   0.2500000   0.0000000), wk =   0.2500000
        k(    5) = (   0.2500000  -0.5000000   0.0000000), wk =   0.2500000
        k(    6) = (  -0.5000000  -0.5000000   0.0000000), wk =   0.1250000
        k(    7) = (   0.2500000   0.0000000   0.0000000), wk =   0.2500000
        k(    8) = (  -0.5000000   0.0000000   0.0000000), wk =   0.1250000
        k(    9) = (  -0.2500000   0.2500000   0.0000000), wk =   0.2500000
        k(   10) = (  -0.5000000   0.2500000   0.0000000), wk =   0.2500000

                       cryst. coord.
        k(    1) = (   0.0000000   0.0000000   0.0000000), wk =   0.1250000
        k(    2) = (   0.0000000   0.2500000   0.0000000), wk =   0.2500000
        k(    3) = (   0.0000000  -0.5000000   0.0000000), wk =   0.1250000
        k(    4) = (   0.2500000   0.2500000   0.0000000), wk =   0.2500000
        k(    5) = (   0.2500000  -0.5000000   0.0000000), wk =   0.2500000
        k(    6) = (  -0.5000000  -0.5000000   0.0000000), wk =   0.1250000
        k(    7) = (   0.2500000   0.0000000   0.0000000), wk =   0.2500000
        k(    8) = (  -0.5000000   0.0000000   0.0000000), wk =   0.1250000
        k(    9) = (  -0.2500000   0.2500000   0.0000000), wk =   0.2500000
        k(   10) = (  -0.5000000   0.2500000   0.0000000), wk =   0.2500000

     Dense  grid:  1474595 G-vectors     FFT dimensions: ( 108, 108, 270)

     Smooth grid:   521381 G-vectors     FFT dimensions: (  75,  75, 192)

     Dynamical RAM for                 wfc:      10.90 MB

     Dynamical RAM for     wfc (w. buffer):      65.37 MB

     Dynamical RAM for           str. fact:       3.75 MB

     Dynamical RAM for           local pot:       0.00 MB

     Dynamical RAM for          nlocal pot:      24.94 MB

     Dynamical RAM for                qrad:       7.03 MB

     Dynamical RAM for          rho,v,vnew:       6.02 MB

     Dynamical RAM for               rhoin:       2.01 MB

     Dynamical RAM for            rho*nmix:      15.00 MB

     Dynamical RAM for           G-vectors:       3.68 MB

     Dynamical RAM for          h,s,v(r/c):       1.40 MB

     Dynamical RAM for          <psi|beta>:       2.42 MB

     Dynamical RAM for                 psi:      21.79 MB

     Dynamical RAM for                hpsi:      21.79 MB

     Dynamical RAM for                spsi:      21.79 MB

     Dynamical RAM for      wfcinit/wfcrot:      34.89 MB

     Dynamical RAM for           addusdens:     101.73 MB

     Estimated static dynamical RAM per process >     122.82 MB

     Estimated max dynamical RAM per process >     239.55 MB

     Estimated total dynamical RAM >      10.88 GB

     Check: negative core charge=   -0.000004

     Initial potential from superposition of free atoms

     starting charge     428.5961, renormalised to     437.0000

     negative rho (up, down):  7.813E-01 0.000E+00
     Starting wfcs are  381 randomized atomic wfcs
     Checking if some PAW data can be deallocated... 
       PAW data deallocated on   18 nodes for type:  2

     total cpu time spent up to now is        9.1 secs

     Self-consistent Calculation

     iteration #  1     ecut=    60.00 Ry     beta= 0.15
     Davidson diagonalization with overlap

---- Real-time Memory Report at c_bands before calling an iterative solver
             0 MiB given to the printing process from OS
             0 MiB allocation reported by mallinfo(arena+hblkhd)
          6881 MiB available memory on the node where the printing process lives
------------------
     ethr =  1.00E-02,  avg # of iterations =  2.0

     negative rho (up, down):  7.717E-01 0.000E+00

     total cpu time spent up to now is       25.0 secs

     total energy              =   -4489.33087234 Ry
     estimated scf accuracy    <      49.71745104 Ry

     iteration #  2     ecut=    60.00 Ry     beta= 0.15
     Davidson diagonalization with overlap

---- Real-time Memory Report at c_bands before calling an iterative solver
             0 MiB given to the printing process from OS
             0 MiB allocation reported by mallinfo(arena+hblkhd)
          7215 MiB available memory on the node where the printing process lives
------------------
     ethr =  1.00E-02,  avg # of iterations =  1.0

     negative rho (up, down):  7.614E-01 0.000E+00

     total cpu time spent up to now is       38.0 secs

     total energy              =   -4486.81592487 Ry
     estimated scf accuracy    <      35.42294518 Ry

     iteration #  3     ecut=    60.00 Ry     beta= 0.15
     Davidson diagonalization with overlap

---- Real-time Memory Report at c_bands before calling an iterative solver
             0 MiB given to the printing process from OS
             0 MiB allocation reported by mallinfo(arena+hblkhd)
          6412 MiB available memory on the node where the printing process lives
------------------
     ethr =  8.11E-03,  avg # of iterations =  1.0

     negative rho (up, down):  7.564E-01 0.000E+00

     total cpu time spent up to now is       51.3 secs

     total energy              =   -4486.77604071 Ry
     estimated scf accuracy    <      35.39703650 Ry

     iteration #  4     ecut=    60.00 Ry     beta= 0.15
     Davidson diagonalization with overlap

---- Real-time Memory Report at c_bands before calling an iterative solver
             0 MiB given to the printing process from OS
             0 MiB allocation reported by mallinfo(arena+hblkhd)
          6386 MiB available memory on the node where the printing process lives
------------------
     ethr =  8.10E-03,  avg # of iterations =  1.0

     negative rho (up, down):  7.576E-01 0.000E+00

     total cpu time spent up to now is       64.3 secs

     total energy              =   -4486.58339593 Ry
     estimated scf accuracy    <      34.26829534 Ry

     iteration #  5     ecut=    60.00 Ry     beta= 0.15
     Davidson diagonalization with overlap

---- Real-time Memory Report at c_bands before calling an iterative solver
             0 MiB given to the printing process from OS
             0 MiB allocation reported by mallinfo(arena+hblkhd)
          6363 MiB available memory on the node where the printing process lives
------------------
     ethr =  7.84E-03,  avg # of iterations =  1.0

     negative rho (up, down):  7.336E-01 0.000E+00

     total cpu time spent up to now is       77.2 secs

     total energy              =   -4482.47471102 Ry
     estimated scf accuracy    <      22.55583322 Ry

     iteration #  6     ecut=    60.00 Ry     beta= 0.15
     Davidson diagonalization with overlap

---- Real-time Memory Report at c_bands before calling an iterative solver
             0 MiB given to the printing process from OS
             0 MiB allocation reported by mallinfo(arena+hblkhd)
          6347 MiB available memory on the node where the printing process lives
------------------
     ethr =  5.16E-03,  avg # of iterations =  2.0

     negative rho (up, down):  7.490E-01 0.000E+00

     total cpu time spent up to now is       91.6 secs

     total energy              =   -4483.49454846 Ry
     estimated scf accuracy    <      33.75114154 Ry

     iteration #  7     ecut=    60.00 Ry     beta= 0.15
     Davidson diagonalization with overlap

---- Real-time Memory Report at c_bands before calling an iterative solver
             0 MiB given to the printing process from OS
             0 MiB allocation reported by mallinfo(arena+hblkhd)
          6319 MiB available memory on the node where the printing process lives
------------------
     ethr =  5.16E-03,  avg # of iterations =  1.0

     negative rho (up, down):  7.537E-01 0.000E+00

     total cpu time spent up to now is      104.3 secs

     total energy              =   -4483.66143980 Ry
     estimated scf accuracy    <      33.05418344 Ry

     iteration #  8     ecut=    60.00 Ry     beta= 0.15
     Davidson diagonalization with overlap

---- Real-time Memory Report at c_bands before calling an iterative solver
             0 MiB given to the printing process from OS
             0 MiB allocation reported by mallinfo(arena+hblkhd)
          6299 MiB available memory on the node where the printing process lives
------------------
     ethr =  5.16E-03,  avg # of iterations =  1.0

     negative rho (up, down):  7.512E-01 0.000E+00

     total cpu time spent up to now is      117.0 secs

     total energy              =   -4483.85243441 Ry
     estimated scf accuracy    <       6.37363836 Ry

     iteration #  9     ecut=    60.00 Ry     beta= 0.15
     Davidson diagonalization with overlap

---- Real-time Memory Report at c_bands before calling an iterative solver
             0 MiB given to the printing process from OS
             0 MiB allocation reported by mallinfo(arena+hblkhd)
          6286 MiB available memory on the node where the printing process lives
------------------
     ethr =  1.46E-03,  avg # of iterations =  3.3

     negative rho (up, down):  7.662E-01 0.000E+00

     total cpu time spent up to now is      131.9 secs

     total energy              =   -4483.75038752 Ry
     estimated scf accuracy    <       3.79075687 Ry

     iteration # 10     ecut=    60.00 Ry     beta= 0.15
     Davidson diagonalization with overlap

---- Real-time Memory Report at c_bands before calling an iterative solver
             0 MiB given to the printing process from OS
             0 MiB allocation reported by mallinfo(arena+hblkhd)
          6244 MiB available memory on the node where the printing process lives
------------------
     ethr =  8.67E-04,  avg # of iterations = 11.7

     negative rho (up, down):  7.895E-01 0.000E+00

     total cpu time spent up to now is      151.0 secs

     total energy              =   -4483.49870356 Ry
     estimated scf accuracy    <       4.51253728 Ry

     iteration # 11     ecut=    60.00 Ry     beta= 0.15
     Davidson diagonalization with overlap

---- Real-time Memory Report at c_bands before calling an iterative solver
             0 MiB given to the printing process from OS
             0 MiB allocation reported by mallinfo(arena+hblkhd)
          5911 MiB available memory on the node where the printing process lives
------------------
     ethr =  8.67E-04,  avg # of iterations =  7.6

     negative rho (up, down):  7.921E-01 0.000E+00

     total cpu time spent up to now is      168.0 secs

     total energy              =   -4483.18332142 Ry
     estimated scf accuracy    <       3.98704581 Ry

     iteration # 12     ecut=    60.00 Ry     beta= 0.15
     Davidson diagonalization with overlap

---- Real-time Memory Report at c_bands before calling an iterative solver
             0 MiB given to the printing process from OS
             0 MiB allocation reported by mallinfo(arena+hblkhd)
          5851 MiB available memory on the node where the printing process lives
------------------
     ethr =  8.67E-04,  avg # of iterations =  6.9

     negative rho (up, down):  8.018E-01 0.000E+00

     total cpu time spent up to now is      184.3 secs

     total energy              =   -4483.21406317 Ry
     estimated scf accuracy    <       1.99772592 Ry

     iteration # 13     ecut=    60.00 Ry     beta= 0.15
     Davidson diagonalization with overlap

---- Real-time Memory Report at c_bands before calling an iterative solver
             0 MiB given to the printing process from OS
             0 MiB allocation reported by mallinfo(arena+hblkhd)
          5824 MiB available memory on the node where the printing process lives
------------------
     ethr =  4.57E-04,  avg # of iterations =  3.6

     negative rho (up, down):  8.033E-01 0.000E+00

     total cpu time spent up to now is      199.4 secs

     total energy              =   -4483.25490578 Ry
     estimated scf accuracy    <       1.05638418 Ry

     iteration # 14     ecut=    60.00 Ry     beta= 0.15
     Davidson diagonalization with overlap

---- Real-time Memory Report at c_bands before calling an iterative solver
             0 MiB given to the printing process from OS
             0 MiB allocation reported by mallinfo(arena+hblkhd)
          5818 MiB available memory on the node where the printing process lives
------------------
     ethr =  2.42E-04,  avg # of iterations =  8.8

     negative rho (up, down):  8.163E-01 0.000E+00

     total cpu time spent up to now is      217.0 secs

     total energy              =   -4483.10611084 Ry
     estimated scf accuracy    <       0.71039752 Ry

     iteration # 15     ecut=    60.00 Ry     beta= 0.15
     Davidson diagonalization with overlap

---- Real-time Memory Report at c_bands before calling an iterative solver
             0 MiB given to the printing process from OS
             0 MiB allocation reported by mallinfo(arena+hblkhd)
          5810 MiB available memory on the node where the printing process lives
------------------
     ethr =  1.63E-04,  avg # of iterations =  7.7

     negative rho (up, down):  8.194E-01 0.000E+00

     total cpu time spent up to now is      234.3 secs

     total energy              =   -4483.13256938 Ry
     estimated scf accuracy    <       3.24674712 Ry

     iteration # 16     ecut=    60.00 Ry     beta= 0.15
     Davidson diagonalization with overlap

---- Real-time Memory Report at c_bands before calling an iterative solver
             0 MiB given to the printing process from OS
             0 MiB allocation reported by mallinfo(arena+hblkhd)
          5813 MiB available memory on the node where the printing process lives
------------------
     ethr =  1.63E-04,  avg # of iterations =  2.1

     negative rho (up, down):  8.160E-01 0.000E+00

     total cpu time spent up to now is      248.4 secs

     total energy              =   -4483.10558527 Ry
     estimated scf accuracy    <       1.26727750 Ry

     iteration # 17     ecut=    60.00 Ry     beta= 0.15
     Davidson diagonalization with overlap

---- Real-time Memory Report at c_bands before calling an iterative solver
             0 MiB given to the printing process from OS
             0 MiB allocation reported by mallinfo(arena+hblkhd)
          5833 MiB available memory on the node where the printing process lives
------------------
     ethr =  1.63E-04,  avg # of iterations =  1.5

     negative rho (up, down):  8.204E-01 0.000E+00

     total cpu time spent up to now is      262.4 secs

     total energy              =   -4483.04641863 Ry
     estimated scf accuracy    <       0.38733843 Ry

     iteration # 18     ecut=    60.00 Ry     beta= 0.15
     Davidson diagonalization with overlap

---- Real-time Memory Report at c_bands before calling an iterative solver
             0 MiB given to the printing process from OS
             0 MiB allocation reported by mallinfo(arena+hblkhd)
          5842 MiB available memory on the node where the printing process lives
------------------
     ethr =  8.86E-05,  avg # of iterations = 11.8

     negative rho (up, down):  8.214E-01 0.000E+00

     total cpu time spent up to now is      281.9 secs

     total energy              =   -4483.03037819 Ry
     estimated scf accuracy    <       1.43704873 Ry

     iteration # 19     ecut=    60.00 Ry     beta= 0.15
     Davidson diagonalization with overlap

---- Real-time Memory Report at c_bands before calling an iterative solver
             0 MiB given to the printing process from OS
             0 MiB allocation reported by mallinfo(arena+hblkhd)
          5801 MiB available memory on the node where the printing process lives
------------------
     ethr =  8.86E-05,  avg # of iterations =  3.2

     negative rho (up, down):  8.302E-01 0.000E+00

     total cpu time spent up to now is      296.8 secs

     total energy              =   -4483.02098575 Ry
     estimated scf accuracy    <       0.44695901 Ry

     iteration # 20     ecut=    60.00 Ry     beta= 0.15
     Davidson diagonalization with overlap

---- Real-time Memory Report at c_bands before calling an iterative solver
             0 MiB given to the printing process from OS
             0 MiB allocation reported by mallinfo(arena+hblkhd)
          5806 MiB available memory on the node where the printing process lives
------------------
     ethr =  8.86E-05,  avg # of iterations =  3.9

     negative rho (up, down):  8.274E-01 0.000E+00

     total cpu time spent up to now is      312.2 secs

     total energy              =   -4482.96775704 Ry
     estimated scf accuracy    <       0.68205559 Ry

     iteration # 21     ecut=    60.00 Ry     beta= 0.15
     Davidson diagonalization with overlap

---- Real-time Memory Report at c_bands before calling an iterative solver
             0 MiB given to the printing process from OS
             0 MiB allocation reported by mallinfo(arena+hblkhd)
          5804 MiB available memory on the node where the printing process lives
------------------
     ethr =  8.86E-05,  avg # of iterations =  8.3

     negative rho (up, down):  8.463E-01 0.000E+00

     total cpu time spent up to now is      329.8 secs

     total energy              =   -4482.97852802 Ry
     estimated scf accuracy    <       0.06294355 Ry

     iteration # 22     ecut=    60.00 Ry     beta= 0.15
     Davidson diagonalization with overlap

---- Real-time Memory Report at c_bands before calling an iterative solver
             0 MiB given to the printing process from OS
             0 MiB allocation reported by mallinfo(arena+hblkhd)
          5774 MiB available memory on the node where the printing process lives
------------------
     ethr =  1.44E-05,  avg # of iterations = 10.0

     negative rho (up, down):  8.399E-01 0.000E+00

     total cpu time spent up to now is      349.1 secs

     total energy              =   -4482.97695158 Ry
     estimated scf accuracy    <       0.04168742 Ry

     iteration # 23     ecut=    60.00 Ry     beta= 0.15
     Davidson diagonalization with overlap

---- Real-time Memory Report at c_bands before calling an iterative solver
             0 MiB given to the printing process from OS
             0 MiB allocation reported by mallinfo(arena+hblkhd)
          5588 MiB available memory on the node where the printing process lives
------------------
     ethr =  9.54E-06,  avg # of iterations =  2.0

     negative rho (up, down):  8.246E-01 0.000E+00

     total cpu time spent up to now is      363.3 secs

     total energy              =   -4482.97202262 Ry
     estimated scf accuracy    <       0.02896066 Ry

     iteration # 24     ecut=    60.00 Ry     beta= 0.15
     Davidson diagonalization with overlap

---- Real-time Memory Report at c_bands before calling an iterative solver
             0 MiB given to the printing process from OS
             0 MiB allocation reported by mallinfo(arena+hblkhd)
          5627 MiB available memory on the node where the printing process lives
------------------
     ethr =  6.63E-06,  avg # of iterations = 12.4

     negative rho (up, down):  8.193E-01 0.000E+00

     total cpu time spent up to now is      383.2 secs

     total energy              =   -4482.97231741 Ry
     estimated scf accuracy    <       0.01367069 Ry

     iteration # 25     ecut=    60.00 Ry     beta= 0.15
     Davidson diagonalization with overlap

---- Real-time Memory Report at c_bands before calling an iterative solver
             0 MiB given to the printing process from OS
             0 MiB allocation reported by mallinfo(arena+hblkhd)
          5612 MiB available memory on the node where the printing process lives
------------------
     ethr =  3.13E-06,  avg # of iterations =  2.0

     negative rho (up, down):  8.105E-01 0.000E+00

     total cpu time spent up to now is      397.6 secs

     total energy              =   -4482.97070985 Ry
     estimated scf accuracy    <       0.01100736 Ry

     iteration # 26     ecut=    60.00 Ry     beta= 0.15
     Davidson diagonalization with overlap

---- Real-time Memory Report at c_bands before calling an iterative solver
             0 MiB given to the printing process from OS
             0 MiB allocation reported by mallinfo(arena+hblkhd)
          5611 MiB available memory on the node where the printing process lives
------------------
     ethr =  2.52E-06,  avg # of iterations =  9.2

     negative rho (up, down):  7.984E-01 0.000E+00

     total cpu time spent up to now is      415.2 secs

     total energy              =   -4482.96951125 Ry
     estimated scf accuracy    <       0.00656398 Ry

     iteration # 27     ecut=    60.00 Ry     beta= 0.15
     Davidson diagonalization with overlap

---- Real-time Memory Report at c_bands before calling an iterative solver
             0 MiB given to the printing process from OS
             0 MiB allocation reported by mallinfo(arena+hblkhd)
          5575 MiB available memory on the node where the printing process lives
------------------
     ethr =  1.50E-06,  avg # of iterations = 10.9

     negative rho (up, down):  7.966E-01 0.000E+00

     total cpu time spent up to now is      435.6 secs

     total energy              =   -4482.96995268 Ry
     estimated scf accuracy    <       0.00151181 Ry

     iteration # 28     ecut=    60.00 Ry     beta= 0.15
     Davidson diagonalization with overlap

---- Real-time Memory Report at c_bands before calling an iterative solver
             0 MiB given to the printing process from OS
             0 MiB allocation reported by mallinfo(arena+hblkhd)
          5506 MiB available memory on the node where the printing process lives
------------------
     ethr =  3.46E-07,  avg # of iterations =  3.4

     negative rho (up, down):  7.966E-01 0.000E+00

     total cpu time spent up to now is      451.2 secs

     total energy              =   -4482.96999402 Ry
     estimated scf accuracy    <       0.00085243 Ry

     iteration # 29     ecut=    60.00 Ry     beta= 0.15
     Davidson diagonalization with overlap

---- Real-time Memory Report at c_bands before calling an iterative solver
             0 MiB given to the printing process from OS
             0 MiB allocation reported by mallinfo(arena+hblkhd)
          5494 MiB available memory on the node where the printing process lives
------------------
     ethr =  1.95E-07,  avg # of iterations =  3.8

     negative rho (up, down):  7.946E-01 0.000E+00

     total cpu time spent up to now is      466.5 secs

     total energy              =   -4482.96989826 Ry
     estimated scf accuracy    <       0.00058898 Ry

     iteration # 30     ecut=    60.00 Ry     beta= 0.15
     Davidson diagonalization with overlap

---- Real-time Memory Report at c_bands before calling an iterative solver
             0 MiB given to the printing process from OS
             0 MiB allocation reported by mallinfo(arena+hblkhd)
          5495 MiB available memory on the node where the printing process lives
------------------
     ethr =  1.35E-07,  avg # of iterations =  6.7

     negative rho (up, down):  7.934E-01 0.000E+00

     total cpu time spent up to now is      483.7 secs

     total energy              =   -4482.96988848 Ry
     estimated scf accuracy    <       0.00027517 Ry

     iteration # 31     ecut=    60.00 Ry     beta= 0.15
     Davidson diagonalization with overlap

---- Real-time Memory Report at c_bands before calling an iterative solver
             0 MiB given to the printing process from OS
             0 MiB allocation reported by mallinfo(arena+hblkhd)
          5485 MiB available memory on the node where the printing process lives
------------------
     ethr =  6.30E-08,  avg # of iterations =  4.1

     negative rho (up, down):  7.924E-01 0.000E+00

     total cpu time spent up to now is      499.3 secs

     total energy              =   -4482.96986193 Ry
     estimated scf accuracy    <       0.00018800 Ry

     iteration # 32     ecut=    60.00 Ry     beta= 0.15
     Davidson diagonalization with overlap

---- Real-time Memory Report at c_bands before calling an iterative solver
             0 MiB given to the printing process from OS
             0 MiB allocation reported by mallinfo(arena+hblkhd)
          5519 MiB available memory on the node where the printing process lives
------------------
     c_bands:  1 eigenvalues not converged
     ethr =  4.30E-08,  avg # of iterations =  6.4

     negative rho (up, down):  7.919E-01 0.000E+00

     total cpu time spent up to now is      515.8 secs

     total energy              =   -4482.96985889 Ry
     estimated scf accuracy    <       0.00013238 Ry

     iteration # 33     ecut=    60.00 Ry     beta= 0.15
     Davidson diagonalization with overlap

---- Real-time Memory Report at c_bands before calling an iterative solver
             0 MiB given to the printing process from OS
             0 MiB allocation reported by mallinfo(arena+hblkhd)
          5572 MiB available memory on the node where the printing process lives
------------------
     ethr =  3.03E-08,  avg # of iterations =  5.8

     negative rho (up, down):  7.919E-01 0.000E+00

     total cpu time spent up to now is      532.5 secs

     total energy              =   -4482.96986456 Ry
     estimated scf accuracy    <       0.00004069 Ry

     iteration # 34     ecut=    60.00 Ry     beta= 0.15
     Davidson diagonalization with overlap

---- Real-time Memory Report at c_bands before calling an iterative solver
             0 MiB given to the printing process from OS
             0 MiB allocation reported by mallinfo(arena+hblkhd)
          5563 MiB available memory on the node where the printing process lives
------------------
     ethr =  9.31E-09,  avg # of iterations =  4.7

     negative rho (up, down):  7.919E-01 0.000E+00

     total cpu time spent up to now is      548.5 secs

     total energy              =   -4482.96986976 Ry
     estimated scf accuracy    <       0.00002542 Ry

     iteration # 35     ecut=    60.00 Ry     beta= 0.15
     Davidson diagonalization with overlap

---- Real-time Memory Report at c_bands before calling an iterative solver
             0 MiB given to the printing process from OS
             0 MiB allocation reported by mallinfo(arena+hblkhd)
          5559 MiB available memory on the node where the printing process lives
------------------
     ethr =  5.82E-09,  avg # of iterations =  4.3

     negative rho (up, down):  7.919E-01 0.000E+00

     total cpu time spent up to now is      563.8 secs

     total energy              =   -4482.96987184 Ry
     estimated scf accuracy    <       0.00001961 Ry

     iteration # 36     ecut=    60.00 Ry     beta= 0.15
     Davidson diagonalization with overlap

---- Real-time Memory Report at c_bands before calling an iterative solver
             0 MiB given to the printing process from OS
             0 MiB allocation reported by mallinfo(arena+hblkhd)
          5578 MiB available memory on the node where the printing process lives
------------------
     ethr =  4.49E-09,  avg # of iterations =  3.5

     negative rho (up, down):  7.920E-01 0.000E+00

     total cpu time spent up to now is      578.7 secs

     total energy              =   -4482.96987362 Ry
     estimated scf accuracy    <       0.00001683 Ry

     iteration # 37     ecut=    60.00 Ry     beta= 0.15
     Davidson diagonalization with overlap

---- Real-time Memory Report at c_bands before calling an iterative solver
             0 MiB given to the printing process from OS
             0 MiB allocation reported by mallinfo(arena+hblkhd)
          5608 MiB available memory on the node where the printing process lives
------------------
     ethr =  3.85E-09,  avg # of iterations =  5.0

     negative rho (up, down):  7.920E-01 0.000E+00

     total cpu time spent up to now is      594.5 secs

     total energy              =   -4482.96987189 Ry
     estimated scf accuracy    <       0.00001567 Ry

     iteration # 38     ecut=    60.00 Ry     beta= 0.15
     Davidson diagonalization with overlap

---- Real-time Memory Report at c_bands before calling an iterative solver
             0 MiB given to the printing process from OS
             0 MiB allocation reported by mallinfo(arena+hblkhd)
          5715 MiB available memory on the node where the printing process lives
------------------
     ethr =  3.59E-09,  avg # of iterations =  4.2

     negative rho (up, down):  7.921E-01 0.000E+00

     total cpu time spent up to now is      609.8 secs

     total energy              =   -4482.96987145 Ry
     estimated scf accuracy    <       0.00001217 Ry

     iteration # 39     ecut=    60.00 Ry     beta= 0.15
     Davidson diagonalization with overlap

---- Real-time Memory Report at c_bands before calling an iterative solver
             0 MiB given to the printing process from OS
             0 MiB allocation reported by mallinfo(arena+hblkhd)
          5748 MiB available memory on the node where the printing process lives
------------------
     ethr =  2.78E-09,  avg # of iterations =  2.0

     negative rho (up, down):  7.921E-01 0.000E+00

     total cpu time spent up to now is      624.0 secs

     total energy              =   -4482.96987237 Ry
     estimated scf accuracy    <       0.00001132 Ry

     iteration # 40     ecut=    60.00 Ry     beta= 0.15
     Davidson diagonalization with overlap

---- Real-time Memory Report at c_bands before calling an iterative solver
             0 MiB given to the printing process from OS
             0 MiB allocation reported by mallinfo(arena+hblkhd)
          5745 MiB available memory on the node where the printing process lives
------------------
     ethr =  2.59E-09,  avg # of iterations =  1.7

     negative rho (up, down):  7.921E-01 0.000E+00

     total cpu time spent up to now is      638.0 secs

     total energy              =   -4482.96987663 Ry
     estimated scf accuracy    <       0.00001057 Ry

     iteration # 41     ecut=    60.00 Ry     beta= 0.15
     Davidson diagonalization with overlap

---- Real-time Memory Report at c_bands before calling an iterative solver
             0 MiB given to the printing process from OS
             0 MiB allocation reported by mallinfo(arena+hblkhd)
          5748 MiB available memory on the node where the printing process lives
------------------
     ethr =  2.42E-09,  avg # of iterations =  4.8

     negative rho (up, down):  7.921E-01 0.000E+00

     total cpu time spent up to now is      653.8 secs

     total energy              =   -4482.96987793 Ry
     estimated scf accuracy    <       0.00000702 Ry

     iteration # 42     ecut=    60.00 Ry     beta= 0.15
     Davidson diagonalization with overlap

---- Real-time Memory Report at c_bands before calling an iterative solver
             0 MiB given to the printing process from OS
             0 MiB allocation reported by mallinfo(arena+hblkhd)
          5745 MiB available memory on the node where the printing process lives
------------------
     ethr =  1.61E-09,  avg # of iterations =  4.6

     negative rho (up, down):  7.921E-01 0.000E+00

     total cpu time spent up to now is      669.4 secs

     total energy              =   -4482.96987672 Ry
     estimated scf accuracy    <       0.00000405 Ry

     iteration # 43     ecut=    60.00 Ry     beta= 0.15
     Davidson diagonalization with overlap

---- Real-time Memory Report at c_bands before calling an iterative solver
             0 MiB given to the printing process from OS
             0 MiB allocation reported by mallinfo(arena+hblkhd)
          5752 MiB available memory on the node where the printing process lives
------------------
     ethr =  9.28E-10,  avg # of iterations =  4.7

     negative rho (up, down):  7.922E-01 0.000E+00

     total cpu time spent up to now is      684.9 secs

     total energy              =   -4482.96987684 Ry
     estimated scf accuracy    <       0.00000278 Ry

     iteration # 44     ecut=    60.00 Ry     beta= 0.15
     Davidson diagonalization with overlap

---- Real-time Memory Report at c_bands before calling an iterative solver
             0 MiB given to the printing process from OS
             0 MiB allocation reported by mallinfo(arena+hblkhd)
          5753 MiB available memory on the node where the printing process lives
------------------
     ethr =  6.36E-10,  avg # of iterations =  3.9

     negative rho (up, down):  7.922E-01 0.000E+00

     total cpu time spent up to now is      700.0 secs

     total energy              =   -4482.96987779 Ry
     estimated scf accuracy    <       0.00000147 Ry

     iteration # 45     ecut=    60.00 Ry     beta= 0.15
     Davidson diagonalization with overlap

---- Real-time Memory Report at c_bands before calling an iterative solver
             0 MiB given to the printing process from OS
             0 MiB allocation reported by mallinfo(arena+hblkhd)
          5749 MiB available memory on the node where the printing process lives
------------------
     ethr =  3.37E-10,  avg # of iterations =  3.5

     negative rho (up, down):  7.922E-01 0.000E+00

     total cpu time spent up to now is      715.1 secs

     total energy              =   -4482.96987782 Ry
     estimated scf accuracy    <       0.00000090 Ry

     iteration # 46     ecut=    60.00 Ry     beta= 0.15
     Davidson diagonalization with overlap

---- Real-time Memory Report at c_bands before calling an iterative solver
             0 MiB given to the printing process from OS
             0 MiB allocation reported by mallinfo(arena+hblkhd)
          5748 MiB available memory on the node where the printing process lives
------------------
     ethr =  2.06E-10,  avg # of iterations =  3.4

     negative rho (up, down):  7.923E-01 0.000E+00

     total cpu time spent up to now is      730.1 secs

     total energy              =   -4482.96987860 Ry
     estimated scf accuracy    <       0.00000057 Ry

     iteration # 47     ecut=    60.00 Ry     beta= 0.15
     Davidson diagonalization with overlap

---- Real-time Memory Report at c_bands before calling an iterative solver
             0 MiB given to the printing process from OS
             0 MiB allocation reported by mallinfo(arena+hblkhd)
          5750 MiB available memory on the node where the printing process lives
------------------
     ethr =  1.30E-10,  avg # of iterations =  4.5

     negative rho (up, down):  7.923E-01 0.000E+00

     total cpu time spent up to now is      745.7 secs

     total energy              =   -4482.96987912 Ry
     estimated scf accuracy    <       0.00000025 Ry

     iteration # 48     ecut=    60.00 Ry     beta= 0.15
     Davidson diagonalization with overlap

---- Real-time Memory Report at c_bands before calling an iterative solver
             0 MiB given to the printing process from OS
             0 MiB allocation reported by mallinfo(arena+hblkhd)
          5743 MiB available memory on the node where the printing process lives
------------------
     ethr =  5.77E-11,  avg # of iterations =  5.5

     negative rho (up, down):  7.923E-01 0.000E+00

     total cpu time spent up to now is      762.2 secs

     total energy              =   -4482.96987925 Ry
     estimated scf accuracy    <       0.00000013 Ry

     iteration # 49     ecut=    60.00 Ry     beta= 0.15
     Davidson diagonalization with overlap

---- Real-time Memory Report at c_bands before calling an iterative solver
             0 MiB given to the printing process from OS
             0 MiB allocation reported by mallinfo(arena+hblkhd)
          5733 MiB available memory on the node where the printing process lives
------------------
     ethr =  2.88E-11,  avg # of iterations =  5.2

     negative rho (up, down):  7.923E-01 0.000E+00

     total cpu time spent up to now is      778.5 secs

     total energy              =   -4482.96987925 Ry
     estimated scf accuracy    <       0.00000006 Ry

     iteration # 50     ecut=    60.00 Ry     beta= 0.15
     Davidson diagonalization with overlap

---- Real-time Memory Report at c_bands before calling an iterative solver
             0 MiB given to the printing process from OS
             0 MiB allocation reported by mallinfo(arena+hblkhd)
          5735 MiB available memory on the node where the printing process lives
------------------
     ethr =  1.43E-11,  avg # of iterations =  5.2

     negative rho (up, down):  7.923E-01 0.000E+00

     total cpu time spent up to now is      794.9 secs

     total energy              =   -4482.96987923 Ry
     estimated scf accuracy    <       0.00000004 Ry

     iteration # 51     ecut=    60.00 Ry     beta= 0.15
     Davidson diagonalization with overlap

---- Real-time Memory Report at c_bands before calling an iterative solver
             0 MiB given to the printing process from OS
             0 MiB allocation reported by mallinfo(arena+hblkhd)
          5738 MiB available memory on the node where the printing process lives
------------------
     ethr =  8.11E-12,  avg # of iterations =  5.1

     negative rho (up, down):  7.923E-01 0.000E+00

     total cpu time spent up to now is      811.1 secs

     total energy              =   -4482.96987924 Ry
     estimated scf accuracy    <       0.00000002 Ry

     iteration # 52     ecut=    60.00 Ry     beta= 0.15
     Davidson diagonalization with overlap

---- Real-time Memory Report at c_bands before calling an iterative solver
             0 MiB given to the printing process from OS
             0 MiB allocation reported by mallinfo(arena+hblkhd)
          5737 MiB available memory on the node where the printing process lives
------------------
     ethr =  5.10E-12,  avg # of iterations =  2.8

     negative rho (up, down):  7.923E-01 0.000E+00

     total cpu time spent up to now is      826.5 secs

     total energy              =   -4482.96987927 Ry
     estimated scf accuracy    <       0.00000001 Ry

     iteration # 53     ecut=    60.00 Ry     beta= 0.15
     Davidson diagonalization with overlap

---- Real-time Memory Report at c_bands before calling an iterative solver
             0 MiB given to the printing process from OS
             0 MiB allocation reported by mallinfo(arena+hblkhd)
          5738 MiB available memory on the node where the printing process lives
------------------
     ethr =  3.23E-12,  avg # of iterations =  4.9

     negative rho (up, down):  7.923E-01 0.000E+00

     total cpu time spent up to now is      842.6 secs

     End of self-consistent calculation

          k = 0.0000 0.0000 0.0000 ( 65197 PWs)   bands (ev):

   -92.3295 -92.2729 -92.1831 -92.1345 -92.0752 -92.0356 -92.0184 -91.8952
   -55.6826 -55.6591 -55.5411 -55.5306 -55.5222 -55.5173 -55.4785 -55.4528
   -55.4365 -55.4345 -55.4243 -55.3839 -55.3658 -55.3272 -55.3089 -55.2747
   -55.2698 -55.2246 -55.2218 -55.2214 -55.2129 -55.1696 -55.1492 -55.0624
   -30.9162 -30.8968 -30.8200 -30.7562 -30.7337 -30.6693 -30.5210 -30.4081
   -29.4813 -29.4375 -29.4122 -29.3030 -22.2479 -14.7144 -14.6779 -14.5931
   -14.4623 -14.2806 -14.1561 -13.8556 -13.8405 -13.8060 -13.7719 -13.7649
   -13.7244 -13.7154 -13.6999 -13.6848 -13.6624 -13.6333 -13.5644 -13.4172
   -13.2498 -13.2071 -13.1733 -13.1508 -13.1286 -13.0842 -13.0435 -12.9630
   -12.8906 -12.8276 -12.7994 -12.7488 -12.7388 -12.7141 -12.6997 -12.6905
   -12.6562 -12.6355 -12.6202 -12.6129 -12.5942 -12.5681 -12.5585 -12.5396
   -12.4883 -12.4636 -12.4402 -12.3480 -12.3156 -12.3091 -11.9813 -11.8364
   -11.7053 -11.6402 -11.4950 -11.4204 -11.4093 -11.3870 -11.3693 -11.3052
   -11.2880 -11.2534 -11.2249 -11.1130 -11.0325 -11.0290  -5.8520  -3.1563
    -3.1427  -2.5753  -2.3415  -2.1122  -1.9665  -1.9019  -1.7588  -1.4533
    -1.4391  -1.4174  -1.3366  -1.3173  -1.2493  -1.2334  -1.1913  -1.1461
    -0.9656  -0.7442  -0.7147  -0.5628  -0.5493  -0.5059  -0.4886  -0.4439
    -0.4286  -0.3663  -0.3403  -0.2734  -0.2593  -0.1792  -0.0534  -0.0384
    -0.0100   0.0622   0.0731   0.0869   0.1585   0.2368   0.2664   0.3292
     0.3541   0.4077   0.4911   0.5464   0.5663   0.5736   0.8282   0.8438
     1.0147   1.0861   1.1498   1.1873   1.2821   1.2990   1.3138   1.3837
     1.4119   1.4469   1.5058   1.6410   1.6942   1.7150   1.7297   1.7394
     1.8116   1.8912   1.9811   1.9940   2.0567   2.0779   2.1135   2.1352
     2.1404   2.1964   2.2460   2.2608   2.2881   2.3412   2.3886   2.5175
     2.5960   2.6469   2.6596   2.8116   2.8266   2.8719   2.8829   2.9831
     3.0221   3.0431   3.0473   3.0659   3.0806   3.1055   3.1592   3.2729
     3.3043   3.3199   3.3271   3.3935   3.3971   3.4218   3.4307   3.4381
     3.4479   3.4559   3.4686   3.4745   3.4884   3.4975   3.5054   3.5256
     3.5466   3.5519   3.5635   3.5872   3.7048   3.7515   4.4288   4.7486
     4.8089   5.1462   5.3941   5.4896   5.6734   6.2811   6.3257   6.3602
     6.6189   6.6438   6.6838   6.7328   6.9517   7.1437   7.2819   7.3894
     7.4499   7.6564   7.8145   7.8416   7.9453   7.9594   7.9885   8.0476
     8.2929   8.3630   8.3940   8.4330   8.4679   8.5669   8.6935

     occupation numbers 
     1.0000   1.0000   1.0000   1.0000   1.0000   1.0000   1.0000   1.0000
     1.0000   1.0000   1.0000   1.0000   1.0000   1.0000   1.0000   1.0000
     1.0000   1.0000   1.0000   1.0000   1.0000   1.0000   1.0000   1.0000
     1.0000   1.0000   1.0000   1.0000   1.0000   1.0000   1.0000   1.0000
     1.0000   1.0000   1.0000   1.0000   1.0000   1.0000   1.0000   1.0000
     1.0000   1.0000   1.0000   1.0000   1.0000   1.0000   1.0000   1.0000
     1.0000   1.0000   1.0000   1.0000   1.0000   1.0000   1.0000   1.0000
     1.0000   1.0000   1.0000   1.0000   1.0000   1.0000   1.0000   1.0000
     1.0000   1.0000   1.0000   1.0000   1.0000   1.0000   1.0000   1.0000
     1.0000   1.0000   1.0000   1.0000   1.0000   1.0000   1.0000   1.0000
     1.0000   1.0000   1.0000   1.0000   1.0000   1.0000   1.0000   1.0000
     1.0000   1.0000   1.0000   1.0000   1.0000   1.0000   1.0000   1.0000
     1.0000   1.0000   1.0000   1.0000   1.0000   1.0000   1.0000   1.0000
     1.0000   1.0000   1.0000   1.0000   1.0000   1.0000   1.0000   1.0000
     1.0000   1.0000   1.0000   1.0000   1.0000   1.0000   1.0000   1.0000
     1.0000   1.0000   1.0000   1.0000   1.0000   1.0000   1.0000   1.0000
     1.0000   1.0000   1.0000   1.0000   1.0000   1.0000   1.0000   1.0000
     1.0000   1.0000   1.0000   1.0000   1.0000   1.0000   1.0000   1.0000
     1.0000   1.0000   1.0000   1.0000   1.0000   1.0000   1.0000   1.0000
     1.0000   1.0000   1.0000   1.0000   1.0000   1.0000   1.0000   1.0000
     1.0000   0.9999   0.9999   0.9999   0.9998   0.9998   0.9998   0.9997
     0.9997   0.9996   0.9994   0.9989   0.9985   0.9984   0.9983   0.9982
     0.9974   0.9963   0.9946   0.9943   0.9926   0.9919   0.9906   0.9898
     0.9896   0.9871   0.9844   0.9835   0.9818   0.9779   0.9740   0.9601
     0.9490   0.9405   0.9383   0.9057   0.9019   0.8897   0.8866   0.8554
     0.8419   0.8342   0.8326   0.8256   0.8200   0.8101   0.7877   0.7355
     0.7201   0.7122   0.7086   0.6738   0.6719   0.6586   0.6537   0.6496
     0.6442   0.6398   0.6327   0.6294   0.6216   0.6164   0.6120   0.6004
     0.5883   0.5853   0.5786   0.5647   0.4954   0.4677   0.1386   0.0592
     0.0494   0.0157   0.0059   0.0039   0.0017   0.0001   0.0000   0.0000
     0.0000   0.0000   0.0000   0.0000   0.0000   0.0000   0.0000   0.0000
     0.0000   0.0000   0.0000   0.0000   0.0000   0.0000   0.0000   0.0000
     0.0000   0.0000   0.0000   0.0000   0.0000   0.0000   0.0000

          k = 0.0000 0.2500 0.0000 ( 65257 PWs)   bands (ev):

   -92.3295 -92.2729 -92.1831 -92.1345 -92.0752 -92.0356 -92.0184 -91.8952
   -55.6826 -55.6591 -55.5411 -55.5306 -55.5222 -55.5173 -55.4785 -55.4528
   -55.4365 -55.4345 -55.4243 -55.3839 -55.3658 -55.3272 -55.3089 -55.2747
   -55.2698 -55.2246 -55.2218 -55.2214 -55.2129 -55.1696 -55.1492 -55.0624
   -30.9160 -30.8967 -30.8197 -30.7564 -30.7340 -30.6694 -30.5208 -30.4084
   -29.4807 -29.4371 -29.4128 -29.3033 -22.2479 -14.6775 -14.6518 -14.5680
   -14.4333 -14.3182 -14.1473 -14.0009 -13.8214 -13.7931 -13.7731 -13.7682
   -13.7418 -13.6846 -13.6791 -13.6633 -13.6479 -13.6168 -13.4847 -13.4479
   -13.2860 -13.2738 -13.2162 -13.1822 -13.1427 -13.1004 -13.0635 -12.9824
   -12.9498 -12.9206 -12.8651 -12.7999 -12.7855 -12.7466 -12.7305 -12.6752
   -12.6224 -12.5962 -12.5737 -12.5506 -12.5470 -12.5235 -12.5037 -12.4778
   -12.4475 -12.4368 -12.4181 -12.3479 -12.2286 -12.1671 -12.0426 -11.8876
   -11.7611 -11.7065 -11.4605 -11.4172 -11.3898 -11.3613 -11.3445 -11.2973
   -11.2859 -11.2636 -11.2295 -11.1272 -11.0742 -11.0635  -5.8520  -3.1565
    -3.1427  -2.4401  -2.2171  -2.0803  -1.8981  -1.8546  -1.6898  -1.4735
    -1.3853  -1.3722  -1.3178  -1.2140  -1.1988  -1.1643  -1.1391  -1.0956
    -0.8968  -0.7694  -0.7567  -0.6821  -0.6695  -0.5651  -0.5342  -0.4800
    -0.4556  -0.4107  -0.3495  -0.3244  -0.2905  -0.2607  -0.2434  -0.2100
    -0.1375  -0.0841  -0.0301   0.0835   0.1005   0.1468   0.2673   0.2994
     0.3635   0.4140   0.4721   0.4920   0.5234   0.5805   0.8765   0.9640
     0.9932   1.0824   1.1255   1.1429   1.2740   1.2922   1.3841   1.4097
     1.4411   1.5560   1.6401   1.6700   1.6917   1.7065   1.7396   1.8003
     1.8250   1.8519   1.9019   1.9312   1.9596   2.0358   2.0687   2.1085
     2.1614   2.2141   2.2503   2.2795   2.3147   2.3365   2.4245   2.5525
     2.6244   2.6427   2.7253   2.7698   2.8067   2.8149   2.8785   2.9223
     3.0012   3.0365   3.0437   3.0539   3.1060   3.2334   3.2553   3.2870
     3.3067   3.3259   3.3349   3.3429   3.3514   3.3809   3.3829   3.3997
     3.4038   3.4166   3.4322   3.4428   3.4537   3.4766   3.4871   3.4917
     3.5271   3.5438   3.6044   3.9616   3.9827   4.2446   4.6139   4.7552
     4.9112   5.0874   5.4197   5.5379   5.8027   5.9060   6.1649   6.3187
     6.3405   6.4660   6.5331   6.7533   6.8918   7.0233   7.2467   7.5485
     7.5645   7.7283   7.8047   7.8583   7.9013   7.9407   8.0850   8.1826
     8.2856   8.3324   8.5337   8.5907   8.6534   8.6935   8.9517

     occupation numbers 
     1.0000   1.0000   1.0000   1.0000   1.0000   1.0000   1.0000   1.0000
     1.0000   1.0000   1.0000   1.0000   1.0000   1.0000   1.0000   1.0000
     1.0000   1.0000   1.0000   1.0000   1.0000   1.0000   1.0000   1.0000
     1.0000   1.0000   1.0000   1.0000   1.0000   1.0000   1.0000   1.0000
     1.0000   1.0000   1.0000   1.0000   1.0000   1.0000   1.0000   1.0000
     1.0000   1.0000   1.0000   1.0000   1.0000   1.0000   1.0000   1.0000
     1.0000   1.0000   1.0000   1.0000   1.0000   1.0000   1.0000   1.0000
     1.0000   1.0000   1.0000   1.0000   1.0000   1.0000   1.0000   1.0000
     1.0000   1.0000   1.0000   1.0000   1.0000   1.0000   1.0000   1.0000
     1.0000   1.0000   1.0000   1.0000   1.0000   1.0000   1.0000   1.0000
     1.0000   1.0000   1.0000   1.0000   1.0000   1.0000   1.0000   1.0000
     1.0000   1.0000   1.0000   1.0000   1.0000   1.0000   1.0000   1.0000
     1.0000   1.0000   1.0000   1.0000   1.0000   1.0000   1.0000   1.0000
     1.0000   1.0000   1.0000   1.0000   1.0000   1.0000   1.0000   1.0000
     1.0000   1.0000   1.0000   1.0000   1.0000   1.0000   1.0000   1.0000
     1.0000   1.0000   1.0000   1.0000   1.0000   1.0000   1.0000   1.0000
     1.0000   1.0000   1.0000   1.0000   1.0000   1.0000   1.0000   1.0000
     1.0000   1.0000   1.0000   1.0000   1.0000   1.0000   1.0000   1.0000
     1.0000   1.0000   1.0000   1.0000   1.0000   1.0000   1.0000   1.0000
     1.0000   1.0000   1.0000   1.0000   1.0000   1.0000   1.0000   1.0000
     1.0000   0.9999   0.9999   0.9999   0.9998   0.9998   0.9997   0.9997
     0.9996   0.9993   0.9989   0.9987   0.9985   0.9984   0.9982   0.9976
     0.9973   0.9969   0.9962   0.9956   0.9951   0.9932   0.9922   0.9908
     0.9887   0.9862   0.9841   0.9823   0.9799   0.9783   0.9706   0.9554
     0.9444   0.9413   0.9255   0.9157   0.9069   0.9049   0.8879   0.8750
     0.8492   0.8366   0.8340   0.8302   0.8099   0.7544   0.7440   0.7287
     0.7189   0.7092   0.7046   0.7005   0.6961   0.6806   0.6795   0.6705
     0.6683   0.6614   0.6529   0.6471   0.6411   0.6282   0.6223   0.6198
     0.5996   0.5899   0.5547   0.3471   0.3357   0.2081   0.0867   0.0580
     0.0357   0.0195   0.0053   0.0031   0.0009   0.0005   0.0001   0.0000
     0.0000   0.0000   0.0000   0.0000   0.0000   0.0000   0.0000   0.0000
     0.0000   0.0000   0.0000   0.0000   0.0000   0.0000   0.0000   0.0000
     0.0000   0.0000   0.0000   0.0000   0.0000   0.0000   0.0000

          k = 0.0000-0.5000 0.0000 ( 65180 PWs)   bands (ev):

   -92.3295 -92.2729 -92.1831 -92.1345 -92.0752 -92.0356 -92.0184 -91.8952
   -55.6826 -55.6591 -55.5411 -55.5306 -55.5222 -55.5173 -55.4785 -55.4528
   -55.4365 -55.4345 -55.4243 -55.3839 -55.3658 -55.3272 -55.3089 -55.2747
   -55.2698 -55.2246 -55.2218 -55.2214 -55.2129 -55.1696 -55.1492 -55.0624
   -30.9158 -30.8966 -30.8194 -30.7566 -30.7344 -30.6696 -30.5205 -30.4087
   -29.4801 -29.4368 -29.4134 -29.3037 -22.2479 -14.6453 -14.5966 -14.5448
   -14.4211 -14.3320 -14.1952 -14.0500 -13.9265 -13.7908 -13.7712 -13.7348
   -13.6877 -13.6718 -13.6285 -13.6072 -13.5612 -13.5469 -13.5174 -13.4823
   -13.4657 -13.4177 -13.2180 -13.1647 -13.1518 -13.0914 -13.0814 -12.9959
   -12.9860 -12.9371 -12.9230 -12.8578 -12.7893 -12.7466 -12.7247 -12.7166
   -12.6075 -12.5955 -12.5681 -12.5412 -12.5208 -12.5204 -12.4801 -12.4370
   -12.3965 -12.3538 -12.3433 -12.2902 -12.1537 -12.0971 -11.9632 -11.9610
   -11.8709 -11.8276 -11.4141 -11.4121 -11.3849 -11.3468 -11.3128 -11.3019
   -11.2592 -11.2552 -11.2110 -11.1488 -11.1348 -11.1204  -5.8520  -3.1566
    -3.1427  -2.2257  -2.1655  -2.0140  -1.9413  -1.6628  -1.5782  -1.4502
    -1.3115  -1.2778  -1.2558  -1.1767  -1.1464  -1.0644  -1.0293  -0.9539
    -0.9117  -0.8720  -0.8455  -0.7906  -0.7525  -0.7065  -0.6709  -0.6358
    -0.6020  -0.4918  -0.4463  -0.4150  -0.4138  -0.3275  -0.2942  -0.2717
    -0.2235  -0.1407  -0.0711   0.0064   0.0333   0.1405   0.1894   0.3373
     0.3586   0.3952   0.4463   0.5703   0.6156   0.7595   0.8230   0.8315
     0.9599   0.9947   1.0981   1.2382   1.3455   1.3758   1.4081   1.4162
     1.4555   1.4753   1.5117   1.5286   1.5388   1.6480   1.7070   1.7321
     1.7585   2.0135   2.0508   2.0696   2.1649   2.1934   2.2210   2.2399
     2.2735   2.2818   2.2900   2.3281   2.3649   2.3916   2.4155   2.4326
     2.4632   2.5166   2.5938   2.6189   2.8049   2.9686   2.9773   2.9939
     3.0308   3.0334   3.0418   3.0564   3.0934   3.1080   3.1141   3.1676
     3.1891   3.2631   3.2764   3.3434   3.3533   3.3774   3.3783   3.3994
     3.4027   3.4054   3.4098   3.4137   3.4258   3.4466   3.4477   3.5123
     3.5180   3.5335   3.5877   4.4846   4.5041   4.5334   4.5965   4.9543
     5.1247   5.2346   5.4618   5.5068   5.5812   5.8297   5.9531   5.9924
     6.2235   6.3782   6.3982   6.4140   7.0207   7.0473   7.1675   7.4096
     7.5754   7.6600   7.6718   8.0273   8.0767   8.1507   8.2296   8.2740
     8.4002   8.6025   8.6644   8.7191   8.7558   8.8514   8.9720

     occupation numbers 
     1.0000   1.0000   1.0000   1.0000   1.0000   1.0000   1.0000   1.0000
     1.0000   1.0000   1.0000   1.0000   1.0000   1.0000   1.0000   1.0000
     1.0000   1.0000   1.0000   1.0000   1.0000   1.0000   1.0000   1.0000
     1.0000   1.0000   1.0000   1.0000   1.0000   1.0000   1.0000   1.0000
     1.0000   1.0000   1.0000   1.0000   1.0000   1.0000   1.0000   1.0000
     1.0000   1.0000   1.0000   1.0000   1.0000   1.0000   1.0000   1.0000
     1.0000   1.0000   1.0000   1.0000   1.0000   1.0000   1.0000   1.0000
     1.0000   1.0000   1.0000   1.0000   1.0000   1.0000   1.0000   1.0000
     1.0000   1.0000   1.0000   1.0000   1.0000   1.0000   1.0000   1.0000
     1.0000   1.0000   1.0000   1.0000   1.0000   1.0000   1.0000   1.0000
     1.0000   1.0000   1.0000   1.0000   1.0000   1.0000   1.0000   1.0000
     1.0000   1.0000   1.0000   1.0000   1.0000   1.0000   1.0000   1.0000
     1.0000   1.0000   1.0000   1.0000   1.0000   1.0000   1.0000   1.0000
     1.0000   1.0000   1.0000   1.0000   1.0000   1.0000   1.0000   1.0000
     1.0000   1.0000   1.0000   1.0000   1.0000   1.0000   1.0000   1.0000
     1.0000   1.0000   1.0000   1.0000   1.0000   1.0000   1.0000   1.0000
     1.0000   1.0000   1.0000   1.0000   1.0000   1.0000   1.0000   1.0000
     1.0000   1.0000   1.0000   1.0000   1.0000   1.0000   1.0000   1.0000
     1.0000   1.0000   1.0000   1.0000   1.0000   1.0000   1.0000   1.0000
     1.0000   1.0000   1.0000   1.0000   1.0000   1.0000   1.0000   1.0000
     1.0000   1.0000   0.9999   0.9999   0.9998   0.9997   0.9997   0.9996
     0.9996   0.9995   0.9994   0.9994   0.9993   0.9988   0.9984   0.9982
     0.9980   0.9938   0.9927   0.9922   0.9885   0.9872   0.9858   0.9848
     0.9827   0.9822   0.9817   0.9790   0.9760   0.9737   0.9715   0.9698
     0.9665   0.9602   0.9493   0.9453   0.9073   0.8603   0.8574   0.8518
     0.8387   0.8378   0.8347   0.8293   0.8149   0.8091   0.8066   0.7841
     0.7746   0.7403   0.7339   0.7002   0.6951   0.6825   0.6819   0.6707
     0.6689   0.6675   0.6651   0.6630   0.6564   0.6450   0.6444   0.6080
     0.6048   0.5959   0.5645   0.1211   0.1154   0.1071   0.0908   0.0309
     0.0170   0.0112   0.0044   0.0036   0.0026   0.0008   0.0004   0.0003
     0.0001   0.0000   0.0000   0.0000   0.0000   0.0000   0.0000   0.0000
     0.0000   0.0000   0.0000   0.0000   0.0000   0.0000   0.0000   0.0000
     0.0000   0.0000   0.0000   0.0000   0.0000   0.0000   0.0000

          k = 0.2500 0.2500 0.0000 ( 65198 PWs)   bands (ev):

   -92.3295 -92.2729 -92.1831 -92.1345 -92.0752 -92.0356 -92.0184 -91.8952
   -55.6826 -55.6591 -55.5411 -55.5306 -55.5222 -55.5173 -55.4785 -55.4528
   -55.4365 -55.4345 -55.4243 -55.3839 -55.3658 -55.3272 -55.3089 -55.2747
   -55.2698 -55.2246 -55.2218 -55.2214 -55.2129 -55.1696 -55.1492 -55.0624
   -30.9143 -30.8984 -30.8196 -30.7560 -30.7340 -30.6698 -30.5209 -30.4085
   -29.4798 -29.4381 -29.4124 -29.3037 -22.2479 -14.6495 -14.6158 -14.5403
   -14.4229 -14.3102 -14.1857 -14.1063 -13.9078 -13.7714 -13.7452 -13.7341
   -13.7001 -13.6693 -13.6476 -13.6244 -13.5946 -13.5795 -13.4775 -13.4625
   -13.3017 -13.2889 -13.2579 -13.2379 -13.2062 -13.1502 -13.1141 -13.0645
   -12.9761 -12.9482 -12.8700 -12.7863 -12.7635 -12.7383 -12.6962 -12.6686
   -12.6579 -12.6069 -12.5880 -12.5824 -12.5449 -12.5309 -12.4656 -12.4362
   -12.3838 -12.3793 -12.3543 -12.3461 -12.1851 -12.0912 -12.0754 -11.9168
   -11.7899 -11.7537 -11.4327 -11.4006 -11.3902 -11.3830 -11.3203 -11.2855
   -11.2788 -11.2435 -11.2361 -11.1437 -11.1024 -11.0849  -5.8520  -3.1564
    -3.1429  -2.3021  -2.0914  -1.9745  -1.8812  -1.7586  -1.6929  -1.4986
    -1.3507  -1.3304  -1.3042  -1.2089  -1.1742  -1.0815  -1.0544  -1.0046
    -0.8719  -0.8245  -0.7534  -0.7071  -0.6640  -0.6389  -0.6134  -0.5723
    -0.5557  -0.4662  -0.4165  -0.3551  -0.3053  -0.2753  -0.2215  -0.2110
    -0.1485  -0.0985  -0.0480  -0.0077   0.0728   0.1280   0.1565   0.1989
     0.2520   0.3159   0.3623   0.3863   0.4565   0.4948   0.7702   0.9139
     0.9552   1.0042   1.0499   1.0999   1.1675   1.2177   1.2563   1.5294
     1.6027   1.6769   1.7035   1.7452   1.7830   1.8174   1.8541   1.8720
     1.9001   1.9377   1.9479   1.9674   2.0057   2.0483   2.0883   2.1340
     2.1756   2.1854   2.2162   2.2546   2.3062   2.3380   2.4665   2.5321
     2.5728   2.6028   2.6581   2.7309   2.7600   2.7975   2.8199   2.8329
     2.9450   2.9797   3.0432   3.0681   3.1025   3.2443   3.2613   3.2684
     3.2838   3.2969   3.3103   3.3241   3.3316   3.3408   3.3544   3.3658
     3.3861   3.3919   3.4031   3.4228   3.4377   3.4476   3.4781   3.7804
     3.8723   3.9067   3.9737   3.9938   4.2131   4.3222   4.6520   4.8018
     4.9885   5.1366   5.3339   5.5838   5.9042   5.9456   5.9945   6.1272
     6.2105   6.2569   6.3726   6.4055   6.9417   6.9596   7.0854   7.1787
     7.7182   7.8113   7.8563   7.9029   8.0331   8.1536   8.2035   8.2538
     8.3583   8.4532   8.4833   8.6820   8.7267   8.7829   8.9921

     occupation numbers 
     1.0000   1.0000   1.0000   1.0000   1.0000   1.0000   1.0000   1.0000
     1.0000   1.0000   1.0000   1.0000   1.0000   1.0000   1.0000   1.0000
     1.0000   1.0000   1.0000   1.0000   1.0000   1.0000   1.0000   1.0000
     1.0000   1.0000   1.0000   1.0000   1.0000   1.0000   1.0000   1.0000
     1.0000   1.0000   1.0000   1.0000   1.0000   1.0000   1.0000   1.0000
     1.0000   1.0000   1.0000   1.0000   1.0000   1.0000   1.0000   1.0000
     1.0000   1.0000   1.0000   1.0000   1.0000   1.0000   1.0000   1.0000
     1.0000   1.0000   1.0000   1.0000   1.0000   1.0000   1.0000   1.0000
     1.0000   1.0000   1.0000   1.0000   1.0000   1.0000   1.0000   1.0000
     1.0000   1.0000   1.0000   1.0000   1.0000   1.0000   1.0000   1.0000
     1.0000   1.0000   1.0000   1.0000   1.0000   1.0000   1.0000   1.0000
     1.0000   1.0000   1.0000   1.0000   1.0000   1.0000   1.0000   1.0000
     1.0000   1.0000   1.0000   1.0000   1.0000   1.0000   1.0000   1.0000
     1.0000   1.0000   1.0000   1.0000   1.0000   1.0000   1.0000   1.0000
     1.0000   1.0000   1.0000   1.0000   1.0000   1.0000   1.0000   1.0000
     1.0000   1.0000   1.0000   1.0000   1.0000   1.0000   1.0000   1.0000
     1.0000   1.0000   1.0000   1.0000   1.0000   1.0000   1.0000   1.0000
     1.0000   1.0000   1.0000   1.0000   1.0000   1.0000   1.0000   1.0000
     1.0000   1.0000   1.0000   1.0000   1.0000   1.0000   1.0000   1.0000
     1.0000   1.0000   1.0000   1.0000   1.0000   1.0000   1.0000   1.0000
     1.0000   1.0000   1.0000   0.9999   0.9999   0.9999   0.9999   0.9994
     0.9991   0.9986   0.9985   0.9981   0.9978   0.9974   0.9969   0.9966
     0.9962   0.9955   0.9953   0.9949   0.9940   0.9928   0.9915   0.9899
     0.9881   0.9876   0.9861   0.9839   0.9805   0.9782   0.9662   0.9582
     0.9525   0.9479   0.9385   0.9243   0.9179   0.9092   0.9036   0.9003
     0.8679   0.8566   0.8342   0.8248   0.8113   0.7493   0.7411   0.7377
     0.7302   0.7238   0.7171   0.7101   0.7063   0.7016   0.6945   0.6885
     0.6778   0.6747   0.6687   0.6580   0.6499   0.6444   0.6274   0.4507
     0.3973   0.3777   0.3406   0.3297   0.2217   0.1766   0.0781   0.0504
     0.0276   0.0163   0.0075   0.0025   0.0005   0.0004   0.0003   0.0002
     0.0001   0.0001   0.0000   0.0000   0.0000   0.0000   0.0000   0.0000
     0.0000   0.0000   0.0000   0.0000   0.0000   0.0000   0.0000   0.0000
     0.0000   0.0000   0.0000   0.0000   0.0000   0.0000   0.0000

          k = 0.2500-0.5000 0.0000 ( 65138 PWs)   bands (ev):

   -92.3295 -92.2729 -92.1831 -92.1345 -92.0752 -92.0356 -92.0184 -91.8952
   -55.6826 -55.6591 -55.5411 -55.5306 -55.5222 -55.5173 -55.4785 -55.4528
   -55.4365 -55.4345 -55.4243 -55.3839 -55.3658 -55.3272 -55.3089 -55.2747
   -55.2698 -55.2246 -55.2218 -55.2214 -55.2129 -55.1696 -55.1492 -55.0624
   -30.9141 -30.8983 -30.8193 -30.7562 -30.7343 -30.6699 -30.5206 -30.4088
   -29.4791 -29.4378 -29.4130 -29.3041 -22.2479 -14.6149 -14.5695 -14.5016
   -14.3898 -14.3565 -14.2351 -14.1520 -14.0226 -13.7711 -13.7088 -13.6638
   -13.6322 -13.6129 -13.5960 -13.5786 -13.5468 -13.5348 -13.4989 -13.4569
   -13.4448 -13.4122 -13.3017 -13.2535 -13.2244 -13.1739 -13.1393 -13.1049
   -13.0333 -13.0008 -12.8454 -12.7819 -12.7728 -12.7272 -12.6944 -12.6683
   -12.6277 -12.6085 -12.5823 -12.5516 -12.5360 -12.5179 -12.4786 -12.4505
   -12.4068 -12.3602 -12.2940 -12.2626 -12.1604 -12.0772 -11.9606 -11.9361
   -11.8627 -11.8302 -11.4081 -11.3963 -11.3852 -11.3582 -11.3267 -11.2983
   -11.2572 -11.2292 -11.2072 -11.1618 -11.1359 -11.1245  -5.8520  -3.1566
    -3.1429  -2.0845  -2.0177  -1.8880  -1.8104  -1.6834  -1.5985  -1.4747
    -1.3233  -1.2716  -1.2484  -1.1851  -1.1717  -1.0752  -1.0083  -0.9223
    -0.8756  -0.8657  -0.8006  -0.7605  -0.7242  -0.6777  -0.6410  -0.6057
    -0.5647  -0.5547  -0.5087  -0.4805  -0.4402  -0.4090  -0.3412  -0.2425
    -0.2013  -0.1251  -0.0619  -0.0156   0.0308   0.0541   0.0987   0.2631
     0.2753   0.3712   0.4182   0.4243   0.4713   0.4975   0.5413   0.5664
     0.6414   0.8969   0.9893   1.0637   1.1319   1.3853   1.4145   1.5023
     1.5292   1.6994   1.7294   1.7748   1.7979   1.8170   1.8362   1.8955
     1.9375   1.9774   2.0536   2.1345   2.1790   2.2021   2.2119   2.2501
     2.2629   2.2691   2.3142   2.3283   2.3444   2.3727   2.3978   2.4243
     2.4555   2.5142   2.5490   2.6249   2.7739   2.9233   2.9394   2.9561
     2.9807   3.0063   3.0296   3.0490   3.0606   3.0722   3.0886   3.1110
     3.1949   3.2419   3.2624   3.2639   3.2812   3.3017   3.3156   3.3342
     3.3415   3.3704   3.3831   3.3996   3.4086   3.4162   3.4281   3.9439
     3.9503   4.1117   4.1597   4.4993   4.5395   4.5462   4.6652   5.0216
     5.1503   5.2647   5.4682   5.5039   5.6244   5.6847   5.8792   5.9442
     6.0914   6.1110   6.2856   6.4738   6.5770   6.6481   7.0860   7.3197
     7.5412   7.6225   7.9649   8.0801   8.1803   8.2078   8.3336   8.4002
     8.4963   8.5643   8.6629   8.7880   8.8696   8.9264   9.0122

     occupation numbers 
     1.0000   1.0000   1.0000   1.0000   1.0000   1.0000   1.0000   1.0000
     1.0000   1.0000   1.0000   1.0000   1.0000   1.0000   1.0000   1.0000
     1.0000   1.0000   1.0000   1.0000   1.0000   1.0000   1.0000   1.0000
     1.0000   1.0000   1.0000   1.0000   1.0000   1.0000   1.0000   1.0000
     1.0000   1.0000   1.0000   1.0000   1.0000   1.0000   1.0000   1.0000
     1.0000   1.0000   1.0000   1.0000   1.0000   1.0000   1.0000   1.0000
     1.0000   1.0000   1.0000   1.0000   1.0000   1.0000   1.0000   1.0000
     1.0000   1.0000   1.0000   1.0000   1.0000   1.0000   1.0000   1.0000
     1.0000   1.0000   1.0000   1.0000   1.0000   1.0000   1.0000   1.0000
     1.0000   1.0000   1.0000   1.0000   1.0000   1.0000   1.0000   1.0000
     1.0000   1.0000   1.0000   1.0000   1.0000   1.0000   1.0000   1.0000
     1.0000   1.0000   1.0000   1.0000   1.0000   1.0000   1.0000   1.0000
     1.0000   1.0000   1.0000   1.0000   1.0000   1.0000   1.0000   1.0000
     1.0000   1.0000   1.0000   1.0000   1.0000   1.0000   1.0000   1.0000
     1.0000   1.0000   1.0000   1.0000   1.0000   1.0000   1.0000   1.0000
     1.0000   1.0000   1.0000   1.0000   1.0000   1.0000   1.0000   1.0000
     1.0000   1.0000   1.0000   1.0000   1.0000   1.0000   1.0000   1.0000
     1.0000   1.0000   1.0000   1.0000   1.0000   1.0000   1.0000   1.0000
     1.0000   1.0000   1.0000   1.0000   1.0000   1.0000   1.0000   1.0000
     1.0000   1.0000   1.0000   1.0000   1.0000   1.0000   1.0000   1.0000
     1.0000   1.0000   1.0000   1.0000   0.9999   0.9997   0.9996   0.9994
     0.9994   0.9985   0.9983   0.9978   0.9976   0.9974   0.9971   0.9963
     0.9955   0.9947   0.9927   0.9898   0.9879   0.9868   0.9863   0.9842
     0.9834   0.9830   0.9800   0.9789   0.9777   0.9754   0.9731   0.9706
     0.9674   0.9605   0.9559   0.9443   0.9148   0.8747   0.8697   0.8644
     0.8563   0.8474   0.8391   0.8320   0.8277   0.8232   0.8168   0.8079
     0.7720   0.7504   0.7406   0.7399   0.7315   0.7214   0.7144   0.7050
     0.7012   0.6861   0.6794   0.6706   0.6658   0.6616   0.6552   0.3569
     0.3534   0.2690   0.2460   0.1168   0.1054   0.1036   0.0753   0.0246
     0.0155   0.0100   0.0043   0.0036   0.0021   0.0016   0.0006   0.0004
     0.0002   0.0002   0.0001   0.0000   0.0000   0.0000   0.0000   0.0000
     0.0000   0.0000   0.0000   0.0000   0.0000   0.0000   0.0000   0.0000
     0.0000   0.0000   0.0000   0.0000   0.0000   0.0000   0.0000

          k =-0.5000-0.5000 0.0000 ( 65132 PWs)   bands (ev):

   -92.3295 -92.2729 -92.1831 -92.1345 -92.0752 -92.0356 -92.0184 -91.8952
   -55.6826 -55.6591 -55.5411 -55.5306 -55.5222 -55.5173 -55.4785 -55.4528
   -55.4365 -55.4345 -55.4243 -55.3839 -55.3658 -55.3272 -55.3089 -55.2747
   -55.2698 -55.2246 -55.2218 -55.2214 -55.2129 -55.1696 -55.1492 -55.0624
   -30.9119 -30.9005 -30.8192 -30.7558 -30.7342 -30.6703 -30.5207 -30.4089
   -29.4781 -29.4388 -29.4126 -29.3045 -22.2479 -14.5685 -14.5420 -14.4250
   -14.4138 -14.3234 -14.2813 -14.2568 -14.1216 -13.7711 -13.6215 -13.6113
   -13.5738 -13.5583 -13.5395 -13.5307 -13.4942 -13.4862 -13.4753 -13.4670
   -13.4522 -13.3721 -13.3637 -13.3459 -13.3206 -13.3014 -13.2144 -13.1989
   -13.0798 -13.0527 -12.7965 -12.7681 -12.7046 -12.6929 -12.6672 -12.6610
   -12.6237 -12.6209 -12.6124 -12.5929 -12.5307 -12.5053 -12.4739 -12.4689
   -12.4199 -12.3704 -12.2438 -12.2362 -12.1768 -12.0585 -11.9570 -11.9083
   -11.8575 -11.8329 -11.4043 -11.3925 -11.3747 -11.3578 -11.3233 -11.3050
   -11.2710 -11.2094 -11.1896 -11.1838 -11.1336 -11.1304  -5.8520  -3.1566
    -3.1430  -1.8617  -1.7849  -1.7739  -1.7013  -1.6625  -1.5843  -1.5166
    -1.3915  -1.2736  -1.2436  -1.2057  -1.1467  -1.0754  -1.0617  -0.9898
    -0.9475  -0.8324  -0.8050  -0.7564  -0.7232  -0.6594  -0.6164  -0.5966
    -0.5854  -0.5339  -0.4846  -0.4742  -0.3586  -0.3006  -0.2540  -0.2055
    -0.1828  -0.1715  -0.1334  -0.0931  -0.0611  -0.0453   0.0415   0.1058
     0.1573   0.1770   0.2536   0.3008   0.3204   0.3742   0.3886   0.4128
     0.4231   0.8635   0.9041   1.0102   1.0447   1.4202   1.4324   1.4648
     1.5051   1.7811   1.8007   1.8076   1.8452   1.9814   2.0783   2.1036
[...]
     0.0000   0.0000   0.0000   0.0000   0.0000   0.0000   0.0000   0.0000
     0.0000   0.0000   0.0000   0.0000   0.0000   0.0000   0.0000

          k =-0.5000 0.0000 0.0000 ( 65180 PWs)   bands (ev):

   -92.3295 -92.2729 -92.1831 -92.1345 -92.0752 -92.0356 -92.0184 -91.8952
   -55.6826 -55.6591 -55.5411 -55.5306 -55.5222 -55.5173 -55.4785 -55.4528
   -55.4365 -55.4345 -55.4243 -55.3839 -55.3658 -55.3272 -55.3089 -55.2747
   -55.2698 -55.2246 -55.2218 -55.2214 -55.2129 -55.1696 -55.1492 -55.0624
   -30.9123 -30.9008 -30.8198 -30.7554 -30.7335 -30.6700 -30.5213 -30.4083
   -29.4793 -29.4395 -29.4114 -29.3038 -22.2479 -14.6490 -14.5999 -14.5378
   -14.4357 -14.3236 -14.1811 -14.0392 -13.9083 -13.7724 -13.7705 -13.7632
   -13.7412 -13.6902 -13.6298 -13.5960 -13.5546 -13.5476 -13.5345 -13.4758
   -13.4745 -13.3735 -13.1893 -13.1772 -13.1302 -13.1218 -13.0938 -13.0004
   -12.9745 -12.9081 -12.8915 -12.8845 -12.8072 -12.6941 -12.6907 -12.6864
   -12.6686 -12.6506 -12.6133 -12.5959 -12.5799 -12.5577 -12.4492 -12.3565
   -12.3258 -12.3222 -12.2788 -12.2696 -12.1797 -12.1591 -12.0286 -11.9669
   -11.8452 -11.8093 -11.4117 -11.3905 -11.3836 -11.3682 -11.3505 -11.3093
   -11.2463 -11.2292 -11.1971 -11.1508 -11.1415 -11.1258  -5.8520  -3.1563
    -3.1431  -2.2154  -2.1764  -2.0113  -1.9725  -1.6612  -1.5867  -1.4356
    -1.3183  -1.2803  -1.2348  -1.1856  -1.1596  -1.0384  -0.9927  -0.9795
    -0.8959  -0.8607  -0.8476  -0.8131  -0.7586  -0.6883  -0.6576  -0.6330
    -0.5385  -0.4877  -0.4395  -0.4073  -0.3851  -0.3578  -0.3085  -0.2840
    -0.2463  -0.1545  -0.0770  -0.0202   0.0448   0.2050   0.2444   0.3098
     0.3276   0.3915   0.4182   0.5466   0.5850   0.6261   0.8075   0.9052
     0.9508   1.0201   1.0940   1.2245   1.2313   1.3645   1.3932   1.4467
     1.4676   1.5119   1.5251   1.5678   1.5965   1.6585   1.7055   1.7538
     1.7615   2.0595   2.0602   2.0793   2.0910   2.2157   2.2251   2.2326
     2.2519   2.2794   2.2915   2.3297   2.3609   2.3786   2.4448   2.4484
     2.5054   2.5213   2.5845   2.6860   2.7885   2.8663   2.8814   2.9657
     2.9961   3.0216   3.0459   3.0850   3.0960   3.1041   3.1067   3.1348
     3.2038   3.2482   3.2891   3.3231   3.3670   3.3719   3.3729   3.3855
     3.3992   3.4117   3.4266   3.4292   3.4512   3.4564   3.4780   3.4987
     3.5032   3.6326   3.6359   4.4278   4.4694   4.5357   4.6706   4.9743
     5.1388   5.2621   5.3271   5.4615   5.6863   5.8859   5.9321   5.9943
     6.1422   6.3767   6.3957   6.4756   6.9704   7.0440   7.1786   7.4507
     7.5223   7.6216   7.7823   7.9480   7.9701   8.1013   8.2026   8.3969
     8.4838   8.6477   8.7014   8.7258   8.8020   8.8672   8.9387

     occupation numbers 
     1.0000   1.0000   1.0000   1.0000   1.0000   1.0000   1.0000   1.0000
     1.0000   1.0000   1.0000   1.0000   1.0000   1.0000   1.0000   1.0000
     1.0000   1.0000   1.0000   1.0000   1.0000   1.0000   1.0000   1.0000
     1.0000   1.0000   1.0000   1.0000   1.0000   1.0000   1.0000   1.0000
     1.0000   1.0000   1.0000   1.0000   1.0000   1.0000   1.0000   1.0000
     1.0000   1.0000   1.0000   1.0000   1.0000   1.0000   1.0000   1.0000
     1.0000   1.0000   1.0000   1.0000   1.0000   1.0000   1.0000   1.0000
     1.0000   1.0000   1.0000   1.0000   1.0000   1.0000   1.0000   1.0000
     1.0000   1.0000   1.0000   1.0000   1.0000   1.0000   1.0000   1.0000
     1.0000   1.0000   1.0000   1.0000   1.0000   1.0000   1.0000   1.0000
     1.0000   1.0000   1.0000   1.0000   1.0000   1.0000   1.0000   1.0000
     1.0000   1.0000   1.0000   1.0000   1.0000   1.0000   1.0000   1.0000
     1.0000   1.0000   1.0000   1.0000   1.0000   1.0000   1.0000   1.0000
     1.0000   1.0000   1.0000   1.0000   1.0000   1.0000   1.0000   1.0000
     1.0000   1.0000   1.0000   1.0000   1.0000   1.0000   1.0000   1.0000
     1.0000   1.0000   1.0000   1.0000   1.0000   1.0000   1.0000   1.0000
     1.0000   1.0000   1.0000   1.0000   1.0000   1.0000   1.0000   1.0000
     1.0000   1.0000   1.0000   1.0000   1.0000   1.0000   1.0000   1.0000
     1.0000   1.0000   1.0000   1.0000   1.0000   1.0000   1.0000   1.0000
     1.0000   1.0000   1.0000   1.0000   1.0000   1.0000   1.0000   1.0000
     1.0000   1.0000   0.9999   0.9999   0.9999   0.9997   0.9997   0.9996
     0.9995   0.9994   0.9994   0.9992   0.9991   0.9988   0.9984   0.9980
     0.9980   0.9925   0.9925   0.9918   0.9915   0.9861   0.9856   0.9852
     0.9841   0.9823   0.9816   0.9788   0.9764   0.9749   0.9685   0.9681
     0.9616   0.9596   0.9507   0.9333   0.9113   0.8913   0.8871   0.8612
     0.8510   0.8420   0.8332   0.8182   0.8139   0.8107   0.8096   0.7981
     0.7680   0.7474   0.7276   0.7106   0.6879   0.6853   0.6848   0.6781
     0.6708   0.6641   0.6560   0.6545   0.6424   0.6395   0.6275   0.6158
     0.6132   0.5381   0.5361   0.1389   0.1257   0.1065   0.0741   0.0289
     0.0161   0.0101   0.0077   0.0044   0.0016   0.0006   0.0005   0.0003
     0.0001   0.0000   0.0000   0.0000   0.0000   0.0000   0.0000   0.0000
     0.0000   0.0000   0.0000   0.0000   0.0000   0.0000   0.0000   0.0000
     0.0000   0.0000   0.0000   0.0000   0.0000   0.0000   0.0000

          k =-0.2500 0.2500 0.0000 ( 65198 PWs)   bands (ev):

   -92.3295 -92.2729 -92.1831 -92.1345 -92.0752 -92.0356 -92.0184 -91.8952
   -55.6826 -55.6591 -55.5411 -55.5306 -55.5222 -55.5173 -55.4785 -55.4528
   -55.4365 -55.4345 -55.4243 -55.3839 -55.3658 -55.3272 -55.3089 -55.2747
   -55.2698 -55.2246 -55.2218 -55.2214 -55.2129 -55.1696 -55.1492 -55.0624
   -30.9143 -30.8984 -30.8196 -30.7560 -30.7340 -30.6698 -30.5209 -30.4085
   -29.4798 -29.4381 -29.4124 -29.3037 -22.2479 -14.6509 -14.6147 -14.5389
   -14.4208 -14.3170 -14.1897 -14.0982 -13.8993 -13.7714 -13.7530 -13.7223
   -13.7142 -13.6642 -13.6409 -13.6256 -13.6138 -13.5776 -13.4742 -13.4632
   -13.3103 -13.2845 -13.2570 -13.2357 -13.2069 -13.1359 -13.1056 -13.0742
   -12.9844 -12.9507 -12.8634 -12.7877 -12.7610 -12.7364 -12.6855 -12.6690
   -12.6412 -12.6173 -12.5960 -12.5791 -12.5642 -12.5392 -12.4793 -12.4222
   -12.4091 -12.3705 -12.3475 -12.3300 -12.1653 -12.0972 -12.0809 -11.9226
   -11.7929 -11.7492 -11.4320 -11.4102 -11.3830 -11.3708 -11.3300 -11.2952
   -11.2721 -11.2509 -11.2282 -11.1435 -11.0977 -11.0882  -5.8520  -3.1564
    -3.1429  -2.3004  -2.0904  -1.9702  -1.8831  -1.7628  -1.6955  -1.4963
    -1.3473  -1.3281  -1.3022  -1.2094  -1.1730  -1.0811  -1.0482  -1.0221
    -0.8775  -0.8228  -0.7563  -0.7266  -0.6678  -0.6442  -0.6038  -0.5746
    -0.5347  -0.4728  -0.4257  -0.3668  -0.2963  -0.2713  -0.2176  -0.1896
    -0.1449  -0.0897  -0.0503  -0.0022   0.0911   0.1299   0.1358   0.1852
     0.2502   0.3163   0.3652   0.3904   0.4596   0.4925   0.7521   0.9151
     0.9631   0.9973   1.0539   1.1029   1.1666   1.2250   1.2539   1.5366
     1.6540   1.6929   1.7223   1.7329   1.7756   1.7932   1.8363   1.8664
     1.8838   1.9097   1.9477   1.9607   2.0088   2.0229   2.0677   2.1462
     2.1658   2.1851   2.2228   2.2509   2.2887   2.3428   2.4563   2.5610
     2.5985   2.6401   2.6621   2.7295   2.7734   2.7989   2.8206   2.8431
     2.9461   2.9785   3.0432   3.0682   3.1022   3.2509   3.2596   3.2732
     3.2836   3.2937   3.3073   3.3136   3.3306   3.3391   3.3558   3.3650
     3.3781   3.3873   3.3931   3.4249   3.4370   3.4466   3.4801   3.7734
     3.8546   3.9106   3.9817   3.9977   4.1972   4.3306   4.6510   4.8025
     4.9847   5.1390   5.3439   5.5870   5.9044   5.9366   5.9974   6.1333
     6.2072   6.2540   6.3613   6.4199   6.9286   6.9595   7.0857   7.2028
     7.7223   7.8018   7.8557   7.9069   7.9906   8.1494   8.1919   8.3091
     8.3626   8.4463   8.4819   8.6749   8.7298   8.7813   9.0062

     occupation numbers 
     1.0000   1.0000   1.0000   1.0000   1.0000   1.0000   1.0000   1.0000
     1.0000   1.0000   1.0000   1.0000   1.0000   1.0000   1.0000   1.0000
     1.0000   1.0000   1.0000   1.0000   1.0000   1.0000   1.0000   1.0000
     1.0000   1.0000   1.0000   1.0000   1.0000   1.0000   1.0000   1.0000
     1.0000   1.0000   1.0000   1.0000   1.0000   1.0000   1.0000   1.0000
     1.0000   1.0000   1.0000   1.0000   1.0000   1.0000   1.0000   1.0000
     1.0000   1.0000   1.0000   1.0000   1.0000   1.0000   1.0000   1.0000
     1.0000   1.0000   1.0000   1.0000   1.0000   1.0000   1.0000   1.0000
     1.0000   1.0000   1.0000   1.0000   1.0000   1.0000   1.0000   1.0000
     1.0000   1.0000   1.0000   1.0000   1.0000   1.0000   1.0000   1.0000
     1.0000   1.0000   1.0000   1.0000   1.0000   1.0000   1.0000   1.0000
     1.0000   1.0000   1.0000   1.0000   1.0000   1.0000   1.0000   1.0000
     1.0000   1.0000   1.0000   1.0000   1.0000   1.0000   1.0000   1.0000
     1.0000   1.0000   1.0000   1.0000   1.0000   1.0000   1.0000   1.0000
     1.0000   1.0000   1.0000   1.0000   1.0000   1.0000   1.0000   1.0000
     1.0000   1.0000   1.0000   1.0000   1.0000   1.0000   1.0000   1.0000
     1.0000   1.0000   1.0000   1.0000   1.0000   1.0000   1.0000   1.0000
     1.0000   1.0000   1.0000   1.0000   1.0000   1.0000   1.0000   1.0000
     1.0000   1.0000   1.0000   1.0000   1.0000   1.0000   1.0000   1.0000
     1.0000   1.0000   1.0000   1.0000   1.0000   1.0000   1.0000   1.0000
     1.0000   1.0000   1.0000   0.9999   0.9999   0.9999   0.9999   0.9993
     0.9988   0.9985   0.9983   0.9982   0.9978   0.9976   0.9971   0.9967
     0.9965   0.9960   0.9953   0.9950   0.9939   0.9935   0.9922   0.9894
     0.9885   0.9876   0.9857   0.9841   0.9817   0.9778   0.9673   0.9542
     0.9486   0.9417   0.9378   0.9246   0.9149   0.9088   0.9034   0.8976
     0.8676   0.8570   0.8342   0.8247   0.8114   0.7461   0.7420   0.7354
     0.7303   0.7253   0.7186   0.7154   0.7068   0.7024   0.6938   0.6890
     0.6820   0.6772   0.6741   0.6569   0.6503   0.6449   0.6263   0.4548
     0.4075   0.3755   0.3362   0.3276   0.2288   0.1734   0.0783   0.0503
     0.0279   0.0161   0.0072   0.0025   0.0005   0.0004   0.0003   0.0001
     0.0001   0.0001   0.0000   0.0000   0.0000   0.0000   0.0000   0.0000
     0.0000   0.0000   0.0000   0.0000   0.0000   0.0000   0.0000   0.0000
     0.0000   0.0000   0.0000   0.0000   0.0000   0.0000   0.0000

          k =-0.5000 0.2500 0.0000 ( 65138 PWs)   bands (ev):

   -92.3295 -92.2729 -92.1831 -92.1345 -92.0752 -92.0356 -92.0184 -91.8952
   -55.6826 -55.6591 -55.5411 -55.5306 -55.5222 -55.5173 -55.4785 -55.4528
   -55.4365 -55.4345 -55.4243 -55.3839 -55.3658 -55.3272 -55.3089 -55.2747
   -55.2698 -55.2246 -55.2218 -55.2214 -55.2129 -55.1696 -55.1492 -55.0624
   -30.9121 -30.9006 -30.8195 -30.7556 -30.7339 -30.6702 -30.5210 -30.4086
   -29.4787 -29.4391 -29.4120 -29.3042 -22.2479 -14.6165 -14.5733 -14.4947
   -14.4004 -14.3546 -14.2271 -14.1438 -14.0200 -13.7712 -13.7035 -13.6736
   -13.6606 -13.6158 -13.6009 -13.5693 -13.5415 -13.5319 -13.5105 -13.4753
   -13.4555 -13.3609 -13.2740 -13.2383 -13.2232 -13.2134 -13.1552 -13.1067
   -13.0228 -12.9840 -12.8393 -12.8049 -12.7540 -12.7099 -12.6730 -12.6597
   -12.6534 -12.6222 -12.6075 -12.5831 -12.5748 -12.5447 -12.4589 -12.4019
   -12.3769 -12.3494 -12.2610 -12.2533 -12.1780 -12.1017 -11.9712 -11.9622
   -11.8438 -11.8215 -11.4045 -11.3916 -11.3775 -11.3659 -11.3443 -11.3141
   -11.2339 -11.2248 -11.2021 -11.1653 -11.1372 -11.1283  -5.8520  -3.1564
    -3.1431  -2.0736  -2.0311  -1.8812  -1.8394  -1.6805  -1.6055  -1.4599
    -1.3249  -1.2691  -1.2414  -1.2017  -1.1621  -1.0823  -0.9679  -0.9111
    -0.8878  -0.8631  -0.7878  -0.7572  -0.7206  -0.7010  -0.6404  -0.6142
    -0.5725  -0.5372  -0.5086  -0.4520  -0.4259  -0.3840  -0.3505  -0.2469
    -0.2197  -0.1380  -0.0713  -0.0401   0.0136   0.1031   0.1336   0.2363
     0.2679   0.3273   0.3763   0.3950   0.4799   0.5091   0.5402   0.5982
     0.6352   0.9333   0.9882   1.0615   1.0896   1.3717   1.4258   1.5030
     1.5296   1.7104   1.7483   1.7854   1.8007   1.8186   1.8366   1.9054
     1.9453   1.9839   2.0098   2.1260   2.1596   2.2008   2.2111   2.2488
     2.2740   2.2873   2.3040   2.3270   2.3486   2.3934   2.4165   2.4464
     2.4696   2.4961   2.5631   2.6785   2.7838   2.8112   2.8806   2.9224
     2.9827   3.0166   3.0268   3.0448   3.0612   3.0962   3.1022   3.1198
     3.2039   3.2444   3.2579   3.2653   3.2860   3.3097   3.3224   3.3369
     3.3488   3.3682   3.3814   3.3933   3.4006   3.4108   3.4224   3.9447
     3.9869   4.1421   4.1647   4.4358   4.4974   4.5494   4.7591   5.0413
     5.1437   5.2652   5.3622   5.4686   5.7239   5.7709   5.8303   5.9419
     6.0549   6.1014   6.2574   6.5076   6.5855   6.6658   7.0694   7.2462
     7.5747   7.6520   7.9869   8.0723   8.1761   8.2076   8.3242   8.3497
     8.4927   8.5713   8.6746   8.8194   8.8376   8.9305   9.0016

     occupation numbers 
     1.0000   1.0000   1.0000   1.0000   1.0000   1.0000   1.0000   1.0000
     1.0000   1.0000   1.0000   1.0000   1.0000   1.0000   1.0000   1.0000
     1.0000   1.0000   1.0000   1.0000   1.0000   1.0000   1.0000   1.0000
     1.0000   1.0000   1.0000   1.0000   1.0000   1.0000   1.0000   1.0000
     1.0000   1.0000   1.0000   1.0000   1.0000   1.0000   1.0000   1.0000
     1.0000   1.0000   1.0000   1.0000   1.0000   1.0000   1.0000   1.0000
     1.0000   1.0000   1.0000   1.0000   1.0000   1.0000   1.0000   1.0000
     1.0000   1.0000   1.0000   1.0000   1.0000   1.0000   1.0000   1.0000
     1.0000   1.0000   1.0000   1.0000   1.0000   1.0000   1.0000   1.0000
     1.0000   1.0000   1.0000   1.0000   1.0000   1.0000   1.0000   1.0000
     1.0000   1.0000   1.0000   1.0000   1.0000   1.0000   1.0000   1.0000
     1.0000   1.0000   1.0000   1.0000   1.0000   1.0000   1.0000   1.0000
     1.0000   1.0000   1.0000   1.0000   1.0000   1.0000   1.0000   1.0000
     1.0000   1.0000   1.0000   1.0000   1.0000   1.0000   1.0000   1.0000
     1.0000   1.0000   1.0000   1.0000   1.0000   1.0000   1.0000   1.0000
     1.0000   1.0000   1.0000   1.0000   1.0000   1.0000   1.0000   1.0000
     1.0000   1.0000   1.0000   1.0000   1.0000   1.0000   1.0000   1.0000
     1.0000   1.0000   1.0000   1.0000   1.0000   1.0000   1.0000   1.0000
     1.0000   1.0000   1.0000   1.0000   1.0000   1.0000   1.0000   1.0000
     1.0000   1.0000   1.0000   1.0000   1.0000   1.0000   1.0000   1.0000
     1.0000   1.0000   1.0000   1.0000   0.9999   0.9997   0.9996   0.9994
     0.9994   0.9984   0.9981   0.9977   0.9976   0.9974   0.9971   0.9961
     0.9954   0.9945   0.9939   0.9902   0.9888   0.9868   0.9863   0.9842
     0.9827   0.9818   0.9807   0.9790   0.9774   0.9735   0.9714   0.9683
     0.9658   0.9627   0.9539   0.9348   0.9124   0.9058   0.8873   0.8750
     0.8556   0.8438   0.8402   0.8336   0.8274   0.8138   0.8114   0.8043
     0.7680   0.7492   0.7428   0.7392   0.7291   0.7174   0.7110   0.7036
     0.6974   0.6873   0.6803   0.6740   0.6701   0.6646   0.6582   0.3565
     0.3334   0.2543   0.2437   0.1363   0.1173   0.1028   0.0574   0.0230
     0.0158   0.0099   0.0067   0.0043   0.0013   0.0010   0.0008   0.0004
     0.0002   0.0002   0.0001   0.0000   0.0000   0.0000   0.0000   0.0000
     0.0000   0.0000   0.0000   0.0000   0.0000   0.0000   0.0000   0.0000
     0.0000   0.0000   0.0000   0.0000   0.0000   0.0000   0.0000

     the Fermi energy is     3.6970 ev

!    total energy              =   -4482.96987929 Ry
     estimated scf accuracy    <          5.4E-09 Ry
     smearing contrib. (-TS)   =      -1.17291097 Ry
     internal energy E=F+TS    =   -4481.79696832 Ry

     The total energy is F=E-TS. E is the sum of the following terms:
     one-electron contribution =  -20253.14374974 Ry
     hartree contribution      =   10266.36912790 Ry
     xc contribution           =    -701.57917373 Ry
     ewald contribution        =    6492.21359002 Ry
     one-center paw contrib.   =    -285.65676276 Ry
      -> PAW hartree energy AE =      25.18449124 Ry
      -> PAW hartree energy PS =     -25.06819581 Ry
      -> PAW xc energy AE      =     -16.52047955 Ry
      -> PAW xc energy PS      =       6.88011677 Ry
      -> total E_H with PAW    =   10266.48542333 Ry
      -> total E_XC with PAW   =    -711.21953652 Ry

     convergence has been achieved in  53 iterations

     Writing all to output data dir /bsuhome/zayahcortright/scratch/pwscf.save/
 
     init_run     :      8.04s CPU      8.53s WALL (       1 calls)
     electrons    :    799.50s CPU    833.77s WALL (       1 calls)

     Called by init_run:
     wfcinit      :      6.26s CPU      6.47s WALL (       1 calls)
     wfcinit:atom :      0.05s CPU      0.07s WALL (       5 calls)
     wfcinit:wfcr :      5.92s CPU      6.06s WALL (       5 calls)
     potinit      :      0.16s CPU      0.18s WALL (       1 calls)
     hinit0       :      0.69s CPU      0.76s WALL (       1 calls)

     Called by electrons:
     c_bands      :    640.79s CPU    648.09s WALL (      53 calls)
     sum_band     :    119.92s CPU    135.21s WALL (      53 calls)
     v_of_rho     :      5.79s CPU      6.18s WALL (      54 calls)
     v_h          :      0.51s CPU      0.52s WALL (      54 calls)
     v_xc         :      5.28s CPU      5.66s WALL (      54 calls)
     newd         :     17.65s CPU     28.45s WALL (      54 calls)
     PAW_pot      :      1.76s CPU      1.80s WALL (      54 calls)
     mix_rho      :     13.22s CPU     13.61s WALL (      53 calls)

     Called by c_bands:
     init_us_2    :      7.51s CPU      7.56s WALL (     535 calls)
     init_us_2:cp :      7.50s CPU      7.55s WALL (     535 calls)
     cegterg      :    608.53s CPU    615.53s WALL (     265 calls)

     Called by sum_band:
     sum_band:wei :      0.37s CPU      0.38s WALL (      53 calls)
     sum_band:loo :     99.86s CPU    100.62s WALL (      53 calls)
     sum_band:buf :      1.56s CPU      1.61s WALL (     265 calls)
     sum_band:ini :      3.37s CPU      3.38s WALL (     265 calls)
     sum_band:cal :     21.98s CPU     22.06s WALL (     265 calls)
     sum_band:bec :      0.65s CPU      0.67s WALL (     265 calls)
     addusdens    :     17.04s CPU     31.51s WALL (      53 calls)
                                        0.00s GPU  (      53 calls)
     addusd:skk   :      0.34s CPU      1.03s WALL (     212 calls)
                                        0.00s GPU  (     212 calls)

     Called by *egterg:
     cdiaghg      :     69.82s CPU     70.15s WALL (    1576 calls)
     cegterg:over :     44.21s CPU     44.39s WALL (    1311 calls)
     cegterg:upda :     33.79s CPU     34.39s WALL (    1311 calls)
     cegterg:last :     69.76s CPU     70.03s WALL (     495 calls)
     cdiaghg:chol :      4.03s CPU      4.05s WALL (    1576 calls)
     cdiaghg:inve :      4.35s CPU      4.37s WALL (    1576 calls)
     cdiaghg:para :      8.92s CPU      8.98s WALL (    3152 calls)
     h_psi        :    326.77s CPU    330.16s WALL (    1581 calls)
     s_psi        :     46.08s CPU     46.22s WALL (    1581 calls)
     g_psi        :      1.18s CPU      1.19s WALL (    1311 calls)

     Called by h_psi:
     h_psi:calbec :     51.48s CPU     51.68s WALL (    1581 calls)
     vloc_psi     :    226.30s CPU    228.51s WALL (    1581 calls)
     add_vuspsi   :     45.85s CPU     46.07s WALL (    1581 calls)

     General routines
     calbec       :     73.45s CPU     73.73s WALL (    1846 calls)
     fft          :      3.92s CPU      3.98s WALL (     700 calls)
     ffts         :      4.92s CPU      4.95s WALL (    5639 calls)
     fftw         :    191.23s CPU    192.83s WALL (  365365 calls)
     interpolate  :      0.44s CPU      0.45s WALL (      54 calls)
 
     Parallel routines

     PAW routines
     PAW_pot      :      1.76s CPU      1.80s WALL (      54 calls)
 
     PWSCF        :  13m29.24s CPU  14m 9.29s WALL

 
   This run was terminated on:  23: 7:30  18Jun2024            

=------------------------------------------------------------------------------=
   JOB DONE.
=------------------------------------------------------------------------------=
