
     Program PWSCF v.7.2 starts on 19Jun2024 at  0: 1:53 

     This program is part of the open-source Quantum ESPRESSO suite
     for quantum simulation of materials; please cite
         "P. Giannozzi et al., J. Phys.:Condens. Matter 21 395502 (2009);
         "P. Giannozzi et al., J. Phys.:Condens. Matter 29 465901 (2017);
         "P. Giannozzi et al., J. Chem. Phys. 152 154105 (2020);
          URL http://www.quantum-espresso.org", 
     in publications or presentations arising from this work. More details at
     http://www.quantum-espresso.org/quote

     Parallel version (MPI & OpenMP), running on      48 processor cores
     Number of MPI processes:                48
     Threads/MPI process:                     1

     MPI processes distributed on     1 nodes
     16410 MiB available memory on the printing compute node when the environment starts
 
     Reading input from espresso.pwi
Warning: card &CELL ignored
Warning: card / ignored
Warning: card &FCP ignored
Warning: card / ignored
Warning: card &RISM ignored
Warning: card / ignored

     Current dimensions of program PWSCF are:
     Max number of different atomic species (ntypx) = 10
     Max number of k-points (npk) =  40000
     Max angular momentum in pseudopotentials (lmaxx) =  4
     file O.pbe-n-kjpaw_psl.0.1.UPF: wavefunction(s)  2P renormalized
     signal trapping enabled: kill the code with -SIGUSR1 to stop cleanly the simulation 
 
     K-points division:     npool     =       2
     R & G space division:  proc/nbgrp/npool/nimage =      24
     Subspace diagonalization in iterative solution of the eigenvalue problem:
     one sub-group per band group will be used
     scalapack distributed-memory algorithm (size of sub-group:  3*  3 procs)

 
     Parallelization info
     --------------------
     sticks:   dense  smooth     PW     G-vecs:    dense   smooth      PW
     Min         350     175     47                61430    21716    3036
     Max         351     177     48                61449    21727    3041
     Sum        8421    4205   1137              1474595   521381   72913
 
     Using Slab Decomposition
 


     bravais-lattice index     =            0
     lattice parameter (alat)  =      14.8599  a.u.
     unit-cell volume          =    8305.1283 (a.u.)^3
     number of atoms/cell      =           51
     number of atomic types    =            4
     number of electrons       =       437.00
     number of Kohn-Sham states=          263
     kinetic-energy cutoff     =      60.0000  Ry
     charge density cutoff     =     480.0000  Ry
     scf convergence threshold =      1.0E-08
     mixing beta               =       0.1500
     number of iterations used =            8  local-TF  mixing
     Exchange-correlation= PBE
                           (   1   4   3   4   0   0   0)

     celldm(1)=  14.859904  celldm(2)=   0.000000  celldm(3)=   0.000000
     celldm(4)=   0.000000  celldm(5)=   0.000000  celldm(6)=   0.000000

     crystal axes: (cart. coord. in units of alat)
               a(1) = (   1.000000   0.000000   0.000000 )  
               a(2) = (   0.000000   1.000000   0.000000 )  
               a(3) = (   0.000000   0.000000   2.531036 )  

     reciprocal axes: (cart. coord. in units 2 pi/alat)
               b(1) = (  1.000000  0.000000  0.000000 )  
               b(2) = (  0.000000  1.000000  0.000000 )  
               b(3) = (  0.000000  0.000000  0.395095 )  


     PseudoPot. # 1 for Sr read from file:
     /bsuhome/zayahcortright/q-e/pseudo/Sr_pbe_v1.uspp.F.UPF
     MD5 check sum: 6b418c05fbe9db5448babca5e47b7a5b
     Pseudo is Ultrasoft + core correction, Zval = 10.0
     Generated by new atomic code, or converted to UPF format
     Using radial grid of  883 points,  6 beta functions with: 
                l(1) =   0
                l(2) =   0
                l(3) =   1
                l(4) =   1
                l(5) =   2
                l(6) =   2
     Q(r) pseudized with  6 coefficients,  rinner =    1.400   1.400   1.400
                                                       1.400   1.400

     PseudoPot. # 2 for O  read from file:
     /bsuhome/zayahcortright/q-e/pseudo/O.pbe-n-kjpaw_psl.0.1.UPF
     MD5 check sum: 0234752ac141de4415c5fc33072bef88
     Pseudo is Projector augmented-wave + core cor, Zval =  6.0
     Generated using "atomic" code by A. Dal Corso  v.5.0.99 svn rev. 10869
     Shape of augmentation charge: BESSEL
     Using radial grid of 1095 points,  4 beta functions with: 
                l(1) =   0
                l(2) =   0
                l(3) =   1
                l(4) =   1
     Q(r) pseudized with 0 coefficients 


     PseudoPot. # 3 for Co read from file:
     /bsuhome/zayahcortright/q-e/pseudo/Co_pbe_v1.2.uspp.F.UPF
     MD5 check sum: 5f91765df6ddd3222702df6e7b74a16d
     Pseudo is Ultrasoft + core correction, Zval = 17.0
     Generated by new atomic code, or converted to UPF format
     Using radial grid of  863 points,  6 beta functions with: 
                l(1) =   0
                l(2) =   0
                l(3) =   1
                l(4) =   1
                l(5) =   2
                l(6) =   2
     Q(r) pseudized with  8 coefficients,  rinner =    1.200   1.200   1.200
                                                       1.200   1.200

     PseudoPot. # 4 for H  read from file:
     /bsuhome/zayahcortright/q-e/pseudo/H.pbe-rrkjus_psl.1.0.0.UPF
     MD5 check sum: f52b6d4d1c606e5624b1dc7b2218f220
     Pseudo is Ultrasoft, Zval =  1.0
     Generated using "atomic" code by A. Dal Corso  v.5.1
     Using radial grid of  929 points,  2 beta functions with: 
                l(1) =   0
                l(2) =   0
     Q(r) pseudized with 0 coefficients 


     atomic species   valence    mass     pseudopotential
        Sr            10.00    87.62000     Sr( 1.00)
        O              6.00    15.99900     O ( 1.00)
        Co            17.00    58.93319     Co( 1.00)
        H              1.00     1.00800     H ( 1.00)

     No symmetry found


                                    s                        frac. trans.

      isym =  1     identity                                     

 cryst.   s( 1) = (     1          0          0      )
                  (     0          1          0      )
                  (     0          0          1      )

 cart.    s( 1) = (  1.0000000  0.0000000  0.0000000 )
                  (  0.0000000  1.0000000  0.0000000 )
                  (  0.0000000  0.0000000  1.0000000 )


   Cartesian axes

     site n.     atom                  positions (alat units)
         1           Sr  tau(   1) = (   0.2508693   0.7491307   1.7574407  )
         2           O   tau(   2) = (   0.4985141   0.5014859   1.7715967  )
         3           Sr  tau(   3) = (   0.7482398   0.7454518   1.7648669  )
         4           Sr  tau(   4) = (   0.7441748   0.2558252   1.7667843  )
         5           Sr  tau(   5) = (   0.2508693   0.7491307   1.2696799  )
         6           Sr  tau(   6) = (   0.2508693   0.7491307   0.7632319  )
         7           Co  tau(   7) = (   0.4998914   0.5001086   1.0164559  )
         8           Co  tau(   8) = (   0.4936915   0.5063085   1.5135603  )
         9           O   tau(   9) = (   0.4988895   0.7610401   1.0164559  )
        10           O   tau(  10) = (   0.2389599   0.5011105   1.0164559  )
        11           O   tau(  11) = (   0.0070918   0.7374880   1.0164559  )
        12           O   tau(  12) = (   0.0088340   0.7405089   1.5135603  )
        13           O   tau(  13) = (   0.5066944   0.7415376   1.5135603  )
        14           O   tau(  14) = (   0.2584624   0.4933056   1.5135603  )
        15           O   tau(  15) = (   0.4985141   0.5014859   0.7773880  )
        16           O   tau(  16) = (   0.4985141   0.5014859   1.2555238  )
        17           Sr  tau(  17) = (   0.7482398   0.7454518   0.7706582  )
        18           Sr  tau(  18) = (   0.7482398   0.7454518   1.2622536  )
        19           Sr  tau(  19) = (   0.7441748   0.2558252   0.7725755  )
        20           Sr  tau(  20) = (   0.7441748   0.2558252   1.2603363  )
        21           O   tau(  21) = (   0.7322655   0.0078049   1.5135603  )
        22           O   tau(  22) = (   0.7558175   0.4996027   1.5135603  )
        23           O   tau(  23) = (   0.5003973   0.2441825   1.5135603  )
        24           O   tau(  24) = (   0.7527966   0.4978604   1.0164559  )
        25           O   tau(  25) = (   0.5021396   0.2472034   1.0164559  )
        26           O   tau(  26) = (   0.7517679   0.0000000   1.0164559  )
        27           O   tau(  27) = (   0.0114961   0.4948124   1.7455321  )
        28           O   tau(  28) = (   0.0048226   0.0077944   1.7715967  )
        29           Sr  tau(  29) = (   0.2545482   0.2517602   1.7648669  )
        30           O   tau(  30) = (   0.5048017   0.0015068   1.7786929  )
        31           Co  tau(  31) = (   0.0056869   0.5006215   1.0164559  )
        32           Co  tau(  32) = (   0.0065315   0.4997770   1.5135603  )
        33           Co  tau(  33) = (   0.0061999   0.0064171   1.0164559  )
        34           Co  tau(  34) = (   0.0000000   0.0126169   1.5135603  )
        35           O   tau(  35) = (   0.0114961   0.4948124   1.2815885  )
        36           O   tau(  36) = (   0.0114961   0.4948124   0.7513233  )
        37           O   tau(  37) = (   0.0051979   0.2673486   1.0164559  )
        38           O   tau(  38) = (   0.0130029   0.2478461   1.5135603  )
        39           O   tau(  39) = (   0.0048226   0.0077944   0.7773880  )
        40           O   tau(  40) = (   0.0048226   0.0077944   1.2555238  )
        41           Sr  tau(  41) = (   0.2545482   0.2517602   0.7706582  )
        42           Sr  tau(  42) = (   0.2545482   0.2517602   1.2622536  )
        43           Co  tau(  43) = (   0.4989925   0.0073160   1.5135603  )
        44           Co  tau(  44) = (   0.4998370   0.0064714   1.0164559  )
        45           O   tau(  45) = (   0.5048017   0.0015068   0.7844841  )
        46           O   tau(  46) = (   0.5048017   0.0015068   1.2484277  )
        47           O   tau(  47) = (   0.2621260   0.0059111   1.5135603  )
        48           O   tau(  48) = (   0.2591051   0.0041689   1.0164559  )
        49           O   tau(  49) = (   0.4264937   0.5686583   2.1602013  )
        50           O   tau(  50) = (   0.4264937   0.5686583   2.3186489  )
        51           H   tau(  51) = (   0.4264937   0.5686583   2.4431567  )

   Crystallographic axes

     site n.     atom                  positions (cryst. coord.)
         1           Sr  tau(   1) = (  0.2508693  0.7491307  0.6943562  )
         2           O   tau(   2) = (  0.4985141  0.5014859  0.6999492  )
         3           Sr  tau(   3) = (  0.7482398  0.7454518  0.6972903  )
         4           Sr  tau(   4) = (  0.7441748  0.2558252  0.6980478  )
         5           Sr  tau(   5) = (  0.2508693  0.7491307  0.5016443  )
         6           Sr  tau(   6) = (  0.2508693  0.7491307  0.3015492  )
         7           Co  tau(   7) = (  0.4998914  0.5001086  0.4015968  )
         8           Co  tau(   8) = (  0.4936915  0.5063085  0.5980003  )
         9           O   tau(   9) = (  0.4988895  0.7610401  0.4015968  )
        10           O   tau(  10) = (  0.2389599  0.5011105  0.4015968  )
        11           O   tau(  11) = (  0.0070918  0.7374880  0.4015968  )
        12           O   tau(  12) = (  0.0088340  0.7405089  0.5980003  )
        13           O   tau(  13) = (  0.5066944  0.7415376  0.5980003  )
        14           O   tau(  14) = (  0.2584624  0.4933056  0.5980003  )
        15           O   tau(  15) = (  0.4985141  0.5014859  0.3071422  )
        16           O   tau(  16) = (  0.4985141  0.5014859  0.4960513  )
        17           Sr  tau(  17) = (  0.7482398  0.7454518  0.3044833  )
        18           Sr  tau(  18) = (  0.7482398  0.7454518  0.4987103  )
        19           Sr  tau(  19) = (  0.7441748  0.2558252  0.3052408  )
        20           Sr  tau(  20) = (  0.7441748  0.2558252  0.4979527  )
        21           O   tau(  21) = (  0.7322655  0.0078049  0.5980003  )
        22           O   tau(  22) = (  0.7558175  0.4996027  0.5980003  )
        23           O   tau(  23) = (  0.5003973  0.2441825  0.5980003  )
        24           O   tau(  24) = (  0.7527966  0.4978604  0.4015968  )
        25           O   tau(  25) = (  0.5021396  0.2472034  0.4015968  )
        26           O   tau(  26) = (  0.7517679  0.0000000  0.4015968  )
        27           O   tau(  27) = (  0.0114961  0.4948124  0.6896512  )
        28           O   tau(  28) = (  0.0048226  0.0077944  0.6999492  )
        29           Sr  tau(  29) = (  0.2545482  0.2517602  0.6972903  )
        30           O   tau(  30) = (  0.5048017  0.0015068  0.7027529  )
        31           Co  tau(  31) = (  0.0056869  0.5006215  0.4015968  )
        32           Co  tau(  32) = (  0.0065315  0.4997770  0.5980003  )
        33           Co  tau(  33) = (  0.0061999  0.0064171  0.4015968  )
        34           Co  tau(  34) = (  0.0000000  0.0126169  0.5980003  )
        35           O   tau(  35) = (  0.0114961  0.4948124  0.5063494  )
        36           O   tau(  36) = (  0.0114961  0.4948124  0.2968442  )
        37           O   tau(  37) = (  0.0051979  0.2673486  0.4015968  )
        38           O   tau(  38) = (  0.0130029  0.2478461  0.5980003  )
        39           O   tau(  39) = (  0.0048226  0.0077944  0.3071422  )
        40           O   tau(  40) = (  0.0048226  0.0077944  0.4960513  )
        41           Sr  tau(  41) = (  0.2545482  0.2517602  0.3044833  )
        42           Sr  tau(  42) = (  0.2545482  0.2517602  0.4987103  )
        43           Co  tau(  43) = (  0.4989925  0.0073160  0.5980003  )
        44           Co  tau(  44) = (  0.4998370  0.0064714  0.4015968  )
        45           O   tau(  45) = (  0.5048017  0.0015068  0.3099459  )
        46           O   tau(  46) = (  0.5048017  0.0015068  0.4932477  )
        47           O   tau(  47) = (  0.2621260  0.0059111  0.5980003  )
        48           O   tau(  48) = (  0.2591051  0.0041689  0.4015968  )
        49           O   tau(  49) = (  0.4264937  0.5686583  0.8534850  )
        50           O   tau(  50) = (  0.4264937  0.5686583  0.9160869  )
        51           H   tau(  51) = (  0.4264937  0.5686583  0.9652793  )

     number of k points=    10  Gaussian smearing, width (Ry)=  0.0700
                       cart. coord. in units 2pi/alat
        k(    1) = (   0.0000000   0.0000000   0.0000000), wk =   0.1250000
        k(    2) = (   0.0000000   0.2500000   0.0000000), wk =   0.2500000
        k(    3) = (   0.0000000  -0.5000000   0.0000000), wk =   0.1250000
        k(    4) = (   0.2500000   0.2500000   0.0000000), wk =   0.2500000
        k(    5) = (   0.2500000  -0.5000000   0.0000000), wk =   0.2500000
        k(    6) = (  -0.5000000  -0.5000000   0.0000000), wk =   0.1250000
        k(    7) = (   0.2500000   0.0000000   0.0000000), wk =   0.2500000
        k(    8) = (  -0.5000000   0.0000000   0.0000000), wk =   0.1250000
        k(    9) = (  -0.2500000   0.2500000   0.0000000), wk =   0.2500000
        k(   10) = (  -0.5000000   0.2500000   0.0000000), wk =   0.2500000

                       cryst. coord.
        k(    1) = (   0.0000000   0.0000000   0.0000000), wk =   0.1250000
        k(    2) = (   0.0000000   0.2500000   0.0000000), wk =   0.2500000
        k(    3) = (   0.0000000  -0.5000000   0.0000000), wk =   0.1250000
        k(    4) = (   0.2500000   0.2500000   0.0000000), wk =   0.2500000
        k(    5) = (   0.2500000  -0.5000000   0.0000000), wk =   0.2500000
        k(    6) = (  -0.5000000  -0.5000000   0.0000000), wk =   0.1250000
        k(    7) = (   0.2500000   0.0000000   0.0000000), wk =   0.2500000
        k(    8) = (  -0.5000000   0.0000000   0.0000000), wk =   0.1250000
        k(    9) = (  -0.2500000   0.2500000   0.0000000), wk =   0.2500000
        k(   10) = (  -0.5000000   0.2500000   0.0000000), wk =   0.2500000

     Dense  grid:  1474595 G-vectors     FFT dimensions: ( 108, 108, 270)

     Smooth grid:   521381 G-vectors     FFT dimensions: (  75,  75, 192)

     Dynamical RAM for                 wfc:      10.90 MB

     Dynamical RAM for     wfc (w. buffer):      65.37 MB

     Dynamical RAM for           str. fact:       3.75 MB

     Dynamical RAM for           local pot:       0.00 MB

     Dynamical RAM for          nlocal pot:      24.94 MB

     Dynamical RAM for                qrad:       7.03 MB

     Dynamical RAM for          rho,v,vnew:       6.02 MB

     Dynamical RAM for               rhoin:       2.01 MB

     Dynamical RAM for            rho*nmix:      15.00 MB

     Dynamical RAM for           G-vectors:       3.68 MB

     Dynamical RAM for          h,s,v(r/c):       1.40 MB

     Dynamical RAM for          <psi|beta>:       2.42 MB

     Dynamical RAM for                 psi:      21.79 MB

     Dynamical RAM for                hpsi:      21.79 MB

     Dynamical RAM for                spsi:      21.79 MB

     Dynamical RAM for      wfcinit/wfcrot:      34.89 MB

     Dynamical RAM for           addusdens:     101.73 MB

     Estimated static dynamical RAM per process >     122.82 MB

     Estimated max dynamical RAM per process >     239.55 MB

     Estimated total dynamical RAM >      10.88 GB

     Check: negative core charge=   -0.000004

     Initial potential from superposition of free atoms

     starting charge     428.5961, renormalised to     437.0000

     negative rho (up, down):  7.814E-01 0.000E+00
     Starting wfcs are  381 randomized atomic wfcs
     Checking if some PAW data can be deallocated... 
       PAW data deallocated on   18 nodes for type:  2

     total cpu time spent up to now is        9.5 secs

     Self-consistent Calculation

     iteration #  1     ecut=    60.00 Ry     beta= 0.15
     Davidson diagonalization with overlap

---- Real-time Memory Report at c_bands before calling an iterative solver
             0 MiB given to the printing process from OS
             0 MiB allocation reported by mallinfo(arena+hblkhd)
          6870 MiB available memory on the node where the printing process lives
------------------
     ethr =  1.00E-02,  avg # of iterations =  2.0

     negative rho (up, down):  7.716E-01 0.000E+00

     total cpu time spent up to now is       25.5 secs

     total energy              =   -4489.32598305 Ry
     estimated scf accuracy    <      49.81723483 Ry

     iteration #  2     ecut=    60.00 Ry     beta= 0.15
     Davidson diagonalization with overlap

---- Real-time Memory Report at c_bands before calling an iterative solver
             0 MiB given to the printing process from OS
             0 MiB allocation reported by mallinfo(arena+hblkhd)
          7185 MiB available memory on the node where the printing process lives
------------------
     ethr =  1.00E-02,  avg # of iterations =  1.0

     negative rho (up, down):  7.613E-01 0.000E+00

     total cpu time spent up to now is       38.6 secs

     total energy              =   -4486.80931299 Ry
     estimated scf accuracy    <      35.46323321 Ry

     iteration #  3     ecut=    60.00 Ry     beta= 0.15
     Davidson diagonalization with overlap

---- Real-time Memory Report at c_bands before calling an iterative solver
             0 MiB given to the printing process from OS
             0 MiB allocation reported by mallinfo(arena+hblkhd)
          6388 MiB available memory on the node where the printing process lives
------------------
     ethr =  8.12E-03,  avg # of iterations =  1.0

     negative rho (up, down):  7.562E-01 0.000E+00

     total cpu time spent up to now is       51.8 secs

     total energy              =   -4486.76796711 Ry
     estimated scf accuracy    <      35.33501000 Ry

     iteration #  4     ecut=    60.00 Ry     beta= 0.15
     Davidson diagonalization with overlap

---- Real-time Memory Report at c_bands before calling an iterative solver
             0 MiB given to the printing process from OS
             0 MiB allocation reported by mallinfo(arena+hblkhd)
          6368 MiB available memory on the node where the printing process lives
------------------
     ethr =  8.09E-03,  avg # of iterations =  1.0

     negative rho (up, down):  7.575E-01 0.000E+00

     total cpu time spent up to now is       65.0 secs

     total energy              =   -4486.62468376 Ry
     estimated scf accuracy    <      34.32701317 Ry

     iteration #  5     ecut=    60.00 Ry     beta= 0.15
     Davidson diagonalization with overlap

---- Real-time Memory Report at c_bands before calling an iterative solver
             0 MiB given to the printing process from OS
             0 MiB allocation reported by mallinfo(arena+hblkhd)
          6350 MiB available memory on the node where the printing process lives
------------------
     ethr =  7.86E-03,  avg # of iterations =  1.0

     negative rho (up, down):  7.335E-01 0.000E+00

     total cpu time spent up to now is       78.0 secs

     total energy              =   -4482.61264413 Ry
     estimated scf accuracy    <      22.91934878 Ry

     iteration #  6     ecut=    60.00 Ry     beta= 0.15
     Davidson diagonalization with overlap

---- Real-time Memory Report at c_bands before calling an iterative solver
             0 MiB given to the printing process from OS
             0 MiB allocation reported by mallinfo(arena+hblkhd)
          6332 MiB available memory on the node where the printing process lives
------------------
     ethr =  5.24E-03,  avg # of iterations =  2.0

     negative rho (up, down):  7.482E-01 0.000E+00

     total cpu time spent up to now is       92.6 secs

     total energy              =   -4483.88551466 Ry
     estimated scf accuracy    <      41.08337507 Ry

     iteration #  7     ecut=    60.00 Ry     beta= 0.15
     Davidson diagonalization with overlap

---- Real-time Memory Report at c_bands before calling an iterative solver
             0 MiB given to the printing process from OS
             0 MiB allocation reported by mallinfo(arena+hblkhd)
          6307 MiB available memory on the node where the printing process lives
------------------
     ethr =  5.24E-03,  avg # of iterations =  1.0

     negative rho (up, down):  7.540E-01 0.000E+00

     total cpu time spent up to now is      105.7 secs

     total energy              =   -4483.40623318 Ry
     estimated scf accuracy    <      43.92474870 Ry

     iteration #  8     ecut=    60.00 Ry     beta= 0.15
     Davidson diagonalization with overlap

---- Real-time Memory Report at c_bands before calling an iterative solver
             0 MiB given to the printing process from OS
             0 MiB allocation reported by mallinfo(arena+hblkhd)
          6286 MiB available memory on the node where the printing process lives
------------------
     ethr =  5.24E-03,  avg # of iterations =  1.0

     negative rho (up, down):  7.514E-01 0.000E+00

     total cpu time spent up to now is      119.0 secs

     total energy              =   -4483.82736964 Ry
     estimated scf accuracy    <       6.30130308 Ry

     iteration #  9     ecut=    60.00 Ry     beta= 0.15
     Davidson diagonalization with overlap

---- Real-time Memory Report at c_bands before calling an iterative solver
             0 MiB given to the printing process from OS
             0 MiB allocation reported by mallinfo(arena+hblkhd)
          6266 MiB available memory on the node where the printing process lives
------------------
     ethr =  1.44E-03,  avg # of iterations =  3.2

     negative rho (up, down):  7.640E-01 0.000E+00

     total cpu time spent up to now is      134.4 secs

     total energy              =   -4483.80773113 Ry
     estimated scf accuracy    <       3.65477050 Ry

     iteration # 10     ecut=    60.00 Ry     beta= 0.15
     Davidson diagonalization with overlap

---- Real-time Memory Report at c_bands before calling an iterative solver
             0 MiB given to the printing process from OS
             0 MiB allocation reported by mallinfo(arena+hblkhd)
          6220 MiB available memory on the node where the printing process lives
------------------
     ethr =  8.36E-04,  avg # of iterations = 12.6

     negative rho (up, down):  7.856E-01 0.000E+00

     total cpu time spent up to now is      154.8 secs

     total energy              =   -4483.55121263 Ry
     estimated scf accuracy    <       4.90912237 Ry

     iteration # 11     ecut=    60.00 Ry     beta= 0.15
     Davidson diagonalization with overlap

---- Real-time Memory Report at c_bands before calling an iterative solver
             0 MiB given to the printing process from OS
             0 MiB allocation reported by mallinfo(arena+hblkhd)
          5866 MiB available memory on the node where the printing process lives
------------------
     ethr =  8.36E-04,  avg # of iterations =  7.2

     negative rho (up, down):  7.910E-01 0.000E+00

     total cpu time spent up to now is      172.7 secs

     total energy              =   -4483.26318667 Ry
     estimated scf accuracy    <       4.57001474 Ry

     iteration # 12     ecut=    60.00 Ry     beta= 0.15
     Davidson diagonalization with overlap

---- Real-time Memory Report at c_bands before calling an iterative solver
             0 MiB given to the printing process from OS
             0 MiB allocation reported by mallinfo(arena+hblkhd)
          5811 MiB available memory on the node where the printing process lives
------------------
     ethr =  8.36E-04,  avg # of iterations =  8.3

     negative rho (up, down):  8.020E-01 0.000E+00

     total cpu time spent up to now is      190.2 secs

     total energy              =   -4483.17197534 Ry
     estimated scf accuracy    <       2.43645428 Ry

     iteration # 13     ecut=    60.00 Ry     beta= 0.15
     Davidson diagonalization with overlap

---- Real-time Memory Report at c_bands before calling an iterative solver
             0 MiB given to the printing process from OS
             0 MiB allocation reported by mallinfo(arena+hblkhd)
          5784 MiB available memory on the node where the printing process lives
------------------
     ethr =  5.58E-04,  avg # of iterations =  2.0

     negative rho (up, down):  7.994E-01 0.000E+00

     total cpu time spent up to now is      204.8 secs

     total energy              =   -4483.28442654 Ry
     estimated scf accuracy    <       1.85643966 Ry

     iteration # 14     ecut=    60.00 Ry     beta= 0.15
     Davidson diagonalization with overlap

---- Real-time Memory Report at c_bands before calling an iterative solver
             0 MiB given to the printing process from OS
             0 MiB allocation reported by mallinfo(arena+hblkhd)
          5796 MiB available memory on the node where the printing process lives
------------------
     ethr =  4.25E-04,  avg # of iterations =  2.1

     negative rho (up, down):  8.078E-01 0.000E+00

     total cpu time spent up to now is      219.2 secs

     total energy              =   -4483.19815964 Ry
     estimated scf accuracy    <       1.03266325 Ry

     iteration # 15     ecut=    60.00 Ry     beta= 0.15
     Davidson diagonalization with overlap

---- Real-time Memory Report at c_bands before calling an iterative solver
             0 MiB given to the printing process from OS
             0 MiB allocation reported by mallinfo(arena+hblkhd)
          5819 MiB available memory on the node where the printing process lives
------------------
     ethr =  2.36E-04,  avg # of iterations =  5.3

     negative rho (up, down):  8.106E-01 0.000E+00

     total cpu time spent up to now is      235.6 secs

     total energy              =   -4483.15775929 Ry
     estimated scf accuracy    <       1.38227534 Ry

     iteration # 16     ecut=    60.00 Ry     beta= 0.15
     Davidson diagonalization with overlap

---- Real-time Memory Report at c_bands before calling an iterative solver
             0 MiB given to the printing process from OS
             0 MiB allocation reported by mallinfo(arena+hblkhd)
          5828 MiB available memory on the node where the printing process lives
------------------
     ethr =  2.36E-04,  avg # of iterations =  2.6

     negative rho (up, down):  8.130E-01 0.000E+00

     total cpu time spent up to now is      250.1 secs

     total energy              =   -4483.14091784 Ry
     estimated scf accuracy    <       0.92649409 Ry

     iteration # 17     ecut=    60.00 Ry     beta= 0.15
     Davidson diagonalization with overlap

---- Real-time Memory Report at c_bands before calling an iterative solver
             0 MiB given to the printing process from OS
             0 MiB allocation reported by mallinfo(arena+hblkhd)
          5834 MiB available memory on the node where the printing process lives
------------------
     ethr =  2.12E-04,  avg # of iterations =  3.9

     negative rho (up, down):  8.162E-01 0.000E+00

     total cpu time spent up to now is      265.7 secs

     total energy              =   -4483.10514840 Ry
     estimated scf accuracy    <       0.42211160 Ry

     iteration # 18     ecut=    60.00 Ry     beta= 0.15
     Davidson diagonalization with overlap

---- Real-time Memory Report at c_bands before calling an iterative solver
             0 MiB given to the printing process from OS
             0 MiB allocation reported by mallinfo(arena+hblkhd)
          5822 MiB available memory on the node where the printing process lives
------------------
     ethr =  9.66E-05,  avg # of iterations = 11.5

     negative rho (up, down):  8.177E-01 0.000E+00

     total cpu time spent up to now is      285.0 secs

     total energy              =   -4483.06327254 Ry
     estimated scf accuracy    <       0.36787504 Ry

     iteration # 19     ecut=    60.00 Ry     beta= 0.15
     Davidson diagonalization with overlap

---- Real-time Memory Report at c_bands before calling an iterative solver
             0 MiB given to the printing process from OS
             0 MiB allocation reported by mallinfo(arena+hblkhd)
          5757 MiB available memory on the node where the printing process lives
------------------
     ethr =  8.42E-05,  avg # of iterations =  7.2

     negative rho (up, down):  8.249E-01 0.000E+00

     total cpu time spent up to now is      302.9 secs

     total energy              =   -4483.02135980 Ry
     estimated scf accuracy    <       0.33436276 Ry

     iteration # 20     ecut=    60.00 Ry     beta= 0.15
     Davidson diagonalization with overlap

---- Real-time Memory Report at c_bands before calling an iterative solver
             0 MiB given to the printing process from OS
             0 MiB allocation reported by mallinfo(arena+hblkhd)
          5752 MiB available memory on the node where the printing process lives
------------------
     ethr =  7.65E-05,  avg # of iterations =  8.1

     negative rho (up, down):  8.246E-01 0.000E+00

     total cpu time spent up to now is      320.9 secs

     total energy              =   -4483.01260156 Ry
     estimated scf accuracy    <       0.31194472 Ry

     iteration # 21     ecut=    60.00 Ry     beta= 0.15
     Davidson diagonalization with overlap

---- Real-time Memory Report at c_bands before calling an iterative solver
             0 MiB given to the printing process from OS
             0 MiB allocation reported by mallinfo(arena+hblkhd)
          5764 MiB available memory on the node where the printing process lives
------------------
     ethr =  7.14E-05,  avg # of iterations =  4.2

     negative rho (up, down):  8.201E-01 0.000E+00

     total cpu time spent up to now is      336.6 secs

     total energy              =   -4482.99445933 Ry
     estimated scf accuracy    <       0.34810438 Ry

     iteration # 22     ecut=    60.00 Ry     beta= 0.15
     Davidson diagonalization with overlap

---- Real-time Memory Report at c_bands before calling an iterative solver
             0 MiB given to the printing process from OS
             0 MiB allocation reported by mallinfo(arena+hblkhd)
          5763 MiB available memory on the node where the printing process lives
------------------
     ethr =  7.14E-05,  avg # of iterations =  4.2

     negative rho (up, down):  8.028E-01 0.000E+00

     total cpu time spent up to now is      352.5 secs

     total energy              =   -4482.97888095 Ry
     estimated scf accuracy    <       0.12325108 Ry

     iteration # 23     ecut=    60.00 Ry     beta= 0.15
     Davidson diagonalization with overlap

---- Real-time Memory Report at c_bands before calling an iterative solver
             0 MiB given to the printing process from OS
             0 MiB allocation reported by mallinfo(arena+hblkhd)
          5757 MiB available memory on the node where the printing process lives
------------------
     ethr =  2.82E-05,  avg # of iterations = 11.8

     negative rho (up, down):  8.286E-01 0.000E+00

     total cpu time spent up to now is      372.2 secs

     total energy              =   -4482.97237824 Ry
     estimated scf accuracy    <       0.05852557 Ry

     iteration # 24     ecut=    60.00 Ry     beta= 0.15
     Davidson diagonalization with overlap

---- Real-time Memory Report at c_bands before calling an iterative solver
             0 MiB given to the printing process from OS
             0 MiB allocation reported by mallinfo(arena+hblkhd)
          5685 MiB available memory on the node where the printing process lives
------------------
     ethr =  1.34E-05,  avg # of iterations = 11.8

     negative rho (up, down):  8.324E-01 0.000E+00

     total cpu time spent up to now is      392.3 secs

     total energy              =   -4482.97314681 Ry
     estimated scf accuracy    <       0.02281467 Ry

     iteration # 25     ecut=    60.00 Ry     beta= 0.15
     Davidson diagonalization with overlap

---- Real-time Memory Report at c_bands before calling an iterative solver
             0 MiB given to the printing process from OS
             0 MiB allocation reported by mallinfo(arena+hblkhd)
          5610 MiB available memory on the node where the printing process lives
------------------
     ethr =  5.22E-06,  avg # of iterations =  9.7

     negative rho (up, down):  8.110E-01 0.000E+00

     total cpu time spent up to now is      411.6 secs

     total energy              =   -4482.97178666 Ry
     estimated scf accuracy    <       0.01296557 Ry

     iteration # 26     ecut=    60.00 Ry     beta= 0.15
     Davidson diagonalization with overlap

---- Real-time Memory Report at c_bands before calling an iterative solver
             0 MiB given to the printing process from OS
             0 MiB allocation reported by mallinfo(arena+hblkhd)
          5584 MiB available memory on the node where the printing process lives
------------------
     c_bands:  2 eigenvalues not converged
     ethr =  2.97E-06,  avg # of iterations =  6.6

     negative rho (up, down):  8.083E-01 0.000E+00

     total cpu time spent up to now is      428.8 secs

     total energy              =   -4482.97115449 Ry
     estimated scf accuracy    <       0.00949873 Ry

     iteration # 27     ecut=    60.00 Ry     beta= 0.15
     Davidson diagonalization with overlap

---- Real-time Memory Report at c_bands before calling an iterative solver
             0 MiB given to the printing process from OS
             0 MiB allocation reported by mallinfo(arena+hblkhd)
          5561 MiB available memory on the node where the printing process lives
------------------
     ethr =  2.17E-06,  avg # of iterations =  4.1

     negative rho (up, down):  7.964E-01 0.000E+00

     total cpu time spent up to now is      444.5 secs

     total energy              =   -4482.97027808 Ry
     estimated scf accuracy    <       0.00569784 Ry

     iteration # 28     ecut=    60.00 Ry     beta= 0.15
     Davidson diagonalization with overlap

---- Real-time Memory Report at c_bands before calling an iterative solver
             0 MiB given to the printing process from OS
             0 MiB allocation reported by mallinfo(arena+hblkhd)
          5575 MiB available memory on the node where the printing process lives
------------------
     ethr =  1.30E-06,  avg # of iterations =  7.2

     negative rho (up, down):  7.935E-01 0.000E+00

     total cpu time spent up to now is      462.6 secs

     total energy              =   -4482.97023150 Ry
     estimated scf accuracy    <       0.00223142 Ry

     iteration # 29     ecut=    60.00 Ry     beta= 0.15
     Davidson diagonalization with overlap

---- Real-time Memory Report at c_bands before calling an iterative solver
             0 MiB given to the printing process from OS
             0 MiB allocation reported by mallinfo(arena+hblkhd)
          5562 MiB available memory on the node where the printing process lives
------------------
     ethr =  5.11E-07,  avg # of iterations =  6.3

     negative rho (up, down):  7.939E-01 0.000E+00

     total cpu time spent up to now is      479.5 secs

     total energy              =   -4482.97033980 Ry
     estimated scf accuracy    <       0.00088728 Ry

     iteration # 30     ecut=    60.00 Ry     beta= 0.15
     Davidson diagonalization with overlap

---- Real-time Memory Report at c_bands before calling an iterative solver
             0 MiB given to the printing process from OS
             0 MiB allocation reported by mallinfo(arena+hblkhd)
          5543 MiB available memory on the node where the printing process lives
------------------
     ethr =  2.03E-07,  avg # of iterations =  3.1

     negative rho (up, down):  7.941E-01 0.000E+00

     total cpu time spent up to now is      494.7 secs

     total energy              =   -4482.97029660 Ry
     estimated scf accuracy    <       0.00056598 Ry

     iteration # 31     ecut=    60.00 Ry     beta= 0.15
     Davidson diagonalization with overlap

---- Real-time Memory Report at c_bands before calling an iterative solver
             0 MiB given to the printing process from OS
             0 MiB allocation reported by mallinfo(arena+hblkhd)
          5593 MiB available memory on the node where the printing process lives
------------------
     c_bands:  1 eigenvalues not converged
     ethr =  1.30E-07,  avg # of iterations =  8.1

     negative rho (up, down):  7.928E-01 0.000E+00

     total cpu time spent up to now is      512.6 secs

     total energy              =   -4482.97031371 Ry
     estimated scf accuracy    <       0.00026154 Ry

     iteration # 32     ecut=    60.00 Ry     beta= 0.15
     Davidson diagonalization with overlap

---- Real-time Memory Report at c_bands before calling an iterative solver
             0 MiB given to the printing process from OS
             0 MiB allocation reported by mallinfo(arena+hblkhd)
          5568 MiB available memory on the node where the printing process lives
------------------
     ethr =  5.98E-08,  avg # of iterations =  5.6

     negative rho (up, down):  7.923E-01 0.000E+00

     total cpu time spent up to now is      529.2 secs

     total energy              =   -4482.97031459 Ry
     estimated scf accuracy    <       0.00014461 Ry

     iteration # 33     ecut=    60.00 Ry     beta= 0.15
     Davidson diagonalization with overlap

---- Real-time Memory Report at c_bands before calling an iterative solver
             0 MiB given to the printing process from OS
             0 MiB allocation reported by mallinfo(arena+hblkhd)
          5581 MiB available memory on the node where the printing process lives
------------------
     ethr =  3.31E-08,  avg # of iterations =  3.8

     negative rho (up, down):  7.921E-01 0.000E+00

     total cpu time spent up to now is      544.8 secs

     total energy              =   -4482.97031737 Ry
     estimated scf accuracy    <       0.00009185 Ry

     iteration # 34     ecut=    60.00 Ry     beta= 0.15
     Davidson diagonalization with overlap

---- Real-time Memory Report at c_bands before calling an iterative solver
             0 MiB given to the printing process from OS
             0 MiB allocation reported by mallinfo(arena+hblkhd)
          5589 MiB available memory on the node where the printing process lives
------------------
     ethr =  2.10E-08,  avg # of iterations =  3.1

     negative rho (up, down):  7.921E-01 0.000E+00

     total cpu time spent up to now is      559.8 secs

     total energy              =   -4482.97031214 Ry
     estimated scf accuracy    <       0.00005890 Ry

     iteration # 35     ecut=    60.00 Ry     beta= 0.15
     Davidson diagonalization with overlap

---- Real-time Memory Report at c_bands before calling an iterative solver
             0 MiB given to the printing process from OS
             0 MiB allocation reported by mallinfo(arena+hblkhd)
          5602 MiB available memory on the node where the printing process lives
------------------
     ethr =  1.35E-08,  avg # of iterations =  3.6

     negative rho (up, down):  7.921E-01 0.000E+00

     total cpu time spent up to now is      575.2 secs

     total energy              =   -4482.97031537 Ry
     estimated scf accuracy    <       0.00004080 Ry

     iteration # 36     ecut=    60.00 Ry     beta= 0.15
     Davidson diagonalization with overlap

---- Real-time Memory Report at c_bands before calling an iterative solver
             0 MiB given to the printing process from OS
             0 MiB allocation reported by mallinfo(arena+hblkhd)
          5598 MiB available memory on the node where the printing process lives
------------------
     ethr =  9.34E-09,  avg # of iterations =  1.1

     negative rho (up, down):  7.921E-01 0.000E+00

     total cpu time spent up to now is      588.6 secs

     total energy              =   -4482.97031730 Ry
     estimated scf accuracy    <       0.00003567 Ry

     iteration # 37     ecut=    60.00 Ry     beta= 0.15
     Davidson diagonalization with overlap

---- Real-time Memory Report at c_bands before calling an iterative solver
             0 MiB given to the printing process from OS
             0 MiB allocation reported by mallinfo(arena+hblkhd)
          5612 MiB available memory on the node where the printing process lives
------------------
     ethr =  8.16E-09,  avg # of iterations =  3.1

     negative rho (up, down):  7.921E-01 0.000E+00

     total cpu time spent up to now is      603.6 secs

     total energy              =   -4482.97032110 Ry
     estimated scf accuracy    <       0.00002805 Ry

     iteration # 38     ecut=    60.00 Ry     beta= 0.15
     Davidson diagonalization with overlap

---- Real-time Memory Report at c_bands before calling an iterative solver
             0 MiB given to the printing process from OS
             0 MiB allocation reported by mallinfo(arena+hblkhd)
          5620 MiB available memory on the node where the printing process lives
------------------
     ethr =  6.42E-09,  avg # of iterations =  3.4

     negative rho (up, down):  7.921E-01 0.000E+00

     total cpu time spent up to now is      619.2 secs

     total energy              =   -4482.97031804 Ry
     estimated scf accuracy    <       0.00002000 Ry

     iteration # 39     ecut=    60.00 Ry     beta= 0.15
     Davidson diagonalization with overlap

---- Real-time Memory Report at c_bands before calling an iterative solver
             0 MiB given to the printing process from OS
             0 MiB allocation reported by mallinfo(arena+hblkhd)
          5639 MiB available memory on the node where the printing process lives
------------------
     ethr =  4.58E-09,  avg # of iterations =  4.5

     negative rho (up, down):  7.922E-01 0.000E+00

     total cpu time spent up to now is      635.4 secs

     total energy              =   -4482.97032017 Ry
     estimated scf accuracy    <       0.00001192 Ry

     iteration # 40     ecut=    60.00 Ry     beta= 0.15
     Davidson diagonalization with overlap

---- Real-time Memory Report at c_bands before calling an iterative solver
             0 MiB given to the printing process from OS
             0 MiB allocation reported by mallinfo(arena+hblkhd)
          5647 MiB available memory on the node where the printing process lives
------------------
     ethr =  2.73E-09,  avg # of iterations =  5.1

     negative rho (up, down):  7.923E-01 0.000E+00

     total cpu time spent up to now is      652.0 secs

     total energy              =   -4482.97031763 Ry
     estimated scf accuracy    <       0.00000914 Ry

     iteration # 41     ecut=    60.00 Ry     beta= 0.15
     Davidson diagonalization with overlap

---- Real-time Memory Report at c_bands before calling an iterative solver
             0 MiB given to the printing process from OS
             0 MiB allocation reported by mallinfo(arena+hblkhd)
          5648 MiB available memory on the node where the printing process lives
------------------
     ethr =  2.09E-09,  avg # of iterations =  4.8

     negative rho (up, down):  7.924E-01 0.000E+00

     total cpu time spent up to now is      668.0 secs

     total energy              =   -4482.97031881 Ry
     estimated scf accuracy    <       0.00000596 Ry

     iteration # 42     ecut=    60.00 Ry     beta= 0.15
     Davidson diagonalization with overlap

---- Real-time Memory Report at c_bands before calling an iterative solver
             0 MiB given to the printing process from OS
             0 MiB allocation reported by mallinfo(arena+hblkhd)
          5650 MiB available memory on the node where the printing process lives
------------------
     ethr =  1.36E-09,  avg # of iterations =  2.3

     negative rho (up, down):  7.924E-01 0.000E+00

     total cpu time spent up to now is      683.2 secs

     total energy              =   -4482.97032035 Ry
     estimated scf accuracy    <       0.00000492 Ry

     iteration # 43     ecut=    60.00 Ry     beta= 0.15
     Davidson diagonalization with overlap

---- Real-time Memory Report at c_bands before calling an iterative solver
             0 MiB given to the printing process from OS
             0 MiB allocation reported by mallinfo(arena+hblkhd)
          5657 MiB available memory on the node where the printing process lives
------------------
     ethr =  1.13E-09,  avg # of iterations =  3.7

     negative rho (up, down):  7.923E-01 0.000E+00

     total cpu time spent up to now is      698.5 secs

     total energy              =   -4482.97032140 Ry
     estimated scf accuracy    <       0.00000357 Ry

     iteration # 44     ecut=    60.00 Ry     beta= 0.15
     Davidson diagonalization with overlap

---- Real-time Memory Report at c_bands before calling an iterative solver
             0 MiB given to the printing process from OS
             0 MiB allocation reported by mallinfo(arena+hblkhd)
          5658 MiB available memory on the node where the printing process lives
------------------
     ethr =  8.16E-10,  avg # of iterations =  4.0

     negative rho (up, down):  7.923E-01 0.000E+00

     total cpu time spent up to now is      714.0 secs

     total energy              =   -4482.97032262 Ry
     estimated scf accuracy    <       0.00000204 Ry

     iteration # 45     ecut=    60.00 Ry     beta= 0.15
     Davidson diagonalization with overlap

---- Real-time Memory Report at c_bands before calling an iterative solver
             0 MiB given to the printing process from OS
             0 MiB allocation reported by mallinfo(arena+hblkhd)
          5663 MiB available memory on the node where the printing process lives
------------------
     ethr =  4.67E-10,  avg # of iterations =  5.8

     negative rho (up, down):  7.922E-01 0.000E+00

     total cpu time spent up to now is      730.6 secs

     total energy              =   -4482.97032240 Ry
     estimated scf accuracy    <       0.00000086 Ry

     iteration # 46     ecut=    60.00 Ry     beta= 0.15
     Davidson diagonalization with overlap

---- Real-time Memory Report at c_bands before calling an iterative solver
             0 MiB given to the printing process from OS
             0 MiB allocation reported by mallinfo(arena+hblkhd)
          5648 MiB available memory on the node where the printing process lives
------------------
     ethr =  1.97E-10,  avg # of iterations =  5.6

     negative rho (up, down):  7.922E-01 0.000E+00

     total cpu time spent up to now is      746.8 secs

     total energy              =   -4482.97032257 Ry
     estimated scf accuracy    <       0.00000014 Ry

     iteration # 47     ecut=    60.00 Ry     beta= 0.15
     Davidson diagonalization with overlap

---- Real-time Memory Report at c_bands before calling an iterative solver
             0 MiB given to the printing process from OS
             0 MiB allocation reported by mallinfo(arena+hblkhd)
          5653 MiB available memory on the node where the printing process lives
------------------
     ethr =  3.25E-11,  avg # of iterations =  2.9

     negative rho (up, down):  7.922E-01 0.000E+00

     total cpu time spent up to now is      761.6 secs

     total energy              =   -4482.97032271 Ry
     estimated scf accuracy    <       0.00000012 Ry

     iteration # 48     ecut=    60.00 Ry     beta= 0.15
     Davidson diagonalization with overlap

---- Real-time Memory Report at c_bands before calling an iterative solver
             0 MiB given to the printing process from OS
             0 MiB allocation reported by mallinfo(arena+hblkhd)
          5654 MiB available memory on the node where the printing process lives
------------------
     ethr =  2.70E-11,  avg # of iterations =  3.9

     negative rho (up, down):  7.923E-01 0.000E+00

     total cpu time spent up to now is      777.0 secs

     total energy              =   -4482.97032296 Ry
     estimated scf accuracy    <       0.00000009 Ry

     iteration # 49     ecut=    60.00 Ry     beta= 0.15
     Davidson diagonalization with overlap

---- Real-time Memory Report at c_bands before calling an iterative solver
             0 MiB given to the printing process from OS
             0 MiB allocation reported by mallinfo(arena+hblkhd)
          5663 MiB available memory on the node where the printing process lives
------------------
     ethr =  2.15E-11,  avg # of iterations =  5.8

     negative rho (up, down):  7.923E-01 0.000E+00

     total cpu time spent up to now is      793.4 secs

     total energy              =   -4482.97032300 Ry
     estimated scf accuracy    <       0.00000003 Ry

     iteration # 50     ecut=    60.00 Ry     beta= 0.15
     Davidson diagonalization with overlap

---- Real-time Memory Report at c_bands before calling an iterative solver
             0 MiB given to the printing process from OS
             0 MiB allocation reported by mallinfo(arena+hblkhd)
          5651 MiB available memory on the node where the printing process lives
------------------
     ethr =  7.25E-12,  avg # of iterations =  5.9

     negative rho (up, down):  7.923E-01 0.000E+00

     total cpu time spent up to now is      810.2 secs

     total energy              =   -4482.97032301 Ry
     estimated scf accuracy    <       0.00000001 Ry

     iteration # 51     ecut=    60.00 Ry     beta= 0.15
     Davidson diagonalization with overlap

---- Real-time Memory Report at c_bands before calling an iterative solver
             0 MiB given to the printing process from OS
             0 MiB allocation reported by mallinfo(arena+hblkhd)
          5634 MiB available memory on the node where the printing process lives
------------------
     ethr =  2.96E-12,  avg # of iterations =  4.8

     negative rho (up, down):  7.923E-01 0.000E+00

     total cpu time spent up to now is      825.6 secs

     End of self-consistent calculation

          k = 0.0000 0.0000 0.0000 ( 65197 PWs)   bands (ev):

   -92.3321 -92.2767 -92.1859 -92.1367 -92.0806 -92.0388 -92.0210 -91.8956
   -55.6852 -55.6631 -55.5439 -55.5333 -55.5249 -55.5200 -55.4814 -55.4556
   -55.4390 -55.4379 -55.4285 -55.3881 -55.3681 -55.3320 -55.3118 -55.2804
   -55.2721 -55.2273 -55.2244 -55.2239 -55.2159 -55.1694 -55.1518 -55.0628
   -30.9189 -30.8998 -30.7840 -30.7590 -30.7240 -30.6723 -30.5227 -30.4652
   -29.4834 -29.4399 -29.4146 -29.3057 -22.2497 -14.7173 -14.6810 -14.5958
   -14.4648 -14.2830 -14.1578 -13.8578 -13.8427 -13.8081 -13.7687 -13.7675
   -13.7248 -13.7190 -13.7017 -13.6857 -13.6615 -13.6324 -13.5669 -13.4197
   -13.2500 -13.2073 -13.1758 -13.1507 -13.1295 -13.0829 -13.0437 -12.9659
   -12.8935 -12.8116 -12.7961 -12.7518 -12.7405 -12.7169 -12.7006 -12.6897
   -12.6529 -12.6374 -12.6150 -12.5963 -12.5847 -12.5668 -12.5568 -12.5426
   -12.4861 -12.4700 -12.4511 -12.3912 -12.3485 -12.3307 -11.9842 -11.8394
   -11.7225 -11.6430 -11.4975 -11.4226 -11.4116 -11.3895 -11.3719 -11.3078
   -11.2906 -11.2558 -11.2272 -11.1158 -11.0351 -11.0315  -5.8206  -3.1566
    -3.1530  -2.5779  -2.3443  -2.1144  -1.9694  -1.9044  -1.7617  -1.4556
    -1.4414  -1.4201  -1.3388  -1.3199  -1.2515  -1.2358  -1.1927  -1.1497
    -0.9685  -0.7470  -0.7158  -0.5655  -0.5520  -0.5082  -0.4908  -0.4462
    -0.4307  -0.3693  -0.3429  -0.2733  -0.2641  -0.1818  -0.0553  -0.0414
    -0.0123   0.0696   0.0720   0.0902   0.1531   0.2344   0.2720   0.3245
     0.3488   0.4161   0.4800   0.5442   0.5582   0.5760   0.8266   0.8422
     1.0091   1.0839   1.1470   1.1879   1.2803   1.2936   1.3056   1.3819
     1.4095   1.4439   1.5037   1.6383   1.6907   1.7113   1.7273   1.7416
     1.8093   1.8884   1.9808   1.9946   2.0527   2.0770   2.1135   2.1313
     2.1398   2.1993   2.2499   2.2573   2.2838   2.3149   2.3866   2.5149
     2.6017   2.6444   2.6506   2.8069   2.8203   2.8731   2.8800   2.9763
     3.0192   3.0418   3.0633   3.0712   3.0757   3.0822   3.1575   3.2690
     3.3032   3.3177   3.3245   3.3903   3.3944   3.4190   3.4276   3.4349
     3.4432   3.4541   3.4662   3.4730   3.4852   3.4943   3.5029   3.5229
     3.5440   3.5492   3.5612   3.5818   3.7030   3.7486   4.4257   4.7691
     4.7878   5.1455   5.3945   5.5057   5.6956   6.2824   6.3321   6.3537
     6.6168   6.6344   6.6810   6.7283   6.9540   7.2157   7.2726   7.3700
     7.4562   7.6568   7.7799   7.9033   7.9389   7.9675   8.0426   8.0917
     8.3158   8.3691   8.3791   8.4093   8.5065   8.5330   8.6161

     occupation numbers 
     1.0000   1.0000   1.0000   1.0000   1.0000   1.0000   1.0000   1.0000
     1.0000   1.0000   1.0000   1.0000   1.0000   1.0000   1.0000   1.0000
     1.0000   1.0000   1.0000   1.0000   1.0000   1.0000   1.0000   1.0000
     1.0000   1.0000   1.0000   1.0000   1.0000   1.0000   1.0000   1.0000
     1.0000   1.0000   1.0000   1.0000   1.0000   1.0000   1.0000   1.0000
     1.0000   1.0000   1.0000   1.0000   1.0000   1.0000   1.0000   1.0000
     1.0000   1.0000   1.0000   1.0000   1.0000   1.0000   1.0000   1.0000
     1.0000   1.0000   1.0000   1.0000   1.0000   1.0000   1.0000   1.0000
     1.0000   1.0000   1.0000   1.0000   1.0000   1.0000   1.0000   1.0000
     1.0000   1.0000   1.0000   1.0000   1.0000   1.0000   1.0000   1.0000
     1.0000   1.0000   1.0000   1.0000   1.0000   1.0000   1.0000   1.0000
     1.0000   1.0000   1.0000   1.0000   1.0000   1.0000   1.0000   1.0000
     1.0000   1.0000   1.0000   1.0000   1.0000   1.0000   1.0000   1.0000
     1.0000   1.0000   1.0000   1.0000   1.0000   1.0000   1.0000   1.0000
     1.0000   1.0000   1.0000   1.0000   1.0000   1.0000   1.0000   1.0000
     1.0000   1.0000   1.0000   1.0000   1.0000   1.0000   1.0000   1.0000
     1.0000   1.0000   1.0000   1.0000   1.0000   1.0000   1.0000   1.0000
     1.0000   1.0000   1.0000   1.0000   1.0000   1.0000   1.0000   1.0000
     1.0000   1.0000   1.0000   1.0000   1.0000   1.0000   1.0000   1.0000
     1.0000   1.0000   1.0000   1.0000   1.0000   1.0000   1.0000   1.0000
     1.0000   0.9999   0.9999   0.9999   0.9998   0.9998   0.9998   0.9997
     0.9997   0.9996   0.9994   0.9989   0.9985   0.9984   0.9983   0.9981
     0.9974   0.9963   0.9945   0.9942   0.9926   0.9918   0.9905   0.9898
     0.9895   0.9868   0.9840   0.9836   0.9819   0.9797   0.9739   0.9600
     0.9476   0.9405   0.9394   0.9062   0.9028   0.8886   0.8867   0.8568
     0.8419   0.8337   0.8256   0.8225   0.8208   0.8183   0.7873   0.7361
     0.7193   0.7119   0.7085   0.6741   0.6719   0.6586   0.6539   0.6499
     0.6453   0.6393   0.6326   0.6287   0.6219   0.6167   0.6118   0.6004
     0.5882   0.5853   0.5783   0.5663   0.4948   0.4678   0.1387   0.0552
     0.0522   0.0156   0.0058   0.0036   0.0015   0.0001   0.0000   0.0000
     0.0000   0.0000   0.0000   0.0000   0.0000   0.0000   0.0000   0.0000
     0.0000   0.0000   0.0000   0.0000   0.0000   0.0000   0.0000   0.0000
     0.0000   0.0000   0.0000   0.0000   0.0000   0.0000   0.0000

          k = 0.0000 0.2500 0.0000 ( 65257 PWs)   bands (ev):

   -92.3321 -92.2767 -92.1859 -92.1367 -92.0806 -92.0388 -92.0210 -91.8956
   -55.6852 -55.6631 -55.5439 -55.5333 -55.5249 -55.5200 -55.4814 -55.4556
   -55.4390 -55.4379 -55.4285 -55.3881 -55.3681 -55.3320 -55.3118 -55.2804
   -55.2721 -55.2273 -55.2244 -55.2239 -55.2159 -55.1694 -55.1518 -55.0628
   -30.9187 -30.8997 -30.7835 -30.7592 -30.7245 -30.6724 -30.5222 -30.4658
   -29.4828 -29.4396 -29.4152 -29.3060 -22.2497 -14.6802 -14.6551 -14.5708
   -14.4356 -14.3208 -14.1484 -14.0038 -13.8239 -13.7950 -13.7726 -13.7678
   -13.7440 -13.6858 -13.6801 -13.6661 -13.6492 -13.6127 -13.4873 -13.4500
   -13.2880 -13.2729 -13.2178 -13.1840 -13.1430 -13.0966 -13.0603 -12.9853
   -12.9527 -12.9263 -12.8634 -12.7907 -12.7775 -12.7493 -12.7319 -12.6632
   -12.6241 -12.5991 -12.5763 -12.5488 -12.5330 -12.5197 -12.5067 -12.4729
   -12.4604 -12.4415 -12.4347 -12.3854 -12.2522 -12.1784 -12.0455 -11.8906
   -11.7793 -11.7105 -11.4629 -11.4194 -11.3922 -11.3637 -11.3470 -11.2997
   -11.2884 -11.2661 -11.2317 -11.1301 -11.0767 -11.0661  -5.8206  -3.1566
    -3.1532  -2.4426  -2.2200  -2.0826  -1.9008  -1.8570  -1.6926  -1.4755
    -1.3881  -1.3749  -1.3198  -1.2153  -1.2014  -1.1679  -1.1415  -1.0982
    -0.8997  -0.7710  -0.7590  -0.6847  -0.6721  -0.5678  -0.5369  -0.4824
    -0.4577  -0.4134  -0.3521  -0.3263  -0.2928  -0.2632  -0.2466  -0.2117
    -0.1394  -0.0867  -0.0302   0.0868   0.1029   0.1440   0.2723   0.3089
     0.3535   0.4137   0.4558   0.4892   0.5213   0.5807   0.8751   0.9618
     0.9982   1.0769   1.1173   1.1461   1.2672   1.2871   1.3822   1.4074
     1.4385   1.5521   1.6392   1.6675   1.6903   1.7042   1.7355   1.7986
     1.8222   1.8509   1.8994   1.9287   1.9586   2.0406   2.0700   2.1033
     2.1587   2.2156   2.2467   2.2721   2.3030   2.3282   2.4181   2.5590
     2.6215   2.6374   2.7228   2.7657   2.8038   2.8124   2.8747   2.9196
     2.9950   3.0337   3.0505   3.0711   3.0765   3.2311   3.2526   3.2849
     3.3056   3.3230   3.3323   3.3404   3.3477   3.3781   3.3799   3.3959
     3.4012   3.4134   3.4301   3.4404   3.4511   3.4735   3.4845   3.4892
     3.5248   3.5416   3.6015   3.9645   3.9750   4.2392   4.6068   4.7645
     4.9064   5.0970   5.4162   5.5290   5.8249   5.9515   6.1598   6.2952
     6.3407   6.4622   6.5338   6.7493   6.8706   7.0490   7.2981   7.5363
     7.5632   7.7064   7.8043   7.8753   7.9340   8.0049   8.0765   8.1975
     8.2464   8.4085   8.5245   8.5458   8.5990   8.6817   8.9543

     occupation numbers 
     1.0000   1.0000   1.0000   1.0000   1.0000   1.0000   1.0000   1.0000
     1.0000   1.0000   1.0000   1.0000   1.0000   1.0000   1.0000   1.0000
     1.0000   1.0000   1.0000   1.0000   1.0000   1.0000   1.0000   1.0000
     1.0000   1.0000   1.0000   1.0000   1.0000   1.0000   1.0000   1.0000
     1.0000   1.0000   1.0000   1.0000   1.0000   1.0000   1.0000   1.0000
     1.0000   1.0000   1.0000   1.0000   1.0000   1.0000   1.0000   1.0000
     1.0000   1.0000   1.0000   1.0000   1.0000   1.0000   1.0000   1.0000
     1.0000   1.0000   1.0000   1.0000   1.0000   1.0000   1.0000   1.0000
     1.0000   1.0000   1.0000   1.0000   1.0000   1.0000   1.0000   1.0000
     1.0000   1.0000   1.0000   1.0000   1.0000   1.0000   1.0000   1.0000
     1.0000   1.0000   1.0000   1.0000   1.0000   1.0000   1.0000   1.0000
     1.0000   1.0000   1.0000   1.0000   1.0000   1.0000   1.0000   1.0000
     1.0000   1.0000   1.0000   1.0000   1.0000   1.0000   1.0000   1.0000
     1.0000   1.0000   1.0000   1.0000   1.0000   1.0000   1.0000   1.0000
     1.0000   1.0000   1.0000   1.0000   1.0000   1.0000   1.0000   1.0000
     1.0000   1.0000   1.0000   1.0000   1.0000   1.0000   1.0000   1.0000
     1.0000   1.0000   1.0000   1.0000   1.0000   1.0000   1.0000   1.0000
     1.0000   1.0000   1.0000   1.0000   1.0000   1.0000   1.0000   1.0000
     1.0000   1.0000   1.0000   1.0000   1.0000   1.0000   1.0000   1.0000
     1.0000   1.0000   1.0000   1.0000   1.0000   1.0000   1.0000   1.0000
     1.0000   0.9999   0.9999   0.9999   0.9998   0.9998   0.9997   0.9997
     0.9996   0.9993   0.9989   0.9987   0.9985   0.9984   0.9982   0.9976
     0.9973   0.9969   0.9962   0.9956   0.9950   0.9930   0.9921   0.9909
     0.9887   0.9859   0.9842   0.9826   0.9806   0.9787   0.9709   0.9541
     0.9444   0.9417   0.9254   0.9160   0.9069   0.9048   0.8882   0.8750
     0.8504   0.8366   0.8304   0.8226   0.8205   0.7542   0.7440   0.7283
     0.7180   0.7093   0.7045   0.7003   0.6966   0.6806   0.6796   0.6711
     0.6683   0.6617   0.6525   0.6469   0.6410   0.6285   0.6223   0.6196
     0.5993   0.5896   0.5548   0.3441   0.3383   0.2092   0.0877   0.0560
     0.0359   0.0186   0.0053   0.0032   0.0008   0.0004   0.0001   0.0001
     0.0000   0.0000   0.0000   0.0000   0.0000   0.0000   0.0000   0.0000
     0.0000   0.0000   0.0000   0.0000   0.0000   0.0000   0.0000   0.0000
     0.0000   0.0000   0.0000   0.0000   0.0000   0.0000   0.0000

          k = 0.0000-0.5000 0.0000 ( 65180 PWs)   bands (ev):

   -92.3321 -92.2767 -92.1859 -92.1367 -92.0806 -92.0388 -92.0210 -91.8956
   -55.6852 -55.6631 -55.5439 -55.5333 -55.5249 -55.5200 -55.4814 -55.4556
   -55.4390 -55.4379 -55.4285 -55.3880 -55.3681 -55.3320 -55.3118 -55.2804
   -55.2721 -55.2273 -55.2244 -55.2239 -55.2159 -55.1694 -55.1518 -55.0628
   -30.9185 -30.8995 -30.7830 -30.7594 -30.7250 -30.6725 -30.5216 -30.4664
   -29.4822 -29.4393 -29.4159 -29.3064 -22.2497 -14.6482 -14.5995 -14.5484
   -14.4230 -14.3342 -14.1971 -14.0524 -13.9284 -13.7935 -13.7681 -13.7363
   -13.6880 -13.6745 -13.6293 -13.6092 -13.5653 -13.5475 -13.5201 -13.4841
   -13.4555 -13.4224 -13.2205 -13.1653 -13.1520 -13.0941 -13.0651 -13.0017
   -12.9934 -12.9437 -12.9258 -12.8606 -12.7659 -12.7485 -12.7174 -12.7145
   -12.6125 -12.5987 -12.5711 -12.5304 -12.5231 -12.5125 -12.4732 -12.4526
   -12.4148 -12.3917 -12.3464 -12.2931 -12.1566 -12.1119 -11.9662 -11.9641
   -11.8818 -11.8456 -11.4164 -11.4145 -11.3874 -11.3494 -11.3153 -11.3044
   -11.2615 -11.2575 -11.2132 -11.1516 -11.1375 -11.1232  -5.8205  -3.1566
    -3.1534  -2.2275  -2.1691  -2.0166  -1.9442  -1.6641  -1.5817  -1.4523
    -1.3142  -1.2792  -1.2581  -1.1801  -1.1486  -1.0673  -1.0320  -0.9555
    -0.9145  -0.8746  -0.8480  -0.7938  -0.7550  -0.7084  -0.6729  -0.6386
    -0.6048  -0.4943  -0.4490  -0.4172  -0.4157  -0.3295  -0.2973  -0.2738
    -0.2296  -0.1428  -0.0712   0.0106   0.0355   0.1561   0.1800   0.3341
     0.3564   0.4000   0.4304   0.5484   0.6346   0.7568   0.8215   0.8292
     0.9606   1.0061   1.0737   1.2427   1.3390   1.3724   1.4096   1.4168
     1.4466   1.4726   1.5095   1.5255   1.5402   1.6485   1.7027   1.7293
     1.7534   2.0183   2.0516   2.0736   2.1510   2.1804   2.2241   2.2425
     2.2720   2.2798   2.2911   2.3160   2.3631   2.3828   2.4083   2.4284
     2.4573   2.5124   2.5942   2.6304   2.7922   2.9675   2.9786   2.9876
     3.0258   3.0292   3.0465   3.0688   3.0778   3.0991   3.1108   3.1648
     3.1852   3.2617   3.2724   3.3441   3.3474   3.3753   3.3768   3.3950
     3.3981   3.4015   3.4082   3.4115   3.4237   3.4438   3.4448   3.5101
     3.5153   3.5312   3.5871   4.4713   4.4861   4.5555   4.5887   5.0153
     5.0823   5.2527   5.3319   5.5322   5.7289   5.8290   5.8817   6.0498
     6.2393   6.3249   6.4013   6.4115   7.0307   7.1039   7.1290   7.3982
     7.5350   7.7184   7.7933   7.9166   8.0727   8.1236   8.2197   8.3191
     8.4795   8.5619   8.6382   8.7386   8.7588   8.8582   8.9755

     occupation numbers 
     1.0000   1.0000   1.0000   1.0000   1.0000   1.0000   1.0000   1.0000
     1.0000   1.0000   1.0000   1.0000   1.0000   1.0000   1.0000   1.0000
     1.0000   1.0000   1.0000   1.0000   1.0000   1.0000   1.0000   1.0000
     1.0000   1.0000   1.0000   1.0000   1.0000   1.0000   1.0000   1.0000
     1.0000   1.0000   1.0000   1.0000   1.0000   1.0000   1.0000   1.0000
     1.0000   1.0000   1.0000   1.0000   1.0000   1.0000   1.0000   1.0000
     1.0000   1.0000   1.0000   1.0000   1.0000   1.0000   1.0000   1.0000
     1.0000   1.0000   1.0000   1.0000   1.0000   1.0000   1.0000   1.0000
     1.0000   1.0000   1.0000   1.0000   1.0000   1.0000   1.0000   1.0000
     1.0000   1.0000   1.0000   1.0000   1.0000   1.0000   1.0000   1.0000
     1.0000   1.0000   1.0000   1.0000   1.0000   1.0000   1.0000   1.0000
     1.0000   1.0000   1.0000   1.0000   1.0000   1.0000   1.0000   1.0000
     1.0000   1.0000   1.0000   1.0000   1.0000   1.0000   1.0000   1.0000
     1.0000   1.0000   1.0000   1.0000   1.0000   1.0000   1.0000   1.0000
     1.0000   1.0000   1.0000   1.0000   1.0000   1.0000   1.0000   1.0000
     1.0000   1.0000   1.0000   1.0000   1.0000   1.0000   1.0000   1.0000
     1.0000   1.0000   1.0000   1.0000   1.0000   1.0000   1.0000   1.0000
     1.0000   1.0000   1.0000   1.0000   1.0000   1.0000   1.0000   1.0000
     1.0000   1.0000   1.0000   1.0000   1.0000   1.0000   1.0000   1.0000
     1.0000   1.0000   1.0000   1.0000   1.0000   1.0000   1.0000   1.0000
     1.0000   1.0000   1.0000   0.9999   0.9998   0.9997   0.9997   0.9996
     0.9996   0.9995   0.9994   0.9994   0.9993   0.9988   0.9984   0.9982
     0.9980   0.9936   0.9926   0.9919   0.9890   0.9877   0.9855   0.9844
     0.9826   0.9821   0.9814   0.9796   0.9760   0.9743   0.9719   0.9699
     0.9669   0.9604   0.9488   0.9429   0.9098   0.8597   0.8560   0.8530
     0.8395   0.8383   0.8319   0.8235   0.8200   0.8116   0.8069   0.7841
     0.7751   0.7396   0.7344   0.6984   0.6967   0.6821   0.6813   0.6716
     0.6699   0.6681   0.6645   0.6627   0.6561   0.6450   0.6444   0.6077
     0.6047   0.5956   0.5632   0.1243   0.1198   0.1005   0.0920   0.0249
     0.0196   0.0103   0.0075   0.0032   0.0013   0.0008   0.0006   0.0002
     0.0001   0.0000   0.0000   0.0000   0.0000   0.0000   0.0000   0.0000
     0.0000   0.0000   0.0000   0.0000   0.0000   0.0000   0.0000   0.0000
     0.0000   0.0000   0.0000   0.0000   0.0000   0.0000   0.0000

          k = 0.2500 0.2500 0.0000 ( 65198 PWs)   bands (ev):

   -92.3321 -92.2767 -92.1859 -92.1367 -92.0806 -92.0388 -92.0210 -91.8956
   -55.6852 -55.6631 -55.5439 -55.5333 -55.5249 -55.5200 -55.4814 -55.4556
   -55.4390 -55.4379 -55.4285 -55.3881 -55.3681 -55.3320 -55.3118 -55.2804
   -55.2721 -55.2273 -55.2244 -55.2239 -55.2159 -55.1694 -55.1518 -55.0628
   -30.9169 -30.9014 -30.7833 -30.7588 -30.7243 -30.6728 -30.5223 -30.4659
   -29.4819 -29.4405 -29.4148 -29.3065 -22.2497 -14.6522 -14.6193 -14.5431
   -14.4252 -14.3127 -14.1873 -14.1089 -13.9095 -13.7683 -13.7473 -13.7365
   -13.7024 -13.6711 -13.6492 -13.6277 -13.5932 -13.5762 -13.4802 -13.4646
   -13.3036 -13.2908 -13.2598 -13.2402 -13.2039 -13.1500 -13.0985 -13.0672
   -12.9859 -12.9555 -12.8728 -12.7855 -12.7484 -12.7329 -12.6945 -12.6641
   -12.6558 -12.6066 -12.5895 -12.5785 -12.5463 -12.5249 -12.4800 -12.4367
   -12.4019 -12.3854 -12.3778 -12.3551 -12.1980 -12.0941 -12.0887 -11.9198
   -11.8105 -11.7565 -11.4351 -11.4030 -11.3926 -11.3853 -11.3228 -11.2880
   -11.2813 -11.2459 -11.2384 -11.1465 -11.1049 -11.0875  -5.8206  -3.1568
    -3.1532  -2.3045  -2.0943  -1.9767  -1.8840  -1.7611  -1.6958  -1.5006
    -1.3535  -1.3331  -1.3063  -1.2101  -1.1776  -1.0842  -1.0572  -1.0070
    -0.8745  -0.8274  -0.7557  -0.7096  -0.6659  -0.6413  -0.6158  -0.5745
    -0.5583  -0.4688  -0.4190  -0.3562  -0.3068  -0.2770  -0.2248  -0.2144
    -0.1511  -0.0995  -0.0479  -0.0101   0.0720   0.1296   0.1540   0.1975
     0.2501   0.3287   0.3575   0.3814   0.4547   0.4862   0.7681   0.9166
     0.9540   1.0095   1.0498   1.0894   1.1483   1.2189   1.2536   1.5274
     1.6003   1.6750   1.7018   1.7439   1.7796   1.8155   1.8530   1.8702
     1.8993   1.9381   1.9465   1.9653   2.0031   2.0417   2.0859   2.1406
     2.1698   2.1868   2.2113   2.2543   2.2998   2.3245   2.4590   2.5336
     2.5740   2.5996   2.6523   2.7233   2.7562   2.7947   2.8216   2.8287
     2.9386   2.9780   3.0634   3.0696   3.0739   3.2418   3.2593   3.2658
     3.2817   3.2960   3.3081   3.3213   3.3284   3.3380   3.3519   3.3630
     3.3827   3.3889   3.4001   3.4198   3.4350   3.4451   3.4755   3.7775
     3.8678   3.9054   3.9723   3.9887   4.2103   4.3190   4.6479   4.8095
     4.9766   5.1417   5.3436   5.5858   5.9310   5.9582   6.0057   6.1232
     6.2062   6.2539   6.3462   6.4203   6.9091   7.0177   7.1038   7.2059
     7.7092   7.8002   7.8472   7.8836   8.0280   8.1390   8.2267   8.3119
     8.3427   8.4503   8.5365   8.6882   8.7248   8.8013   8.8598

     occupation numbers 
     1.0000   1.0000   1.0000   1.0000   1.0000   1.0000   1.0000   1.0000
     1.0000   1.0000   1.0000   1.0000   1.0000   1.0000   1.0000   1.0000
     1.0000   1.0000   1.0000   1.0000   1.0000   1.0000   1.0000   1.0000
     1.0000   1.0000   1.0000   1.0000   1.0000   1.0000   1.0000   1.0000
     1.0000   1.0000   1.0000   1.0000   1.0000   1.0000   1.0000   1.0000
     1.0000   1.0000   1.0000   1.0000   1.0000   1.0000   1.0000   1.0000
     1.0000   1.0000   1.0000   1.0000   1.0000   1.0000   1.0000   1.0000
     1.0000   1.0000   1.0000   1.0000   1.0000   1.0000   1.0000   1.0000
     1.0000   1.0000   1.0000   1.0000   1.0000   1.0000   1.0000   1.0000
     1.0000   1.0000   1.0000   1.0000   1.0000   1.0000   1.0000   1.0000
     1.0000   1.0000   1.0000   1.0000   1.0000   1.0000   1.0000   1.0000
     1.0000   1.0000   1.0000   1.0000   1.0000   1.0000   1.0000   1.0000
     1.0000   1.0000   1.0000   1.0000   1.0000   1.0000   1.0000   1.0000
     1.0000   1.0000   1.0000   1.0000   1.0000   1.0000   1.0000   1.0000
     1.0000   1.0000   1.0000   1.0000   1.0000   1.0000   1.0000   1.0000
     1.0000   1.0000   1.0000   1.0000   1.0000   1.0000   1.0000   1.0000
     1.0000   1.0000   1.0000   1.0000   1.0000   1.0000   1.0000   1.0000
     1.0000   1.0000   1.0000   1.0000   1.0000   1.0000   1.0000   1.0000
     1.0000   1.0000   1.0000   1.0000   1.0000   1.0000   1.0000   1.0000
     1.0000   1.0000   1.0000   1.0000   1.0000   1.0000   1.0000   1.0000
     1.0000   1.0000   1.0000   0.9999   0.9999   0.9999   0.9999   0.9994
     0.9991   0.9986   0.9985   0.9981   0.9978   0.9974   0.9969   0.9966
     0.9962   0.9954   0.9953   0.9949   0.9940   0.9929   0.9915   0.9895
     0.9882   0.9874   0.9862   0.9837   0.9808   0.9790   0.9667   0.9576
     0.9519   0.9480   0.9391   0.9253   0.9182   0.9092   0.9025   0.9006
     0.8691   0.8562   0.8255   0.8232   0.8215   0.7491   0.7408   0.7377
     0.7299   0.7228   0.7168   0.7101   0.7065   0.7016   0.6943   0.6886
     0.6781   0.6749   0.6688   0.6581   0.6499   0.6443   0.6273   0.4508
     0.3983   0.3769   0.3398   0.3309   0.2218   0.1768   0.0784   0.0488
     0.0284   0.0158   0.0072   0.0025   0.0004   0.0004   0.0003   0.0002
     0.0001   0.0001   0.0000   0.0000   0.0000   0.0000   0.0000   0.0000
     0.0000   0.0000   0.0000   0.0000   0.0000   0.0000   0.0000   0.0000
     0.0000   0.0000   0.0000   0.0000   0.0000   0.0000   0.0000

          k = 0.2500-0.5000 0.0000 ( 65138 PWs)   bands (ev):

   -92.3321 -92.2767 -92.1859 -92.1367 -92.0806 -92.0388 -92.0210 -91.8956
   -55.6852 -55.6631 -55.5439 -55.5333 -55.5249 -55.5200 -55.4814 -55.4556
   -55.4390 -55.4379 -55.4285 -55.3880 -55.3681 -55.3320 -55.3118 -55.2804
   -55.2721 -55.2273 -55.2244 -55.2239 -55.2159 -55.1694 -55.1518 -55.0628
   -30.9168 -30.9013 -30.7828 -30.7590 -30.7249 -30.6729 -30.5217 -30.4665
   -29.4812 -29.4402 -29.4155 -29.3068 -22.2497 -14.6179 -14.5725 -14.5052
   -14.3913 -14.3588 -14.2374 -14.1539 -14.0245 -13.7681 -13.7112 -13.6655
   -13.6338 -13.6137 -13.5975 -13.5810 -13.5503 -13.5355 -13.5012 -13.4590
   -13.4425 -13.4095 -13.3043 -13.2560 -13.2214 -13.1768 -13.1192 -13.1060
   -13.0426 -13.0144 -12.8483 -12.7843 -12.7673 -12.7063 -12.6861 -12.6695
   -12.6308 -12.6118 -12.5854 -12.5545 -12.5289 -12.5145 -12.4764 -12.4607
   -12.4178 -12.4007 -12.2970 -12.2656 -12.1633 -12.0937 -11.9636 -11.9423
   -11.8714 -11.8476 -11.4104 -11.3986 -11.3877 -11.3606 -11.3290 -11.3008
   -11.2594 -11.2317 -11.2095 -11.1646 -11.1385 -11.1272  -5.8205  -3.1568
    -3.1533  -2.0859  -2.0215  -1.8906  -1.8132  -1.6847  -1.6020  -1.4768
    -1.3260  -1.2736  -1.2504  -1.1879  -1.1745  -1.0781  -1.0109  -0.9247
    -0.8776  -0.8680  -0.8034  -0.7634  -0.7269  -0.6799  -0.6429  -0.6078
    -0.5675  -0.5574  -0.5114  -0.4833  -0.4419  -0.4112  -0.3434  -0.2439
    -0.2068  -0.1267  -0.0615  -0.0142   0.0281   0.0506   0.1076   0.2644
     0.2756   0.3694   0.4068   0.4198   0.4643   0.5022   0.5309   0.5709
     0.6404   0.9079   1.0097   1.0402   1.1081   1.3915   1.4099   1.5014
     1.5262   1.6969   1.7282   1.7717   1.7984   1.8133   1.8341   1.8933
     1.9377   1.9756   2.0439   2.1461   2.1750   2.1992   2.2111   2.2459
     2.2617   2.2682   2.3088   2.3228   2.3442   2.3612   2.3894   2.4202
     2.4486   2.5110   2.5499   2.6289   2.7639   2.9205   2.9342   2.9532
     2.9793   3.0074   3.0310   3.0563   3.0633   3.0646   3.0793   3.0971
     3.1911   3.2404   3.2601   3.2614   3.2787   3.2991   3.3128   3.3315
     3.3396   3.3694   3.3802   3.3975   3.4052   3.4127   3.4252   3.9294
     3.9561   4.1091   4.1623   4.4803   4.5344   4.5552   4.6639   5.0686
     5.1083   5.3030   5.3668   5.5058   5.6525   5.8034   5.8209   5.9638
     6.0813   6.1109   6.3435   6.4182   6.5784   6.6406   7.1630   7.3383
     7.4542   7.6238   7.9648   8.0762   8.1857   8.2122   8.3619   8.4379
     8.5279   8.5769   8.7014   8.7802   8.8526   8.8810   8.9397

     occupation numbers 
     1.0000   1.0000   1.0000   1.0000   1.0000   1.0000   1.0000   1.0000
     1.0000   1.0000   1.0000   1.0000   1.0000   1.0000   1.0000   1.0000
     1.0000   1.0000   1.0000   1.0000   1.0000   1.0000   1.0000   1.0000
     1.0000   1.0000   1.0000   1.0000   1.0000   1.0000   1.0000   1.0000
     1.0000   1.0000   1.0000   1.0000   1.0000   1.0000   1.0000   1.0000
     1.0000   1.0000   1.0000   1.0000   1.0000   1.0000   1.0000   1.0000
     1.0000   1.0000   1.0000   1.0000   1.0000   1.0000   1.0000   1.0000
     1.0000   1.0000   1.0000   1.0000   1.0000   1.0000   1.0000   1.0000
     1.0000   1.0000   1.0000   1.0000   1.0000   1.0000   1.0000   1.0000
     1.0000   1.0000   1.0000   1.0000   1.0000   1.0000   1.0000   1.0000
     1.0000   1.0000   1.0000   1.0000   1.0000   1.0000   1.0000   1.0000
     1.0000   1.0000   1.0000   1.0000   1.0000   1.0000   1.0000   1.0000
     1.0000   1.0000   1.0000   1.0000   1.0000   1.0000   1.0000   1.0000
     1.0000   1.0000   1.0000   1.0000   1.0000   1.0000   1.0000   1.0000
     1.0000   1.0000   1.0000   1.0000   1.0000   1.0000   1.0000   1.0000
     1.0000   1.0000   1.0000   1.0000   1.0000   1.0000   1.0000   1.0000
     1.0000   1.0000   1.0000   1.0000   1.0000   1.0000   1.0000   1.0000
     1.0000   1.0000   1.0000   1.0000   1.0000   1.0000   1.0000   1.0000
     1.0000   1.0000   1.0000   1.0000   1.0000   1.0000   1.0000   1.0000
     1.0000   1.0000   1.0000   1.0000   1.0000   1.0000   1.0000   1.0000
     1.0000   1.0000   1.0000   1.0000   0.9999   0.9997   0.9997   0.9994
     0.9994   0.9985   0.9982   0.9978   0.9976   0.9974   0.9971   0.9963
     0.9954   0.9946   0.9929   0.9892   0.9880   0.9868   0.9862   0.9842
     0.9833   0.9829   0.9802   0.9791   0.9775   0.9761   0.9737   0.9707
     0.9678   0.9605   0.9554   0.9432   0.9164   0.8747   0.8705   0.8644
     0.8558   0.8461   0.8376   0.8282   0.8256   0.8251   0.8194   0.8124
     0.7725   0.7498   0.7404   0.7398   0.7314   0.7213   0.7144   0.7049
     0.7007   0.6852   0.6795   0.6702   0.6661   0.6620   0.6552   0.3634
     0.3487   0.2689   0.2435   0.1216   0.1061   0.1005   0.0750   0.0206
     0.0179   0.0084   0.0065   0.0036   0.0018   0.0009   0.0008   0.0004
     0.0002   0.0002   0.0000   0.0000   0.0000   0.0000   0.0000   0.0000
     0.0000   0.0000   0.0000   0.0000   0.0000   0.0000   0.0000   0.0000
     0.0000   0.0000   0.0000   0.0000   0.0000   0.0000   0.0000

          k =-0.5000-0.5000 0.0000 ( 65132 PWs)   bands (ev):

   -92.3321 -92.2767 -92.1859 -92.1367 -92.0806 -92.0388 -92.0210 -91.8956
   -55.6852 -55.6631 -55.5439 -55.5333 -55.5249 -55.5200 -55.4814 -55.4556
   -55.4390 -55.4379 -55.4285 -55.3880 -55.3681 -55.3320 -55.3118 -55.2804
   -55.2721 -55.2273 -55.2244 -55.2239 -55.2159 -55.1694 -55.1518 -55.0628
   -30.9145 -30.9035 -30.7827 -30.7586 -30.7247 -30.6733 -30.5218 -30.4666
   -29.4802 -29.4413 -29.4151 -29.3072 -22.2497 -14.5721 -14.5450 -14.4272
   -14.4170 -14.3261 -14.2844 -14.2569 -14.1236 -13.7680 -13.6235 -13.6120
   -13.5766 -13.5601 -13.5413 -13.5336 -13.4966 -13.4896 -13.4771 -13.4677
   -13.4528 -13.3738 -13.3667 -13.3439 -13.3172 -13.3036 -13.2021 -13.1820
   -13.0869 -13.0754 -12.7994 -12.7641 -12.6955 -12.6787 -12.6676 -12.6566
   -12.6265 -12.6223 -12.6146 -12.5953 -12.5240 -12.5051 -12.4769 -12.4708
   -12.4278 -12.4156 -12.2468 -12.2391 -12.1797 -12.0765 -11.9601 -11.9185
   -11.8607 -11.8516 -11.4069 -11.3947 -11.3769 -11.3602 -11.3255 -11.3074
   -11.2734 -11.2122 -11.1919 -11.1866 -11.1362 -11.1331  -5.8205  -3.1570
    -3.1533  -1.8628  -1.7854  -1.7777  -1.7058  -1.6654  -1.5869  -1.5188
    -1.3943  -1.2763  -1.2465  -1.2075  -1.1496  -1.0779  -1.0643  -0.9918
    -0.9504  -0.8348  -0.8073  -0.7589  -0.7259  -0.6621  -0.6183  -0.5989
    -0.5876  -0.5362  -0.4871  -0.4750  -0.3610  -0.3035  -0.2572  -0.2068
    -0.1852  -0.1734  -0.1355  -0.0961  -0.0615  -0.0481   0.0377   0.1108
     0.1547   0.1769   0.2523   0.3082   0.3118   0.3754   0.3919   0.4062
     0.4130   0.8714   0.9417   0.9844   1.0095   1.4210   1.4361   1.4637
     1.5007   1.7788   1.7987   1.8049   1.8412   1.9790   2.0754   2.1017
     2.1378   2.1577   2.1733   2.1861   2.2180   2.2254   2.2420   2.2459
     2.3021   2.3130   2.3349   2.3433   2.3643   2.3731   2.4220   2.4424
     2.4579   2.4952   2.5161   2.5946   2.6599   2.9326   2.9642   2.9823
     3.0038   3.0128   3.0359   3.0388   3.0585   3.0682   3.0801   3.0842
     3.0953   3.1170   3.1281   3.1916   3.1962   3.2160   3.2309   3.2417
     3.2597   3.2686   3.2766   3.3753   3.3817   3.4087   3.4187   4.3428
     4.3860   4.4042   4.4486   4.6846   4.7544   4.7856   5.0249   5.1418
     5.1519   5.2311   5.3496   5.4127   5.5239   5.5674   5.5818   5.7255
     5.9971   6.0909   6.1277   6.2133   6.6027   6.6213   6.7850   7.1146
     7.5164   7.5632   7.7080   8.2870   8.2975   8.3765   8.4933   8.5666
     8.6186   8.7911   8.9016   8.9199   8.9360   8.9684   8.9907

     occupation numbers 
     1.0000   1.0000   1.0000   1.0000   1.0000   1.0000   1.0000   1.0000
     1.0000   1.0000   1.0000   1.0000   1.0000   1.0000   1.0000   1.0000
     1.0000   1.0000   1.0000   1.0000   1.0000   1.0000   1.0000   1.0000
     1.0000   1.0000   1.0000   1.0000   1.0000   1.0000   1.0000   1.0000
     1.0000   1.0000   1.0000   1.0000   1.0000   1.0000   1.0000   1.0000
     1.0000   1.0000   1.0000   1.0000   1.0000   1.0000   1.0000   1.0000
[...]
     0.0000   0.0000   0.0000   0.0000   0.0000   0.0000   0.0000   0.0000
     0.0000   0.0000   0.0000   0.0000   0.0000   0.0000   0.0000

          k =-0.5000 0.0000 0.0000 ( 65180 PWs)   bands (ev):

   -92.3321 -92.2767 -92.1859 -92.1367 -92.0806 -92.0388 -92.0210 -91.8956
   -55.6852 -55.6631 -55.5439 -55.5333 -55.5249 -55.5200 -55.4814 -55.4556
   -55.4390 -55.4379 -55.4285 -55.3881 -55.3681 -55.3320 -55.3118 -55.2804
   -55.2721 -55.2273 -55.2244 -55.2239 -55.2159 -55.1694 -55.1518 -55.0628
   -30.9149 -30.9038 -30.7837 -30.7582 -30.7237 -30.6730 -30.5230 -30.4655
   -29.4814 -29.4419 -29.4138 -29.3065 -22.2497 -14.6518 -14.6034 -14.5408
   -14.4371 -14.3263 -14.1838 -14.0425 -13.9077 -13.7737 -13.7679 -13.7658
   -13.7439 -13.6911 -13.6322 -13.5983 -13.5544 -13.5488 -13.5337 -13.4784
   -13.4728 -13.3771 -13.1920 -13.1756 -13.1327 -13.1243 -13.0725 -13.0033
   -12.9903 -12.9113 -12.9032 -12.8874 -12.7809 -12.6959 -12.6890 -12.6793
   -12.6673 -12.6533 -12.5964 -12.5903 -12.5778 -12.5573 -12.4541 -12.4056
   -12.3526 -12.3339 -12.2815 -12.2725 -12.1827 -12.1649 -12.0208 -11.9699
   -11.8661 -11.8224 -11.4138 -11.3929 -11.3858 -11.3708 -11.3530 -11.3117
   -11.2487 -11.2315 -11.1993 -11.1537 -11.1442 -11.1285  -5.8205  -3.1570
    -3.1530  -2.2177  -2.1788  -2.0142  -1.9753  -1.6635  -1.5886  -1.4388
    -1.3211  -1.2823  -1.2375  -1.1881  -1.1622  -1.0410  -0.9952  -0.9822
    -0.8988  -0.8632  -0.8507  -0.8158  -0.7601  -0.6906  -0.6603  -0.6348
    -0.5400  -0.4900  -0.4421  -0.4092  -0.3881  -0.3600  -0.3103  -0.2858
    -0.2465  -0.1545  -0.0841  -0.0194   0.0431   0.2088   0.2358   0.3070
     0.3301   0.4074   0.4147   0.5491   0.5825   0.6132   0.8058   0.9038
     0.9502   1.0097   1.0892   1.2135   1.2324   1.3631   1.3933   1.4436
     1.4635   1.5069   1.5246   1.5668   1.5940   1.6609   1.7011   1.7484
     1.7578   2.0570   2.0637   2.0798   2.0958   2.2202   2.2240   2.2307
     2.2454   2.2744   2.2885   2.3224   2.3540   2.3726   2.4418   2.4465
     2.5022   2.5153   2.5823   2.6734   2.7890   2.8655   2.8798   2.9619
     2.9932   3.0133   3.0690   3.0731   3.0866   3.0958   3.1051   3.1325
     3.1995   3.2476   3.2884   3.3209   3.3633   3.3695   3.3703   3.3830
     3.3956   3.4085   3.4243   3.4258   3.4480   3.4530   3.4758   3.4958
     3.5007   3.6287   3.6328   4.4062   4.4795   4.5493   4.6488   4.9670
     5.1440   5.2754   5.3515   5.4911   5.6386   5.8951   5.9272   6.0058
     6.1666   6.3960   6.3978   6.4551   6.9605   7.0943   7.1912   7.4602
     7.5517   7.6344   7.7320   7.9692   8.0048   8.0966   8.1996   8.3134
     8.5434   8.5932   8.6669   8.7281   8.7544   8.8617   8.9778

     occupation numbers 
     1.0000   1.0000   1.0000   1.0000   1.0000   1.0000   1.0000   1.0000
     1.0000   1.0000   1.0000   1.0000   1.0000   1.0000   1.0000   1.0000
     1.0000   1.0000   1.0000   1.0000   1.0000   1.0000   1.0000   1.0000
     1.0000   1.0000   1.0000   1.0000   1.0000   1.0000   1.0000   1.0000
     1.0000   1.0000   1.0000   1.0000   1.0000   1.0000   1.0000   1.0000
     1.0000   1.0000   1.0000   1.0000   1.0000   1.0000   1.0000   1.0000
     1.0000   1.0000   1.0000   1.0000   1.0000   1.0000   1.0000   1.0000
     1.0000   1.0000   1.0000   1.0000   1.0000   1.0000   1.0000   1.0000
     1.0000   1.0000   1.0000   1.0000   1.0000   1.0000   1.0000   1.0000
     1.0000   1.0000   1.0000   1.0000   1.0000   1.0000   1.0000   1.0000
     1.0000   1.0000   1.0000   1.0000   1.0000   1.0000   1.0000   1.0000
     1.0000   1.0000   1.0000   1.0000   1.0000   1.0000   1.0000   1.0000
     1.0000   1.0000   1.0000   1.0000   1.0000   1.0000   1.0000   1.0000
     1.0000   1.0000   1.0000   1.0000   1.0000   1.0000   1.0000   1.0000
     1.0000   1.0000   1.0000   1.0000   1.0000   1.0000   1.0000   1.0000
     1.0000   1.0000   1.0000   1.0000   1.0000   1.0000   1.0000   1.0000
     1.0000   1.0000   1.0000   1.0000   1.0000   1.0000   1.0000   1.0000
     1.0000   1.0000   1.0000   1.0000   1.0000   1.0000   1.0000   1.0000
     1.0000   1.0000   1.0000   1.0000   1.0000   1.0000   1.0000   1.0000
     1.0000   1.0000   1.0000   1.0000   1.0000   1.0000   1.0000   1.0000
     1.0000   1.0000   0.9999   0.9999   0.9999   0.9997   0.9997   0.9996
     0.9995   0.9994   0.9994   0.9992   0.9991   0.9987   0.9985   0.9981
     0.9980   0.9925   0.9923   0.9917   0.9912   0.9857   0.9855   0.9851
     0.9843   0.9825   0.9816   0.9792   0.9767   0.9751   0.9685   0.9680
     0.9616   0.9600   0.9506   0.9352   0.9105   0.8907   0.8867   0.8616
     0.8510   0.8440   0.8234   0.8218   0.8165   0.8129   0.8092   0.7979
     0.7687   0.7464   0.7266   0.7103   0.6884   0.6852   0.6847   0.6780
     0.6713   0.6643   0.6557   0.6549   0.6427   0.6399   0.6272   0.6158
     0.6131   0.5387   0.5363   0.1452   0.1218   0.1021   0.0782   0.0294
     0.0157   0.0094   0.0069   0.0038   0.0019   0.0005   0.0005   0.0003
     0.0001   0.0000   0.0000   0.0000   0.0000   0.0000   0.0000   0.0000
     0.0000   0.0000   0.0000   0.0000   0.0000   0.0000   0.0000   0.0000
     0.0000   0.0000   0.0000   0.0000   0.0000   0.0000   0.0000

          k =-0.2500 0.2500 0.0000 ( 65198 PWs)   bands (ev):

   -92.3321 -92.2767 -92.1859 -92.1367 -92.0806 -92.0388 -92.0210 -91.8956
   -55.6852 -55.6631 -55.5439 -55.5333 -55.5249 -55.5200 -55.4814 -55.4556
   -55.4390 -55.4379 -55.4285 -55.3880 -55.3681 -55.3320 -55.3118 -55.2804
   -55.2721 -55.2273 -55.2244 -55.2239 -55.2159 -55.1694 -55.1518 -55.0628
   -30.9169 -30.9014 -30.7833 -30.7588 -30.7243 -30.6728 -30.5223 -30.4659
   -29.4819 -29.4405 -29.4148 -29.3065 -22.2497 -14.6537 -14.6181 -14.5415
   -14.4232 -14.3193 -14.1915 -14.1008 -13.9009 -13.7683 -13.7552 -13.7248
   -13.7164 -13.6663 -13.6429 -13.6273 -13.6150 -13.5724 -13.4771 -13.4653
   -13.3126 -13.2859 -13.2581 -13.2379 -13.2059 -13.1354 -13.0891 -13.0770
   -12.9927 -12.9595 -12.8661 -12.7889 -12.7501 -12.7269 -12.6845 -12.6645
   -12.6407 -12.6182 -12.5881 -12.5785 -12.5652 -12.5298 -12.4822 -12.4354
   -12.4126 -12.3999 -12.3735 -12.3333 -12.1888 -12.0969 -12.0837 -11.9256
   -11.8113 -11.7556 -11.4343 -11.4125 -11.3856 -11.3732 -11.3325 -11.2977
   -11.2745 -11.2533 -11.2306 -11.1463 -11.1004 -11.0907  -5.8206  -3.1568
    -3.1532  -2.3028  -2.0933  -1.9723  -1.8859  -1.7653  -1.6985  -1.4982
    -1.3502  -1.3309  -1.3043  -1.2106  -1.1765  -1.0839  -1.0508  -1.0245
    -0.8801  -0.8255  -0.7587  -0.7294  -0.6695  -0.6465  -0.6062  -0.5770
    -0.5372  -0.4754  -0.4282  -0.3679  -0.2980  -0.2733  -0.2203  -0.1932
    -0.1477  -0.0907  -0.0499  -0.0049   0.0923   0.1270   0.1357   0.1840
     0.2485   0.3288   0.3593   0.3866   0.4592   0.4830   0.7496   0.9166
     0.9642   1.0008   1.0556   1.0888   1.1512   1.2238   1.2526   1.5353
     1.6515   1.6908   1.7221   1.7294   1.7725   1.7907   1.8343   1.8662
     1.8818   1.9079   1.9479   1.9607   2.0032   2.0207   2.0650   2.1542
     2.1621   2.1846   2.2136   2.2518   2.2850   2.3267   2.4483   2.5676
     2.5955   2.6347   2.6581   2.7218   2.7686   2.7975   2.8206   2.8396
     2.9391   2.9768   3.0624   3.0703   3.0748   3.2489   3.2581   3.2709
     3.2810   3.2910   3.3052   3.3113   3.3284   3.3356   3.3530   3.3622
     3.3756   3.3843   3.3896   3.4220   3.4343   3.4440   3.4774   3.7705
     3.8507   3.9083   3.9676   4.0058   4.1942   4.3276   4.6472   4.8097
     4.9735   5.1448   5.3518   5.5836   5.9361   5.9637   5.9973   6.1278
     6.2025   6.2560   6.3596   6.4007   6.9323   7.0233   7.0746   7.1960
     7.7200   7.8067   7.8415   7.9086   7.9892   8.1709   8.2146   8.2834
     8.3621   8.4399   8.6114   8.6937   8.7224   8.7353   8.8516

     occupation numbers 
     1.0000   1.0000   1.0000   1.0000   1.0000   1.0000   1.0000   1.0000
     1.0000   1.0000   1.0000   1.0000   1.0000   1.0000   1.0000   1.0000
     1.0000   1.0000   1.0000   1.0000   1.0000   1.0000   1.0000   1.0000
     1.0000   1.0000   1.0000   1.0000   1.0000   1.0000   1.0000   1.0000
     1.0000   1.0000   1.0000   1.0000   1.0000   1.0000   1.0000   1.0000
     1.0000   1.0000   1.0000   1.0000   1.0000   1.0000   1.0000   1.0000
     1.0000   1.0000   1.0000   1.0000   1.0000   1.0000   1.0000   1.0000
     1.0000   1.0000   1.0000   1.0000   1.0000   1.0000   1.0000   1.0000
     1.0000   1.0000   1.0000   1.0000   1.0000   1.0000   1.0000   1.0000
     1.0000   1.0000   1.0000   1.0000   1.0000   1.0000   1.0000   1.0000
     1.0000   1.0000   1.0000   1.0000   1.0000   1.0000   1.0000   1.0000
     1.0000   1.0000   1.0000   1.0000   1.0000   1.0000   1.0000   1.0000
     1.0000   1.0000   1.0000   1.0000   1.0000   1.0000   1.0000   1.0000
     1.0000   1.0000   1.0000   1.0000   1.0000   1.0000   1.0000   1.0000
     1.0000   1.0000   1.0000   1.0000   1.0000   1.0000   1.0000   1.0000
     1.0000   1.0000   1.0000   1.0000   1.0000   1.0000   1.0000   1.0000
     1.0000   1.0000   1.0000   1.0000   1.0000   1.0000   1.0000   1.0000
     1.0000   1.0000   1.0000   1.0000   1.0000   1.0000   1.0000   1.0000
     1.0000   1.0000   1.0000   1.0000   1.0000   1.0000   1.0000   1.0000
     1.0000   1.0000   1.0000   1.0000   1.0000   1.0000   1.0000   1.0000
     1.0000   1.0000   1.0000   0.9999   0.9999   0.9999   0.9999   0.9993
     0.9988   0.9985   0.9983   0.9982   0.9978   0.9976   0.9971   0.9967
     0.9964   0.9960   0.9952   0.9950   0.9940   0.9935   0.9922   0.9889
     0.9885   0.9875   0.9860   0.9839   0.9818   0.9789   0.9678   0.9528
     0.9486   0.9422   0.9380   0.9256   0.9153   0.9085   0.9027   0.8978
     0.8689   0.8566   0.8259   0.8229   0.8211   0.7457   0.7414   0.7352
     0.7302   0.7253   0.7182   0.7152   0.7065   0.7028   0.6938   0.6890
     0.6819   0.6773   0.6745   0.6569   0.6502   0.6449   0.6263   0.4549
     0.4081   0.3752   0.3424   0.3218   0.2289   0.1735   0.0785   0.0488
     0.0287   0.0156   0.0069   0.0025   0.0004   0.0004   0.0003   0.0002
     0.0001   0.0001   0.0000   0.0000   0.0000   0.0000   0.0000   0.0000
     0.0000   0.0000   0.0000   0.0000   0.0000   0.0000   0.0000   0.0000
     0.0000   0.0000   0.0000   0.0000   0.0000   0.0000   0.0000

          k =-0.5000 0.2500 0.0000 ( 65138 PWs)   bands (ev):

   -92.3321 -92.2767 -92.1859 -92.1367 -92.0806 -92.0388 -92.0210 -91.8956
   -55.6852 -55.6631 -55.5439 -55.5333 -55.5249 -55.5200 -55.4814 -55.4556
   -55.4390 -55.4379 -55.4285 -55.3881 -55.3681 -55.3320 -55.3118 -55.2804
   -55.2721 -55.2273 -55.2244 -55.2239 -55.2159 -55.1694 -55.1518 -55.0628
   -30.9147 -30.9037 -30.7832 -30.7584 -30.7242 -30.6732 -30.5224 -30.4660
   -29.4808 -29.4416 -29.4144 -29.3069 -22.2497 -14.6194 -14.5767 -14.4978
   -14.4020 -14.3568 -14.2300 -14.1464 -14.0208 -13.7681 -13.7057 -13.6758
   -13.6629 -13.6181 -13.6017 -13.5719 -13.5408 -13.5342 -13.5100 -13.4734
   -13.4579 -13.3646 -13.2765 -13.2363 -13.2258 -13.2155 -13.1285 -13.1093
   -13.0385 -12.9945 -12.8422 -12.8064 -12.7287 -12.7104 -12.6716 -12.6586
   -12.6519 -12.6204 -12.6044 -12.5844 -12.5761 -12.5316 -12.4617 -12.4359
   -12.3906 -12.3739 -12.2638 -12.2562 -12.1810 -12.1155 -11.9716 -11.9651
   -11.8624 -11.8332 -11.4067 -11.3941 -11.3799 -11.3682 -11.3468 -11.3165
   -11.2362 -11.2274 -11.2044 -11.1682 -11.1398 -11.1310  -5.8205  -3.1570
    -3.1532  -2.0757  -2.0334  -1.8842  -1.8423  -1.6828  -1.6074  -1.4631
    -1.3277  -1.2712  -1.2441  -1.2044  -1.1647  -1.0849  -0.9703  -0.9138
    -0.8904  -0.8656  -0.7909  -0.7595  -0.7227  -0.7034  -0.6429  -0.6159
    -0.5749  -0.5399  -0.5112  -0.4543  -0.4278  -0.3860  -0.3520  -0.2485
    -0.2205  -0.1378  -0.0764  -0.0429   0.0130   0.0995   0.1325   0.2346
     0.2733   0.3242   0.3770   0.4012   0.4824   0.5005   0.5326   0.5951
     0.6339   0.9326   1.0158   1.0444   1.0595   1.3732   1.4238   1.5031
     1.5272   1.7077   1.7453   1.7823   1.7976   1.8158   1.8334   1.9029
     1.9434   1.9843   2.0088   2.1332   2.1689   2.1948   2.2071   2.2405
     2.2734   2.2870   2.2964   2.3212   2.3452   2.3854   2.4138   2.4424
     2.4642   2.4930   2.5569   2.6716   2.7809   2.8120   2.8802   2.9197
     2.9776   3.0118   3.0234   3.0583   3.0688   3.0712   3.0973   3.1179
     3.1992   3.2432   3.2568   3.2629   3.2835   3.3064   3.3191   3.3346
     3.3474   3.3659   3.3784   3.3907   3.3978   3.4075   3.4190   3.9390
     3.9875   4.1381   4.1612   4.4181   4.5072   4.5517   4.7458   5.0347
     5.1479   5.2890   5.3657   5.4926   5.7039   5.7813   5.8084   5.9086
     6.1012   6.1224   6.2782   6.5068   6.6161   6.6361   7.1369   7.2364
     7.5090   7.6573   7.9764   8.0734   8.1910   8.2129   8.3375   8.3836
     8.5172   8.5872   8.7119   8.8262   8.8515   8.8766   8.9323

     occupation numbers 
     1.0000   1.0000   1.0000   1.0000   1.0000   1.0000   1.0000   1.0000
     1.0000   1.0000   1.0000   1.0000   1.0000   1.0000   1.0000   1.0000
     1.0000   1.0000   1.0000   1.0000   1.0000   1.0000   1.0000   1.0000
     1.0000   1.0000   1.0000   1.0000   1.0000   1.0000   1.0000   1.0000
     1.0000   1.0000   1.0000   1.0000   1.0000   1.0000   1.0000   1.0000
     1.0000   1.0000   1.0000   1.0000   1.0000   1.0000   1.0000   1.0000
     1.0000   1.0000   1.0000   1.0000   1.0000   1.0000   1.0000   1.0000
     1.0000   1.0000   1.0000   1.0000   1.0000   1.0000   1.0000   1.0000
     1.0000   1.0000   1.0000   1.0000   1.0000   1.0000   1.0000   1.0000
     1.0000   1.0000   1.0000   1.0000   1.0000   1.0000   1.0000   1.0000
     1.0000   1.0000   1.0000   1.0000   1.0000   1.0000   1.0000   1.0000
     1.0000   1.0000   1.0000   1.0000   1.0000   1.0000   1.0000   1.0000
     1.0000   1.0000   1.0000   1.0000   1.0000   1.0000   1.0000   1.0000
     1.0000   1.0000   1.0000   1.0000   1.0000   1.0000   1.0000   1.0000
     1.0000   1.0000   1.0000   1.0000   1.0000   1.0000   1.0000   1.0000
     1.0000   1.0000   1.0000   1.0000   1.0000   1.0000   1.0000   1.0000
     1.0000   1.0000   1.0000   1.0000   1.0000   1.0000   1.0000   1.0000
     1.0000   1.0000   1.0000   1.0000   1.0000   1.0000   1.0000   1.0000
     1.0000   1.0000   1.0000   1.0000   1.0000   1.0000   1.0000   1.0000
     1.0000   1.0000   1.0000   1.0000   1.0000   1.0000   1.0000   1.0000
     1.0000   1.0000   1.0000   1.0000   1.0000   0.9997   0.9996   0.9994
     0.9994   0.9984   0.9981   0.9977   0.9976   0.9974   0.9971   0.9961
     0.9953   0.9944   0.9938   0.9898   0.9882   0.9870   0.9864   0.9846
     0.9826   0.9817   0.9810   0.9793   0.9774   0.9740   0.9714   0.9685
     0.9661   0.9628   0.9544   0.9356   0.9125   0.9049   0.8866   0.8750
     0.8564   0.8445   0.8404   0.8275   0.8235   0.8225   0.8123   0.8039
     0.7689   0.7485   0.7420   0.7391   0.7290   0.7176   0.7112   0.7033
     0.6967   0.6871   0.6804   0.6739   0.6701   0.6649   0.6586   0.3581
     0.3316   0.2549   0.2440   0.1412   0.1137   0.1015   0.0592   0.0233
     0.0154   0.0089   0.0065   0.0038   0.0014   0.0010   0.0008   0.0005
     0.0002   0.0002   0.0001   0.0000   0.0000   0.0000   0.0000   0.0000
     0.0000   0.0000   0.0000   0.0000   0.0000   0.0000   0.0000   0.0000
     0.0000   0.0000   0.0000   0.0000   0.0000   0.0000   0.0000

     the Fermi energy is     3.6942 ev

!    total energy              =   -4482.97032302 Ry
     estimated scf accuracy    <          8.3E-09 Ry
     smearing contrib. (-TS)   =      -1.17256260 Ry
     internal energy E=F+TS    =   -4481.79776041 Ry

     The total energy is F=E-TS. E is the sum of the following terms:
     one-electron contribution =  -20253.40169335 Ry
     hartree contribution      =   10266.45788118 Ry
     xc contribution           =    -701.57933208 Ry
     ewald contribution        =    6492.38315148 Ry
     one-center paw contrib.   =    -285.65776764 Ry
      -> PAW hartree energy AE =      25.13457152 Ry
      -> PAW hartree energy PS =     -25.01883794 Ry
      -> PAW xc energy AE      =     -16.51339662 Ry
      -> PAW xc energy PS      =       6.87268055 Ry
      -> total E_H with PAW    =   10266.57361477 Ry
      -> total E_XC with PAW   =    -711.22004816 Ry

     convergence has been achieved in  51 iterations

     Writing all to output data dir /bsuhome/zayahcortright/scratch/pwscf.save/
 
     init_run     :      8.20s CPU      8.87s WALL (       1 calls)
     electrons    :    782.09s CPU    816.36s WALL (       1 calls)

     Called by init_run:
     wfcinit      :      6.49s CPU      6.73s WALL (       1 calls)
     wfcinit:atom :      0.05s CPU      0.08s WALL (       5 calls)
     wfcinit:wfcr :      6.15s CPU      6.29s WALL (       5 calls)
     potinit      :      0.17s CPU      0.19s WALL (       1 calls)
     hinit0       :      0.67s CPU      0.81s WALL (       1 calls)

     Called by electrons:
     c_bands      :    626.76s CPU    634.57s WALL (      51 calls)
     sum_band     :    117.59s CPU    132.75s WALL (      51 calls)
     v_of_rho     :      5.62s CPU      6.01s WALL (      52 calls)
     v_h          :      0.48s CPU      0.48s WALL (      52 calls)
     v_xc         :      5.14s CPU      5.54s WALL (      52 calls)
     newd         :     17.11s CPU     27.52s WALL (      52 calls)
     PAW_pot      :      1.67s CPU      1.70s WALL (      52 calls)
     mix_rho      :     12.93s CPU     13.38s WALL (      51 calls)

     Called by c_bands:
     init_us_2    :      7.50s CPU      7.57s WALL (     515 calls)
     init_us_2:cp :      7.49s CPU      7.57s WALL (     515 calls)
     cegterg      :    593.37s CPU    600.78s WALL (     255 calls)

     Called by sum_band:
     sum_band:wei :      0.36s CPU      0.37s WALL (      51 calls)
     sum_band:loo :     99.44s CPU    100.39s WALL (      51 calls)
     sum_band:buf :      1.55s CPU      1.62s WALL (     255 calls)
     sum_band:ini :      3.40s CPU      3.41s WALL (     255 calls)
     sum_band:cal :     21.34s CPU     21.42s WALL (     255 calls)
     sum_band:bec :      0.65s CPU      0.66s WALL (     255 calls)
     addusdens    :     16.55s CPU     30.69s WALL (      51 calls)
                                        0.00s GPU  (      51 calls)
     addusd:skk   :      0.34s CPU      1.02s WALL (     204 calls)
                                        0.00s GPU  (     204 calls)

     Called by *egterg:
     cdiaghg      :     64.85s CPU     65.16s WALL (    1517 calls)
     cegterg:over :     43.75s CPU     43.93s WALL (    1262 calls)
     cegterg:upda :     33.23s CPU     33.87s WALL (    1262 calls)
     cegterg:last :     65.58s CPU     65.89s WALL (     464 calls)
     cdiaghg:chol :      3.66s CPU      3.69s WALL (    1517 calls)
     cdiaghg:inve :      3.90s CPU      3.92s WALL (    1517 calls)
     cdiaghg:para :      8.21s CPU      8.26s WALL (    3034 calls)
     h_psi        :    323.87s CPU    327.49s WALL (    1522 calls)
     s_psi        :     44.62s CPU     44.82s WALL (    1522 calls)
     g_psi        :      1.16s CPU      1.17s WALL (    1262 calls)

     Called by h_psi:
     h_psi:calbec :     50.43s CPU     50.74s WALL (    1522 calls)
     vloc_psi     :    225.77s CPU    228.03s WALL (    1522 calls)
     add_vuspsi   :     44.67s CPU     44.93s WALL (    1522 calls)

     General routines
     calbec       :     71.75s CPU     72.15s WALL (    1777 calls)
     fft          :      3.70s CPU      3.76s WALL (     674 calls)
     ffts         :      4.71s CPU      4.76s WALL (    5313 calls)
     fftw         :    187.71s CPU    189.42s WALL (  351543 calls)
     interpolate  :      0.42s CPU      0.43s WALL (      52 calls)
 
     Parallel routines

     PAW routines
     PAW_pot      :      1.67s CPU      1.70s WALL (      52 calls)
 
     PWSCF        :  13m12.41s CPU  13m51.40s WALL

 
   This run was terminated on:   0:15:44  19Jun2024            

=------------------------------------------------------------------------------=
   JOB DONE.
=------------------------------------------------------------------------------=
