
     Program PWSCF v.7.2 starts on 20Jun2024 at 17: 6:23 

     This program is part of the open-source Quantum ESPRESSO suite
     for quantum simulation of materials; please cite
         "P. Giannozzi et al., J. Phys.:Condens. Matter 21 395502 (2009);
         "P. Giannozzi et al., J. Phys.:Condens. Matter 29 465901 (2017);
         "P. Giannozzi et al., J. Chem. Phys. 152 154105 (2020);
          URL http://www.quantum-espresso.org", 
     in publications or presentations arising from this work. More details at
     http://www.quantum-espresso.org/quote

     Parallel version (MPI & OpenMP), running on      48 processor cores
     Number of MPI processes:                48
     Threads/MPI process:                     1

     MPI processes distributed on     1 nodes
     41848 MiB available memory on the printing compute node when the environment starts
 
     Reading input from espresso.pwi
Warning: card &CELL ignored
Warning: card / ignored
Warning: card &FCP ignored
Warning: card / ignored
Warning: card &RISM ignored
Warning: card / ignored

     Current dimensions of program PWSCF are:
     Max number of different atomic species (ntypx) = 10
     Max number of k-points (npk) =  40000
     Max angular momentum in pseudopotentials (lmaxx) =  4
     file O.pbe-n-kjpaw_psl.0.1.UPF: wavefunction(s)  2P renormalized
     signal trapping enabled: kill the code with -SIGUSR1 to stop cleanly the simulation 
 
     K-points division:     npool     =       2
     R & G space division:  proc/nbgrp/npool/nimage =      24
     Subspace diagonalization in iterative solution of the eigenvalue problem:
     one sub-group per band group will be used
     scalapack distributed-memory algorithm (size of sub-group:  3*  3 procs)

 
     Parallelization info
     --------------------
     sticks:   dense  smooth     PW     G-vecs:    dense   smooth      PW
     Min         350     175     47                61430    21716    3036
     Max         351     177     48                61449    21727    3041
     Sum        8421    4205   1137              1474595   521381   72913
 
     Using Slab Decomposition
 


     bravais-lattice index     =            0
     lattice parameter (alat)  =      14.8599  a.u.
     unit-cell volume          =    8305.1283 (a.u.)^3
     number of atoms/cell      =           51
     number of atomic types    =            4
     number of electrons       =       437.00
     number of Kohn-Sham states=          263
     kinetic-energy cutoff     =      60.0000  Ry
     charge density cutoff     =     480.0000  Ry
     scf convergence threshold =      1.0E-08
     mixing beta               =       0.1500
     number of iterations used =            8  local-TF  mixing
     Exchange-correlation= PBE
                           (   1   4   3   4   0   0   0)

     celldm(1)=  14.859904  celldm(2)=   0.000000  celldm(3)=   0.000000
     celldm(4)=   0.000000  celldm(5)=   0.000000  celldm(6)=   0.000000

     crystal axes: (cart. coord. in units of alat)
               a(1) = (   1.000000   0.000000   0.000000 )  
               a(2) = (   0.000000   1.000000   0.000000 )  
               a(3) = (   0.000000   0.000000   2.531036 )  

     reciprocal axes: (cart. coord. in units 2 pi/alat)
               b(1) = (  1.000000  0.000000  0.000000 )  
               b(2) = (  0.000000  1.000000  0.000000 )  
               b(3) = (  0.000000  0.000000  0.395095 )  


     PseudoPot. # 1 for Sr read from file:
     /bsuhome/zayahcortright/q-e/pseudo/Sr_pbe_v1.uspp.F.UPF
     MD5 check sum: 6b418c05fbe9db5448babca5e47b7a5b
     Pseudo is Ultrasoft + core correction, Zval = 10.0
     Generated by new atomic code, or converted to UPF format
     Using radial grid of  883 points,  6 beta functions with: 
                l(1) =   0
                l(2) =   0
                l(3) =   1
                l(4) =   1
                l(5) =   2
                l(6) =   2
     Q(r) pseudized with  6 coefficients,  rinner =    1.400   1.400   1.400
                                                       1.400   1.400

     PseudoPot. # 2 for O  read from file:
     /bsuhome/zayahcortright/q-e/pseudo/O.pbe-n-kjpaw_psl.0.1.UPF
     MD5 check sum: 0234752ac141de4415c5fc33072bef88
     Pseudo is Projector augmented-wave + core cor, Zval =  6.0
     Generated using "atomic" code by A. Dal Corso  v.5.0.99 svn rev. 10869
     Shape of augmentation charge: BESSEL
     Using radial grid of 1095 points,  4 beta functions with: 
                l(1) =   0
                l(2) =   0
                l(3) =   1
                l(4) =   1
     Q(r) pseudized with 0 coefficients 


     PseudoPot. # 3 for Co read from file:
     /bsuhome/zayahcortright/q-e/pseudo/Co_pbe_v1.2.uspp.F.UPF
     MD5 check sum: 5f91765df6ddd3222702df6e7b74a16d
     Pseudo is Ultrasoft + core correction, Zval = 17.0
     Generated by new atomic code, or converted to UPF format
     Using radial grid of  863 points,  6 beta functions with: 
                l(1) =   0
                l(2) =   0
                l(3) =   1
                l(4) =   1
                l(5) =   2
                l(6) =   2
     Q(r) pseudized with  8 coefficients,  rinner =    1.200   1.200   1.200
                                                       1.200   1.200

     PseudoPot. # 4 for H  read from file:
     /bsuhome/zayahcortright/q-e/pseudo/H.pbe-rrkjus_psl.1.0.0.UPF
     MD5 check sum: f52b6d4d1c606e5624b1dc7b2218f220
     Pseudo is Ultrasoft, Zval =  1.0
     Generated using "atomic" code by A. Dal Corso  v.5.1
     Using radial grid of  929 points,  2 beta functions with: 
                l(1) =   0
                l(2) =   0
     Q(r) pseudized with 0 coefficients 


     atomic species   valence    mass     pseudopotential
        Sr            10.00    87.62000     Sr( 1.00)
        O              6.00    15.99900     O ( 1.00)
        Co            17.00    58.93319     Co( 1.00)
        H              1.00     1.00800     H ( 1.00)

     No symmetry found


                                    s                        frac. trans.

      isym =  1     identity                                     

 cryst.   s( 1) = (     1          0          0      )
                  (     0          1          0      )
                  (     0          0          1      )

 cart.    s( 1) = (  1.0000000  0.0000000  0.0000000 )
                  (  0.0000000  1.0000000  0.0000000 )
                  (  0.0000000  0.0000000  1.0000000 )


   Cartesian axes

     site n.     atom                  positions (alat units)
         1           Sr  tau(   1) = (   0.2508693   0.7491307   1.7574407  )
         2           O   tau(   2) = (   0.4985141   0.5014859   1.7715967  )
         3           Sr  tau(   3) = (   0.7482398   0.7454518   1.7648669  )
         4           Sr  tau(   4) = (   0.7441748   0.2558252   1.7667843  )
         5           Sr  tau(   5) = (   0.2508693   0.7491307   1.2696799  )
         6           Sr  tau(   6) = (   0.2508693   0.7491307   0.7632319  )
         7           Co  tau(   7) = (   0.4998914   0.5001086   1.0164559  )
         8           Co  tau(   8) = (   0.4936915   0.5063085   1.5135603  )
         9           O   tau(   9) = (   0.4988895   0.7610401   1.0164559  )
        10           O   tau(  10) = (   0.2389599   0.5011105   1.0164559  )
        11           O   tau(  11) = (   0.0070918   0.7374880   1.0164559  )
        12           O   tau(  12) = (   0.0088340   0.7405089   1.5135603  )
        13           O   tau(  13) = (   0.5066944   0.7415376   1.5135603  )
        14           O   tau(  14) = (   0.2584624   0.4933056   1.5135603  )
        15           O   tau(  15) = (   0.4985141   0.5014859   0.7773880  )
        16           O   tau(  16) = (   0.4985141   0.5014859   1.2555238  )
        17           Sr  tau(  17) = (   0.7482398   0.7454518   0.7706582  )
        18           Sr  tau(  18) = (   0.7482398   0.7454518   1.2622536  )
        19           Sr  tau(  19) = (   0.7441748   0.2558252   0.7725755  )
        20           Sr  tau(  20) = (   0.7441748   0.2558252   1.2603363  )
        21           O   tau(  21) = (   0.7322655   0.0078049   1.5135603  )
        22           O   tau(  22) = (   0.7558175   0.4996027   1.5135603  )
        23           O   tau(  23) = (   0.5003973   0.2441825   1.5135603  )
        24           O   tau(  24) = (   0.7527966   0.4978604   1.0164559  )
        25           O   tau(  25) = (   0.5021396   0.2472034   1.0164559  )
        26           O   tau(  26) = (   0.7517679   0.0000000   1.0164559  )
        27           O   tau(  27) = (   0.0114961   0.4948124   1.7455321  )
        28           O   tau(  28) = (   0.0048226   0.0077944   1.7715967  )
        29           Sr  tau(  29) = (   0.2545482   0.2517602   1.7648669  )
        30           O   tau(  30) = (   0.5048017   0.0015068   1.7786929  )
        31           Co  tau(  31) = (   0.0056869   0.5006215   1.0164559  )
        32           Co  tau(  32) = (   0.0065315   0.4997770   1.5135603  )
        33           Co  tau(  33) = (   0.0061999   0.0064171   1.0164559  )
        34           Co  tau(  34) = (   0.0000000   0.0126169   1.5135603  )
        35           O   tau(  35) = (   0.0114961   0.4948124   1.2815885  )
        36           O   tau(  36) = (   0.0114961   0.4948124   0.7513233  )
        37           O   tau(  37) = (   0.0051979   0.2673486   1.0164559  )
        38           O   tau(  38) = (   0.0130029   0.2478461   1.5135603  )
        39           O   tau(  39) = (   0.0048226   0.0077944   0.7773880  )
        40           O   tau(  40) = (   0.0048226   0.0077944   1.2555238  )
        41           Sr  tau(  41) = (   0.2545482   0.2517602   0.7706582  )
        42           Sr  tau(  42) = (   0.2545482   0.2517602   1.2622536  )
        43           Co  tau(  43) = (   0.4989925   0.0073160   1.5135603  )
        44           Co  tau(  44) = (   0.4998370   0.0064714   1.0164559  )
        45           O   tau(  45) = (   0.5048017   0.0015068   0.7844841  )
        46           O   tau(  46) = (   0.5048017   0.0015068   1.2484277  )
        47           O   tau(  47) = (   0.2621260   0.0059111   1.5135603  )
        48           O   tau(  48) = (   0.2591051   0.0041689   1.0164559  )
        49           O   tau(  49) = (   0.7108228   0.9951520   2.1602013  )
        50           O   tau(  50) = (   0.7108228   0.9951520   2.3186489  )
        51           H   tau(  51) = (   0.7108228   0.9951520   2.4431567  )

   Crystallographic axes

     site n.     atom                  positions (cryst. coord.)
         1           Sr  tau(   1) = (  0.2508693  0.7491307  0.6943562  )
         2           O   tau(   2) = (  0.4985141  0.5014859  0.6999492  )
         3           Sr  tau(   3) = (  0.7482398  0.7454518  0.6972903  )
         4           Sr  tau(   4) = (  0.7441748  0.2558252  0.6980478  )
         5           Sr  tau(   5) = (  0.2508693  0.7491307  0.5016443  )
         6           Sr  tau(   6) = (  0.2508693  0.7491307  0.3015492  )
         7           Co  tau(   7) = (  0.4998914  0.5001086  0.4015968  )
         8           Co  tau(   8) = (  0.4936915  0.5063085  0.5980003  )
         9           O   tau(   9) = (  0.4988895  0.7610401  0.4015968  )
        10           O   tau(  10) = (  0.2389599  0.5011105  0.4015968  )
        11           O   tau(  11) = (  0.0070918  0.7374880  0.4015968  )
        12           O   tau(  12) = (  0.0088340  0.7405089  0.5980003  )
        13           O   tau(  13) = (  0.5066944  0.7415376  0.5980003  )
        14           O   tau(  14) = (  0.2584624  0.4933056  0.5980003  )
        15           O   tau(  15) = (  0.4985141  0.5014859  0.3071422  )
        16           O   tau(  16) = (  0.4985141  0.5014859  0.4960513  )
        17           Sr  tau(  17) = (  0.7482398  0.7454518  0.3044833  )
        18           Sr  tau(  18) = (  0.7482398  0.7454518  0.4987103  )
        19           Sr  tau(  19) = (  0.7441748  0.2558252  0.3052408  )
        20           Sr  tau(  20) = (  0.7441748  0.2558252  0.4979527  )
        21           O   tau(  21) = (  0.7322655  0.0078049  0.5980003  )
        22           O   tau(  22) = (  0.7558175  0.4996027  0.5980003  )
        23           O   tau(  23) = (  0.5003973  0.2441825  0.5980003  )
        24           O   tau(  24) = (  0.7527966  0.4978604  0.4015968  )
        25           O   tau(  25) = (  0.5021396  0.2472034  0.4015968  )
        26           O   tau(  26) = (  0.7517679  0.0000000  0.4015968  )
        27           O   tau(  27) = (  0.0114961  0.4948124  0.6896512  )
        28           O   tau(  28) = (  0.0048226  0.0077944  0.6999492  )
        29           Sr  tau(  29) = (  0.2545482  0.2517602  0.6972903  )
        30           O   tau(  30) = (  0.5048017  0.0015068  0.7027529  )
        31           Co  tau(  31) = (  0.0056869  0.5006215  0.4015968  )
        32           Co  tau(  32) = (  0.0065315  0.4997770  0.5980003  )
        33           Co  tau(  33) = (  0.0061999  0.0064171  0.4015968  )
        34           Co  tau(  34) = (  0.0000000  0.0126169  0.5980003  )
        35           O   tau(  35) = (  0.0114961  0.4948124  0.5063494  )
        36           O   tau(  36) = (  0.0114961  0.4948124  0.2968442  )
        37           O   tau(  37) = (  0.0051979  0.2673486  0.4015968  )
        38           O   tau(  38) = (  0.0130029  0.2478461  0.5980003  )
        39           O   tau(  39) = (  0.0048226  0.0077944  0.3071422  )
        40           O   tau(  40) = (  0.0048226  0.0077944  0.4960513  )
        41           Sr  tau(  41) = (  0.2545482  0.2517602  0.3044833  )
        42           Sr  tau(  42) = (  0.2545482  0.2517602  0.4987103  )
        43           Co  tau(  43) = (  0.4989925  0.0073160  0.5980003  )
        44           Co  tau(  44) = (  0.4998370  0.0064714  0.4015968  )
        45           O   tau(  45) = (  0.5048017  0.0015068  0.3099459  )
        46           O   tau(  46) = (  0.5048017  0.0015068  0.4932477  )
        47           O   tau(  47) = (  0.2621260  0.0059111  0.5980003  )
        48           O   tau(  48) = (  0.2591051  0.0041689  0.4015968  )
        49           O   tau(  49) = (  0.7108228  0.9951520  0.8534850  )
        50           O   tau(  50) = (  0.7108228  0.9951520  0.9160869  )
        51           H   tau(  51) = (  0.7108228  0.9951520  0.9652793  )

     number of k points=    10  Gaussian smearing, width (Ry)=  0.0700
                       cart. coord. in units 2pi/alat
        k(    1) = (   0.0000000   0.0000000   0.0000000), wk =   0.1250000
        k(    2) = (   0.0000000   0.2500000   0.0000000), wk =   0.2500000
        k(    3) = (   0.0000000  -0.5000000   0.0000000), wk =   0.1250000
        k(    4) = (   0.2500000   0.2500000   0.0000000), wk =   0.2500000
        k(    5) = (   0.2500000  -0.5000000   0.0000000), wk =   0.2500000
        k(    6) = (  -0.5000000  -0.5000000   0.0000000), wk =   0.1250000
        k(    7) = (   0.2500000   0.0000000   0.0000000), wk =   0.2500000
        k(    8) = (  -0.5000000   0.0000000   0.0000000), wk =   0.1250000
        k(    9) = (  -0.2500000   0.2500000   0.0000000), wk =   0.2500000
        k(   10) = (  -0.5000000   0.2500000   0.0000000), wk =   0.2500000

                       cryst. coord.
        k(    1) = (   0.0000000   0.0000000   0.0000000), wk =   0.1250000
        k(    2) = (   0.0000000   0.2500000   0.0000000), wk =   0.2500000
        k(    3) = (   0.0000000  -0.5000000   0.0000000), wk =   0.1250000
        k(    4) = (   0.2500000   0.2500000   0.0000000), wk =   0.2500000
        k(    5) = (   0.2500000  -0.5000000   0.0000000), wk =   0.2500000
        k(    6) = (  -0.5000000  -0.5000000   0.0000000), wk =   0.1250000
        k(    7) = (   0.2500000   0.0000000   0.0000000), wk =   0.2500000
        k(    8) = (  -0.5000000   0.0000000   0.0000000), wk =   0.1250000
        k(    9) = (  -0.2500000   0.2500000   0.0000000), wk =   0.2500000
        k(   10) = (  -0.5000000   0.2500000   0.0000000), wk =   0.2500000

     Dense  grid:  1474595 G-vectors     FFT dimensions: ( 108, 108, 270)

     Smooth grid:   521381 G-vectors     FFT dimensions: (  75,  75, 192)

     Dynamical RAM for                 wfc:      10.90 MB

     Dynamical RAM for     wfc (w. buffer):      65.37 MB

     Dynamical RAM for           str. fact:       3.75 MB

     Dynamical RAM for           local pot:       0.00 MB

     Dynamical RAM for          nlocal pot:      24.94 MB

     Dynamical RAM for                qrad:       7.03 MB

     Dynamical RAM for          rho,v,vnew:       6.02 MB

     Dynamical RAM for               rhoin:       2.01 MB

     Dynamical RAM for            rho*nmix:      15.00 MB

     Dynamical RAM for           G-vectors:       3.68 MB

     Dynamical RAM for          h,s,v(r/c):       1.40 MB

     Dynamical RAM for          <psi|beta>:       2.42 MB

     Dynamical RAM for                 psi:      21.79 MB

     Dynamical RAM for                hpsi:      21.79 MB

     Dynamical RAM for                spsi:      21.79 MB

     Dynamical RAM for      wfcinit/wfcrot:      34.89 MB

     Dynamical RAM for           addusdens:     101.73 MB

     Estimated static dynamical RAM per process >     122.82 MB

     Estimated max dynamical RAM per process >     239.55 MB

     Estimated total dynamical RAM >      10.88 GB

     Check: negative core charge=   -0.000004

     Initial potential from superposition of free atoms

     starting charge     428.5961, renormalised to     437.0000

     negative rho (up, down):  7.813E-01 0.000E+00
     Starting wfcs are  381 randomized atomic wfcs
     Checking if some PAW data can be deallocated... 
       PAW data deallocated on   18 nodes for type:  2

     total cpu time spent up to now is       10.1 secs

     Self-consistent Calculation

     iteration #  1     ecut=    60.00 Ry     beta= 0.15
     Davidson diagonalization with overlap

---- Real-time Memory Report at c_bands before calling an iterative solver
             0 MiB given to the printing process from OS
             0 MiB allocation reported by mallinfo(arena+hblkhd)
         32054 MiB available memory on the node where the printing process lives
------------------
     ethr =  1.00E-02,  avg # of iterations =  2.0

     negative rho (up, down):  7.716E-01 0.000E+00

     total cpu time spent up to now is       26.1 secs

     total energy              =   -4489.32755837 Ry
     estimated scf accuracy    <      49.72568023 Ry

     iteration #  2     ecut=    60.00 Ry     beta= 0.15
     Davidson diagonalization with overlap

---- Real-time Memory Report at c_bands before calling an iterative solver
             0 MiB given to the printing process from OS
             0 MiB allocation reported by mallinfo(arena+hblkhd)
         32466 MiB available memory on the node where the printing process lives
------------------
     ethr =  1.00E-02,  avg # of iterations =  1.0

     negative rho (up, down):  7.614E-01 0.000E+00

     total cpu time spent up to now is       39.5 secs

     total energy              =   -4486.81556214 Ry
     estimated scf accuracy    <      35.42254469 Ry

     iteration #  3     ecut=    60.00 Ry     beta= 0.15
     Davidson diagonalization with overlap

---- Real-time Memory Report at c_bands before calling an iterative solver
             0 MiB given to the printing process from OS
             0 MiB allocation reported by mallinfo(arena+hblkhd)
         31702 MiB available memory on the node where the printing process lives
------------------
     ethr =  8.11E-03,  avg # of iterations =  1.0

     negative rho (up, down):  7.564E-01 0.000E+00

     total cpu time spent up to now is       52.9 secs

     total energy              =   -4486.77719990 Ry
     estimated scf accuracy    <      35.40820627 Ry

     iteration #  4     ecut=    60.00 Ry     beta= 0.15
     Davidson diagonalization with overlap

---- Real-time Memory Report at c_bands before calling an iterative solver
             0 MiB given to the printing process from OS
             0 MiB allocation reported by mallinfo(arena+hblkhd)
         31676 MiB available memory on the node where the printing process lives
------------------
     ethr =  8.10E-03,  avg # of iterations =  1.0

     negative rho (up, down):  7.576E-01 0.000E+00

     total cpu time spent up to now is       66.3 secs

     total energy              =   -4486.57690831 Ry
     estimated scf accuracy    <      34.25912270 Ry

     iteration #  5     ecut=    60.00 Ry     beta= 0.15
     Davidson diagonalization with overlap

---- Real-time Memory Report at c_bands before calling an iterative solver
             0 MiB given to the printing process from OS
             0 MiB allocation reported by mallinfo(arena+hblkhd)
         31658 MiB available memory on the node where the printing process lives
------------------
     ethr =  7.84E-03,  avg # of iterations =  1.0

     negative rho (up, down):  7.335E-01 0.000E+00

     total cpu time spent up to now is       79.4 secs

     total energy              =   -4482.45262864 Ry
     estimated scf accuracy    <      22.52035356 Ry

     iteration #  6     ecut=    60.00 Ry     beta= 0.15
     Davidson diagonalization with overlap

---- Real-time Memory Report at c_bands before calling an iterative solver
             0 MiB given to the printing process from OS
             0 MiB allocation reported by mallinfo(arena+hblkhd)
         31647 MiB available memory on the node where the printing process lives
------------------
     ethr =  5.15E-03,  avg # of iterations =  2.0

     negative rho (up, down):  7.490E-01 0.000E+00

     total cpu time spent up to now is       94.0 secs

     total energy              =   -4483.45702524 Ry
     estimated scf accuracy    <      33.22980086 Ry

     iteration #  7     ecut=    60.00 Ry     beta= 0.15
     Davidson diagonalization with overlap

---- Real-time Memory Report at c_bands before calling an iterative solver
             0 MiB given to the printing process from OS
             0 MiB allocation reported by mallinfo(arena+hblkhd)
         31623 MiB available memory on the node where the printing process lives
------------------
     ethr =  5.15E-03,  avg # of iterations =  1.0

     negative rho (up, down):  7.538E-01 0.000E+00

     total cpu time spent up to now is      107.3 secs

     total energy              =   -4483.66827493 Ry
     estimated scf accuracy    <      32.32507204 Ry

     iteration #  8     ecut=    60.00 Ry     beta= 0.15
     Davidson diagonalization with overlap

---- Real-time Memory Report at c_bands before calling an iterative solver
             0 MiB given to the printing process from OS
             0 MiB allocation reported by mallinfo(arena+hblkhd)
         31596 MiB available memory on the node where the printing process lives
------------------
     ethr =  5.15E-03,  avg # of iterations =  1.0

     negative rho (up, down):  7.513E-01 0.000E+00

     total cpu time spent up to now is      120.4 secs

     total energy              =   -4483.85983113 Ry
     estimated scf accuracy    <       6.43425438 Ry

     iteration #  9     ecut=    60.00 Ry     beta= 0.15
     Davidson diagonalization with overlap

---- Real-time Memory Report at c_bands before calling an iterative solver
             0 MiB given to the printing process from OS
             0 MiB allocation reported by mallinfo(arena+hblkhd)
         31572 MiB available memory on the node where the printing process lives
------------------
     ethr =  1.47E-03,  avg # of iterations =  3.3

     negative rho (up, down):  7.664E-01 0.000E+00

     total cpu time spent up to now is      135.5 secs

     total energy              =   -4483.74840869 Ry
     estimated scf accuracy    <       3.82872169 Ry

     iteration # 10     ecut=    60.00 Ry     beta= 0.15
     Davidson diagonalization with overlap

---- Real-time Memory Report at c_bands before calling an iterative solver
             0 MiB given to the printing process from OS
             0 MiB allocation reported by mallinfo(arena+hblkhd)
         31532 MiB available memory on the node where the printing process lives
------------------
     ethr =  8.76E-04,  avg # of iterations = 11.2

     negative rho (up, down):  7.896E-01 0.000E+00

     total cpu time spent up to now is      154.7 secs

     total energy              =   -4483.48912843 Ry
     estimated scf accuracy    <       4.41845161 Ry

     iteration # 11     ecut=    60.00 Ry     beta= 0.15
     Davidson diagonalization with overlap

---- Real-time Memory Report at c_bands before calling an iterative solver
             0 MiB given to the printing process from OS
             0 MiB allocation reported by mallinfo(arena+hblkhd)
         31184 MiB available memory on the node where the printing process lives
------------------
     ethr =  8.76E-04,  avg # of iterations =  6.0

     negative rho (up, down):  7.926E-01 0.000E+00

     total cpu time spent up to now is      171.5 secs

     total energy              =   -4483.18798563 Ry
     estimated scf accuracy    <       3.88609530 Ry

     iteration # 12     ecut=    60.00 Ry     beta= 0.15
     Davidson diagonalization with overlap

---- Real-time Memory Report at c_bands before calling an iterative solver
             0 MiB given to the printing process from OS
             0 MiB allocation reported by mallinfo(arena+hblkhd)
         31147 MiB available memory on the node where the printing process lives
------------------
     ethr =  8.76E-04,  avg # of iterations =  8.4

     negative rho (up, down):  8.020E-01 0.000E+00

     total cpu time spent up to now is      189.3 secs

     total energy              =   -4483.21708360 Ry
     estimated scf accuracy    <       1.95371939 Ry

     iteration # 13     ecut=    60.00 Ry     beta= 0.15
     Davidson diagonalization with overlap

---- Real-time Memory Report at c_bands before calling an iterative solver
             0 MiB given to the printing process from OS
             0 MiB allocation reported by mallinfo(arena+hblkhd)
         31137 MiB available memory on the node where the printing process lives
------------------
     ethr =  4.47E-04,  avg # of iterations =  2.5

     negative rho (up, down):  8.039E-01 0.000E+00

     total cpu time spent up to now is      204.2 secs

     total energy              =   -4483.25046485 Ry
     estimated scf accuracy    <       1.00992092 Ry

     iteration # 14     ecut=    60.00 Ry     beta= 0.15
     Davidson diagonalization with overlap

---- Real-time Memory Report at c_bands before calling an iterative solver
             0 MiB given to the printing process from OS
             0 MiB allocation reported by mallinfo(arena+hblkhd)
         31146 MiB available memory on the node where the printing process lives
------------------
     ethr =  2.31E-04,  avg # of iterations =  8.5

     negative rho (up, down):  8.170E-01 0.000E+00

     total cpu time spent up to now is      221.9 secs

     total energy              =   -4483.10090501 Ry
     estimated scf accuracy    <       0.68997449 Ry

     iteration # 15     ecut=    60.00 Ry     beta= 0.15
     Davidson diagonalization with overlap

---- Real-time Memory Report at c_bands before calling an iterative solver
             0 MiB given to the printing process from OS
             0 MiB allocation reported by mallinfo(arena+hblkhd)
         31101 MiB available memory on the node where the printing process lives
------------------
     c_bands:  1 eigenvalues not converged
     ethr =  1.58E-04,  avg # of iterations =  6.0

     negative rho (up, down):  8.198E-01 0.000E+00

     total cpu time spent up to now is      238.8 secs

     total energy              =   -4483.13372674 Ry
     estimated scf accuracy    <       3.35694427 Ry

     iteration # 16     ecut=    60.00 Ry     beta= 0.15
     Davidson diagonalization with overlap

---- Real-time Memory Report at c_bands before calling an iterative solver
             0 MiB given to the printing process from OS
             0 MiB allocation reported by mallinfo(arena+hblkhd)
         31110 MiB available memory on the node where the printing process lives
------------------
     ethr =  1.58E-04,  avg # of iterations =  5.6

     negative rho (up, down):  8.165E-01 0.000E+00

     total cpu time spent up to now is      255.0 secs

     total energy              =   -4483.10077365 Ry
     estimated scf accuracy    <       1.37828659 Ry

     iteration # 17     ecut=    60.00 Ry     beta= 0.15
     Davidson diagonalization with overlap

---- Real-time Memory Report at c_bands before calling an iterative solver
             0 MiB given to the printing process from OS
             0 MiB allocation reported by mallinfo(arena+hblkhd)
         31138 MiB available memory on the node where the printing process lives
------------------
     ethr =  1.58E-04,  avg # of iterations =  2.6

     negative rho (up, down):  8.206E-01 0.000E+00

     total cpu time spent up to now is      269.6 secs

     total energy              =   -4483.04893826 Ry
     estimated scf accuracy    <       0.40400565 Ry

     iteration # 18     ecut=    60.00 Ry     beta= 0.15
     Davidson diagonalization with overlap

---- Real-time Memory Report at c_bands before calling an iterative solver
             0 MiB given to the printing process from OS
             0 MiB allocation reported by mallinfo(arena+hblkhd)
         31108 MiB available memory on the node where the printing process lives
------------------
     ethr =  9.24E-05,  avg # of iterations = 11.1

     negative rho (up, down):  8.208E-01 0.000E+00

     total cpu time spent up to now is      288.8 secs

     total energy              =   -4483.03049561 Ry
     estimated scf accuracy    <       1.40472510 Ry

     iteration # 19     ecut=    60.00 Ry     beta= 0.15
     Davidson diagonalization with overlap

---- Real-time Memory Report at c_bands before calling an iterative solver
             0 MiB given to the printing process from OS
             0 MiB allocation reported by mallinfo(arena+hblkhd)
         31041 MiB available memory on the node where the printing process lives
------------------
     ethr =  9.24E-05,  avg # of iterations =  2.1

     negative rho (up, down):  8.304E-01 0.000E+00

     total cpu time spent up to now is      303.4 secs

     total energy              =   -4483.01941237 Ry
     estimated scf accuracy    <       0.42737456 Ry

     iteration # 20     ecut=    60.00 Ry     beta= 0.15
     Davidson diagonalization with overlap

---- Real-time Memory Report at c_bands before calling an iterative solver
             0 MiB given to the printing process from OS
             0 MiB allocation reported by mallinfo(arena+hblkhd)
         31070 MiB available memory on the node where the printing process lives
------------------
     ethr =  9.24E-05,  avg # of iterations =  6.6

     negative rho (up, down):  8.284E-01 0.000E+00

     total cpu time spent up to now is      320.5 secs

     total energy              =   -4482.96564668 Ry
     estimated scf accuracy    <       0.66720261 Ry

     iteration # 21     ecut=    60.00 Ry     beta= 0.15
     Davidson diagonalization with overlap

---- Real-time Memory Report at c_bands before calling an iterative solver
             0 MiB given to the printing process from OS
             0 MiB allocation reported by mallinfo(arena+hblkhd)
         31069 MiB available memory on the node where the printing process lives
------------------
     ethr =  9.24E-05,  avg # of iterations = 11.0

     negative rho (up, down):  8.462E-01 0.000E+00

     total cpu time spent up to now is      340.0 secs

     total energy              =   -4482.97972581 Ry
     estimated scf accuracy    <       0.06133102 Ry

     iteration # 22     ecut=    60.00 Ry     beta= 0.15
     Davidson diagonalization with overlap

---- Real-time Memory Report at c_bands before calling an iterative solver
             0 MiB given to the printing process from OS
             0 MiB allocation reported by mallinfo(arena+hblkhd)
         31007 MiB available memory on the node where the printing process lives
------------------
     ethr =  1.40E-05,  avg # of iterations = 10.5

     negative rho (up, down):  8.403E-01 0.000E+00

     total cpu time spent up to now is      360.0 secs

     total energy              =   -4482.97855371 Ry
     estimated scf accuracy    <       0.03898130 Ry

     iteration # 23     ecut=    60.00 Ry     beta= 0.15
     Davidson diagonalization with overlap

---- Real-time Memory Report at c_bands before calling an iterative solver
             0 MiB given to the printing process from OS
             0 MiB allocation reported by mallinfo(arena+hblkhd)
         30793 MiB available memory on the node where the printing process lives
------------------
     ethr =  8.92E-06,  avg # of iterations =  1.8

     negative rho (up, down):  8.206E-01 0.000E+00

     total cpu time spent up to now is      374.5 secs

     total energy              =   -4482.97320280 Ry
     estimated scf accuracy    <       0.02826494 Ry

     iteration # 24     ecut=    60.00 Ry     beta= 0.15
     Davidson diagonalization with overlap

---- Real-time Memory Report at c_bands before calling an iterative solver
             0 MiB given to the printing process from OS
             0 MiB allocation reported by mallinfo(arena+hblkhd)
         30836 MiB available memory on the node where the printing process lives
------------------
     ethr =  6.47E-06,  avg # of iterations = 13.4

     negative rho (up, down):  8.176E-01 0.000E+00

     total cpu time spent up to now is      395.0 secs

     total energy              =   -4482.97361547 Ry
     estimated scf accuracy    <       0.01359430 Ry

     iteration # 25     ecut=    60.00 Ry     beta= 0.15
     Davidson diagonalization with overlap

---- Real-time Memory Report at c_bands before calling an iterative solver
             0 MiB given to the printing process from OS
             0 MiB allocation reported by mallinfo(arena+hblkhd)
         30806 MiB available memory on the node where the printing process lives
------------------
     ethr =  3.11E-06,  avg # of iterations =  2.3

     negative rho (up, down):  8.092E-01 0.000E+00

     total cpu time spent up to now is      409.7 secs

     total energy              =   -4482.97213625 Ry
     estimated scf accuracy    <       0.01030083 Ry

     iteration # 26     ecut=    60.00 Ry     beta= 0.15
     Davidson diagonalization with overlap

---- Real-time Memory Report at c_bands before calling an iterative solver
             0 MiB given to the printing process from OS
             0 MiB allocation reported by mallinfo(arena+hblkhd)
         30820 MiB available memory on the node where the printing process lives
------------------
     ethr =  2.36E-06,  avg # of iterations =  8.7

     negative rho (up, down):  7.969E-01 0.000E+00

     total cpu time spent up to now is      427.7 secs

     total energy              =   -4482.97103421 Ry
     estimated scf accuracy    <       0.00669561 Ry

     iteration # 27     ecut=    60.00 Ry     beta= 0.15
     Davidson diagonalization with overlap

---- Real-time Memory Report at c_bands before calling an iterative solver
             0 MiB given to the printing process from OS
             0 MiB allocation reported by mallinfo(arena+hblkhd)
         30817 MiB available memory on the node where the printing process lives
------------------
     ethr =  1.53E-06,  avg # of iterations = 11.6

     negative rho (up, down):  7.960E-01 0.000E+00

     total cpu time spent up to now is      448.9 secs

     total energy              =   -4482.97143233 Ry
     estimated scf accuracy    <       0.00155319 Ry

     iteration # 28     ecut=    60.00 Ry     beta= 0.15
     Davidson diagonalization with overlap

---- Real-time Memory Report at c_bands before calling an iterative solver
             0 MiB given to the printing process from OS
             0 MiB allocation reported by mallinfo(arena+hblkhd)
         30797 MiB available memory on the node where the printing process lives
------------------
     ethr =  3.55E-07,  avg # of iterations =  2.7

     negative rho (up, down):  7.962E-01 0.000E+00

     total cpu time spent up to now is      464.8 secs

     total energy              =   -4482.97147385 Ry
     estimated scf accuracy    <       0.00086862 Ry

     iteration # 29     ecut=    60.00 Ry     beta= 0.15
     Davidson diagonalization with overlap

---- Real-time Memory Report at c_bands before calling an iterative solver
             0 MiB given to the printing process from OS
             0 MiB allocation reported by mallinfo(arena+hblkhd)
         30789 MiB available memory on the node where the printing process lives
------------------
     ethr =  1.99E-07,  avg # of iterations =  4.3

     negative rho (up, down):  7.948E-01 0.000E+00

     total cpu time spent up to now is      480.5 secs

     total energy              =   -4482.97140750 Ry
     estimated scf accuracy    <       0.00057983 Ry

     iteration # 30     ecut=    60.00 Ry     beta= 0.15
     Davidson diagonalization with overlap

---- Real-time Memory Report at c_bands before calling an iterative solver
             0 MiB given to the printing process from OS
             0 MiB allocation reported by mallinfo(arena+hblkhd)
         30781 MiB available memory on the node where the printing process lives
------------------
     c_bands:  1 eigenvalues not converged
     ethr =  1.33E-07,  avg # of iterations =  6.7

     negative rho (up, down):  7.935E-01 0.000E+00

     total cpu time spent up to now is      497.8 secs

     total energy              =   -4482.97138894 Ry
     estimated scf accuracy    <       0.00028893 Ry

     iteration # 31     ecut=    60.00 Ry     beta= 0.15
     Davidson diagonalization with overlap

---- Real-time Memory Report at c_bands before calling an iterative solver
             0 MiB given to the printing process from OS
             0 MiB allocation reported by mallinfo(arena+hblkhd)
         30764 MiB available memory on the node where the printing process lives
------------------
     c_bands:  1 eigenvalues not converged
     ethr =  6.61E-08,  avg # of iterations =  7.4

     negative rho (up, down):  7.925E-01 0.000E+00

     total cpu time spent up to now is      515.2 secs

     total energy              =   -4482.97136102 Ry
     estimated scf accuracy    <       0.00018471 Ry

     iteration # 32     ecut=    60.00 Ry     beta= 0.15
     Davidson diagonalization with overlap

---- Real-time Memory Report at c_bands before calling an iterative solver
             0 MiB given to the printing process from OS
             0 MiB allocation reported by mallinfo(arena+hblkhd)
         30809 MiB available memory on the node where the printing process lives
------------------
     ethr =  4.23E-08,  avg # of iterations =  7.1

     negative rho (up, down):  7.920E-01 0.000E+00

     total cpu time spent up to now is      532.0 secs

     total energy              =   -4482.97135077 Ry
     estimated scf accuracy    <       0.00013864 Ry

     iteration # 33     ecut=    60.00 Ry     beta= 0.15
     Davidson diagonalization with overlap

---- Real-time Memory Report at c_bands before calling an iterative solver
             0 MiB given to the printing process from OS
             0 MiB allocation reported by mallinfo(arena+hblkhd)
         30847 MiB available memory on the node where the printing process lives
------------------
     ethr =  3.17E-08,  avg # of iterations =  5.1

     negative rho (up, down):  7.919E-01 0.000E+00

     total cpu time spent up to now is      548.5 secs

     total energy              =   -4482.97135678 Ry
     estimated scf accuracy    <       0.00004266 Ry

     iteration # 34     ecut=    60.00 Ry     beta= 0.15
     Davidson diagonalization with overlap

---- Real-time Memory Report at c_bands before calling an iterative solver
             0 MiB given to the printing process from OS
             0 MiB allocation reported by mallinfo(arena+hblkhd)
         30862 MiB available memory on the node where the printing process lives
------------------
     c_bands:  1 eigenvalues not converged
     ethr =  9.76E-09,  avg # of iterations =  6.2

     negative rho (up, down):  7.920E-01 0.000E+00

     total cpu time spent up to now is      565.6 secs

     total energy              =   -4482.97136174 Ry
     estimated scf accuracy    <       0.00002210 Ry

     iteration # 35     ecut=    60.00 Ry     beta= 0.15
     Davidson diagonalization with overlap

---- Real-time Memory Report at c_bands before calling an iterative solver
             0 MiB given to the printing process from OS
             0 MiB allocation reported by mallinfo(arena+hblkhd)
         30847 MiB available memory on the node where the printing process lives
------------------
     ethr =  5.06E-09,  avg # of iterations =  4.0

     negative rho (up, down):  7.920E-01 0.000E+00

     total cpu time spent up to now is      581.2 secs

     total energy              =   -4482.97136589 Ry
     estimated scf accuracy    <       0.00001702 Ry

     iteration # 36     ecut=    60.00 Ry     beta= 0.15
     Davidson diagonalization with overlap

---- Real-time Memory Report at c_bands before calling an iterative solver
             0 MiB given to the printing process from OS
             0 MiB allocation reported by mallinfo(arena+hblkhd)
         30850 MiB available memory on the node where the printing process lives
------------------
     ethr =  3.89E-09,  avg # of iterations =  4.5

     negative rho (up, down):  7.920E-01 0.000E+00

     total cpu time spent up to now is      596.7 secs

     total energy              =   -4482.97136838 Ry
     estimated scf accuracy    <       0.00001034 Ry

     iteration # 37     ecut=    60.00 Ry     beta= 0.15
     Davidson diagonalization with overlap

---- Real-time Memory Report at c_bands before calling an iterative solver
             0 MiB given to the printing process from OS
             0 MiB allocation reported by mallinfo(arena+hblkhd)
         30837 MiB available memory on the node where the printing process lives
------------------
     ethr =  2.37E-09,  avg # of iterations =  3.6

     negative rho (up, down):  7.921E-01 0.000E+00

     total cpu time spent up to now is      612.1 secs

     total energy              =   -4482.97136887 Ry
     estimated scf accuracy    <       0.00000951 Ry

     iteration # 38     ecut=    60.00 Ry     beta= 0.15
     Davidson diagonalization with overlap

---- Real-time Memory Report at c_bands before calling an iterative solver
             0 MiB given to the printing process from OS
             0 MiB allocation reported by mallinfo(arena+hblkhd)
         30873 MiB available memory on the node where the printing process lives
------------------
     ethr =  2.18E-09,  avg # of iterations =  5.2

     negative rho (up, down):  7.922E-01 0.000E+00

     total cpu time spent up to now is      628.1 secs

     total energy              =   -4482.97136894 Ry
     estimated scf accuracy    <       0.00000703 Ry

     iteration # 39     ecut=    60.00 Ry     beta= 0.15
     Davidson diagonalization with overlap

---- Real-time Memory Report at c_bands before calling an iterative solver
             0 MiB given to the printing process from OS
             0 MiB allocation reported by mallinfo(arena+hblkhd)
         30901 MiB available memory on the node where the printing process lives
------------------
     ethr =  1.61E-09,  avg # of iterations =  3.4

     negative rho (up, down):  7.922E-01 0.000E+00

     total cpu time spent up to now is      643.2 secs

     total energy              =   -4482.97136955 Ry
     estimated scf accuracy    <       0.00000596 Ry

     iteration # 40     ecut=    60.00 Ry     beta= 0.15
     Davidson diagonalization with overlap

---- Real-time Memory Report at c_bands before calling an iterative solver
             0 MiB given to the printing process from OS
             0 MiB allocation reported by mallinfo(arena+hblkhd)
         30906 MiB available memory on the node where the printing process lives
------------------
     ethr =  1.36E-09,  avg # of iterations =  2.3

     negative rho (up, down):  7.922E-01 0.000E+00

     total cpu time spent up to now is      657.9 secs

     total energy              =   -4482.97137112 Ry
     estimated scf accuracy    <       0.00000551 Ry

     iteration # 41     ecut=    60.00 Ry     beta= 0.15
     Davidson diagonalization with overlap

---- Real-time Memory Report at c_bands before calling an iterative solver
             0 MiB given to the printing process from OS
             0 MiB allocation reported by mallinfo(arena+hblkhd)
         30904 MiB available memory on the node where the printing process lives
------------------
     ethr =  1.26E-09,  avg # of iterations =  3.2

     negative rho (up, down):  7.922E-01 0.000E+00

     total cpu time spent up to now is      672.7 secs

     total energy              =   -4482.97137235 Ry
     estimated scf accuracy    <       0.00000496 Ry

     iteration # 42     ecut=    60.00 Ry     beta= 0.15
     Davidson diagonalization with overlap

---- Real-time Memory Report at c_bands before calling an iterative solver
             0 MiB given to the printing process from OS
             0 MiB allocation reported by mallinfo(arena+hblkhd)
         30909 MiB available memory on the node where the printing process lives
------------------
     ethr =  1.14E-09,  avg # of iterations =  3.6

     negative rho (up, down):  7.922E-01 0.000E+00

     total cpu time spent up to now is      687.8 secs

     total energy              =   -4482.97137371 Ry
     estimated scf accuracy    <       0.00000368 Ry

     iteration # 43     ecut=    60.00 Ry     beta= 0.15
     Davidson diagonalization with overlap

---- Real-time Memory Report at c_bands before calling an iterative solver
             0 MiB given to the printing process from OS
             0 MiB allocation reported by mallinfo(arena+hblkhd)
         30916 MiB available memory on the node where the printing process lives
------------------
     ethr =  8.42E-10,  avg # of iterations =  4.6

     negative rho (up, down):  7.922E-01 0.000E+00

     total cpu time spent up to now is      703.6 secs

     total energy              =   -4482.97137400 Ry
     estimated scf accuracy    <       0.00000267 Ry

     iteration # 44     ecut=    60.00 Ry     beta= 0.15
     Davidson diagonalization with overlap

---- Real-time Memory Report at c_bands before calling an iterative solver
             0 MiB given to the printing process from OS
             0 MiB allocation reported by mallinfo(arena+hblkhd)
         30924 MiB available memory on the node where the printing process lives
------------------
     ethr =  6.11E-10,  avg # of iterations =  4.7

     negative rho (up, down):  7.922E-01 0.000E+00

     total cpu time spent up to now is      719.3 secs

     total energy              =   -4482.97137397 Ry
     estimated scf accuracy    <       0.00000163 Ry

     iteration # 45     ecut=    60.00 Ry     beta= 0.15
     Davidson diagonalization with overlap

---- Real-time Memory Report at c_bands before calling an iterative solver
             0 MiB given to the printing process from OS
             0 MiB allocation reported by mallinfo(arena+hblkhd)
         30930 MiB available memory on the node where the printing process lives
------------------
     ethr =  3.74E-10,  avg # of iterations =  3.7

     negative rho (up, down):  7.922E-01 0.000E+00

     total cpu time spent up to now is      734.5 secs

     total energy              =   -4482.97137399 Ry
     estimated scf accuracy    <       0.00000121 Ry

     iteration # 46     ecut=    60.00 Ry     beta= 0.15
     Davidson diagonalization with overlap

---- Real-time Memory Report at c_bands before calling an iterative solver
             0 MiB given to the printing process from OS
             0 MiB allocation reported by mallinfo(arena+hblkhd)
         30931 MiB available memory on the node where the printing process lives
------------------
     ethr =  2.76E-10,  avg # of iterations =  4.3

     negative rho (up, down):  7.922E-01 0.000E+00

     total cpu time spent up to now is      750.3 secs

     total energy              =   -4482.97137392 Ry
     estimated scf accuracy    <       0.00000065 Ry

     iteration # 47     ecut=    60.00 Ry     beta= 0.15
     Davidson diagonalization with overlap

---- Real-time Memory Report at c_bands before calling an iterative solver
             0 MiB given to the printing process from OS
             0 MiB allocation reported by mallinfo(arena+hblkhd)
         30920 MiB available memory on the node where the printing process lives
------------------
     ethr =  1.49E-10,  avg # of iterations =  3.9

     negative rho (up, down):  7.922E-01 0.000E+00

     total cpu time spent up to now is      765.9 secs

     total energy              =   -4482.97137384 Ry
     estimated scf accuracy    <       0.00000032 Ry

     iteration # 48     ecut=    60.00 Ry     beta= 0.15
     Davidson diagonalization with overlap

---- Real-time Memory Report at c_bands before calling an iterative solver
             0 MiB given to the printing process from OS
             0 MiB allocation reported by mallinfo(arena+hblkhd)
         30924 MiB available memory on the node where the printing process lives
------------------
     ethr =  7.24E-11,  avg # of iterations =  4.5

     negative rho (up, down):  7.923E-01 0.000E+00

     total cpu time spent up to now is      782.4 secs

     total energy              =   -4482.97137390 Ry
     estimated scf accuracy    <       0.00000014 Ry

     iteration # 49     ecut=    60.00 Ry     beta= 0.15
     Davidson diagonalization with overlap

---- Real-time Memory Report at c_bands before calling an iterative solver
             0 MiB given to the printing process from OS
             0 MiB allocation reported by mallinfo(arena+hblkhd)
         30900 MiB available memory on the node where the printing process lives
------------------
     ethr =  3.23E-11,  avg # of iterations =  4.5

     negative rho (up, down):  7.923E-01 0.000E+00

     total cpu time spent up to now is      798.2 secs

     total energy              =   -4482.97137394 Ry
     estimated scf accuracy    <       0.00000005 Ry

     iteration # 50     ecut=    60.00 Ry     beta= 0.15
     Davidson diagonalization with overlap

---- Real-time Memory Report at c_bands before calling an iterative solver
             0 MiB given to the printing process from OS
             0 MiB allocation reported by mallinfo(arena+hblkhd)
         30948 MiB available memory on the node where the printing process lives
------------------
     ethr =  1.15E-11,  avg # of iterations =  4.7

     negative rho (up, down):  7.923E-01 0.000E+00

     total cpu time spent up to now is      814.5 secs

     total energy              =   -4482.97137396 Ry
     estimated scf accuracy    <       0.00000003 Ry

     iteration # 51     ecut=    60.00 Ry     beta= 0.15
     Davidson diagonalization with overlap

---- Real-time Memory Report at c_bands before calling an iterative solver
             0 MiB given to the printing process from OS
             0 MiB allocation reported by mallinfo(arena+hblkhd)
         30905 MiB available memory on the node where the printing process lives
------------------
     ethr =  6.33E-12,  avg # of iterations =  4.6

     negative rho (up, down):  7.923E-01 0.000E+00

     total cpu time spent up to now is      830.6 secs

     total energy              =   -4482.97137397 Ry
     estimated scf accuracy    <       0.00000002 Ry

     iteration # 52     ecut=    60.00 Ry     beta= 0.15
     Davidson diagonalization with overlap

---- Real-time Memory Report at c_bands before calling an iterative solver
             0 MiB given to the printing process from OS
             0 MiB allocation reported by mallinfo(arena+hblkhd)
         30920 MiB available memory on the node where the printing process lives
------------------
     ethr =  4.08E-12,  avg # of iterations =  3.9

     negative rho (up, down):  7.923E-01 0.000E+00

     total cpu time spent up to now is      845.7 secs

     total energy              =   -4482.97137398 Ry
     estimated scf accuracy    <       0.00000001 Ry

     iteration # 53     ecut=    60.00 Ry     beta= 0.15
     Davidson diagonalization with overlap

---- Real-time Memory Report at c_bands before calling an iterative solver
             0 MiB given to the printing process from OS
             0 MiB allocation reported by mallinfo(arena+hblkhd)
         30920 MiB available memory on the node where the printing process lives
------------------
     ethr =  2.84E-12,  avg # of iterations =  4.3

     negative rho (up, down):  7.923E-01 0.000E+00

     total cpu time spent up to now is      860.8 secs

     End of self-consistent calculation

          k = 0.0000 0.0000 0.0000 ( 65197 PWs)   bands (ev):

   -92.3321 -92.2755 -92.1856 -92.1374 -92.0776 -92.0382 -92.0209 -91.8977
   -55.6853 -55.6617 -55.5436 -55.5332 -55.5248 -55.5199 -55.4810 -55.4553
   -55.4390 -55.4371 -55.4270 -55.3863 -55.3687 -55.3295 -55.3114 -55.2773
   -55.2728 -55.2271 -55.2242 -55.2240 -55.2155 -55.1722 -55.1517 -55.0649
   -30.9188 -30.8998 -30.7587 -30.7160 -30.6722 -30.6354 -30.6202 -30.5091
   -29.4833 -29.4403 -29.4139 -29.3060 -22.2493 -14.7173 -14.6830 -14.5953
   -14.4652 -14.2831 -14.1603 -13.8578 -13.8405 -13.8086 -13.7738 -13.7623
   -13.7252 -13.7186 -13.7017 -13.6846 -13.6670 -13.6233 -13.5665 -13.4186
   -13.2516 -13.2083 -13.1758 -13.1507 -13.1305 -13.0848 -13.0452 -12.9658
   -12.8927 -12.7850 -12.7520 -12.7498 -12.7407 -12.7166 -12.6985 -12.6773
   -12.6460 -12.6353 -12.6015 -12.5683 -12.5607 -12.5436 -12.5333 -12.5293
   -12.5024 -12.4819 -12.4567 -12.4347 -12.3912 -12.3801 -11.9840 -11.8391
   -11.7188 -11.6553 -11.4975 -11.4227 -11.4113 -11.3896 -11.3718 -11.3078
   -11.2904 -11.2560 -11.2266 -11.1160 -11.0351 -11.0316  -5.8586  -3.1598
    -3.1439  -2.5779  -2.3441  -2.1148  -1.9692  -1.9046  -1.7615  -1.4560
    -1.4417  -1.4200  -1.3393  -1.3199  -1.2520  -1.2362  -1.1939  -1.1489
    -0.9685  -0.7470  -0.7175  -0.5653  -0.5518  -0.5092  -0.4902  -0.4462
    -0.4310  -0.3690  -0.3426  -0.2757  -0.2622  -0.1815  -0.0558  -0.0409
    -0.0122   0.0588   0.0709   0.0844   0.1559   0.2342   0.2649   0.3273
     0.3525   0.4056   0.4881   0.5438   0.5637   0.5711   0.8262   0.8414
     1.0133   1.0838   1.1476   1.1822   1.2825   1.2967   1.3110   1.3817
     1.4095   1.4443   1.5035   1.6385   1.6915   1.7118   1.7265   1.7385
     1.8102   1.8887   1.9805   1.9928   2.0542   2.0756   2.1128   2.1328
     2.1380   2.1946   2.2438   2.2703   2.2880   2.3237   2.3863   2.5153
     2.5937   2.6443   2.6572   2.8097   2.8247   2.8695   2.8804   2.9813
     3.0206   3.0371   3.0443   3.0633   3.0767   3.1007   3.1564   3.2707
     3.3018   3.3173   3.3245   3.3911   3.3944   3.4198   3.4280   3.4353
     3.4457   3.4544   3.4666   3.4717   3.4860   3.4945   3.5024   3.5228
     3.5442   3.5493   3.5610   3.5850   3.7023   3.7491   4.4268   4.7466
     4.8107   5.1436   5.3924   5.4910   5.6961   6.2790   6.3242   6.3573
     6.6202   6.6334   6.6811   6.7291   6.9706   7.1424   7.3108   7.3670
     7.4192   7.6554   7.8485   7.9030   7.9437   7.9619   8.0229   8.0633
     8.3142   8.3604   8.3878   8.4509   8.4603   8.5474   8.6521

     occupation numbers 
     1.0000   1.0000   1.0000   1.0000   1.0000   1.0000   1.0000   1.0000
     1.0000   1.0000   1.0000   1.0000   1.0000   1.0000   1.0000   1.0000
     1.0000   1.0000   1.0000   1.0000   1.0000   1.0000   1.0000   1.0000
     1.0000   1.0000   1.0000   1.0000   1.0000   1.0000   1.0000   1.0000
     1.0000   1.0000   1.0000   1.0000   1.0000   1.0000   1.0000   1.0000
     1.0000   1.0000   1.0000   1.0000   1.0000   1.0000   1.0000   1.0000
     1.0000   1.0000   1.0000   1.0000   1.0000   1.0000   1.0000   1.0000
     1.0000   1.0000   1.0000   1.0000   1.0000   1.0000   1.0000   1.0000
     1.0000   1.0000   1.0000   1.0000   1.0000   1.0000   1.0000   1.0000
     1.0000   1.0000   1.0000   1.0000   1.0000   1.0000   1.0000   1.0000
     1.0000   1.0000   1.0000   1.0000   1.0000   1.0000   1.0000   1.0000
     1.0000   1.0000   1.0000   1.0000   1.0000   1.0000   1.0000   1.0000
     1.0000   1.0000   1.0000   1.0000   1.0000   1.0000   1.0000   1.0000
     1.0000   1.0000   1.0000   1.0000   1.0000   1.0000   1.0000   1.0000
     1.0000   1.0000   1.0000   1.0000   1.0000   1.0000   1.0000   1.0000
     1.0000   1.0000   1.0000   1.0000   1.0000   1.0000   1.0000   1.0000
     1.0000   1.0000   1.0000   1.0000   1.0000   1.0000   1.0000   1.0000
     1.0000   1.0000   1.0000   1.0000   1.0000   1.0000   1.0000   1.0000
     1.0000   1.0000   1.0000   1.0000   1.0000   1.0000   1.0000   1.0000
     1.0000   1.0000   1.0000   1.0000   1.0000   1.0000   1.0000   1.0000
     1.0000   0.9999   0.9999   0.9999   0.9998   0.9998   0.9998   0.9997
     0.9997   0.9996   0.9994   0.9989   0.9985   0.9984   0.9983   0.9982
     0.9974   0.9963   0.9945   0.9942   0.9926   0.9919   0.9906   0.9898
     0.9896   0.9870   0.9844   0.9828   0.9816   0.9791   0.9740   0.9600
     0.9489   0.9405   0.9382   0.9055   0.9017   0.8897   0.8866   0.8552
     0.8415   0.8355   0.8328   0.8257   0.8205   0.8110   0.7878   0.7354
     0.7201   0.7123   0.7086   0.6738   0.6720   0.6583   0.6538   0.6498
     0.6441   0.6392   0.6324   0.6296   0.6215   0.6167   0.6122   0.6006
     0.5883   0.5853   0.5785   0.5646   0.4953   0.4676   0.1384   0.0591
     0.0487   0.0157   0.0058   0.0038   0.0015   0.0001   0.0000   0.0000
     0.0000   0.0000   0.0000   0.0000   0.0000   0.0000   0.0000   0.0000
     0.0000   0.0000   0.0000   0.0000   0.0000   0.0000   0.0000   0.0000
     0.0000   0.0000   0.0000   0.0000   0.0000   0.0000   0.0000

          k = 0.0000 0.2500 0.0000 ( 65257 PWs)   bands (ev):

   -92.3321 -92.2755 -92.1856 -92.1374 -92.0776 -92.0382 -92.0209 -91.8977
   -55.6853 -55.6617 -55.5436 -55.5332 -55.5248 -55.5199 -55.4810 -55.4553
   -55.4390 -55.4371 -55.4270 -55.3863 -55.3687 -55.3295 -55.3114 -55.2773
   -55.2728 -55.2271 -55.2242 -55.2240 -55.2155 -55.1722 -55.1517 -55.0649
   -30.9186 -30.8997 -30.7590 -30.7156 -30.6723 -30.6357 -30.6200 -30.5094
   -29.4826 -29.4400 -29.4146 -29.3063 -22.2493 -14.6801 -14.6573 -14.5703
   -14.4360 -14.3215 -14.1499 -14.0034 -13.8233 -13.7951 -13.7733 -13.7685
   -13.7406 -13.6867 -13.6795 -13.6670 -13.6500 -13.6075 -13.4872 -13.4498
   -13.2881 -13.2754 -13.2176 -13.1840 -13.1437 -13.0996 -13.0619 -12.9838
   -12.9511 -12.9010 -12.8496 -12.7895 -12.7502 -12.7381 -12.7295 -12.6344
   -12.6119 -12.5952 -12.5760 -12.5470 -12.5380 -12.5123 -12.5043 -12.4847
   -12.4430 -12.4385 -12.4339 -12.4045 -12.2933 -12.2090 -12.0453 -11.8903
   -11.7748 -11.7227 -11.4629 -11.4195 -11.3920 -11.3635 -11.3469 -11.2999
   -11.2883 -11.2657 -11.2318 -11.1302 -11.0768 -11.0662  -5.8586  -3.1600
    -3.1439  -2.4428  -2.2198  -2.0830  -1.9008  -1.8572  -1.6924  -1.4761
    -1.3879  -1.3749  -1.3206  -1.2166  -1.2015  -1.1673  -1.1416  -1.0983
    -0.8996  -0.7721  -0.7595  -0.6848  -0.6725  -0.5677  -0.5366  -0.4819
    -0.4576  -0.4131  -0.3522  -0.3270  -0.2931  -0.2629  -0.2457  -0.2124
    -0.1397  -0.0867  -0.0331   0.0809   0.0977   0.1446   0.2653   0.2974
     0.3614   0.4124   0.4693   0.4879   0.5219   0.5790   0.8739   0.9618
     0.9912   1.0798   1.1232   1.1401   1.2708   1.2887   1.3848   1.4074
     1.4385   1.5534   1.6370   1.6682   1.6889   1.7038   1.7375   1.7977
     1.8229   1.8503   1.8997   1.9289   1.9591   2.0363   2.0652   2.1064
     2.1602   2.2125   2.2581   2.2765   2.3061   2.3324   2.4194   2.5502
     2.6214   2.6402   2.7229   2.7676   2.8049   2.8127   2.8767   2.9199
     2.9996   3.0340   3.0354   3.0523   3.1004   3.2308   3.2528   3.2845
     3.3045   3.3234   3.3327   3.3403   3.3485   3.3780   3.3800   3.3971
     3.4011   3.4145   3.4305   3.4402   3.4515   3.4742   3.4843   3.4891
     3.5245   3.5414   3.6019   3.9603   3.9799   4.2420   4.6122   4.7528
     4.9138   5.0854   5.4169   5.5381   5.8257   5.9041   6.1639   6.3167
     6.3383   6.4636   6.5309   6.7487   6.9119   7.0614   7.2514   7.5012
     7.5565   7.7339   7.8016   7.8630   7.9096   7.9532   8.0849   8.2073
     8.3045   8.3814   8.5283   8.5898   8.6334   8.6884   8.9670

     occupation numbers 
     1.0000   1.0000   1.0000   1.0000   1.0000   1.0000   1.0000   1.0000
     1.0000   1.0000   1.0000   1.0000   1.0000   1.0000   1.0000   1.0000
     1.0000   1.0000   1.0000   1.0000   1.0000   1.0000   1.0000   1.0000
     1.0000   1.0000   1.0000   1.0000   1.0000   1.0000   1.0000   1.0000
     1.0000   1.0000   1.0000   1.0000   1.0000   1.0000   1.0000   1.0000
     1.0000   1.0000   1.0000   1.0000   1.0000   1.0000   1.0000   1.0000
     1.0000   1.0000   1.0000   1.0000   1.0000   1.0000   1.0000   1.0000
     1.0000   1.0000   1.0000   1.0000   1.0000   1.0000   1.0000   1.0000
     1.0000   1.0000   1.0000   1.0000   1.0000   1.0000   1.0000   1.0000
     1.0000   1.0000   1.0000   1.0000   1.0000   1.0000   1.0000   1.0000
     1.0000   1.0000   1.0000   1.0000   1.0000   1.0000   1.0000   1.0000
     1.0000   1.0000   1.0000   1.0000   1.0000   1.0000   1.0000   1.0000
     1.0000   1.0000   1.0000   1.0000   1.0000   1.0000   1.0000   1.0000
     1.0000   1.0000   1.0000   1.0000   1.0000   1.0000   1.0000   1.0000
     1.0000   1.0000   1.0000   1.0000   1.0000   1.0000   1.0000   1.0000
     1.0000   1.0000   1.0000   1.0000   1.0000   1.0000   1.0000   1.0000
     1.0000   1.0000   1.0000   1.0000   1.0000   1.0000   1.0000   1.0000
     1.0000   1.0000   1.0000   1.0000   1.0000   1.0000   1.0000   1.0000
     1.0000   1.0000   1.0000   1.0000   1.0000   1.0000   1.0000   1.0000
     1.0000   1.0000   1.0000   1.0000   1.0000   1.0000   1.0000   1.0000
     1.0000   0.9999   0.9999   0.9999   0.9998   0.9998   0.9997   0.9997
     0.9996   0.9993   0.9989   0.9987   0.9985   0.9984   0.9982   0.9976
     0.9973   0.9969   0.9961   0.9956   0.9950   0.9931   0.9922   0.9908
     0.9886   0.9861   0.9835   0.9824   0.9804   0.9784   0.9708   0.9553
     0.9445   0.9412   0.9254   0.9156   0.9067   0.9048   0.8877   0.8749
     0.8489   0.8366   0.8361   0.8298   0.8111   0.7544   0.7440   0.7286
     0.7187   0.7091   0.7044   0.7005   0.6963   0.6808   0.6797   0.6705
     0.6684   0.6612   0.6524   0.6471   0.6409   0.6282   0.6225   0.6198
     0.5996   0.5898   0.5547   0.3465   0.3358   0.2081   0.0865   0.0580
     0.0351   0.0194   0.0053   0.0031   0.0008   0.0005   0.0001   0.0000
     0.0000   0.0000   0.0000   0.0000   0.0000   0.0000   0.0000   0.0000
     0.0000   0.0000   0.0000   0.0000   0.0000   0.0000   0.0000   0.0000
     0.0000   0.0000   0.0000   0.0000   0.0000   0.0000   0.0000

          k = 0.0000-0.5000 0.0000 ( 65180 PWs)   bands (ev):

   -92.3321 -92.2755 -92.1856 -92.1374 -92.0776 -92.0382 -92.0209 -91.8977
   -55.6853 -55.6617 -55.5436 -55.5332 -55.5248 -55.5199 -55.4810 -55.4553
   -55.4390 -55.4371 -55.4270 -55.3862 -55.3687 -55.3295 -55.3114 -55.2773
   -55.2728 -55.2271 -55.2242 -55.2240 -55.2155 -55.1722 -55.1517 -55.0649
   -30.9184 -30.8996 -30.7592 -30.7152 -30.6725 -30.6361 -30.6197 -30.5097
   -29.4820 -29.4397 -29.4152 -29.3067 -22.2493 -14.6493 -14.6000 -14.5486
   -14.4236 -14.3344 -14.1979 -14.0523 -13.9289 -13.7934 -13.7714 -13.7287
   -13.6869 -13.6741 -13.6308 -13.6098 -13.5626 -13.5485 -13.5191 -13.4842
   -13.4639 -13.4173 -13.2202 -13.1662 -13.1527 -13.0939 -13.0684 -12.9975
   -12.9749 -12.9278 -12.9256 -12.8605 -12.7511 -12.7375 -12.7168 -12.6584
   -12.6148 -12.5993 -12.5710 -12.5401 -12.5224 -12.5043 -12.4825 -12.4358
   -12.4276 -12.4017 -12.3464 -12.2930 -12.1566 -12.1465 -11.9827 -11.9656
   -11.8890 -11.8420 -11.4165 -11.4145 -11.3871 -11.3490 -11.3149 -11.3038
   -11.2616 -11.2577 -11.2137 -11.1516 -11.1376 -11.1233  -5.8586  -3.1601
    -3.1438  -2.2285  -2.1681  -2.0169  -1.9439  -1.6655  -1.5807  -1.4530
    -1.3140  -1.2807  -1.2585  -1.1795  -1.1486  -1.0672  -1.0317  -0.9566
    -0.9145  -0.8747  -0.8480  -0.7946  -0.7541  -0.7099  -0.6724  -0.6382
    -0.6048  -0.4939  -0.4486  -0.4171  -0.4163  -0.3301  -0.2969  -0.2739
    -0.2260  -0.1437  -0.0733   0.0036   0.0309   0.1382   0.1881   0.3347
     0.3554   0.3931   0.4434   0.5689   0.6135   0.7570   0.8210   0.8291
     0.9574   0.9922   1.0953   1.2351   1.3432   1.3736   1.4059   1.4144
     1.4518   1.4723   1.5102   1.5281   1.5377   1.6452   1.7048   1.7293
     1.7559   2.0120   2.0489   2.0711   2.1690   2.1884   2.2192   2.2378
     2.2710   2.2795   2.2875   2.3237   2.3626   2.3893   2.4136   2.4296
     2.4595   2.5133   2.5909   2.6163   2.8031   2.9670   2.9740   2.9914
     3.0262   3.0322   3.0401   3.0492   3.0907   3.1056   3.1105   3.1651
     3.1854   3.2605   3.2738   3.3409   3.3514   3.3751   3.3761   3.3967
     3.3994   3.4027   3.4072   3.4115   3.4239   3.4447   3.4448   3.5098
     3.5154   3.5310   3.5853   4.4813   4.5038   4.5322   4.5942   4.9559
     5.1219   5.2328   5.4596   5.5060   5.5818   5.8288   5.9482   5.9969
     6.2404   6.3763   6.4035   6.4339   7.0268   7.0930   7.1412   7.4077
     7.5743   7.6148   7.6836   8.0446   8.0730   8.1405   8.2199   8.2886
     8.4390   8.6064   8.6634   8.7172   8.7609   8.8502   8.9767

     occupation numbers 
     1.0000   1.0000   1.0000   1.0000   1.0000   1.0000   1.0000   1.0000
     1.0000   1.0000   1.0000   1.0000   1.0000   1.0000   1.0000   1.0000
     1.0000   1.0000   1.0000   1.0000   1.0000   1.0000   1.0000   1.0000
     1.0000   1.0000   1.0000   1.0000   1.0000   1.0000   1.0000   1.0000
     1.0000   1.0000   1.0000   1.0000   1.0000   1.0000   1.0000   1.0000
     1.0000   1.0000   1.0000   1.0000   1.0000   1.0000   1.0000   1.0000
     1.0000   1.0000   1.0000   1.0000   1.0000   1.0000   1.0000   1.0000
     1.0000   1.0000   1.0000   1.0000   1.0000   1.0000   1.0000   1.0000
     1.0000   1.0000   1.0000   1.0000   1.0000   1.0000   1.0000   1.0000
     1.0000   1.0000   1.0000   1.0000   1.0000   1.0000   1.0000   1.0000
     1.0000   1.0000   1.0000   1.0000   1.0000   1.0000   1.0000   1.0000
     1.0000   1.0000   1.0000   1.0000   1.0000   1.0000   1.0000   1.0000
     1.0000   1.0000   1.0000   1.0000   1.0000   1.0000   1.0000   1.0000
     1.0000   1.0000   1.0000   1.0000   1.0000   1.0000   1.0000   1.0000
     1.0000   1.0000   1.0000   1.0000   1.0000   1.0000   1.0000   1.0000
     1.0000   1.0000   1.0000   1.0000   1.0000   1.0000   1.0000   1.0000
     1.0000   1.0000   1.0000   1.0000   1.0000   1.0000   1.0000   1.0000
     1.0000   1.0000   1.0000   1.0000   1.0000   1.0000   1.0000   1.0000
     1.0000   1.0000   1.0000   1.0000   1.0000   1.0000   1.0000   1.0000
     1.0000   1.0000   1.0000   1.0000   1.0000   1.0000   1.0000   1.0000
     1.0000   1.0000   0.9999   0.9999   0.9998   0.9997   0.9997   0.9996
     0.9996   0.9995   0.9994   0.9994   0.9993   0.9988   0.9984   0.9982
     0.9980   0.9938   0.9927   0.9920   0.9882   0.9873   0.9858   0.9847
     0.9827   0.9822   0.9817   0.9791   0.9760   0.9737   0.9714   0.9698
     0.9667   0.9603   0.9493   0.9453   0.9072   0.8600   0.8576   0.8517
     0.8394   0.8373   0.8344   0.8310   0.8150   0.8091   0.8070   0.7841
     0.7751   0.7403   0.7339   0.7002   0.6948   0.6823   0.6818   0.6708
     0.6693   0.6675   0.6651   0.6628   0.6560   0.6446   0.6445   0.6080
     0.6048   0.5959   0.5644   0.1213   0.1147   0.1067   0.0908   0.0305
     0.0170   0.0112   0.0044   0.0036   0.0025   0.0008   0.0004   0.0003
     0.0001   0.0000   0.0000   0.0000   0.0000   0.0000   0.0000   0.0000
     0.0000   0.0000   0.0000   0.0000   0.0000   0.0000   0.0000   0.0000
     0.0000   0.0000   0.0000   0.0000   0.0000   0.0000   0.0000

          k = 0.2500 0.2500 0.0000 ( 65198 PWs)   bands (ev):

   -92.3321 -92.2755 -92.1856 -92.1374 -92.0776 -92.0382 -92.0209 -91.8977
   -55.6853 -55.6617 -55.5436 -55.5332 -55.5248 -55.5199 -55.4810 -55.4553
   -55.4390 -55.4371 -55.4270 -55.3863 -55.3687 -55.3295 -55.3114 -55.2773
   -55.2728 -55.2271 -55.2242 -55.2240 -55.2155 -55.1722 -55.1517 -55.0649
   -30.9168 -30.9015 -30.7586 -30.7153 -30.6727 -30.6355 -30.6203 -30.5096
   -29.4817 -29.4410 -29.4142 -29.3068 -22.2493 -14.6524 -14.6218 -14.5424
   -14.4255 -14.3127 -14.1886 -14.1081 -13.9083 -13.7715 -13.7466 -13.7358
   -13.7008 -13.6709 -13.6499 -13.6294 -13.5981 -13.5666 -13.4792 -13.4642
   -13.3031 -13.2902 -13.2601 -13.2399 -13.2055 -13.1511 -13.1079 -13.0666
   -12.9701 -12.9319 -12.8718 -12.7846 -12.7437 -12.6950 -12.6781 -12.6616
   -12.6249 -12.5945 -12.5893 -12.5685 -12.5551 -12.5101 -12.4774 -12.4585
   -12.4250 -12.4078 -12.3842 -12.3552 -12.2189 -12.0979 -12.0938 -11.9195
   -11.8057 -11.7726 -11.4351 -11.4032 -11.3925 -11.3849 -11.3230 -11.2876
   -11.2813 -11.2461 -11.2378 -11.1468 -11.1051 -11.0876  -5.8586  -3.1599
    -3.1440  -2.3048  -2.0941  -1.9772  -1.8839  -1.7613  -1.6956  -1.5013
    -1.3535  -1.3329  -1.3070  -1.2115  -1.1769  -1.0839  -1.0576  -1.0074
    -0.8744  -0.8277  -0.7562  -0.7098  -0.6667  -0.6410  -0.6157  -0.5740
    -0.5582  -0.4688  -0.4187  -0.3579  -0.3077  -0.2776  -0.2237  -0.2139
    -0.1509  -0.1011  -0.0505  -0.0105   0.0703   0.1255   0.1540   0.1966
     0.2499   0.3149   0.3597   0.3837   0.4553   0.4914   0.7677   0.9116
     0.9532   1.0010   1.0500   1.0986   1.1599   1.2181   1.2540   1.5271
     1.6003   1.6744   1.7015   1.7424   1.7810   1.8146   1.8514   1.8693
     1.8979   1.9355   1.9458   1.9654   2.0032   2.0458   2.0868   2.1329
     2.1741   2.1829   2.2172   2.2526   2.3067   2.3345   2.4614   2.5296
     2.5708   2.6001   2.6549   2.7289   2.7586   2.7952   2.8170   2.8303
     2.9432   2.9774   3.0356   3.0656   3.0974   3.2418   3.2591   3.2660
     3.2810   3.2948   3.3081   3.3207   3.3286   3.3382   3.3519   3.3629
     3.3833   3.3895   3.4008   3.4212   3.4352   3.4451   3.4758   3.7779
     3.8698   3.9042   3.9721   3.9918   4.2101   4.3197   4.6502   4.8003
     4.9901   5.1344   5.3328   5.5890   5.9183   5.9412   5.9968   6.1299
     6.2082   6.2505   6.3470   6.4332   6.9088   7.0190   7.1038   7.1915
     7.7091   7.7894   7.8426   7.8942   8.0292   8.1388   8.2317   8.2807
     8.3598   8.4817   8.5395   8.6811   8.7280   8.7807   8.9723

     occupation numbers 
     1.0000   1.0000   1.0000   1.0000   1.0000   1.0000   1.0000   1.0000
     1.0000   1.0000   1.0000   1.0000   1.0000   1.0000   1.0000   1.0000
     1.0000   1.0000   1.0000   1.0000   1.0000   1.0000   1.0000   1.0000
     1.0000   1.0000   1.0000   1.0000   1.0000   1.0000   1.0000   1.0000
     1.0000   1.0000   1.0000   1.0000   1.0000   1.0000   1.0000   1.0000
     1.0000   1.0000   1.0000   1.0000   1.0000   1.0000   1.0000   1.0000
     1.0000   1.0000   1.0000   1.0000   1.0000   1.0000   1.0000   1.0000
     1.0000   1.0000   1.0000   1.0000   1.0000   1.0000   1.0000   1.0000
     1.0000   1.0000   1.0000   1.0000   1.0000   1.0000   1.0000   1.0000
     1.0000   1.0000   1.0000   1.0000   1.0000   1.0000   1.0000   1.0000
     1.0000   1.0000   1.0000   1.0000   1.0000   1.0000   1.0000   1.0000
     1.0000   1.0000   1.0000   1.0000   1.0000   1.0000   1.0000   1.0000
     1.0000   1.0000   1.0000   1.0000   1.0000   1.0000   1.0000   1.0000
     1.0000   1.0000   1.0000   1.0000   1.0000   1.0000   1.0000   1.0000
     1.0000   1.0000   1.0000   1.0000   1.0000   1.0000   1.0000   1.0000
     1.0000   1.0000   1.0000   1.0000   1.0000   1.0000   1.0000   1.0000
     1.0000   1.0000   1.0000   1.0000   1.0000   1.0000   1.0000   1.0000
     1.0000   1.0000   1.0000   1.0000   1.0000   1.0000   1.0000   1.0000
     1.0000   1.0000   1.0000   1.0000   1.0000   1.0000   1.0000   1.0000
     1.0000   1.0000   1.0000   1.0000   1.0000   1.0000   1.0000   1.0000
     1.0000   1.0000   1.0000   0.9999   0.9999   0.9999   0.9999   0.9994
     0.9991   0.9986   0.9985   0.9981   0.9978   0.9974   0.9969   0.9966
     0.9962   0.9955   0.9953   0.9949   0.9940   0.9928   0.9915   0.9898
     0.9880   0.9876   0.9859   0.9839   0.9803   0.9783   0.9664   0.9582
     0.9524   0.9479   0.9387   0.9242   0.9177   0.9091   0.9037   0.9003
     0.8677   0.8565   0.8360   0.8248   0.8123   0.7492   0.7410   0.7377
     0.7303   0.7235   0.7169   0.7105   0.7065   0.7016   0.6945   0.6887
     0.6779   0.6746   0.6686   0.6575   0.6499   0.6444   0.6273   0.4507
     0.3973   0.3777   0.3400   0.3294   0.2219   0.1766   0.0779   0.0503
     0.0272   0.0162   0.0075   0.0025   0.0005   0.0004   0.0003   0.0001
     0.0001   0.0001   0.0000   0.0000   0.0000   0.0000   0.0000   0.0000
     0.0000   0.0000   0.0000   0.0000   0.0000   0.0000   0.0000   0.0000
     0.0000   0.0000   0.0000   0.0000   0.0000   0.0000   0.0000

          k = 0.2500-0.5000 0.0000 ( 65138 PWs)   bands (ev):

   -92.3321 -92.2755 -92.1856 -92.1374 -92.0776 -92.0382 -92.0209 -91.8977
   -55.6853 -55.6617 -55.5436 -55.5332 -55.5248 -55.5199 -55.4810 -55.4553
   -55.4390 -55.4371 -55.4270 -55.3863 -55.3687 -55.3295 -55.3114 -55.2773
   -55.2728 -55.2271 -55.2242 -55.2240 -55.2155 -55.1722 -55.1517 -55.0649
   -30.9166 -30.9013 -30.7588 -30.7149 -30.6728 -30.6359 -30.6200 -30.5099
   -29.4810 -29.4406 -29.4148 -29.3071 -22.2493 -14.6193 -14.5731 -14.5059
   -14.3924 -14.3581 -14.2377 -14.1528 -14.0245 -13.7713 -13.7098 -13.6628
   -13.6335 -13.6145 -13.5966 -13.5815 -13.5485 -13.5361 -13.5001 -13.4592
   -13.4442 -13.4104 -13.3041 -13.2559 -13.2228 -13.1765 -13.1280 -13.1066
   -13.0186 -12.9900 -12.8483 -12.7841 -12.7628 -12.6776 -12.6648 -12.6364
   -12.6238 -12.6064 -12.5859 -12.5610 -12.5533 -12.4964 -12.4803 -12.4624
   -12.4304 -12.4162 -12.2969 -12.2655 -12.1631 -12.1224 -11.9633 -11.9546
   -11.8829 -11.8433 -11.4105 -11.3986 -11.3876 -11.3602 -11.3289 -11.3003
   -11.2594 -11.2318 -11.2096 -11.1647 -11.1386 -11.1274  -5.8586  -3.1601
    -3.1440  -2.0873  -2.0203  -1.8910  -1.8130  -1.6861  -1.6011  -1.4775
    -1.3259  -1.2744  -1.2513  -1.1877  -1.1742  -1.0778  -1.0107  -0.9250
    -0.8783  -0.8685  -0.8032  -0.7639  -0.7267  -0.6798  -0.6433  -0.6082
    -0.5672  -0.5567  -0.5111  -0.4831  -0.4424  -0.4114  -0.3438  -0.2452
    -0.2038  -0.1278  -0.0644  -0.0182   0.0285   0.0518   0.0965   0.2612
     0.2737   0.3682   0.4148   0.4236   0.4682   0.4951   0.5394   0.5641
     0.6388   0.8959   0.9856   1.0626   1.1289   1.3828   1.4128   1.4998
     1.5268   1.6971   1.7268   1.7723   1.7965   1.8143   1.8336   1.8928
     1.9352   1.9752   2.0519   2.1329   2.1775   2.2013   2.2103   2.2489
     2.2617   2.2669   2.3115   2.3264   2.3428   2.3698   2.3965   2.4220
     2.4512   2.5113   2.5463   2.6227   2.7713   2.9208   2.9370   2.9541
     2.9796   3.0009   3.0279   3.0417   3.0577   3.0698   3.0868   3.1063
     3.1917   3.2392   3.2597   3.2614   3.2787   3.2992   3.3131   3.3316
     3.3387   3.3682   3.3806   3.3971   3.4060   3.4137   3.4263   3.9414
     3.9481   4.1092   4.1576   4.4975   4.5375   4.5448   4.6629   5.0235
     5.1476   5.2627   5.4661   5.5030   5.6227   5.6834   5.8802   5.9377
     6.0927   6.1091   6.3105   6.5040   6.5842   6.6530   7.1143   7.2629
     7.5519   7.6180   7.9635   8.0757   8.1793   8.2174   8.3405   8.4396
     8.4790   8.5958   8.6753   8.7902   8.8690   8.9267   8.9970

     occupation numbers 
     1.0000   1.0000   1.0000   1.0000   1.0000   1.0000   1.0000   1.0000
     1.0000   1.0000   1.0000   1.0000   1.0000   1.0000   1.0000   1.0000
     1.0000   1.0000   1.0000   1.0000   1.0000   1.0000   1.0000   1.0000
     1.0000   1.0000   1.0000   1.0000   1.0000   1.0000   1.0000   1.0000
     1.0000   1.0000   1.0000   1.0000   1.0000   1.0000   1.0000   1.0000
     1.0000   1.0000   1.0000   1.0000   1.0000   1.0000   1.0000   1.0000
     1.0000   1.0000   1.0000   1.0000   1.0000   1.0000   1.0000   1.0000
     1.0000   1.0000   1.0000   1.0000   1.0000   1.0000   1.0000   1.0000
     1.0000   1.0000   1.0000   1.0000   1.0000   1.0000   1.0000   1.0000
     1.0000   1.0000   1.0000   1.0000   1.0000   1.0000   1.0000   1.0000
     1.0000   1.0000   1.0000   1.0000   1.0000   1.0000   1.0000   1.0000
     1.0000   1.0000   1.0000   1.0000   1.0000   1.0000   1.0000   1.0000
     1.0000   1.0000   1.0000   1.0000   1.0000   1.0000   1.0000   1.0000
     1.0000   1.0000   1.0000   1.0000   1.0000   1.0000   1.0000   1.0000
     1.0000   1.0000   1.0000   1.0000   1.0000   1.0000   1.0000   1.0000
     1.0000   1.0000   1.0000   1.0000   1.0000   1.0000   1.0000   1.0000
     1.0000   1.0000   1.0000   1.0000   1.0000   1.0000   1.0000   1.0000
     1.0000   1.0000   1.0000   1.0000   1.0000   1.0000   1.0000   1.0000
     1.0000   1.0000   1.0000   1.0000   1.0000   1.0000   1.0000   1.0000
     1.0000   1.0000   1.0000   1.0000   1.0000   1.0000   1.0000   1.0000
     1.0000   1.0000   1.0000   1.0000   0.9999   0.9997   0.9996   0.9994
     0.9994   0.9985   0.9983   0.9978   0.9976   0.9974   0.9971   0.9963
     0.9955   0.9947   0.9926   0.9898   0.9879   0.9867   0.9862   0.9841
     0.9833   0.9830   0.9800   0.9789   0.9776   0.9754   0.9730   0.9706
     0.9676   0.9605   0.9559   0.9442   0.9148   0.8747   0.8696   0.8642
     0.8558   0.8484   0.8388   0.8338   0.8278   0.8231   0.8165   0.8087
     0.7723   0.7504   0.7407   0.7399   0.7315   0.7214   0.7144   0.7050
     0.7013   0.6860   0.6794   0.6706   0.6658   0.6616   0.6547   0.3569
     0.3532   0.2690   0.2458   0.1165   0.1053   0.1034   0.0752   0.0242
     0.0155   0.0099   0.0043   0.0036   0.0021   0.0016   0.0006   0.0004
     0.0002   0.0002   0.0001   0.0000   0.0000   0.0000   0.0000   0.0000
     0.0000   0.0000   0.0000   0.0000   0.0000   0.0000   0.0000   0.0000
     0.0000   0.0000   0.0000   0.0000   0.0000   0.0000   0.0000

          k =-0.5000-0.5000 0.0000 ( 65132 PWs)   bands (ev):

   -92.3321 -92.2755 -92.1856 -92.1374 -92.0776 -92.0382 -92.0209 -91.8977
   -55.6853 -55.6617 -55.5436 -55.5332 -55.5248 -55.5199 -55.4810 -55.4553
   -55.4390 -55.4371 -55.4270 -55.3863 -55.3687 -55.3295 -55.3114 -55.2773
   -55.2728 -55.2271 -55.2242 -55.2240 -55.2155 -55.1722 -55.1517 -55.0649
   -30.9143 -30.9037 -30.7584 -30.7146 -30.6732 -30.6356 -30.6203 -30.5102
   -29.4800 -29.4417 -29.4144 -29.3075 -22.2493 -14.5747 -14.5452 -14.4288
   -14.4177 -14.3236 -14.2853 -14.2551 -14.1232 -13.7713 -13.6232 -13.6135
   -13.5764 -13.5580 -13.5405 -13.5350 -13.4975 -13.4900 -13.4735 -13.4680
   -13.4505 -13.3723 -13.3669 -13.3420 -13.3231 -13.3035 -13.2064 -13.1956
   -13.0648 -13.0402 -12.8005 -12.7591 -12.6914 -12.6666 -12.6350 -12.6280
   -12.6235 -12.6173 -12.5976 -12.5756 -12.5570 -12.5004 -12.4871 -12.4743
   -12.4557 -12.4262 -12.2467 -12.2391 -12.1795 -12.1007 -11.9597 -11.9220
   -11.8832 -11.8434 -11.4070 -11.3946 -11.3767 -11.3600 -11.3253 -11.3079
   -11.2725 -11.2123 -11.1916 -11.1869 -11.1364 -11.1334  -5.8586  -3.1601
    -3.1442  -1.8647  -1.7877  -1.7760  -1.7045  -1.6656  -1.5869  -1.5194
    -1.3942  -1.2761  -1.2463  -1.2087  -1.1497  -1.0777  -1.0640  -0.9924
    -0.9497  -0.8341  -0.8080  -0.7584  -0.7257  -0.6619  -0.6196  -0.5989
    -0.5884  -0.5366  -0.4870  -0.4760  -0.3610  -0.3048  -0.2580  -0.2078
    -0.1853  -0.1741  -0.1355  -0.0949  -0.0633  -0.0456   0.0386   0.1037
     0.1548   0.1745   0.2513   0.2985   0.3194   0.3722   0.3856   0.4114
[...]
     0.0000   0.0000   0.0000   0.0000   0.0000   0.0000   0.0000   0.0000
     0.0000   0.0000   0.0000   0.0000   0.0000   0.0000   0.0000

          k =-0.5000 0.0000 0.0000 ( 65180 PWs)   bands (ev):

   -92.3321 -92.2755 -92.1856 -92.1374 -92.0776 -92.0382 -92.0209 -91.8977
   -55.6853 -55.6617 -55.5436 -55.5332 -55.5248 -55.5199 -55.4810 -55.4553
   -55.4390 -55.4371 -55.4270 -55.3863 -55.3687 -55.3295 -55.3114 -55.2773
   -55.2728 -55.2271 -55.2242 -55.2240 -55.2155 -55.1722 -55.1517 -55.0649
   -30.9147 -30.9039 -30.7580 -30.7153 -30.6730 -30.6349 -30.6209 -30.5096
   -29.4812 -29.4423 -29.4131 -29.3068 -22.2493 -14.6523 -14.6058 -14.5420
   -14.4341 -14.3275 -14.1831 -14.0477 -13.9008 -13.7723 -13.7707 -13.7643
   -13.7437 -13.6954 -13.6329 -13.6006 -13.5583 -13.5473 -13.5303 -13.4776
   -13.4644 -13.3714 -13.1920 -13.1810 -13.1330 -13.1237 -13.0861 -13.0032
   -12.9832 -12.9107 -12.8874 -12.8848 -12.7136 -12.6956 -12.6853 -12.6767
   -12.6602 -12.6508 -12.5881 -12.5679 -12.5260 -12.5083 -12.4868 -12.4488
   -12.4199 -12.3906 -12.2813 -12.2724 -12.1825 -12.1475 -11.9886 -11.9695
   -11.8825 -11.8464 -11.4136 -11.3928 -11.3855 -11.3713 -11.3533 -11.3121
   -11.2484 -11.2307 -11.1980 -11.1543 -11.1449 -11.1288  -5.8586  -3.1597
    -3.1442  -2.2181  -2.1789  -2.0142  -1.9749  -1.6641  -1.5895  -1.4393
    -1.3207  -1.2829  -1.2375  -1.1888  -1.1621  -1.0409  -0.9951  -0.9825
    -0.8990  -0.8624  -0.8513  -0.8156  -0.7608  -0.6911  -0.6603  -0.6348
    -0.5391  -0.4903  -0.4429  -0.4101  -0.3877  -0.3600  -0.3105  -0.2857
    -0.2490  -0.1579  -0.0796  -0.0228   0.0429   0.2036   0.2417   0.3076
     0.3250   0.3902   0.4151   0.5488   0.5809   0.6199   0.8049   0.9028
     0.9496   1.0199   1.0917   1.2179   1.2325   1.3622   1.3912   1.4436
     1.4646   1.5089   1.5226   1.5684   1.5923   1.6551   1.7043   1.7509
     1.7592   2.0510   2.0639   2.0772   2.0895   2.2135   2.2221   2.2320
     2.2504   2.2774   2.2888   2.3266   2.3594   2.3786   2.4422   2.4462
     2.5038   2.5188   2.5821   2.6829   2.7871   2.8641   2.8797   2.9648
     2.9933   3.0183   3.0383   3.0765   3.0920   3.1023   3.1057   3.1328
     3.2014   3.2461   3.2872   3.3207   3.3653   3.3694   3.3703   3.3833
     3.3964   3.4092   3.4237   3.4265   3.4483   3.4530   3.4763   3.4961
     3.5005   3.6288   3.6348   4.4233   4.4687   4.5314   4.6721   4.9785
     5.1580   5.2051   5.3545   5.4879   5.6613   5.8817   5.9291   6.0052
     6.1978   6.3532   6.3892   6.4357   6.9661   7.0916   7.1844   7.4480
     7.5403   7.6768   7.6908   7.9438   8.0944   8.1337   8.2040   8.3005
     8.5387   8.6204   8.7038   8.7266   8.7650   8.8705   8.9766

     occupation numbers 
     1.0000   1.0000   1.0000   1.0000   1.0000   1.0000   1.0000   1.0000
     1.0000   1.0000   1.0000   1.0000   1.0000   1.0000   1.0000   1.0000
     1.0000   1.0000   1.0000   1.0000   1.0000   1.0000   1.0000   1.0000
     1.0000   1.0000   1.0000   1.0000   1.0000   1.0000   1.0000   1.0000
     1.0000   1.0000   1.0000   1.0000   1.0000   1.0000   1.0000   1.0000
     1.0000   1.0000   1.0000   1.0000   1.0000   1.0000   1.0000   1.0000
     1.0000   1.0000   1.0000   1.0000   1.0000   1.0000   1.0000   1.0000
     1.0000   1.0000   1.0000   1.0000   1.0000   1.0000   1.0000   1.0000
     1.0000   1.0000   1.0000   1.0000   1.0000   1.0000   1.0000   1.0000
     1.0000   1.0000   1.0000   1.0000   1.0000   1.0000   1.0000   1.0000
     1.0000   1.0000   1.0000   1.0000   1.0000   1.0000   1.0000   1.0000
     1.0000   1.0000   1.0000   1.0000   1.0000   1.0000   1.0000   1.0000
     1.0000   1.0000   1.0000   1.0000   1.0000   1.0000   1.0000   1.0000
     1.0000   1.0000   1.0000   1.0000   1.0000   1.0000   1.0000   1.0000
     1.0000   1.0000   1.0000   1.0000   1.0000   1.0000   1.0000   1.0000
     1.0000   1.0000   1.0000   1.0000   1.0000   1.0000   1.0000   1.0000
     1.0000   1.0000   1.0000   1.0000   1.0000   1.0000   1.0000   1.0000
     1.0000   1.0000   1.0000   1.0000   1.0000   1.0000   1.0000   1.0000
     1.0000   1.0000   1.0000   1.0000   1.0000   1.0000   1.0000   1.0000
     1.0000   1.0000   1.0000   1.0000   1.0000   1.0000   1.0000   1.0000
     1.0000   1.0000   0.9999   0.9999   0.9999   0.9997   0.9997   0.9996
     0.9995   0.9994   0.9994   0.9992   0.9991   0.9988   0.9984   0.9980
     0.9980   0.9927   0.9923   0.9918   0.9914   0.9861   0.9856   0.9851
     0.9840   0.9823   0.9816   0.9789   0.9763   0.9746   0.9685   0.9681
     0.9615   0.9596   0.9507   0.9335   0.9111   0.8912   0.8868   0.8607
     0.8511   0.8423   0.8350   0.8206   0.8145   0.8104   0.8090   0.7979
     0.7679   0.7472   0.7273   0.7105   0.6875   0.6853   0.6849   0.6779
     0.6710   0.6640   0.6562   0.6546   0.6426   0.6400   0.6270   0.6158
     0.6133   0.5388   0.5353   0.1395   0.1251   0.1070   0.0733   0.0283
     0.0149   0.0124   0.0068   0.0039   0.0017   0.0006   0.0005   0.0003
     0.0001   0.0000   0.0000   0.0000   0.0000   0.0000   0.0000   0.0000
     0.0000   0.0000   0.0000   0.0000   0.0000   0.0000   0.0000   0.0000
     0.0000   0.0000   0.0000   0.0000   0.0000   0.0000   0.0000

          k =-0.2500 0.2500 0.0000 ( 65198 PWs)   bands (ev):

   -92.3321 -92.2755 -92.1856 -92.1374 -92.0776 -92.0382 -92.0209 -91.8977
   -55.6853 -55.6617 -55.5436 -55.5332 -55.5248 -55.5199 -55.4810 -55.4553
   -55.4390 -55.4371 -55.4270 -55.3863 -55.3687 -55.3295 -55.3114 -55.2773
   -55.2728 -55.2271 -55.2242 -55.2240 -55.2155 -55.1722 -55.1517 -55.0649
   -30.9168 -30.9015 -30.7586 -30.7153 -30.6727 -30.6355 -30.6203 -30.5096
   -29.4817 -29.4410 -29.4142 -29.3068 -22.2493 -14.6539 -14.6206 -14.5410
   -14.4234 -14.3190 -14.1934 -14.0999 -13.8997 -13.7718 -13.7543 -13.7247
   -13.7136 -13.6673 -13.6414 -13.6269 -13.6183 -13.5688 -13.4754 -13.4643
   -13.3127 -13.2854 -13.2602 -13.2372 -13.2076 -13.1368 -13.0987 -13.0762
   -12.9713 -12.9376 -12.8655 -12.7885 -12.7454 -12.6834 -12.6784 -12.6511
   -12.6296 -12.5951 -12.5882 -12.5750 -12.5673 -12.5117 -12.4742 -12.4606
   -12.4332 -12.4113 -12.3979 -12.3332 -12.2048 -12.1111 -12.0836 -11.9252
   -11.8071 -11.7701 -11.4343 -11.4124 -11.3855 -11.3730 -11.3326 -11.2974
   -11.2747 -11.2528 -11.2304 -11.1465 -11.1004 -11.0910  -5.8586  -3.1599
    -3.1440  -2.3031  -2.0931  -1.9729  -1.8858  -1.7655  -1.6983  -1.4990
    -1.3501  -1.3307  -1.3049  -1.2121  -1.1757  -1.0838  -1.0509  -1.0248
    -0.8802  -0.8253  -0.7592  -0.7298  -0.6707  -0.6460  -0.6059  -0.5769
    -0.5372  -0.4751  -0.4278  -0.3694  -0.2988  -0.2738  -0.2205  -0.1917
    -0.1473  -0.0924  -0.0526  -0.0049   0.0885   0.1271   0.1336   0.1829
     0.2478   0.3151   0.3623   0.3883   0.4574   0.4902   0.7497   0.9130
     0.9611   0.9960   1.0523   1.0961   1.1656   1.2242   1.2520   1.5344
     1.6518   1.6903   1.7199   1.7305   1.7723   1.7908   1.8338   1.8643
     1.8815   1.9076   1.9454   1.9582   2.0069   2.0207   2.0666   2.1437
     2.1642   2.1832   2.2227   2.2490   2.2897   2.3400   2.4509   2.5586
     2.5959   2.6375   2.6597   2.7271   2.7709   2.7971   2.8185   2.8410
     2.9436   2.9761   3.0352   3.0658   3.0977   3.2482   3.2571   3.2707
     3.2814   3.2915   3.3047   3.3104   3.3289   3.3364   3.3532   3.3623
     3.3754   3.3844   3.3909   3.4227   3.4348   3.4442   3.4775   3.7709
     3.8521   3.9083   3.9800   3.9951   4.1949   4.3282   4.6490   4.8011
     4.9861   5.1378   5.3419   5.5861   5.9267   5.9376   5.9952   6.1332
     6.2050   6.2535   6.3548   6.4203   6.9306   7.0171   7.0895   7.1720
     7.7108   7.8134   7.8516   7.8952   7.9911   8.1860   8.2209   8.2566
     8.3790   8.4613   8.5487   8.6853   8.7280   8.7844   8.9561

     occupation numbers 
     1.0000   1.0000   1.0000   1.0000   1.0000   1.0000   1.0000   1.0000
     1.0000   1.0000   1.0000   1.0000   1.0000   1.0000   1.0000   1.0000
     1.0000   1.0000   1.0000   1.0000   1.0000   1.0000   1.0000   1.0000
     1.0000   1.0000   1.0000   1.0000   1.0000   1.0000   1.0000   1.0000
     1.0000   1.0000   1.0000   1.0000   1.0000   1.0000   1.0000   1.0000
     1.0000   1.0000   1.0000   1.0000   1.0000   1.0000   1.0000   1.0000
     1.0000   1.0000   1.0000   1.0000   1.0000   1.0000   1.0000   1.0000
     1.0000   1.0000   1.0000   1.0000   1.0000   1.0000   1.0000   1.0000
     1.0000   1.0000   1.0000   1.0000   1.0000   1.0000   1.0000   1.0000
     1.0000   1.0000   1.0000   1.0000   1.0000   1.0000   1.0000   1.0000
     1.0000   1.0000   1.0000   1.0000   1.0000   1.0000   1.0000   1.0000
     1.0000   1.0000   1.0000   1.0000   1.0000   1.0000   1.0000   1.0000
     1.0000   1.0000   1.0000   1.0000   1.0000   1.0000   1.0000   1.0000
     1.0000   1.0000   1.0000   1.0000   1.0000   1.0000   1.0000   1.0000
     1.0000   1.0000   1.0000   1.0000   1.0000   1.0000   1.0000   1.0000
     1.0000   1.0000   1.0000   1.0000   1.0000   1.0000   1.0000   1.0000
     1.0000   1.0000   1.0000   1.0000   1.0000   1.0000   1.0000   1.0000
     1.0000   1.0000   1.0000   1.0000   1.0000   1.0000   1.0000   1.0000
     1.0000   1.0000   1.0000   1.0000   1.0000   1.0000   1.0000   1.0000
     1.0000   1.0000   1.0000   1.0000   1.0000   1.0000   1.0000   1.0000
     1.0000   1.0000   1.0000   0.9999   0.9999   0.9999   0.9999   0.9993
     0.9988   0.9985   0.9983   0.9982   0.9978   0.9976   0.9971   0.9967
     0.9964   0.9960   0.9953   0.9950   0.9939   0.9935   0.9922   0.9893
     0.9885   0.9876   0.9856   0.9841   0.9815   0.9778   0.9676   0.9542
     0.9486   0.9417   0.9378   0.9246   0.9149   0.9087   0.9033   0.8975
     0.8676   0.8569   0.8362   0.8247   0.8122   0.7462   0.7420   0.7354
     0.7301   0.7252   0.7186   0.7158   0.7064   0.7025   0.6938   0.6891
     0.6822   0.6774   0.6739   0.6567   0.6501   0.6449   0.6263   0.4548
     0.4074   0.3754   0.3357   0.3276   0.2287   0.1733   0.0782   0.0502
     0.0276   0.0160   0.0072   0.0025   0.0005   0.0004   0.0003   0.0001
     0.0001   0.0001   0.0000   0.0000   0.0000   0.0000   0.0000   0.0000
     0.0000   0.0000   0.0000   0.0000   0.0000   0.0000   0.0000   0.0000
     0.0000   0.0000   0.0000   0.0000   0.0000   0.0000   0.0000

          k =-0.5000 0.2500 0.0000 ( 65138 PWs)   bands (ev):

   -92.3321 -92.2755 -92.1856 -92.1374 -92.0776 -92.0382 -92.0209 -91.8977
   -55.6853 -55.6617 -55.5436 -55.5332 -55.5248 -55.5199 -55.4810 -55.4553
   -55.4390 -55.4371 -55.4270 -55.3863 -55.3687 -55.3295 -55.3114 -55.2773
   -55.2728 -55.2271 -55.2242 -55.2240 -55.2155 -55.1722 -55.1517 -55.0649
   -30.9145 -30.9038 -30.7582 -30.7150 -30.6731 -30.6353 -30.6206 -30.5099
   -29.4806 -29.4420 -29.4138 -29.3072 -22.2493 -14.6204 -14.5786 -14.4993
   -14.4000 -14.3563 -14.2297 -14.1495 -14.0172 -13.7714 -13.7048 -13.6753
   -13.6632 -13.6213 -13.6018 -13.5725 -13.5429 -13.5318 -13.5092 -13.4678
   -13.4561 -13.3588 -13.2763 -13.2419 -13.2253 -13.2157 -13.1442 -13.1094
   -13.0252 -12.9634 -12.8425 -12.8053 -12.7098 -12.6730 -12.6608 -12.6569
   -12.6302 -12.6199 -12.5965 -12.5825 -12.5569 -12.5013 -12.4729 -12.4662
   -12.4306 -12.4107 -12.2636 -12.2562 -12.1808 -12.1228 -11.9651 -11.9579
   -11.8786 -11.8462 -11.4066 -11.3941 -11.3799 -11.3679 -11.3471 -11.3168
   -11.2355 -11.2272 -11.2035 -11.1687 -11.1404 -11.1311  -5.8586  -3.1599
    -3.1442  -2.0763  -2.0337  -1.8842  -1.8419  -1.6831  -1.6084  -1.4635
    -1.3271  -1.2720  -1.2440  -1.2048  -1.1647  -1.0850  -0.9702  -0.9137
    -0.8899  -0.8654  -0.7920  -0.7589  -0.7238  -0.7032  -0.6433  -0.6163
    -0.5751  -0.5396  -0.5111  -0.4545  -0.4278  -0.3855  -0.3526  -0.2492
    -0.2224  -0.1409  -0.0729  -0.0440   0.0111   0.1007   0.1317   0.2336
     0.2659   0.3249   0.3748   0.3920   0.4792   0.5069   0.5365   0.5954
     0.6331   0.9316   0.9856   1.0644   1.0828   1.3697   1.4230   1.5034
     1.5246   1.7087   1.7456   1.7826   1.7980   1.8163   1.8341   1.9015
     1.9441   1.9813   2.0073   2.1249   2.1580   2.1975   2.2102   2.2468
     2.2722   2.2849   2.3031   2.3232   2.3471   2.3929   2.4141   2.4443
     2.4681   2.4940   2.5603   2.6758   2.7817   2.8093   2.8786   2.9200
     2.9806   3.0152   3.0245   3.0380   3.0577   3.0896   3.0978   3.1177
     3.2012   3.2428   3.2550   3.2628   3.2839   3.3067   3.3195   3.3332
     3.3474   3.3661   3.3791   3.3904   3.3983   3.4084   3.4201   3.9421
     3.9853   4.1397   4.1621   4.4319   4.4959   4.5466   4.7591   5.0421
     5.1643   5.2260   5.3593   5.5049   5.7022   5.7759   5.8152   5.9446
     6.0544   6.1058   6.3226   6.4617   6.5883   6.6456   7.1436   7.2939
     7.5182   7.6046   7.9749   8.0735   8.1826   8.2391   8.3284   8.4433
     8.4908   8.5781   8.6797   8.7908   8.8658   8.9214   8.9938

     occupation numbers 
     1.0000   1.0000   1.0000   1.0000   1.0000   1.0000   1.0000   1.0000
     1.0000   1.0000   1.0000   1.0000   1.0000   1.0000   1.0000   1.0000
     1.0000   1.0000   1.0000   1.0000   1.0000   1.0000   1.0000   1.0000
     1.0000   1.0000   1.0000   1.0000   1.0000   1.0000   1.0000   1.0000
     1.0000   1.0000   1.0000   1.0000   1.0000   1.0000   1.0000   1.0000
     1.0000   1.0000   1.0000   1.0000   1.0000   1.0000   1.0000   1.0000
     1.0000   1.0000   1.0000   1.0000   1.0000   1.0000   1.0000   1.0000
     1.0000   1.0000   1.0000   1.0000   1.0000   1.0000   1.0000   1.0000
     1.0000   1.0000   1.0000   1.0000   1.0000   1.0000   1.0000   1.0000
     1.0000   1.0000   1.0000   1.0000   1.0000   1.0000   1.0000   1.0000
     1.0000   1.0000   1.0000   1.0000   1.0000   1.0000   1.0000   1.0000
     1.0000   1.0000   1.0000   1.0000   1.0000   1.0000   1.0000   1.0000
     1.0000   1.0000   1.0000   1.0000   1.0000   1.0000   1.0000   1.0000
     1.0000   1.0000   1.0000   1.0000   1.0000   1.0000   1.0000   1.0000
     1.0000   1.0000   1.0000   1.0000   1.0000   1.0000   1.0000   1.0000
     1.0000   1.0000   1.0000   1.0000   1.0000   1.0000   1.0000   1.0000
     1.0000   1.0000   1.0000   1.0000   1.0000   1.0000   1.0000   1.0000
     1.0000   1.0000   1.0000   1.0000   1.0000   1.0000   1.0000   1.0000
     1.0000   1.0000   1.0000   1.0000   1.0000   1.0000   1.0000   1.0000
     1.0000   1.0000   1.0000   1.0000   1.0000   1.0000   1.0000   1.0000
     1.0000   1.0000   1.0000   1.0000   0.9999   0.9997   0.9996   0.9994
     0.9994   0.9984   0.9981   0.9977   0.9976   0.9974   0.9971   0.9961
     0.9953   0.9945   0.9939   0.9901   0.9887   0.9869   0.9862   0.9842
     0.9827   0.9818   0.9806   0.9791   0.9773   0.9734   0.9714   0.9683
     0.9657   0.9627   0.9539   0.9348   0.9123   0.9056   0.8871   0.8749
     0.8554   0.8434   0.8401   0.8351   0.8278   0.8154   0.8122   0.8041
     0.7680   0.7487   0.7430   0.7392   0.7290   0.7176   0.7111   0.7042
     0.6968   0.6871   0.6802   0.6742   0.6699   0.6645   0.6581   0.3565
     0.3329   0.2543   0.2437   0.1367   0.1170   0.1029   0.0569   0.0227
     0.0145   0.0115   0.0067   0.0036   0.0014   0.0010   0.0008   0.0004
     0.0002   0.0002   0.0000   0.0000   0.0000   0.0000   0.0000   0.0000
     0.0000   0.0000   0.0000   0.0000   0.0000   0.0000   0.0000   0.0000
     0.0000   0.0000   0.0000   0.0000   0.0000   0.0000   0.0000

     the Fermi energy is     3.6944 ev

!    total energy              =   -4482.97137398 Ry
     estimated scf accuracy    <          5.9E-09 Ry
     smearing contrib. (-TS)   =      -1.17260207 Ry
     internal energy E=F+TS    =   -4481.79877190 Ry

     The total energy is F=E-TS. E is the sum of the following terms:
     one-electron contribution =  -20252.81835425 Ry
     hartree contribution      =   10266.16678098 Ry
     xc contribution           =    -701.58097812 Ry
     ewald contribution        =    6492.09033719 Ry
     one-center paw contrib.   =    -285.65655771 Ry
      -> PAW hartree energy AE =      25.18495845 Ry
      -> PAW hartree energy PS =     -25.06865596 Ry
      -> PAW xc energy AE      =     -16.52055379 Ry
      -> PAW xc energy PS      =       6.88019147 Ry
      -> total E_H with PAW    =   10266.28308346 Ry
      -> total E_XC with PAW   =    -711.22134044 Ry

     convergence has been achieved in  53 iterations

     Writing all to output data dir /bsuhome/zayahcortright/scratch/pwscf.save/
 
     init_run     :      9.18s CPU      9.57s WALL (       1 calls)
     electrons    :    837.27s CPU    850.93s WALL (       1 calls)

     Called by init_run:
     wfcinit      :      7.32s CPU      7.50s WALL (       1 calls)
     wfcinit:atom :      0.07s CPU      0.08s WALL (       5 calls)
     wfcinit:wfcr :      6.95s CPU      7.09s WALL (       5 calls)
     potinit      :      0.17s CPU      0.18s WALL (       1 calls)
     hinit0       :      0.81s CPU      0.93s WALL (       1 calls)

     Called by electrons:
     c_bands      :    663.81s CPU    669.53s WALL (      53 calls)
     sum_band     :    128.51s CPU    132.97s WALL (      53 calls)
     v_of_rho     :      5.90s CPU      6.20s WALL (      54 calls)
     v_h          :      0.50s CPU      0.50s WALL (      54 calls)
     v_xc         :      5.41s CPU      5.71s WALL (      54 calls)
     newd         :     22.77s CPU     25.54s WALL (      54 calls)
     PAW_pot      :      1.78s CPU      1.80s WALL (      54 calls)
     mix_rho      :     14.16s CPU     14.42s WALL (      53 calls)

     Called by c_bands:
     init_us_2    :      7.36s CPU      7.41s WALL (     535 calls)
     init_us_2:cp :      7.36s CPU      7.40s WALL (     535 calls)
     cegterg      :    629.62s CPU    635.13s WALL (     265 calls)

     Called by sum_band:
     sum_band:wei :      0.38s CPU      0.38s WALL (      53 calls)
     sum_band:loo :    104.45s CPU    105.19s WALL (      53 calls)
     sum_band:buf :      1.69s CPU      1.71s WALL (     265 calls)
     sum_band:ini :      3.36s CPU      3.37s WALL (     265 calls)
     sum_band:cal :     22.08s CPU     22.14s WALL (     265 calls)
     sum_band:bec :      0.74s CPU      0.74s WALL (     265 calls)
     addusdens    :     19.58s CPU     23.25s WALL (      53 calls)
                                        0.00s GPU  (      53 calls)
     addusd:skk   :      0.42s CPU      0.80s WALL (     212 calls)
                                        0.00s GPU  (     212 calls)

     Called by *egterg:
     cdiaghg      :     68.96s CPU     69.29s WALL (    1616 calls)
     cegterg:over :     46.64s CPU     46.89s WALL (    1351 calls)
     cegterg:upda :     35.21s CPU     35.65s WALL (    1351 calls)
     cegterg:last :     70.59s CPU     70.83s WALL (     496 calls)
     cdiaghg:chol :      4.03s CPU      4.08s WALL (    1616 calls)
     cdiaghg:inve :      4.22s CPU      4.24s WALL (    1616 calls)
     cdiaghg:para :      8.82s CPU      8.87s WALL (    3232 calls)
     h_psi        :    343.34s CPU    346.50s WALL (    1621 calls)
     s_psi        :     47.32s CPU     47.47s WALL (    1621 calls)
     g_psi        :      1.24s CPU      1.25s WALL (    1351 calls)

     Called by h_psi:
     h_psi:calbec :     51.93s CPU     52.14s WALL (    1621 calls)
     vloc_psi     :    240.54s CPU    242.92s WALL (    1621 calls)
     add_vuspsi   :     47.39s CPU     47.54s WALL (    1621 calls)

     General routines
     calbec       :     74.00s CPU     74.27s WALL (    1886 calls)
     fft          :      6.99s CPU      7.04s WALL (     700 calls)
     ffts         :      5.25s CPU      5.29s WALL (    5641 calls)
     fftw         :    204.43s CPU    206.17s WALL (  365363 calls)
     interpolate  :      0.43s CPU      0.44s WALL (      54 calls)
 
     Parallel routines

     PAW routines
     PAW_pot      :      1.78s CPU      1.80s WALL (      54 calls)
 
     PWSCF        :  14m 8.17s CPU  14m25.30s WALL

 
   This run was terminated on:  17:20:49  20Jun2024            

=------------------------------------------------------------------------------=
   JOB DONE.
=------------------------------------------------------------------------------=
