
     Program PWSCF v.7.2 starts on 22Jun2024 at  0: 5:35 

     This program is part of the open-source Quantum ESPRESSO suite
     for quantum simulation of materials; please cite
         "P. Giannozzi et al., J. Phys.:Condens. Matter 21 395502 (2009);
         "P. Giannozzi et al., J. Phys.:Condens. Matter 29 465901 (2017);
         "P. Giannozzi et al., J. Chem. Phys. 152 154105 (2020);
          URL http://www.quantum-espresso.org", 
     in publications or presentations arising from this work. More details at
     http://www.quantum-espresso.org/quote

     Parallel version (MPI & OpenMP), running on      48 processor cores
     Number of MPI processes:                48
     Threads/MPI process:                     1

     MPI processes distributed on     1 nodes
     180145 MiB available memory on the printing compute node when the environment starts
 
     Reading input from espresso.pwi
Warning: card &CELL ignored
Warning: card / ignored
Warning: card &FCP ignored
Warning: card / ignored
Warning: card &RISM ignored
Warning: card / ignored

     Current dimensions of program PWSCF are:
     Max number of different atomic species (ntypx) = 10
     Max number of k-points (npk) =  40000
     Max angular momentum in pseudopotentials (lmaxx) =  4
     file O.pbe-n-kjpaw_psl.0.1.UPF: wavefunction(s)  2P renormalized
     signal trapping enabled: kill the code with -SIGUSR1 to stop cleanly the simulation 
 
     K-points division:     npool     =       2
     R & G space division:  proc/nbgrp/npool/nimage =      24
     Subspace diagonalization in iterative solution of the eigenvalue problem:
     one sub-group per band group will be used
     scalapack distributed-memory algorithm (size of sub-group:  3*  3 procs)

 
     Parallelization info
     --------------------
     sticks:   dense  smooth     PW     G-vecs:    dense   smooth      PW
     Min         350     175     47                61430    21716    3036
     Max         351     177     48                61449    21727    3041
     Sum        8421    4205   1137              1474595   521381   72913
 
     Using Slab Decomposition
 


     bravais-lattice index     =            0
     lattice parameter (alat)  =      14.8599  a.u.
     unit-cell volume          =    8305.1283 (a.u.)^3
     number of atoms/cell      =           49
     number of atomic types    =            4
     number of electrons       =       425.00
     number of Kohn-Sham states=          256
     kinetic-energy cutoff     =      60.0000  Ry
     charge density cutoff     =     480.0000  Ry
     scf convergence threshold =      1.0E-08
     mixing beta               =       0.1500
     number of iterations used =            8  local-TF  mixing
     Exchange-correlation= PBE
                           (   1   4   3   4   0   0   0)

     celldm(1)=  14.859904  celldm(2)=   0.000000  celldm(3)=   0.000000
     celldm(4)=   0.000000  celldm(5)=   0.000000  celldm(6)=   0.000000

     crystal axes: (cart. coord. in units of alat)
               a(1) = (   1.000000   0.000000   0.000000 )  
               a(2) = (   0.000000   1.000000   0.000000 )  
               a(3) = (   0.000000   0.000000   2.531036 )  

     reciprocal axes: (cart. coord. in units 2 pi/alat)
               b(1) = (  1.000000  0.000000  0.000000 )  
               b(2) = (  0.000000  1.000000  0.000000 )  
               b(3) = (  0.000000  0.000000  0.395095 )  


     PseudoPot. # 1 for Sr read from file:
     /bsuhome/zayahcortright/q-e/pseudo/Sr_pbe_v1.uspp.F.UPF
     MD5 check sum: 6b418c05fbe9db5448babca5e47b7a5b
     Pseudo is Ultrasoft + core correction, Zval = 10.0
     Generated by new atomic code, or converted to UPF format
     Using radial grid of  883 points,  6 beta functions with: 
                l(1) =   0
                l(2) =   0
                l(3) =   1
                l(4) =   1
                l(5) =   2
                l(6) =   2
     Q(r) pseudized with  6 coefficients,  rinner =    1.400   1.400   1.400
                                                       1.400   1.400

     PseudoPot. # 2 for O  read from file:
     /bsuhome/zayahcortright/q-e/pseudo/O.pbe-n-kjpaw_psl.0.1.UPF
     MD5 check sum: 0234752ac141de4415c5fc33072bef88
     Pseudo is Projector augmented-wave + core cor, Zval =  6.0
     Generated using "atomic" code by A. Dal Corso  v.5.0.99 svn rev. 10869
     Shape of augmentation charge: BESSEL
     Using radial grid of 1095 points,  4 beta functions with: 
                l(1) =   0
                l(2) =   0
                l(3) =   1
                l(4) =   1
     Q(r) pseudized with 0 coefficients 


     PseudoPot. # 3 for Co read from file:
     /bsuhome/zayahcortright/q-e/pseudo/Co_pbe_v1.2.uspp.F.UPF
     MD5 check sum: 5f91765df6ddd3222702df6e7b74a16d
     Pseudo is Ultrasoft + core correction, Zval = 17.0
     Generated by new atomic code, or converted to UPF format
     Using radial grid of  863 points,  6 beta functions with: 
                l(1) =   0
                l(2) =   0
                l(3) =   1
                l(4) =   1
                l(5) =   2
                l(6) =   2
     Q(r) pseudized with  8 coefficients,  rinner =    1.200   1.200   1.200
                                                       1.200   1.200

     PseudoPot. # 4 for H  read from file:
     /bsuhome/zayahcortright/q-e/pseudo/H.pbe-rrkjus_psl.1.0.0.UPF
     MD5 check sum: f52b6d4d1c606e5624b1dc7b2218f220
     Pseudo is Ultrasoft, Zval =  1.0
     Generated using "atomic" code by A. Dal Corso  v.5.1
     Using radial grid of  929 points,  2 beta functions with: 
                l(1) =   0
                l(2) =   0
     Q(r) pseudized with 0 coefficients 


     atomic species   valence    mass     pseudopotential
        Sr            10.00    87.62000     Sr( 1.00)
        O              6.00    15.99900     O ( 1.00)
        Co            17.00    58.93319     Co( 1.00)
        H              1.00     1.00800     H ( 1.00)

     No symmetry found


                                    s                        frac. trans.

      isym =  1     identity                                     

 cryst.   s( 1) = (     1          0          0      )
                  (     0          1          0      )
                  (     0          0          1      )

 cart.    s( 1) = (  1.0000000  0.0000000  0.0000000 )
                  (  0.0000000  1.0000000  0.0000000 )
                  (  0.0000000  0.0000000  1.0000000 )


   Cartesian axes

     site n.     atom                  positions (alat units)
         1           Sr  tau(   1) = (   0.2508693   0.7491307   1.7574407  )
         2           O   tau(   2) = (   0.4985141   0.5014859   1.7715967  )
         3           Sr  tau(   3) = (   0.7482398   0.7454518   1.7648669  )
         4           Sr  tau(   4) = (   0.7441748   0.2558252   1.7667843  )
         5           Sr  tau(   5) = (   0.2508693   0.7491307   1.2696799  )
         6           Sr  tau(   6) = (   0.2508693   0.7491307   0.7632319  )
         7           Co  tau(   7) = (   0.4998914   0.5001086   1.0164559  )
         8           Co  tau(   8) = (   0.4936915   0.5063085   1.5135603  )
         9           O   tau(   9) = (   0.4988895   0.7610401   1.0164559  )
        10           O   tau(  10) = (   0.2389599   0.5011105   1.0164559  )
        11           O   tau(  11) = (   0.0070918   0.7374880   1.0164559  )
        12           O   tau(  12) = (   0.0088340   0.7405089   1.5135603  )
        13           O   tau(  13) = (   0.5066944   0.7415376   1.5135603  )
        14           O   tau(  14) = (   0.2584624   0.4933056   1.5135603  )
        15           O   tau(  15) = (   0.4985141   0.5014859   0.7773880  )
        16           O   tau(  16) = (   0.4985141   0.5014859   1.2555238  )
        17           Sr  tau(  17) = (   0.7482398   0.7454518   0.7706582  )
        18           Sr  tau(  18) = (   0.7482398   0.7454518   1.2622536  )
        19           Sr  tau(  19) = (   0.7441748   0.2558252   0.7725755  )
        20           Sr  tau(  20) = (   0.7441748   0.2558252   1.2603363  )
        21           O   tau(  21) = (   0.7322655   0.0078049   1.5135603  )
        22           O   tau(  22) = (   0.7558175   0.4996027   1.5135603  )
        23           O   tau(  23) = (   0.5003973   0.2441825   1.5135603  )
        24           O   tau(  24) = (   0.7527966   0.4978604   1.0164559  )
        25           O   tau(  25) = (   0.5021396   0.2472034   1.0164559  )
        26           O   tau(  26) = (   0.7517679   0.0000000   1.0164559  )
        27           O   tau(  27) = (   0.0114961   0.4948124   1.7455321  )
        28           O   tau(  28) = (   0.0048226   0.0077944   1.7715967  )
        29           Sr  tau(  29) = (   0.2545482   0.2517602   1.7648669  )
        30           O   tau(  30) = (   0.5048017   0.0015068   1.7786929  )
        31           Co  tau(  31) = (   0.0056869   0.5006215   1.0164559  )
        32           Co  tau(  32) = (   0.0065315   0.4997770   1.5135603  )
        33           Co  tau(  33) = (   0.0061999   0.0064171   1.0164559  )
        34           Co  tau(  34) = (   0.0000000   0.0126169   1.5135603  )
        35           O   tau(  35) = (   0.0114961   0.4948124   1.2815885  )
        36           O   tau(  36) = (   0.0114961   0.4948124   0.7513233  )
        37           O   tau(  37) = (   0.0051979   0.2673486   1.0164559  )
        38           O   tau(  38) = (   0.0130029   0.2478461   1.5135603  )
        39           O   tau(  39) = (   0.0048226   0.0077944   0.7773880  )
        40           O   tau(  40) = (   0.0048226   0.0077944   1.2555238  )
        41           Sr  tau(  41) = (   0.2545482   0.2517602   0.7706582  )
        42           Sr  tau(  42) = (   0.2545482   0.2517602   1.2622536  )
        43           Co  tau(  43) = (   0.4989925   0.0073160   1.5135603  )
        44           Co  tau(  44) = (   0.4998370   0.0064714   1.0164559  )
        45           O   tau(  45) = (   0.5048017   0.0015068   0.7844841  )
        46           O   tau(  46) = (   0.5048017   0.0015068   1.2484277  )
        47           O   tau(  47) = (   0.2621260   0.0059111   1.5135603  )
        48           O   tau(  48) = (   0.2591051   0.0041689   1.0164559  )
        49           H   tau(  49) = (   0.9951520   0.5686583   2.1602013  )

   Crystallographic axes

     site n.     atom                  positions (cryst. coord.)
         1           Sr  tau(   1) = (  0.2508693  0.7491307  0.6943562  )
         2           O   tau(   2) = (  0.4985141  0.5014859  0.6999492  )
         3           Sr  tau(   3) = (  0.7482398  0.7454518  0.6972903  )
         4           Sr  tau(   4) = (  0.7441748  0.2558252  0.6980478  )
         5           Sr  tau(   5) = (  0.2508693  0.7491307  0.5016443  )
         6           Sr  tau(   6) = (  0.2508693  0.7491307  0.3015492  )
         7           Co  tau(   7) = (  0.4998914  0.5001086  0.4015968  )
         8           Co  tau(   8) = (  0.4936915  0.5063085  0.5980003  )
         9           O   tau(   9) = (  0.4988895  0.7610401  0.4015968  )
        10           O   tau(  10) = (  0.2389599  0.5011105  0.4015968  )
        11           O   tau(  11) = (  0.0070918  0.7374880  0.4015968  )
        12           O   tau(  12) = (  0.0088340  0.7405089  0.5980003  )
        13           O   tau(  13) = (  0.5066944  0.7415376  0.5980003  )
        14           O   tau(  14) = (  0.2584624  0.4933056  0.5980003  )
        15           O   tau(  15) = (  0.4985141  0.5014859  0.3071422  )
        16           O   tau(  16) = (  0.4985141  0.5014859  0.4960513  )
        17           Sr  tau(  17) = (  0.7482398  0.7454518  0.3044833  )
        18           Sr  tau(  18) = (  0.7482398  0.7454518  0.4987103  )
        19           Sr  tau(  19) = (  0.7441748  0.2558252  0.3052408  )
        20           Sr  tau(  20) = (  0.7441748  0.2558252  0.4979527  )
        21           O   tau(  21) = (  0.7322655  0.0078049  0.5980003  )
        22           O   tau(  22) = (  0.7558175  0.4996027  0.5980003  )
        23           O   tau(  23) = (  0.5003973  0.2441825  0.5980003  )
        24           O   tau(  24) = (  0.7527966  0.4978604  0.4015968  )
        25           O   tau(  25) = (  0.5021396  0.2472034  0.4015968  )
        26           O   tau(  26) = (  0.7517679  0.0000000  0.4015968  )
        27           O   tau(  27) = (  0.0114961  0.4948124  0.6896512  )
        28           O   tau(  28) = (  0.0048226  0.0077944  0.6999492  )
        29           Sr  tau(  29) = (  0.2545482  0.2517602  0.6972903  )
        30           O   tau(  30) = (  0.5048017  0.0015068  0.7027529  )
        31           Co  tau(  31) = (  0.0056869  0.5006215  0.4015968  )
        32           Co  tau(  32) = (  0.0065315  0.4997770  0.5980003  )
        33           Co  tau(  33) = (  0.0061999  0.0064171  0.4015968  )
        34           Co  tau(  34) = (  0.0000000  0.0126169  0.5980003  )
        35           O   tau(  35) = (  0.0114961  0.4948124  0.5063494  )
        36           O   tau(  36) = (  0.0114961  0.4948124  0.2968442  )
        37           O   tau(  37) = (  0.0051979  0.2673486  0.4015968  )
        38           O   tau(  38) = (  0.0130029  0.2478461  0.5980003  )
        39           O   tau(  39) = (  0.0048226  0.0077944  0.3071422  )
        40           O   tau(  40) = (  0.0048226  0.0077944  0.4960513  )
        41           Sr  tau(  41) = (  0.2545482  0.2517602  0.3044833  )
        42           Sr  tau(  42) = (  0.2545482  0.2517602  0.4987103  )
        43           Co  tau(  43) = (  0.4989925  0.0073160  0.5980003  )
        44           Co  tau(  44) = (  0.4998370  0.0064714  0.4015968  )
        45           O   tau(  45) = (  0.5048017  0.0015068  0.3099459  )
        46           O   tau(  46) = (  0.5048017  0.0015068  0.4932477  )
        47           O   tau(  47) = (  0.2621260  0.0059111  0.5980003  )
        48           O   tau(  48) = (  0.2591051  0.0041689  0.4015968  )
        49           H   tau(  49) = (  0.9951520  0.5686583  0.8534850  )

     number of k points=    10  Gaussian smearing, width (Ry)=  0.0700
                       cart. coord. in units 2pi/alat
        k(    1) = (   0.0000000   0.0000000   0.0000000), wk =   0.1250000
        k(    2) = (   0.0000000   0.2500000   0.0000000), wk =   0.2500000
        k(    3) = (   0.0000000  -0.5000000   0.0000000), wk =   0.1250000
        k(    4) = (   0.2500000   0.2500000   0.0000000), wk =   0.2500000
        k(    5) = (   0.2500000  -0.5000000   0.0000000), wk =   0.2500000
        k(    6) = (  -0.5000000  -0.5000000   0.0000000), wk =   0.1250000
        k(    7) = (   0.2500000   0.0000000   0.0000000), wk =   0.2500000
        k(    8) = (  -0.5000000   0.0000000   0.0000000), wk =   0.1250000
        k(    9) = (  -0.2500000   0.2500000   0.0000000), wk =   0.2500000
        k(   10) = (  -0.5000000   0.2500000   0.0000000), wk =   0.2500000

                       cryst. coord.
        k(    1) = (   0.0000000   0.0000000   0.0000000), wk =   0.1250000
        k(    2) = (   0.0000000   0.2500000   0.0000000), wk =   0.2500000
        k(    3) = (   0.0000000  -0.5000000   0.0000000), wk =   0.1250000
        k(    4) = (   0.2500000   0.2500000   0.0000000), wk =   0.2500000
        k(    5) = (   0.2500000  -0.5000000   0.0000000), wk =   0.2500000
        k(    6) = (  -0.5000000  -0.5000000   0.0000000), wk =   0.1250000
        k(    7) = (   0.2500000   0.0000000   0.0000000), wk =   0.2500000
        k(    8) = (  -0.5000000   0.0000000   0.0000000), wk =   0.1250000
        k(    9) = (  -0.2500000   0.2500000   0.0000000), wk =   0.2500000
        k(   10) = (  -0.5000000   0.2500000   0.0000000), wk =   0.2500000

     Dense  grid:  1474595 G-vectors     FFT dimensions: ( 108, 108, 270)

     Smooth grid:   521381 G-vectors     FFT dimensions: (  75,  75, 192)

     Dynamical RAM for                 wfc:      10.61 MB

     Dynamical RAM for     wfc (w. buffer):      63.63 MB

     Dynamical RAM for           str. fact:       3.75 MB

     Dynamical RAM for           local pot:       0.00 MB

     Dynamical RAM for          nlocal pot:      24.28 MB

     Dynamical RAM for                qrad:       7.03 MB

     Dynamical RAM for          rho,v,vnew:       6.02 MB

     Dynamical RAM for               rhoin:       2.01 MB

     Dynamical RAM for            rho*nmix:      15.00 MB

     Dynamical RAM for           G-vectors:       3.68 MB

     Dynamical RAM for          h,s,v(r/c):       1.32 MB

     Dynamical RAM for          <psi|beta>:       2.29 MB

     Dynamical RAM for                 psi:      21.21 MB

     Dynamical RAM for                hpsi:      21.21 MB

     Dynamical RAM for                spsi:      21.21 MB

     Dynamical RAM for      wfcinit/wfcrot:      34.09 MB

     Dynamical RAM for           addusdens:     100.79 MB

     Estimated static dynamical RAM per process >     120.42 MB

     Estimated max dynamical RAM per process >     236.21 MB

     Estimated total dynamical RAM >      10.72 GB

     Check: negative core charge=   -0.000004

     Initial potential from superposition of free atoms

     starting charge     416.5961, renormalised to     425.0000

     negative rho (up, down):  7.827E-01 0.000E+00
     Starting wfcs are  373 randomized atomic wfcs
     Checking if some PAW data can be deallocated... 
       PAW data deallocated on   20 nodes for type:  2

     total cpu time spent up to now is        8.6 secs

     Self-consistent Calculation

     iteration #  1     ecut=    60.00 Ry     beta= 0.15
     Davidson diagonalization with overlap

---- Real-time Memory Report at c_bands before calling an iterative solver
             0 MiB given to the printing process from OS
             0 MiB allocation reported by mallinfo(arena+hblkhd)
        170471 MiB available memory on the node where the printing process lives
------------------
     ethr =  1.00E-02,  avg # of iterations =  2.0

     negative rho (up, down):  7.718E-01 0.000E+00

     total cpu time spent up to now is       23.3 secs

     total energy              =   -4404.75883191 Ry
     estimated scf accuracy    <      42.20782745 Ry

     iteration #  2     ecut=    60.00 Ry     beta= 0.15
     Davidson diagonalization with overlap

---- Real-time Memory Report at c_bands before calling an iterative solver
             0 MiB given to the printing process from OS
             0 MiB allocation reported by mallinfo(arena+hblkhd)
        170707 MiB available memory on the node where the printing process lives
------------------
     ethr =  9.93E-03,  avg # of iterations =  1.0

     negative rho (up, down):  7.532E-01 0.000E+00

     total cpu time spent up to now is       35.7 secs

     total energy              =   -4400.03809110 Ry
     estimated scf accuracy    <      26.64105322 Ry

     iteration #  3     ecut=    60.00 Ry     beta= 0.15
     Davidson diagonalization with overlap

---- Real-time Memory Report at c_bands before calling an iterative solver
             0 MiB given to the printing process from OS
             0 MiB allocation reported by mallinfo(arena+hblkhd)
        169954 MiB available memory on the node where the printing process lives
------------------
     ethr =  6.27E-03,  avg # of iterations =  2.0

     negative rho (up, down):  7.544E-01 0.000E+00

     total cpu time spent up to now is       49.1 secs

     total energy              =   -4402.39204577 Ry
     estimated scf accuracy    <      49.15009590 Ry

     iteration #  4     ecut=    60.00 Ry     beta= 0.15
     Davidson diagonalization with overlap

---- Real-time Memory Report at c_bands before calling an iterative solver
             0 MiB given to the printing process from OS
             0 MiB allocation reported by mallinfo(arena+hblkhd)
        169831 MiB available memory on the node where the printing process lives
------------------
     ethr =  6.27E-03,  avg # of iterations =  1.0

     negative rho (up, down):  7.411E-01 0.000E+00

     total cpu time spent up to now is       61.1 secs

     total energy              =   -4401.65505203 Ry
     estimated scf accuracy    <      29.29975887 Ry

     iteration #  5     ecut=    60.00 Ry     beta= 0.15
     Davidson diagonalization with overlap

---- Real-time Memory Report at c_bands before calling an iterative solver
             0 MiB given to the printing process from OS
             0 MiB allocation reported by mallinfo(arena+hblkhd)
        169806 MiB available memory on the node where the printing process lives
------------------
     ethr =  6.27E-03,  avg # of iterations =  1.0

     negative rho (up, down):  7.470E-01 0.000E+00

     total cpu time spent up to now is       73.2 secs

     total energy              =   -4399.86640861 Ry
     estimated scf accuracy    <      43.95802116 Ry

     iteration #  6     ecut=    60.00 Ry     beta= 0.15
     Davidson diagonalization with overlap

---- Real-time Memory Report at c_bands before calling an iterative solver
             0 MiB given to the printing process from OS
             0 MiB allocation reported by mallinfo(arena+hblkhd)
        169784 MiB available memory on the node where the printing process lives
------------------
     ethr =  6.27E-03,  avg # of iterations =  1.0

     negative rho (up, down):  7.421E-01 0.000E+00

     total cpu time spent up to now is       85.1 secs

     total energy              =   -4400.64376830 Ry
     estimated scf accuracy    <      11.99466288 Ry

     iteration #  7     ecut=    60.00 Ry     beta= 0.15
     Davidson diagonalization with overlap

---- Real-time Memory Report at c_bands before calling an iterative solver
             0 MiB given to the printing process from OS
             0 MiB allocation reported by mallinfo(arena+hblkhd)
        169768 MiB available memory on the node where the printing process lives
------------------
     ethr =  2.82E-03,  avg # of iterations =  1.1

     negative rho (up, down):  7.443E-01 0.000E+00

     total cpu time spent up to now is       97.4 secs

     total energy              =   -4400.80411798 Ry
     estimated scf accuracy    <       4.15776576 Ry

     iteration #  8     ecut=    60.00 Ry     beta= 0.15
     Davidson diagonalization with overlap

---- Real-time Memory Report at c_bands before calling an iterative solver
             0 MiB given to the printing process from OS
             0 MiB allocation reported by mallinfo(arena+hblkhd)
        169749 MiB available memory on the node where the printing process lives
------------------
     ethr =  9.78E-04,  avg # of iterations =  1.6

     negative rho (up, down):  7.540E-01 0.000E+00

     total cpu time spent up to now is      110.1 secs

     total energy              =   -4400.31781784 Ry
     estimated scf accuracy    <       3.63281989 Ry

     iteration #  9     ecut=    60.00 Ry     beta= 0.15
     Davidson diagonalization with overlap

---- Real-time Memory Report at c_bands before calling an iterative solver
             0 MiB given to the printing process from OS
             0 MiB allocation reported by mallinfo(arena+hblkhd)
        169737 MiB available memory on the node where the printing process lives
------------------
     ethr =  8.55E-04,  avg # of iterations =  3.1

     negative rho (up, down):  7.763E-01 0.000E+00

     total cpu time spent up to now is      124.6 secs

     total energy              =   -4399.86267882 Ry
     estimated scf accuracy    <      44.90845388 Ry

     iteration # 10     ecut=    60.00 Ry     beta= 0.15
     Davidson diagonalization with overlap

---- Real-time Memory Report at c_bands before calling an iterative solver
             0 MiB given to the printing process from OS
             0 MiB allocation reported by mallinfo(arena+hblkhd)
        169671 MiB available memory on the node where the printing process lives
------------------
     ethr =  8.55E-04,  avg # of iterations =  9.7

     negative rho (up, down):  7.792E-01 0.000E+00

     total cpu time spent up to now is      142.6 secs

     total energy              =   -4399.75082176 Ry
     estimated scf accuracy    <      11.77783626 Ry

     iteration # 11     ecut=    60.00 Ry     beta= 0.15
     Davidson diagonalization with overlap

---- Real-time Memory Report at c_bands before calling an iterative solver
             0 MiB given to the printing process from OS
             0 MiB allocation reported by mallinfo(arena+hblkhd)
        169221 MiB available memory on the node where the printing process lives
------------------
     ethr =  8.55E-04,  avg # of iterations =  1.0

     negative rho (up, down):  7.818E-01 0.000E+00

     total cpu time spent up to now is      154.7 secs

     total energy              =   -4400.12323589 Ry
     estimated scf accuracy    <       0.99059928 Ry

     iteration # 12     ecut=    60.00 Ry     beta= 0.15
     Davidson diagonalization with overlap

---- Real-time Memory Report at c_bands before calling an iterative solver
             0 MiB given to the printing process from OS
             0 MiB allocation reported by mallinfo(arena+hblkhd)
        169241 MiB available memory on the node where the printing process lives
------------------
     ethr =  2.33E-04,  avg # of iterations =  1.6

     negative rho (up, down):  7.904E-01 0.000E+00

     total cpu time spent up to now is      167.5 secs

     total energy              =   -4400.09302178 Ry
     estimated scf accuracy    <       0.81238362 Ry

     iteration # 13     ecut=    60.00 Ry     beta= 0.15
     Davidson diagonalization with overlap

---- Real-time Memory Report at c_bands before calling an iterative solver
             0 MiB given to the printing process from OS
             0 MiB allocation reported by mallinfo(arena+hblkhd)
        169245 MiB available memory on the node where the printing process lives
------------------
     ethr =  1.91E-04,  avg # of iterations =  2.8

     negative rho (up, down):  7.996E-01 0.000E+00

     total cpu time spent up to now is      180.9 secs

     total energy              =   -4400.08995525 Ry
     estimated scf accuracy    <       1.49777571 Ry

     iteration # 14     ecut=    60.00 Ry     beta= 0.15
     Davidson diagonalization with overlap

---- Real-time Memory Report at c_bands before calling an iterative solver
             0 MiB given to the printing process from OS
             0 MiB allocation reported by mallinfo(arena+hblkhd)
        169275 MiB available memory on the node where the printing process lives
------------------
     ethr =  1.91E-04,  avg # of iterations =  6.6

     negative rho (up, down):  8.057E-01 0.000E+00

     total cpu time spent up to now is      196.8 secs

     total energy              =   -4400.01981914 Ry
     estimated scf accuracy    <       1.48239571 Ry

     iteration # 15     ecut=    60.00 Ry     beta= 0.15
     Davidson diagonalization with overlap

---- Real-time Memory Report at c_bands before calling an iterative solver
             0 MiB given to the printing process from OS
             0 MiB allocation reported by mallinfo(arena+hblkhd)
        169221 MiB available memory on the node where the printing process lives
------------------
     ethr =  1.91E-04,  avg # of iterations =  8.0

     negative rho (up, down):  8.083E-01 0.000E+00

     total cpu time spent up to now is      212.8 secs

     total energy              =   -4400.04778853 Ry
     estimated scf accuracy    <       0.36498606 Ry

     iteration # 16     ecut=    60.00 Ry     beta= 0.15
     Davidson diagonalization with overlap

---- Real-time Memory Report at c_bands before calling an iterative solver
             0 MiB given to the printing process from OS
             0 MiB allocation reported by mallinfo(arena+hblkhd)
        169172 MiB available memory on the node where the printing process lives
------------------
     c_bands:  1 eigenvalues not converged
     ethr =  8.59E-05,  avg # of iterations =  6.2

     negative rho (up, down):  8.128E-01 0.000E+00

     total cpu time spent up to now is      227.7 secs

     total energy              =   -4400.01111597 Ry
     estimated scf accuracy    <       0.30731576 Ry

     iteration # 17     ecut=    60.00 Ry     beta= 0.15
     Davidson diagonalization with overlap

---- Real-time Memory Report at c_bands before calling an iterative solver
             0 MiB given to the printing process from OS
             0 MiB allocation reported by mallinfo(arena+hblkhd)
        169172 MiB available memory on the node where the printing process lives
------------------
     ethr =  7.23E-05,  avg # of iterations =  9.1

     negative rho (up, down):  8.170E-01 0.000E+00

     total cpu time spent up to now is      243.9 secs

     total energy              =   -4399.94943480 Ry
     estimated scf accuracy    <       0.25367231 Ry

     iteration # 18     ecut=    60.00 Ry     beta= 0.15
     Davidson diagonalization with overlap

---- Real-time Memory Report at c_bands before calling an iterative solver
             0 MiB given to the printing process from OS
             0 MiB allocation reported by mallinfo(arena+hblkhd)
        169242 MiB available memory on the node where the printing process lives
------------------
     ethr =  5.97E-05,  avg # of iterations = 10.8

     negative rho (up, down):  8.204E-01 0.000E+00

     total cpu time spent up to now is      262.2 secs

     total energy              =   -4399.94788736 Ry
     estimated scf accuracy    <       0.11883590 Ry

     iteration # 19     ecut=    60.00 Ry     beta= 0.15
     Davidson diagonalization with overlap

---- Real-time Memory Report at c_bands before calling an iterative solver
             0 MiB given to the printing process from OS
             0 MiB allocation reported by mallinfo(arena+hblkhd)
        169167 MiB available memory on the node where the printing process lives
------------------
     ethr =  2.80E-05,  avg # of iterations =  7.1

     negative rho (up, down):  8.219E-01 0.000E+00

     total cpu time spent up to now is      278.2 secs

     total energy              =   -4399.93382918 Ry
     estimated scf accuracy    <       0.09483493 Ry

     iteration # 20     ecut=    60.00 Ry     beta= 0.15
     Davidson diagonalization with overlap

---- Real-time Memory Report at c_bands before calling an iterative solver
             0 MiB given to the printing process from OS
             0 MiB allocation reported by mallinfo(arena+hblkhd)
        169163 MiB available memory on the node where the printing process lives
------------------
     ethr =  2.23E-05,  avg # of iterations =  8.3

     negative rho (up, down):  8.148E-01 0.000E+00

     total cpu time spent up to now is      294.4 secs

     total energy              =   -4399.92594723 Ry
     estimated scf accuracy    <       0.06381021 Ry

     iteration # 21     ecut=    60.00 Ry     beta= 0.15
     Davidson diagonalization with overlap

---- Real-time Memory Report at c_bands before calling an iterative solver
             0 MiB given to the printing process from OS
             0 MiB allocation reported by mallinfo(arena+hblkhd)
        169146 MiB available memory on the node where the printing process lives
------------------
     ethr =  1.50E-05,  avg # of iterations =  8.4

     negative rho (up, down):  8.126E-01 0.000E+00

     total cpu time spent up to now is      311.0 secs

     total energy              =   -4399.92327749 Ry
     estimated scf accuracy    <       0.04109840 Ry

     iteration # 22     ecut=    60.00 Ry     beta= 0.15
     Davidson diagonalization with overlap

---- Real-time Memory Report at c_bands before calling an iterative solver
             0 MiB given to the printing process from OS
             0 MiB allocation reported by mallinfo(arena+hblkhd)
        169115 MiB available memory on the node where the printing process lives
------------------
     ethr =  9.67E-06,  avg # of iterations =  7.9

     negative rho (up, down):  8.002E-01 0.000E+00

     total cpu time spent up to now is      327.8 secs

     total energy              =   -4399.91871383 Ry
     estimated scf accuracy    <       0.02877266 Ry

     iteration # 23     ecut=    60.00 Ry     beta= 0.15
     Davidson diagonalization with overlap

---- Real-time Memory Report at c_bands before calling an iterative solver
             0 MiB given to the printing process from OS
             0 MiB allocation reported by mallinfo(arena+hblkhd)
        169121 MiB available memory on the node where the printing process lives
------------------
     ethr =  6.77E-06,  avg # of iterations = 10.0

     negative rho (up, down):  8.018E-01 0.000E+00

     total cpu time spent up to now is      345.4 secs

     total energy              =   -4399.91922342 Ry
     estimated scf accuracy    <       0.01414830 Ry

     iteration # 24     ecut=    60.00 Ry     beta= 0.15
     Davidson diagonalization with overlap

---- Real-time Memory Report at c_bands before calling an iterative solver
             0 MiB given to the printing process from OS
             0 MiB allocation reported by mallinfo(arena+hblkhd)
        169059 MiB available memory on the node where the printing process lives
------------------
     ethr =  3.33E-06,  avg # of iterations = 11.5

     negative rho (up, down):  7.914E-01 0.000E+00

     total cpu time spent up to now is      363.7 secs

     total energy              =   -4399.91845690 Ry
     estimated scf accuracy    <       0.01065311 Ry

     iteration # 25     ecut=    60.00 Ry     beta= 0.15
     Davidson diagonalization with overlap

---- Real-time Memory Report at c_bands before calling an iterative solver
             0 MiB given to the printing process from OS
             0 MiB allocation reported by mallinfo(arena+hblkhd)
        169061 MiB available memory on the node where the printing process lives
------------------
     ethr =  2.51E-06,  avg # of iterations =  3.7

     negative rho (up, down):  7.869E-01 0.000E+00

     total cpu time spent up to now is      378.0 secs

     total energy              =   -4399.91795806 Ry
     estimated scf accuracy    <       0.00754175 Ry

     iteration # 26     ecut=    60.00 Ry     beta= 0.15
     Davidson diagonalization with overlap

---- Real-time Memory Report at c_bands before calling an iterative solver
             0 MiB given to the printing process from OS
             0 MiB allocation reported by mallinfo(arena+hblkhd)
        169095 MiB available memory on the node where the printing process lives
------------------
     ethr =  1.77E-06,  avg # of iterations = 10.5

     negative rho (up, down):  7.881E-01 0.000E+00

     total cpu time spent up to now is      396.0 secs

     total energy              =   -4399.91776659 Ry
     estimated scf accuracy    <       0.00452947 Ry

     iteration # 27     ecut=    60.00 Ry     beta= 0.15
     Davidson diagonalization with overlap

---- Real-time Memory Report at c_bands before calling an iterative solver
             0 MiB given to the printing process from OS
             0 MiB allocation reported by mallinfo(arena+hblkhd)
        169079 MiB available memory on the node where the printing process lives
------------------
     ethr =  1.07E-06,  avg # of iterations =  2.0

     negative rho (up, down):  7.907E-01 0.000E+00

     total cpu time spent up to now is      409.9 secs

     total energy              =   -4399.91743141 Ry
     estimated scf accuracy    <       0.00300098 Ry

     iteration # 28     ecut=    60.00 Ry     beta= 0.15
     Davidson diagonalization with overlap

---- Real-time Memory Report at c_bands before calling an iterative solver
             0 MiB given to the printing process from OS
             0 MiB allocation reported by mallinfo(arena+hblkhd)
        169201 MiB available memory on the node where the printing process lives
------------------
     c_bands:  1 eigenvalues not converged
     c_bands:  1 eigenvalues not converged
     ethr =  7.06E-07,  avg # of iterations = 12.3

     negative rho (up, down):  7.957E-01 0.000E+00

     total cpu time spent up to now is      428.7 secs

     total energy              =   -4399.91748830 Ry
     estimated scf accuracy    <       0.00136593 Ry

     iteration # 29     ecut=    60.00 Ry     beta= 0.15
     Davidson diagonalization with overlap

---- Real-time Memory Report at c_bands before calling an iterative solver
             0 MiB given to the printing process from OS
             0 MiB allocation reported by mallinfo(arena+hblkhd)
        169106 MiB available memory on the node where the printing process lives
------------------
     c_bands:  1 eigenvalues not converged
     c_bands:  1 eigenvalues not converged
     ethr =  3.21E-07,  avg # of iterations = 13.2

     negative rho (up, down):  7.963E-01 0.000E+00

     total cpu time spent up to now is      447.4 secs

     total energy              =   -4399.91757685 Ry
     estimated scf accuracy    <       0.00029707 Ry

     iteration # 30     ecut=    60.00 Ry     beta= 0.15
     Davidson diagonalization with overlap

---- Real-time Memory Report at c_bands before calling an iterative solver
             0 MiB given to the printing process from OS
             0 MiB allocation reported by mallinfo(arena+hblkhd)
        169054 MiB available memory on the node where the printing process lives
------------------
     ethr =  6.99E-08,  avg # of iterations =  2.8

     negative rho (up, down):  7.946E-01 0.000E+00

     total cpu time spent up to now is      461.4 secs

     total energy              =   -4399.91754616 Ry
     estimated scf accuracy    <       0.00015162 Ry

     iteration # 31     ecut=    60.00 Ry     beta= 0.15
     Davidson diagonalization with overlap

---- Real-time Memory Report at c_bands before calling an iterative solver
             0 MiB given to the printing process from OS
             0 MiB allocation reported by mallinfo(arena+hblkhd)
        169118 MiB available memory on the node where the printing process lives
------------------
     ethr =  3.57E-08,  avg # of iterations =  2.2

     negative rho (up, down):  7.940E-01 0.000E+00

     total cpu time spent up to now is      475.0 secs

     total energy              =   -4399.91754396 Ry
     estimated scf accuracy    <       0.00007446 Ry

     iteration # 32     ecut=    60.00 Ry     beta= 0.15
     Davidson diagonalization with overlap

---- Real-time Memory Report at c_bands before calling an iterative solver
             0 MiB given to the printing process from OS
             0 MiB allocation reported by mallinfo(arena+hblkhd)
        169147 MiB available memory on the node where the printing process lives
------------------
     ethr =  1.75E-08,  avg # of iterations =  2.0

     negative rho (up, down):  7.933E-01 0.000E+00

     total cpu time spent up to now is      488.4 secs

     total energy              =   -4399.91754513 Ry
     estimated scf accuracy    <       0.00005236 Ry

     iteration # 33     ecut=    60.00 Ry     beta= 0.15
     Davidson diagonalization with overlap

---- Real-time Memory Report at c_bands before calling an iterative solver
             0 MiB given to the printing process from OS
             0 MiB allocation reported by mallinfo(arena+hblkhd)
        169169 MiB available memory on the node where the printing process lives
------------------
     ethr =  1.23E-08,  avg # of iterations =  2.2

     negative rho (up, down):  7.929E-01 0.000E+00

     total cpu time spent up to now is      501.9 secs

     total energy              =   -4399.91754730 Ry
     estimated scf accuracy    <       0.00003254 Ry

     iteration # 34     ecut=    60.00 Ry     beta= 0.15
     Davidson diagonalization with overlap

---- Real-time Memory Report at c_bands before calling an iterative solver
             0 MiB given to the printing process from OS
             0 MiB allocation reported by mallinfo(arena+hblkhd)
        169188 MiB available memory on the node where the printing process lives
------------------
     ethr =  7.66E-09,  avg # of iterations =  3.3

     negative rho (up, down):  7.926E-01 0.000E+00

     total cpu time spent up to now is      516.5 secs

     total energy              =   -4399.91754794 Ry
     estimated scf accuracy    <       0.00002243 Ry

     iteration # 35     ecut=    60.00 Ry     beta= 0.15
     Davidson diagonalization with overlap

---- Real-time Memory Report at c_bands before calling an iterative solver
             0 MiB given to the printing process from OS
             0 MiB allocation reported by mallinfo(arena+hblkhd)
        169193 MiB available memory on the node where the printing process lives
------------------
     ethr =  5.28E-09,  avg # of iterations =  2.7

     negative rho (up, down):  7.924E-01 0.000E+00

     total cpu time spent up to now is      530.7 secs

     total energy              =   -4399.91754564 Ry
     estimated scf accuracy    <       0.00001347 Ry

     iteration # 36     ecut=    60.00 Ry     beta= 0.15
     Davidson diagonalization with overlap

---- Real-time Memory Report at c_bands before calling an iterative solver
             0 MiB given to the printing process from OS
             0 MiB allocation reported by mallinfo(arena+hblkhd)
        169195 MiB available memory on the node where the printing process lives
------------------
     ethr =  3.17E-09,  avg # of iterations =  3.0

     negative rho (up, down):  7.923E-01 0.000E+00

     total cpu time spent up to now is      545.1 secs

     total energy              =   -4399.91755140 Ry
     estimated scf accuracy    <       0.00000789 Ry

     iteration # 37     ecut=    60.00 Ry     beta= 0.15
     Davidson diagonalization with overlap

---- Real-time Memory Report at c_bands before calling an iterative solver
             0 MiB given to the printing process from OS
             0 MiB allocation reported by mallinfo(arena+hblkhd)
        169191 MiB available memory on the node where the printing process lives
------------------
     ethr =  1.86E-09,  avg # of iterations =  2.5

     negative rho (up, down):  7.922E-01 0.000E+00

     total cpu time spent up to now is      559.3 secs

     total energy              =   -4399.91755194 Ry
     estimated scf accuracy    <       0.00000510 Ry

     iteration # 38     ecut=    60.00 Ry     beta= 0.15
     Davidson diagonalization with overlap

---- Real-time Memory Report at c_bands before calling an iterative solver
             0 MiB given to the printing process from OS
             0 MiB allocation reported by mallinfo(arena+hblkhd)
        169193 MiB available memory on the node where the printing process lives
------------------
     ethr =  1.20E-09,  avg # of iterations =  1.8

     negative rho (up, down):  7.922E-01 0.000E+00

     total cpu time spent up to now is      573.0 secs

     total energy              =   -4399.91755410 Ry
     estimated scf accuracy    <       0.00000422 Ry

     iteration # 39     ecut=    60.00 Ry     beta= 0.15
     Davidson diagonalization with overlap

---- Real-time Memory Report at c_bands before calling an iterative solver
             0 MiB given to the printing process from OS
             0 MiB allocation reported by mallinfo(arena+hblkhd)
        169195 MiB available memory on the node where the printing process lives
------------------
     ethr =  9.92E-10,  avg # of iterations =  2.2

     negative rho (up, down):  7.924E-01 0.000E+00

     total cpu time spent up to now is      587.0 secs

     total energy              =   -4399.91755598 Ry
     estimated scf accuracy    <       0.00000325 Ry

     iteration # 40     ecut=    60.00 Ry     beta= 0.15
     Davidson diagonalization with overlap

---- Real-time Memory Report at c_bands before calling an iterative solver
             0 MiB given to the printing process from OS
             0 MiB allocation reported by mallinfo(arena+hblkhd)
        169197 MiB available memory on the node where the printing process lives
------------------
     ethr =  7.66E-10,  avg # of iterations =  3.7

     negative rho (up, down):  7.925E-01 0.000E+00

     total cpu time spent up to now is      601.8 secs

     total energy              =   -4399.91755619 Ry
     estimated scf accuracy    <       0.00000136 Ry

     iteration # 41     ecut=    60.00 Ry     beta= 0.15
     Davidson diagonalization with overlap

---- Real-time Memory Report at c_bands before calling an iterative solver
             0 MiB given to the printing process from OS
             0 MiB allocation reported by mallinfo(arena+hblkhd)
        169189 MiB available memory on the node where the printing process lives
------------------
     ethr =  3.21E-10,  avg # of iterations =  2.9

     negative rho (up, down):  7.925E-01 0.000E+00

     total cpu time spent up to now is      616.0 secs

     total energy              =   -4399.91755613 Ry
     estimated scf accuracy    <       0.00000058 Ry

     iteration # 42     ecut=    60.00 Ry     beta= 0.15
     Davidson diagonalization with overlap

---- Real-time Memory Report at c_bands before calling an iterative solver
             0 MiB given to the printing process from OS
             0 MiB allocation reported by mallinfo(arena+hblkhd)
        169188 MiB available memory on the node where the printing process lives
------------------
     ethr =  1.36E-10,  avg # of iterations =  2.6

     negative rho (up, down):  7.925E-01 0.000E+00

     total cpu time spent up to now is      629.9 secs

     total energy              =   -4399.91755615 Ry
     estimated scf accuracy    <       0.00000018 Ry

     iteration # 43     ecut=    60.00 Ry     beta= 0.15
     Davidson diagonalization with overlap

---- Real-time Memory Report at c_bands before calling an iterative solver
             0 MiB given to the printing process from OS
             0 MiB allocation reported by mallinfo(arena+hblkhd)
        169186 MiB available memory on the node where the printing process lives
------------------
     ethr =  4.30E-11,  avg # of iterations =  2.1

     negative rho (up, down):  7.925E-01 0.000E+00

     total cpu time spent up to now is      643.5 secs

     total energy              =   -4399.91755618 Ry
     estimated scf accuracy    <       0.00000009 Ry

     iteration # 44     ecut=    60.00 Ry     beta= 0.15
     Davidson diagonalization with overlap

---- Real-time Memory Report at c_bands before calling an iterative solver
             0 MiB given to the printing process from OS
             0 MiB allocation reported by mallinfo(arena+hblkhd)
        169189 MiB available memory on the node where the printing process lives
------------------
     ethr =  2.08E-11,  avg # of iterations =  2.0

     negative rho (up, down):  7.925E-01 0.000E+00

     total cpu time spent up to now is      656.9 secs

     total energy              =   -4399.91755622 Ry
     estimated scf accuracy    <       0.00000006 Ry

     iteration # 45     ecut=    60.00 Ry     beta= 0.15
     Davidson diagonalization with overlap

---- Real-time Memory Report at c_bands before calling an iterative solver
             0 MiB given to the printing process from OS
             0 MiB allocation reported by mallinfo(arena+hblkhd)
        169190 MiB available memory on the node where the printing process lives
------------------
     ethr =  1.40E-11,  avg # of iterations =  2.2

     negative rho (up, down):  7.925E-01 0.000E+00

     total cpu time spent up to now is      670.5 secs

     total energy              =   -4399.91755630 Ry
     estimated scf accuracy    <       0.00000003 Ry

     iteration # 46     ecut=    60.00 Ry     beta= 0.15
     Davidson diagonalization with overlap

---- Real-time Memory Report at c_bands before calling an iterative solver
             0 MiB given to the printing process from OS
             0 MiB allocation reported by mallinfo(arena+hblkhd)
        169189 MiB available memory on the node where the printing process lives
------------------
     ethr =  7.93E-12,  avg # of iterations =  3.8

     negative rho (up, down):  7.924E-01 0.000E+00

     total cpu time spent up to now is      685.1 secs

     total energy              =   -4399.91755635 Ry
     estimated scf accuracy    <       0.00000002 Ry

     iteration # 47     ecut=    60.00 Ry     beta= 0.15
     Davidson diagonalization with overlap

---- Real-time Memory Report at c_bands before calling an iterative solver
             0 MiB given to the printing process from OS
             0 MiB allocation reported by mallinfo(arena+hblkhd)
        169165 MiB available memory on the node where the printing process lives
------------------
     ethr =  4.67E-12,  avg # of iterations =  3.8

     negative rho (up, down):  7.924E-01 0.000E+00

     total cpu time spent up to now is      699.3 secs

     End of self-consistent calculation

          k = 0.0000 0.0000 0.0000 ( 65197 PWs)   bands (ev):

   -92.7360 -92.6826 -92.5908 -92.5412 -92.4849 -92.4426 -92.4252 -92.3028
   -56.0894 -56.0672 -55.9478 -55.9367 -55.9295 -55.9236 -55.8876 -55.8598
   -55.8438 -55.8421 -55.8343 -55.7923 -55.7720 -55.7360 -55.7176 -55.6849
   -55.6766 -55.6308 -55.6299 -55.6278 -55.6194 -55.5778 -55.5555 -55.4683
   -31.3113 -31.2918 -31.1505 -31.0637 -31.0633 -31.0451 -30.8857 -30.8318
   -29.8839 -29.8404 -29.8151 -29.7067 -15.1166 -15.0747 -14.9923 -14.8629
   -14.6689 -14.5495 -14.2543 -14.2340 -14.2052 -14.1608 -14.1174 -14.1048
   -14.0925 -14.0754 -14.0530 -14.0185 -13.9660 -13.8147 -13.6325 -13.6030
   -13.5723 -13.5364 -13.5217 -13.4728 -13.4382 -13.3557 -13.2840 -13.1755
   -13.1441 -13.1328 -13.1089 -13.0981 -13.0910 -13.0478 -13.0366 -13.0246
   -12.9902 -12.9571 -12.9368 -12.9143 -12.9023 -12.8930 -12.8338 -12.8212
   -12.8054 -12.7572 -12.7128 -12.7035 -12.3764 -12.2301 -12.0844 -12.0112
   -11.8975 -11.8231 -11.8121 -11.7896 -11.7720 -11.7082 -11.6911 -11.6561
   -11.6271 -11.5160 -11.4357 -11.4322  -2.9772  -2.7450  -2.5156  -2.3674
    -2.3056  -2.1630  -1.8553  -1.8406  -1.8215  -1.7344  -1.7181  -1.6501
    -1.6337  -1.5927  -1.5482  -1.3678  -1.1411  -1.1114  -0.9661  -0.9518
    -0.9058  -0.8873  -0.8415  -0.8256  -0.7694  -0.7425  -0.6710  -0.6600
    -0.5823  -0.4511  -0.4381  -0.4087  -0.3281  -0.3068  -0.2749  -0.2350
    -0.1638  -0.1287  -0.0661  -0.0458   0.0141   0.0935   0.1438   0.1654
     0.1750   0.4344   0.4502   0.6223   0.6871   0.7492   0.7945   0.8866
     0.8991   0.9151   0.9861   1.0136   1.0471   1.1053   1.2380   1.2936
     1.3160   1.3399   1.3505   1.4131   1.4858   1.5919   1.6084   1.6606
     1.6764   1.7194   1.7403   1.7497   1.8028   1.8594   1.8663   1.8977
     1.9269   1.9883   2.1201   2.2039   2.2487   2.2640   2.4108   2.4249
     2.4744   2.4774   2.5859   2.6212   2.6488   2.6669   2.6785   2.7385
     2.7966   2.8714   2.9077   2.9157   2.9223   2.9903   3.0038   3.0180
     3.0257   3.0343   3.0451   3.0540   3.0675   3.0739   3.0846   3.0932
     3.1007   3.1211   3.1423   3.1474   3.1596   3.1806   3.3003   3.4105
     4.0723   4.3898   4.7359   4.8575   5.0010   5.8619   5.9402   5.9695
     6.0534   6.2804   6.3261   6.4662   6.4760   6.7466   6.9898   7.0838
     7.1461   7.2145   7.2843   7.5891   7.6360   7.6553   7.7458   7.8841
     8.0203   8.0928   8.1274   8.1931   8.3773   8.6684   8.7408   8.8572

     occupation numbers 
     1.0000   1.0000   1.0000   1.0000   1.0000   1.0000   1.0000   1.0000
     1.0000   1.0000   1.0000   1.0000   1.0000   1.0000   1.0000   1.0000
     1.0000   1.0000   1.0000   1.0000   1.0000   1.0000   1.0000   1.0000
     1.0000   1.0000   1.0000   1.0000   1.0000   1.0000   1.0000   1.0000
     1.0000   1.0000   1.0000   1.0000   1.0000   1.0000   1.0000   1.0000
     1.0000   1.0000   1.0000   1.0000   1.0000   1.0000   1.0000   1.0000
     1.0000   1.0000   1.0000   1.0000   1.0000   1.0000   1.0000   1.0000
     1.0000   1.0000   1.0000   1.0000   1.0000   1.0000   1.0000   1.0000
     1.0000   1.0000   1.0000   1.0000   1.0000   1.0000   1.0000   1.0000
     1.0000   1.0000   1.0000   1.0000   1.0000   1.0000   1.0000   1.0000
     1.0000   1.0000   1.0000   1.0000   1.0000   1.0000   1.0000   1.0000
     1.0000   1.0000   1.0000   1.0000   1.0000   1.0000   1.0000   1.0000
     1.0000   1.0000   1.0000   1.0000   1.0000   1.0000   1.0000   1.0000
     1.0000   1.0000   1.0000   1.0000   1.0000   1.0000   1.0000   1.0000
     1.0000   1.0000   1.0000   1.0000   1.0000   1.0000   1.0000   1.0000
     1.0000   1.0000   1.0000   1.0000   1.0000   1.0000   1.0000   1.0000
     1.0000   1.0000   1.0000   1.0000   1.0000   1.0000   1.0000   1.0000
     1.0000   1.0000   1.0000   1.0000   1.0000   1.0000   1.0000   1.0000
     1.0000   1.0000   1.0000   1.0000   1.0000   1.0000   1.0000   1.0000
     1.0000   1.0000   1.0000   1.0000   0.9999   0.9999   0.9999   0.9998
     0.9998   0.9998   0.9997   0.9996   0.9996   0.9994   0.9989   0.9985
     0.9983   0.9981   0.9980   0.9974   0.9963   0.9942   0.9938   0.9923
     0.9918   0.9902   0.9894   0.9890   0.9865   0.9833   0.9828   0.9808
     0.9786   0.9735   0.9590   0.9469   0.9393   0.9365   0.9045   0.9009
     0.8875   0.8866   0.8526   0.8402   0.8301   0.8232   0.8187   0.7942
     0.7688   0.7336   0.7157   0.7116   0.7082   0.6727   0.6654   0.6577
     0.6535   0.6488   0.6428   0.6378   0.6303   0.6267   0.6207   0.6158
     0.6116   0.5999   0.5877   0.5848   0.5777   0.5654   0.4948   0.4299
     0.1231   0.0515   0.0160   0.0100   0.0056   0.0001   0.0000   0.0000
     0.0000   0.0000   0.0000   0.0000   0.0000   0.0000   0.0000   0.0000
     0.0000   0.0000   0.0000   0.0000   0.0000   0.0000   0.0000   0.0000
     0.0000   0.0000   0.0000   0.0000   0.0000   0.0000   0.0000   0.0000

          k = 0.0000 0.2500 0.0000 ( 65257 PWs)   bands (ev):

   -92.7360 -92.6826 -92.5908 -92.5412 -92.4849 -92.4426 -92.4252 -92.3028
   -56.0894 -56.0672 -55.9478 -55.9367 -55.9295 -55.9236 -55.8876 -55.8598
   -55.8438 -55.8421 -55.8343 -55.7923 -55.7720 -55.7360 -55.7176 -55.6849
   -55.6766 -55.6308 -55.6299 -55.6278 -55.6194 -55.5778 -55.5555 -55.4683
   -31.3111 -31.2917 -31.1507 -31.0638 -31.0615 -31.0469 -30.8851 -30.8324
   -29.8832 -29.8401 -29.8158 -29.7071 -15.0798 -15.0484 -14.9676 -14.8332
   -14.7109 -14.5382 -14.4006 -14.2204 -14.1848 -14.1647 -14.1369 -14.0781
   -14.0727 -14.0573 -14.0364 -13.9925 -13.8852 -13.8451 -13.6821 -13.6584
   -13.6133 -13.5767 -13.5240 -13.4898 -13.4500 -13.3770 -13.3415 -13.2904
   -13.2214 -13.1813 -13.1422 -13.1247 -13.0776 -13.0238 -12.9996 -12.9708
   -12.9553 -12.9352 -12.9009 -12.8632 -12.8471 -12.8335 -12.8144 -12.8068
   -12.7912 -12.7460 -12.6177 -12.5468 -12.4378 -12.2813 -12.1427 -12.0791
   -11.8630 -11.8199 -11.7923 -11.7641 -11.7474 -11.7000 -11.6887 -11.6662
   -11.6318 -11.5303 -11.4774 -11.4668  -2.8418  -2.6207  -2.4830  -2.3003
    -2.2570  -2.0937  -1.8722  -1.7897  -1.7766  -1.7143  -1.6159  -1.6007
    -1.5665  -1.5398  -1.4959  -1.2990  -1.1688  -1.1576  -1.0799  -1.0708
    -0.9668  -0.9369  -0.8798  -0.8533  -0.8133  -0.7483  -0.7224  -0.6898
    -0.6609  -0.6439  -0.6100  -0.5369  -0.4851  -0.4107  -0.3061  -0.2762
    -0.2394  -0.1294  -0.0938  -0.0305   0.0192   0.0744   0.0927   0.1226
     0.1797   0.4808   0.5698   0.6038   0.6868   0.7319   0.7510   0.8723
     0.8904   0.9860   1.0123   1.0402   1.1548   1.2490   1.2698   1.2954
     1.3153   1.3384   1.3986   1.4261   1.4537   1.5012   1.5350   1.5662
     1.6515   1.6872   1.7124   1.7718   1.8226   1.8553   1.8854   1.9148
     1.9335   2.0256   2.1585   2.2284   2.2478   2.3237   2.3673   2.4070
     2.4121   2.4791   2.5191   2.6017   2.6406   2.6609   2.7669   2.8334
     2.8567   2.8845   2.9100   2.9233   2.9326   2.9386   2.9471   2.9781
     2.9821   2.9976   3.0088   3.0119   3.0342   3.0450   3.0542   3.0723
     3.0830   3.0904   3.1234   3.1401   3.1994   3.5619   3.6158   3.8482
     4.2586   4.3847   4.6834   5.0070   5.0296   5.6160   5.7811   5.9324
     6.0303   6.0645   6.1031   6.1553   6.5828   6.9006   6.9524   7.0977
     7.2496   7.3101   7.4579   7.4753   7.6210   7.7664   7.9195   7.9518
     8.0428   8.1303   8.1543   8.2355   8.3827   8.4999   8.7683   8.9137

     occupation numbers 
     1.0000   1.0000   1.0000   1.0000   1.0000   1.0000   1.0000   1.0000
     1.0000   1.0000   1.0000   1.0000   1.0000   1.0000   1.0000   1.0000
     1.0000   1.0000   1.0000   1.0000   1.0000   1.0000   1.0000   1.0000
     1.0000   1.0000   1.0000   1.0000   1.0000   1.0000   1.0000   1.0000
     1.0000   1.0000   1.0000   1.0000   1.0000   1.0000   1.0000   1.0000
     1.0000   1.0000   1.0000   1.0000   1.0000   1.0000   1.0000   1.0000
     1.0000   1.0000   1.0000   1.0000   1.0000   1.0000   1.0000   1.0000
     1.0000   1.0000   1.0000   1.0000   1.0000   1.0000   1.0000   1.0000
     1.0000   1.0000   1.0000   1.0000   1.0000   1.0000   1.0000   1.0000
     1.0000   1.0000   1.0000   1.0000   1.0000   1.0000   1.0000   1.0000
     1.0000   1.0000   1.0000   1.0000   1.0000   1.0000   1.0000   1.0000
     1.0000   1.0000   1.0000   1.0000   1.0000   1.0000   1.0000   1.0000
     1.0000   1.0000   1.0000   1.0000   1.0000   1.0000   1.0000   1.0000
     1.0000   1.0000   1.0000   1.0000   1.0000   1.0000   1.0000   1.0000
     1.0000   1.0000   1.0000   1.0000   1.0000   1.0000   1.0000   1.0000
     1.0000   1.0000   1.0000   1.0000   1.0000   1.0000   1.0000   1.0000
     1.0000   1.0000   1.0000   1.0000   1.0000   1.0000   1.0000   1.0000
     1.0000   1.0000   1.0000   1.0000   1.0000   1.0000   1.0000   1.0000
     1.0000   1.0000   1.0000   1.0000   1.0000   1.0000   1.0000   1.0000
     1.0000   1.0000   1.0000   1.0000   0.9999   0.9999   0.9999   0.9998
     0.9998   0.9997   0.9996   0.9996   0.9992   0.9988   0.9987   0.9985
     0.9983   0.9981   0.9975   0.9972   0.9968   0.9961   0.9954   0.9948
     0.9926   0.9914   0.9905   0.9880   0.9854   0.9835   0.9816   0.9795
     0.9781   0.9699   0.9538   0.9428   0.9394   0.9247   0.9150   0.9055
     0.9042   0.8862   0.8743   0.8472   0.8331   0.8255   0.7820   0.7518
     0.7408   0.7272   0.7145   0.7077   0.7030   0.6999   0.6955   0.6792
     0.6771   0.6688   0.6627   0.6610   0.6488   0.6428   0.6378   0.6276
     0.6216   0.6174   0.5986   0.5890   0.5544   0.3440   0.3151   0.2042
     0.0755   0.0523   0.0194   0.0054   0.0049   0.0003   0.0001   0.0000
     0.0000   0.0000   0.0000   0.0000   0.0000   0.0000   0.0000   0.0000
     0.0000   0.0000   0.0000   0.0000   0.0000   0.0000   0.0000   0.0000
     0.0000   0.0000   0.0000   0.0000   0.0000   0.0000   0.0000   0.0000

          k = 0.0000-0.5000 0.0000 ( 65180 PWs)   bands (ev):

   -92.7360 -92.6826 -92.5908 -92.5412 -92.4849 -92.4426 -92.4252 -92.3028
   -56.0894 -56.0672 -55.9478 -55.9367 -55.9295 -55.9236 -55.8876 -55.8598
   -55.8438 -55.8421 -55.8343 -55.7923 -55.7720 -55.7360 -55.7176 -55.6849
   -55.6766 -55.6308 -55.6299 -55.6278 -55.6194 -55.5778 -55.5555 -55.4683
   -31.3109 -31.2916 -31.1509 -31.0639 -31.0590 -31.0494 -30.8845 -30.8330
   -29.8826 -29.8398 -29.8164 -29.7074 -15.0453 -14.9967 -14.9447 -14.8154
   -14.7317 -14.5930 -14.4428 -14.3164 -14.1922 -14.1237 -14.0777 -14.0723
   -14.0210 -14.0059 -13.9601 -13.9320 -13.9136 -13.8751 -13.8327 -13.8087
   -13.6184 -13.5593 -13.5279 -13.4913 -13.4485 -13.3927 -13.3648 -13.3166
   -13.3090 -13.2514 -13.1431 -13.1256 -13.0435 -13.0354 -13.0026 -12.9868
   -12.9627 -12.9159 -12.8617 -12.8391 -12.8158 -12.7982 -12.7697 -12.7522
   -12.7392 -12.6858 -12.5488 -12.4667 -12.3562 -12.3245 -12.2547 -12.2166
   -11.8168 -11.8145 -11.7874 -11.7500 -11.7156 -11.7045 -11.6615 -11.6578
   -11.6133 -11.5521 -11.5383 -11.5240  -2.6265  -2.5685  -2.4175  -2.3454
    -2.0613  -1.9805  -1.8527  -1.7157  -1.6727  -1.6586  -1.5805  -1.5483
    -1.4676  -1.4319  -1.3532  -1.3142  -1.2758  -1.2484  -1.1896  -1.1540
    -1.1055  -1.0695  -1.0381  -1.0039  -0.8938  -0.8492  -0.8137  -0.8106
    -0.7250  -0.6936  -0.6723  -0.6260  -0.5341  -0.4680  -0.3776  -0.3385
    -0.2468  -0.2131  -0.0653  -0.0148   0.0017   0.0470   0.1607   0.2265
     0.3565   0.4250   0.4338   0.5606   0.6154   0.6977   0.8395   0.9430
     0.9765   1.0159   1.0266   1.0588   1.0767   1.1117   1.1282   1.1407
     1.2497   1.3093   1.3443   1.3711   1.6397   1.6560   1.6779   1.7646
     1.7949   1.8307   1.8448   1.8745   1.8884   1.8911   1.9209   1.9694
     1.9936   2.0234   2.0317   2.0607   2.1148   2.2025   2.2317   2.4001
     2.5658   2.5702   2.5933   2.6337   2.6412   2.6468   2.6881   2.7086
     2.7625   2.7791   2.7835   2.8700   2.8816   2.9473   2.9483   2.9780
     2.9801   2.9945   2.9976   3.0023   3.0094   3.0168   3.0344   3.0427
     3.0505   3.1085   3.1138   3.1298   3.1876   4.0854   4.0948   4.1449
     4.2428   4.6978   4.8695   4.9980   5.1544   5.3956   5.4386   5.5564
     5.7231   5.9987   6.0097   6.1094   6.7654   6.8348   6.9379   7.2019
     7.2954   7.3796   7.4420   7.4750   7.6675   7.7232   7.8781   7.8942
     8.1706   8.2232   8.2456   8.4620   8.6335   8.7628   8.7963   8.8117

     occupation numbers 
     1.0000   1.0000   1.0000   1.0000   1.0000   1.0000   1.0000   1.0000
     1.0000   1.0000   1.0000   1.0000   1.0000   1.0000   1.0000   1.0000
     1.0000   1.0000   1.0000   1.0000   1.0000   1.0000   1.0000   1.0000
     1.0000   1.0000   1.0000   1.0000   1.0000   1.0000   1.0000   1.0000
     1.0000   1.0000   1.0000   1.0000   1.0000   1.0000   1.0000   1.0000
     1.0000   1.0000   1.0000   1.0000   1.0000   1.0000   1.0000   1.0000
     1.0000   1.0000   1.0000   1.0000   1.0000   1.0000   1.0000   1.0000
     1.0000   1.0000   1.0000   1.0000   1.0000   1.0000   1.0000   1.0000
     1.0000   1.0000   1.0000   1.0000   1.0000   1.0000   1.0000   1.0000
     1.0000   1.0000   1.0000   1.0000   1.0000   1.0000   1.0000   1.0000
     1.0000   1.0000   1.0000   1.0000   1.0000   1.0000   1.0000   1.0000
     1.0000   1.0000   1.0000   1.0000   1.0000   1.0000   1.0000   1.0000
     1.0000   1.0000   1.0000   1.0000   1.0000   1.0000   1.0000   1.0000
     1.0000   1.0000   1.0000   1.0000   1.0000   1.0000   1.0000   1.0000
     1.0000   1.0000   1.0000   1.0000   1.0000   1.0000   1.0000   1.0000
     1.0000   1.0000   1.0000   1.0000   1.0000   1.0000   1.0000   1.0000
     1.0000   1.0000   1.0000   1.0000   1.0000   1.0000   1.0000   1.0000
     1.0000   1.0000   1.0000   1.0000   1.0000   1.0000   1.0000   1.0000
     1.0000   1.0000   1.0000   1.0000   1.0000   1.0000   1.0000   1.0000
     1.0000   1.0000   1.0000   1.0000   1.0000   0.9999   0.9999   0.9998
     0.9997   0.9996   0.9996   0.9995   0.9995   0.9994   0.9993   0.9993
     0.9988   0.9984   0.9981   0.9978   0.9929   0.9924   0.9917   0.9883
     0.9869   0.9850   0.9842   0.9823   0.9814   0.9812   0.9791   0.9752
     0.9730   0.9702   0.9693   0.9662   0.9597   0.9471   0.9422   0.9072
     0.8594   0.8579   0.8501   0.8357   0.8329   0.8308   0.8149   0.8066
     0.7839   0.7766   0.7747   0.7343   0.7286   0.6954   0.6949   0.6793
     0.6781   0.6704   0.6688   0.6662   0.6624   0.6584   0.6487   0.6441
     0.6398   0.6071   0.6041   0.5949   0.5613   0.1192   0.1165   0.1025
     0.0789   0.0184   0.0096   0.0056   0.0028   0.0009   0.0007   0.0004
     0.0002   0.0000   0.0000   0.0000   0.0000   0.0000   0.0000   0.0000
     0.0000   0.0000   0.0000   0.0000   0.0000   0.0000   0.0000   0.0000
     0.0000   0.0000   0.0000   0.0000   0.0000   0.0000   0.0000   0.0000

          k = 0.2500 0.2500 0.0000 ( 65198 PWs)   bands (ev):

   -92.7360 -92.6826 -92.5908 -92.5412 -92.4849 -92.4426 -92.4252 -92.3028
   -56.0894 -56.0672 -55.9478 -55.9367 -55.9295 -55.9236 -55.8876 -55.8598
   -55.8438 -55.8421 -55.8343 -55.7923 -55.7720 -55.7360 -55.7176 -55.6849
   -55.6766 -55.6308 -55.6299 -55.6278 -55.6194 -55.5778 -55.5555 -55.4683
   -31.3094 -31.2934 -31.1504 -31.0642 -31.0613 -31.0468 -30.8853 -30.8326
   -29.8823 -29.8411 -29.8154 -29.7075 -15.0513 -15.0132 -14.9398 -14.8228
   -14.7029 -14.5797 -14.5059 -14.2993 -14.1431 -14.1302 -14.0953 -14.0649
   -14.0440 -14.0160 -13.9822 -13.9535 -13.8762 -13.8589 -13.6982 -13.6844
   -13.6546 -13.6348 -13.5691 -13.5452 -13.4851 -13.4601 -13.3500 -13.3098
   -13.2634 -13.1756 -13.1353 -13.0837 -13.0527 -13.0384 -13.0140 -12.9807
   -12.9605 -12.9468 -12.8961 -12.8546 -12.8307 -12.7941 -12.7770 -12.7538
   -12.7480 -12.7389 -12.5567 -12.4863 -12.4498 -12.3103 -12.1744 -12.1277
   -11.8352 -11.8035 -11.7927 -11.7855 -11.7230 -11.6882 -11.6817 -11.6463
   -11.6384 -11.5469 -11.5057 -11.4882  -2.7035  -2.4949  -2.3772  -2.2815
    -2.1620  -2.0969  -1.8970  -1.7545  -1.7350  -1.7020  -1.6102  -1.5769
    -1.4832  -1.4556  -1.4052  -1.2744  -1.2265  -1.1519  -1.1082  -1.0625
    -1.0396  -1.0157  -0.9737  -0.9580  -0.8673  -0.8177  -0.7493  -0.7022
    -0.6740  -0.6240  -0.6116  -0.5471  -0.4958  -0.4330  -0.4048  -0.3135
    -0.2672  -0.2361  -0.1990  -0.1436  -0.0745  -0.0332  -0.0062   0.0610
     0.0999   0.3734   0.5231   0.5565   0.6143   0.6534   0.7063   0.7566
     0.8260   0.8658   1.1388   1.2044   1.2785   1.3026   1.3546   1.3826
     1.4195   1.4564   1.4731   1.5013   1.5445   1.5544   1.5706   1.6164
     1.6515   1.6918   1.7448   1.7791   1.7977   1.8215   1.8613   1.9133
     1.9374   2.0659   2.1377   2.1746   2.1994   2.2638   2.3272   2.3583
     2.3955   2.4197   2.4298   2.5437   2.5849   2.6688   2.7800   2.8409
     2.8620   2.8647   2.8827   2.8983   2.9116   2.9207   2.9273   2.9395
     2.9525   2.9676   2.9823   2.9892   3.0012   3.0258   3.0345   3.0436
     3.0748   3.3758   3.4670   3.5221   3.5792   3.5932   3.8349   3.9188
     4.2645   4.4739   4.6902   4.9409   5.1580   5.6151   5.6735   5.7511
     5.8039   5.8646   6.0971   6.1611   6.2016   6.7886   6.8825   7.0730
     7.2192   7.5296   7.5795   7.6221   7.6859   7.8440   7.9475   8.1001
     8.2078   8.2432   8.2935   8.3398   8.3747   8.4261   8.5801   8.8497

     occupation numbers 
     1.0000   1.0000   1.0000   1.0000   1.0000   1.0000   1.0000   1.0000
     1.0000   1.0000   1.0000   1.0000   1.0000   1.0000   1.0000   1.0000
     1.0000   1.0000   1.0000   1.0000   1.0000   1.0000   1.0000   1.0000
     1.0000   1.0000   1.0000   1.0000   1.0000   1.0000   1.0000   1.0000
     1.0000   1.0000   1.0000   1.0000   1.0000   1.0000   1.0000   1.0000
     1.0000   1.0000   1.0000   1.0000   1.0000   1.0000   1.0000   1.0000
     1.0000   1.0000   1.0000   1.0000   1.0000   1.0000   1.0000   1.0000
     1.0000   1.0000   1.0000   1.0000   1.0000   1.0000   1.0000   1.0000
     1.0000   1.0000   1.0000   1.0000   1.0000   1.0000   1.0000   1.0000
     1.0000   1.0000   1.0000   1.0000   1.0000   1.0000   1.0000   1.0000
     1.0000   1.0000   1.0000   1.0000   1.0000   1.0000   1.0000   1.0000
     1.0000   1.0000   1.0000   1.0000   1.0000   1.0000   1.0000   1.0000
     1.0000   1.0000   1.0000   1.0000   1.0000   1.0000   1.0000   1.0000
     1.0000   1.0000   1.0000   1.0000   1.0000   1.0000   1.0000   1.0000
     1.0000   1.0000   1.0000   1.0000   1.0000   1.0000   1.0000   1.0000
     1.0000   1.0000   1.0000   1.0000   1.0000   1.0000   1.0000   1.0000
     1.0000   1.0000   1.0000   1.0000   1.0000   1.0000   1.0000   1.0000
     1.0000   1.0000   1.0000   1.0000   1.0000   1.0000   1.0000   1.0000
     1.0000   1.0000   1.0000   1.0000   1.0000   1.0000   1.0000   1.0000
     1.0000   1.0000   1.0000   1.0000   1.0000   1.0000   0.9999   0.9999
     0.9999   0.9998   0.9993   0.9990   0.9986   0.9984   0.9980   0.9977
     0.9973   0.9968   0.9965   0.9961   0.9953   0.9951   0.9947   0.9936
     0.9926   0.9912   0.9892   0.9876   0.9867   0.9855   0.9832   0.9796
     0.9778   0.9656   0.9567   0.9514   0.9476   0.9365   0.9239   0.9171
     0.9083   0.9023   0.8996   0.8666   0.8530   0.8225   0.7763   0.7483
     0.7382   0.7369   0.7281   0.7204   0.7137   0.7091   0.7057   0.6994
     0.6927   0.6848   0.6769   0.6732   0.6668   0.6534   0.6486   0.6436
     0.6262   0.4502   0.3972   0.3660   0.3346   0.3271   0.2099   0.1758
     0.0743   0.0396   0.0189   0.0072   0.0028   0.0003   0.0002   0.0001
     0.0001   0.0001   0.0000   0.0000   0.0000   0.0000   0.0000   0.0000
     0.0000   0.0000   0.0000   0.0000   0.0000   0.0000   0.0000   0.0000
     0.0000   0.0000   0.0000   0.0000   0.0000   0.0000   0.0000   0.0000

          k = 0.2500-0.5000 0.0000 ( 65138 PWs)   bands (ev):

   -92.7360 -92.6826 -92.5908 -92.5412 -92.4849 -92.4426 -92.4252 -92.3028
   -56.0894 -56.0672 -55.9478 -55.9367 -55.9295 -55.9236 -55.8876 -55.8598
   -55.8438 -55.8421 -55.8343 -55.7923 -55.7720 -55.7360 -55.7176 -55.6849
   -55.6766 -55.6308 -55.6299 -55.6278 -55.6194 -55.5778 -55.5555 -55.4683
   -31.3092 -31.2933 -31.1506 -31.0643 -31.0588 -31.0493 -30.8847 -30.8332
   -29.8816 -29.8408 -29.8160 -29.7078 -15.0148 -14.9698 -14.9015 -14.7851
   -14.7547 -14.6341 -14.5453 -14.4146 -14.1082 -14.0561 -14.0285 -14.0070
   -13.9903 -13.9783 -13.9442 -13.9207 -13.8907 -13.8536 -13.8265 -13.7933
   -13.7007 -13.6519 -13.5869 -13.5729 -13.5059 -13.4939 -13.4050 -13.3696
   -13.2405 -13.1759 -13.1534 -13.0677 -13.0308 -13.0166 -12.9950 -12.9924
   -12.9762 -12.9457 -12.8667 -12.8473 -12.8224 -12.8058 -12.7742 -12.7612
   -12.6894 -12.6580 -12.5554 -12.4481 -12.3537 -12.3028 -12.2437 -12.2173
   -11.8107 -11.7987 -11.7880 -11.7608 -11.7291 -11.7010 -11.6592 -11.6322
   -11.6097 -11.5651 -11.5393 -11.5280  -2.4843  -2.4206  -2.2913  -2.2142
    -2.0820  -2.0004  -1.8771  -1.7265  -1.6700  -1.6492  -1.5880  -1.5751
    -1.4783  -1.4107  -1.3259  -1.2754  -1.2661  -1.2034  -1.1603  -1.1267
    -1.0784  -1.0409  -1.0069  -0.9675  -0.9557  -0.9105  -0.8815  -0.8373
    -0.8085  -0.7404  -0.6363  -0.6024  -0.5204  -0.4550  -0.4030  -0.3638
    -0.3455  -0.2862  -0.1317  -0.1234  -0.0042   0.0163   0.0256   0.0706
     0.1043   0.1368   0.1700   0.2403   0.5181   0.6107   0.6634   0.7220
     1.0031   1.0174   1.1110   1.1357   1.3019   1.3394   1.3762   1.4006
     1.4145   1.4367   1.4999   1.5513   1.5842   1.6549   1.7518   1.7838
     1.8049   1.8170   1.8499   1.8697   1.8715   1.9154   1.9281   1.9478
     1.9831   1.9960   2.0233   2.0544   2.1138   2.1574   2.2333   2.3684
     2.5195   2.5360   2.5537   2.5828   2.6050   2.6342   2.6562   2.6657
     2.6862   2.7785   2.7903   2.8492   2.8622   2.8747   2.8789   2.8990
     2.9120   2.9310   2.9419   2.9776   2.9871   2.9975   3.0048   3.0152
     3.0245   3.5363   3.5726   3.7075   3.7603   4.0860   4.1458   4.1523
     4.2929   4.7183   4.8903   5.0319   5.1159   5.2707   5.4101   5.5831
     5.6508   5.7375   5.7596   6.2236   6.3813   6.4744   6.6345   7.1250
     7.4280   7.5459   7.5963   7.6802   7.7883   7.8510   8.0131   8.2227
     8.3365   8.3696   8.4129   8.5147   8.5287   8.5613   8.6825   8.7447

     occupation numbers 
     1.0000   1.0000   1.0000   1.0000   1.0000   1.0000   1.0000   1.0000
     1.0000   1.0000   1.0000   1.0000   1.0000   1.0000   1.0000   1.0000
     1.0000   1.0000   1.0000   1.0000   1.0000   1.0000   1.0000   1.0000
     1.0000   1.0000   1.0000   1.0000   1.0000   1.0000   1.0000   1.0000
     1.0000   1.0000   1.0000   1.0000   1.0000   1.0000   1.0000   1.0000
     1.0000   1.0000   1.0000   1.0000   1.0000   1.0000   1.0000   1.0000
     1.0000   1.0000   1.0000   1.0000   1.0000   1.0000   1.0000   1.0000
     1.0000   1.0000   1.0000   1.0000   1.0000   1.0000   1.0000   1.0000
     1.0000   1.0000   1.0000   1.0000   1.0000   1.0000   1.0000   1.0000
     1.0000   1.0000   1.0000   1.0000   1.0000   1.0000   1.0000   1.0000
     1.0000   1.0000   1.0000   1.0000   1.0000   1.0000   1.0000   1.0000
     1.0000   1.0000   1.0000   1.0000   1.0000   1.0000   1.0000   1.0000
     1.0000   1.0000   1.0000   1.0000   1.0000   1.0000   1.0000   1.0000
     1.0000   1.0000   1.0000   1.0000   1.0000   1.0000   1.0000   1.0000
     1.0000   1.0000   1.0000   1.0000   1.0000   1.0000   1.0000   1.0000
     1.0000   1.0000   1.0000   1.0000   1.0000   1.0000   1.0000   1.0000
     1.0000   1.0000   1.0000   1.0000   1.0000   1.0000   1.0000   1.0000
     1.0000   1.0000   1.0000   1.0000   1.0000   1.0000   1.0000   1.0000
     1.0000   1.0000   1.0000   1.0000   1.0000   1.0000   1.0000   1.0000
     1.0000   1.0000   1.0000   1.0000   1.0000   1.0000   1.0000   0.9999
     0.9997   0.9996   0.9994   0.9993   0.9984   0.9981   0.9978   0.9975
     0.9973   0.9971   0.9961   0.9951   0.9944   0.9925   0.9889   0.9874
     0.9864   0.9857   0.9839   0.9826   0.9825   0.9795   0.9785   0.9770
     0.9740   0.9728   0.9702   0.9669   0.9598   0.9539   0.9419   0.9148
     0.8742   0.8690   0.8634   0.8537   0.8460   0.8355   0.8273   0.8236
     0.8156   0.7769   0.7717   0.7443   0.7381   0.7320   0.7300   0.7200
     0.7135   0.7038   0.6982   0.6795   0.6744   0.6688   0.6648   0.6592
     0.6542   0.3581   0.3382   0.2684   0.2432   0.1191   0.1023   0.1006
     0.0685   0.0171   0.0088   0.0049   0.0034   0.0016   0.0008   0.0003
     0.0002   0.0001   0.0001   0.0000   0.0000   0.0000   0.0000   0.0000
     0.0000   0.0000   0.0000   0.0000   0.0000   0.0000   0.0000   0.0000
     0.0000   0.0000   0.0000   0.0000   0.0000   0.0000   0.0000   0.0000

          k =-0.5000-0.5000 0.0000 ( 65132 PWs)   bands (ev):

   -92.7360 -92.6826 -92.5908 -92.5412 -92.4849 -92.4426 -92.4252 -92.3028
   -56.0894 -56.0672 -55.9478 -55.9367 -55.9295 -55.9235 -55.8876 -55.8598
   -55.8438 -55.8421 -55.8343 -55.7923 -55.7720 -55.7360 -55.7176 -55.6849
   -55.6766 -55.6308 -55.6299 -55.6278 -55.6194 -55.5778 -55.5555 -55.4683
   -31.3071 -31.2954 -31.1502 -31.0647 -31.0587 -31.0491 -30.8848 -30.8333
   -29.8806 -29.8418 -29.8156 -29.7082 -14.9684 -14.9426 -14.8252 -14.8131
   -14.7185 -14.6823 -14.6474 -14.5148 -14.0196 -14.0073 -13.9732 -13.9546
   -13.9377 -13.9188 -13.8943 -13.8852 -13.8712 -13.8588 -13.8425 -13.7683
   -13.7612 -13.7291 -13.6970 -13.6758 -13.5918 -13.5591 -13.4485 -13.4182
   -13.1911 -13.1507 -13.0843 -13.0595 -13.0276 -13.0184 -13.0093 -12.9932
   -12.9784 -12.9578 -12.8630 -12.8385 -12.8229 -12.8200 -12.7884 -12.7800
   -12.6393 -12.6314 -12.5717 -12.4307 -12.3500 -12.2789 -12.2334 -12.2193
   -11.8074 -11.7950 -11.7770 -11.7604 -11.7253 -11.7075 -11.6733 -11.6127
   -11.5922 -11.5873 -11.5370 -11.5338  -2.2587  -2.1846  -2.1772  -2.1041
    -2.0649  -1.9867  -1.9189  -1.7921  -1.6765  -1.6472  -1.6037  -1.5509
    -1.4783  -1.4645  -1.3933  -1.3509  -1.2332  -1.2032  -1.1552  -1.1275
    -1.0631  -1.0168  -0.9987  -0.9864  -0.9311  -0.8878  -0.8701  -0.7594
    -0.7022  -0.6565  -0.6066  -0.5780  -0.5617  -0.5311  -0.4922  -0.4510
    -0.4444  -0.3583  -0.2912  -0.2458  -0.2206  -0.1463  -0.0879  -0.0828
    -0.0207   0.0113   0.0193   0.0329   0.4914   0.5292   0.6108   0.6286
     1.0285   1.0414   1.0785   1.1172   1.3880   1.4060   1.4128   1.4570
     1.5817   1.6767   1.7037   1.7395   1.7624   1.7796   1.7904   1.8227
     1.8326   1.8453   1.8565   1.9106   1.9147   1.9411   1.9503   1.9727
     1.9871   2.0263   2.0528   2.0666   2.0977   2.1287   2.1967   2.2640
     2.5330   2.5610   2.5765   2.6025   2.6103   2.6360   2.6451   2.6643
     2.6735   2.6927   2.7140   2.7257   2.7809   2.7916   2.7995   2.8159
     2.8297   2.8516   2.8673   2.8700   2.8944   2.9841   2.9919   3.0088
     3.0223   3.9632   4.0054   4.0148   4.0477   4.2833   4.3569   4.3835
     4.6236   4.7459   4.8287   4.9582   5.0464   5.0547   5.1745   5.2662
     5.4373   5.8408   5.8778   5.9324   6.0289   6.4978   6.5639   6.6221
     7.5653   7.8797   7.8978   7.9262   7.9401   7.9521   7.9978   8.0617
     8.2440   8.3404   8.5446   8.5595   8.5915   8.5943   8.6306   8.6588

     occupation numbers 
     1.0000   1.0000   1.0000   1.0000   1.0000   1.0000   1.0000   1.0000
     1.0000   1.0000   1.0000   1.0000   1.0000   1.0000   1.0000   1.0000
     1.0000   1.0000   1.0000   1.0000   1.0000   1.0000   1.0000   1.0000
     1.0000   1.0000   1.0000   1.0000   1.0000   1.0000   1.0000   1.0000
     1.0000   1.0000   1.0000   1.0000   1.0000   1.0000   1.0000   1.0000
     1.0000   1.0000   1.0000   1.0000   1.0000   1.0000   1.0000   1.0000
     1.0000   1.0000   1.0000   1.0000   1.0000   1.0000   1.0000   1.0000
     1.0000   1.0000   1.0000   1.0000   1.0000   1.0000   1.0000   1.0000
     1.0000   1.0000   1.0000   1.0000   1.0000   1.0000   1.0000   1.0000
     1.0000   1.0000   1.0000   1.0000   1.0000   1.0000   1.0000   1.0000
     1.0000   1.0000   1.0000   1.0000   1.0000   1.0000   1.0000   1.0000
     1.0000   1.0000   1.0000   1.0000   1.0000   1.0000   1.0000   1.0000
     1.0000   1.0000   1.0000   1.0000   1.0000   1.0000   1.0000   1.0000
     1.0000   1.0000   1.0000   1.0000   1.0000   1.0000   1.0000   1.0000
     1.0000   1.0000   1.0000   1.0000   1.0000   1.0000   1.0000   1.0000
     1.0000   1.0000   1.0000   1.0000   1.0000   1.0000   1.0000   1.0000
     1.0000   1.0000   1.0000   1.0000   1.0000   1.0000   1.0000   1.0000
     1.0000   1.0000   1.0000   1.0000   1.0000   1.0000   1.0000   1.0000
     1.0000   1.0000   1.0000   1.0000   1.0000   1.0000   1.0000   1.0000
     1.0000   1.0000   1.0000   1.0000   1.0000   1.0000   1.0000   1.0000
     0.9996   0.9996   0.9995   0.9994   0.9976   0.9974   0.9974   0.9968
     0.9944   0.9918   0.9908   0.9894   0.9884   0.9876   0.9871   0.9854
     0.9849   0.9841   0.9834   0.9798   0.9795   0.9775   0.9768   0.9749
     0.9736   0.9699   0.9671   0.9655   0.9619   0.9579   0.9480   0.9365
     0.8700   0.8610   0.8558   0.8469   0.8441   0.8348   0.8314   0.8242
     0.8206   0.8131   0.8044   0.7996   0.7759   0.7711   0.7675   0.7600
     0.7536   0.7432   0.7356   0.7343   0.7223   0.6760   0.6718   0.6627
     0.6553   0.1593   0.1446   0.1414   0.1308   0.0704   0.0568   0.0525
     0.0240   0.0154   0.0112   0.0067   0.0046   0.0044   0.0026   0.0017
     0.0007   0.0001   0.0001   0.0000   0.0000   0.0000   0.0000   0.0000
     0.0000   0.0000   0.0000   0.0000   0.0000   0.0000   0.0000   0.0000
     0.0000   0.0000   0.0000   0.0000   0.0000   0.0000   0.0000   0.0000

          k = 0.2500 0.0000 0.0000 ( 65257 PWs)   bands (ev):

   -92.7360 -92.6826 -92.5908 -92.5412 -92.4849 -92.4426 -92.4252 -92.3028
   -56.0894 -56.0672 -55.9478 -55.9368 -55.9295 -55.9236 -55.8876 -55.8598
   -55.8438 -55.8421 -55.8343 -55.7923 -55.7720 -55.7360 -55.7176 -55.6849
   -55.6766 -55.6308 -55.6299 -55.6278 -55.6194 -55.5778 -55.5555 -55.4683
   -31.3096 -31.2935 -31.1502 -31.0640 -31.0631 -31.0450 -30.8859 -30.8320
   -29.8829 -29.8414 -29.8147 -29.7072 -15.0836 -15.0440 -14.9728 -14.8264
   -14.7194 -14.5275 -14.3909 -14.2111 -14.1944 -14.1643 -14.1323 -14.1081
   -14.0775 -14.0589 -14.0358 -13.9973 -13.8765 -13.8447 -13.6942 -13.6292
   -13.6122 -13.5461 -13.5268 -13.5151 -13.4615 -13.3802 -13.3462 -13.2737
   -13.2086 -13.1914 -13.0983 -13.0924 -13.0772 -13.0603 -13.0439 -13.0076
   -12.9706 -12.9498 -12.9063 -12.8908 -12.8539 -12.8165 -12.8040 -12.7679
   -12.7188 -12.7079 -12.6596 -12.5789 -12.4399 -12.2823 -12.1403 -12.0777
   -11.8623 -11.8102 -11.7930 -11.7798 -11.7530 -11.7025 -11.6793 -11.6712
   -11.6206 -11.5318 -11.4757 -11.4697  -2.8413  -2.6198  -2.4897  -2.3167
    -2.2530  -2.0834  -1.8730  -1.7991  -1.7544  -1.7160  -1.6186  -1.6049
    -1.5692  -1.5505  -1.4816  -1.3018  -1.1910  -1.1524  -1.0564  -1.0427
    -0.9648  -0.9383  -0.8870  -0.8468  -0.7945  -0.7626  -0.7149  -0.6900
    -0.6719  -0.6167  -0.6039  -0.5112  -0.5011  -0.4312  -0.3342  -0.2742
    -0.1719  -0.1530  -0.0899  -0.0566   0.0055   0.0243   0.0714   0.1308
     0.1778   0.4620   0.5921   0.6278   0.7087   0.7306   0.7679   0.7840
[...]
     0.7444   0.7311   0.7154   0.7138   0.7037   0.6988   0.6912   0.6794
     0.6775   0.6631   0.6573   0.6536   0.6468   0.6345   0.6219   0.6193
     0.6152   0.6096   0.6054   0.5996   0.5282   0.3575   0.3176   0.2032
     0.0797   0.0463   0.0217   0.0055   0.0047   0.0003   0.0001   0.0000
     0.0000   0.0000   0.0000   0.0000   0.0000   0.0000   0.0000   0.0000
     0.0000   0.0000   0.0000   0.0000   0.0000   0.0000   0.0000   0.0000
     0.0000   0.0000   0.0000   0.0000   0.0000   0.0000   0.0000   0.0000

          k =-0.5000 0.0000 0.0000 ( 65180 PWs)   bands (ev):

   -92.7360 -92.6826 -92.5908 -92.5412 -92.4849 -92.4426 -92.4252 -92.3028
   -56.0894 -56.0672 -55.9478 -55.9367 -55.9295 -55.9236 -55.8876 -55.8598
   -55.8438 -55.8421 -55.8343 -55.7923 -55.7720 -55.7360 -55.7176 -55.6849
   -55.6766 -55.6308 -55.6299 -55.6278 -55.6194 -55.5778 -55.5555 -55.4683
   -31.3075 -31.2957 -31.1498 -31.0644 -31.0630 -31.0448 -30.8861 -30.8321
   -29.8818 -29.8425 -29.8143 -29.7076 -15.0504 -14.9987 -14.9375 -14.8279
   -14.7248 -14.5802 -14.4372 -14.2906 -14.1670 -14.1558 -14.1430 -14.0829
   -14.0271 -13.9954 -13.9448 -13.9350 -13.9219 -13.8720 -13.8536 -13.7574
   -13.5900 -13.5512 -13.5284 -13.5210 -13.4607 -13.3986 -13.3603 -13.3016
   -13.2779 -13.2760 -13.0881 -13.0821 -13.0756 -13.0507 -13.0429 -12.9978
   -12.9797 -12.9595 -12.9065 -12.8905 -12.7999 -12.7721 -12.7170 -12.7065
   -12.6744 -12.6651 -12.5748 -12.5049 -12.3692 -12.3599 -12.2389 -12.1987
   -11.8142 -11.7928 -11.7860 -11.7714 -11.7532 -11.7119 -11.6493 -11.6316
   -11.5989 -11.5543 -11.5451 -11.5293  -2.6171  -2.5785  -2.4150  -2.3759
    -2.0618  -1.9846  -1.8395  -1.7215  -1.6810  -1.6343  -1.5881  -1.5637
    -1.4408  -1.3963  -1.3804  -1.2982  -1.2631  -1.2472  -1.2161  -1.1575
    -1.0895  -1.0608  -1.0300  -0.9373  -0.8898  -0.8400  -0.8080  -0.7873
    -0.7540  -0.7079  -0.6839  -0.6462  -0.5405  -0.4790  -0.4013  -0.3429
    -0.1917  -0.1463  -0.0923  -0.0481  -0.0007   0.0214   0.1549   0.1900
     0.2293   0.4046   0.5040   0.5507   0.6362   0.6921   0.8206   0.8319
     0.9658   0.9950   1.0499   1.0817   1.1159   1.1256   1.1737   1.1964
     1.2641   1.3115   1.3578   1.3707   1.6631   1.6713   1.6861   1.7160
     1.8197   1.8336   1.8404   1.8505   1.8851   1.8965   1.9304   1.9593
     1.9777   2.0421   2.0517   2.1076   2.1244   2.1858   2.2926   2.3872
     2.4658   2.4802   2.5624   2.5913   2.6075   2.6772   2.6965   2.7027
     2.7349   2.7937   2.8040   2.8543   2.8998   2.9186   2.9657   2.9702
     2.9754   2.9821   2.9979   3.0104   3.0223   3.0324   3.0497   3.0515
     3.0745   3.0939   3.0988   3.2259   3.2375   4.0274   4.0991   4.1609
     4.2729   4.7576   4.8287   5.0149   5.0392   5.4683   5.4839   5.5863
     5.6192   5.9987   6.0164   6.1037   6.7626   6.7782   6.9913   7.2595
     7.2921   7.3613   7.4243   7.5694   7.6002   7.7476   7.8575   7.8823
     8.1217   8.2017   8.3279   8.4852   8.6014   8.7271   8.7394   8.8338

     occupation numbers 
     1.0000   1.0000   1.0000   1.0000   1.0000   1.0000   1.0000   1.0000
     1.0000   1.0000   1.0000   1.0000   1.0000   1.0000   1.0000   1.0000
     1.0000   1.0000   1.0000   1.0000   1.0000   1.0000   1.0000   1.0000
     1.0000   1.0000   1.0000   1.0000   1.0000   1.0000   1.0000   1.0000
     1.0000   1.0000   1.0000   1.0000   1.0000   1.0000   1.0000   1.0000
     1.0000   1.0000   1.0000   1.0000   1.0000   1.0000   1.0000   1.0000
     1.0000   1.0000   1.0000   1.0000   1.0000   1.0000   1.0000   1.0000
     1.0000   1.0000   1.0000   1.0000   1.0000   1.0000   1.0000   1.0000
     1.0000   1.0000   1.0000   1.0000   1.0000   1.0000   1.0000   1.0000
     1.0000   1.0000   1.0000   1.0000   1.0000   1.0000   1.0000   1.0000
     1.0000   1.0000   1.0000   1.0000   1.0000   1.0000   1.0000   1.0000
     1.0000   1.0000   1.0000   1.0000   1.0000   1.0000   1.0000   1.0000
     1.0000   1.0000   1.0000   1.0000   1.0000   1.0000   1.0000   1.0000
     1.0000   1.0000   1.0000   1.0000   1.0000   1.0000   1.0000   1.0000
     1.0000   1.0000   1.0000   1.0000   1.0000   1.0000   1.0000   1.0000
     1.0000   1.0000   1.0000   1.0000   1.0000   1.0000   1.0000   1.0000
     1.0000   1.0000   1.0000   1.0000   1.0000   1.0000   1.0000   1.0000
     1.0000   1.0000   1.0000   1.0000   1.0000   1.0000   1.0000   1.0000
     1.0000   1.0000   1.0000   1.0000   1.0000   1.0000   1.0000   1.0000
     1.0000   1.0000   1.0000   1.0000   1.0000   0.9999   0.9999   0.9999
     0.9997   0.9997   0.9996   0.9995   0.9994   0.9994   0.9992   0.9991
     0.9987   0.9984   0.9980   0.9978   0.9922   0.9919   0.9914   0.9903
     0.9856   0.9848   0.9844   0.9838   0.9816   0.9808   0.9784   0.9761
     0.9745   0.9682   0.9672   0.9606   0.9585   0.9497   0.9310   0.9103
     0.8899   0.8859   0.8605   0.8508   0.8451   0.8192   0.8115   0.8090
     0.7958   0.7701   0.7655   0.7419   0.7196   0.7101   0.6858   0.6834
     0.6806   0.6771   0.6686   0.6618   0.6553   0.6498   0.6402   0.6392
     0.6264   0.6154   0.6127   0.5388   0.5320   0.1373   0.1152   0.0984
     0.0725   0.0147   0.0112   0.0052   0.0047   0.0006   0.0006   0.0003
     0.0003   0.0000   0.0000   0.0000   0.0000   0.0000   0.0000   0.0000
     0.0000   0.0000   0.0000   0.0000   0.0000   0.0000   0.0000   0.0000
     0.0000   0.0000   0.0000   0.0000   0.0000   0.0000   0.0000   0.0000

          k =-0.2500 0.2500 0.0000 ( 65198 PWs)   bands (ev):

   -92.7360 -92.6826 -92.5908 -92.5412 -92.4849 -92.4426 -92.4252 -92.3028
   -56.0894 -56.0672 -55.9478 -55.9367 -55.9295 -55.9236 -55.8876 -55.8598
   -55.8438 -55.8421 -55.8343 -55.7923 -55.7720 -55.7360 -55.7176 -55.6849
   -55.6766 -55.6308 -55.6299 -55.6278 -55.6194 -55.5778 -55.5555 -55.4683
   -31.3094 -31.2934 -31.1504 -31.0642 -31.0613 -31.0468 -30.8853 -30.8326
   -29.8823 -29.8411 -29.8154 -29.7075 -15.0527 -15.0121 -14.9382 -14.8213
   -14.7089 -14.5846 -14.4978 -14.2901 -14.1503 -14.1210 -14.1072 -14.0613
   -14.0363 -14.0179 -13.9969 -13.9567 -13.8722 -13.8593 -13.7067 -13.6807
   -13.6508 -13.6311 -13.5742 -13.5322 -13.4763 -13.4683 -13.3553 -13.3125
   -13.2572 -13.1798 -13.1367 -13.0736 -13.0441 -13.0386 -13.0196 -12.9847
   -12.9613 -12.9454 -12.9073 -12.8553 -12.8310 -12.8049 -12.7895 -12.7553
   -12.7373 -12.7252 -12.5446 -12.4760 -12.4626 -12.3160 -12.1771 -12.1241
   -11.8344 -11.8128 -11.7859 -11.7735 -11.7325 -11.6980 -11.6748 -11.6534
   -11.6308 -11.5467 -11.5010 -11.4916  -2.7018  -2.4939  -2.3731  -2.2831
    -2.1663  -2.0996  -1.8945  -1.7515  -1.7325  -1.7000  -1.6108  -1.5758
    -1.4832  -1.4487  -1.4226  -1.2804  -1.2245  -1.1547  -1.1276  -1.0661
    -1.0461  -1.0056  -0.9769  -0.9368  -0.8736  -0.8265  -0.7593  -0.6945
    -0.6703  -0.6190  -0.5904  -0.5451  -0.4852  -0.4358  -0.3998  -0.2957
    -0.2681  -0.2540  -0.2098  -0.1469  -0.0769  -0.0340   0.0030   0.0647
     0.0981   0.3538   0.5267   0.5647   0.6039   0.6597   0.7054   0.7604
     0.8323   0.8635   1.1463   1.2555   1.2944   1.3296   1.3355   1.3760
     1.3924   1.4381   1.4694   1.4827   1.5093   1.5549   1.5694   1.6109
     1.6328   1.6762   1.7550   1.7735   1.7960   1.8243   1.8597   1.8960
     1.9429   2.0554   2.1683   2.1968   2.2440   2.2626   2.3250   2.3701
     2.3977   2.4199   2.4417   2.5444   2.5830   2.6711   2.7780   2.8499
     2.8584   2.8701   2.8804   2.8909   2.9050   2.9152   2.9302   2.9416
     2.9524   2.9644   2.9744   2.9846   2.9921   3.0258   3.0352   3.0428
     3.0767   3.3691   3.4496   3.5232   3.5832   3.6027   3.8198   3.9270
     4.2639   4.4711   4.6920   4.9502   5.1582   5.6162   5.6713   5.7557
     5.8009   5.8654   6.1074   6.1520   6.2013   6.7657   6.8817   7.0773
     7.2442   7.5429   7.5871   7.6406   7.6479   7.8597   7.9296   8.1098
     8.1858   8.2372   8.2853   8.3250   8.3971   8.4299   8.5768   8.8603

     occupation numbers 
     1.0000   1.0000   1.0000   1.0000   1.0000   1.0000   1.0000   1.0000
     1.0000   1.0000   1.0000   1.0000   1.0000   1.0000   1.0000   1.0000
     1.0000   1.0000   1.0000   1.0000   1.0000   1.0000   1.0000   1.0000
     1.0000   1.0000   1.0000   1.0000   1.0000   1.0000   1.0000   1.0000
     1.0000   1.0000   1.0000   1.0000   1.0000   1.0000   1.0000   1.0000
     1.0000   1.0000   1.0000   1.0000   1.0000   1.0000   1.0000   1.0000
     1.0000   1.0000   1.0000   1.0000   1.0000   1.0000   1.0000   1.0000
     1.0000   1.0000   1.0000   1.0000   1.0000   1.0000   1.0000   1.0000
     1.0000   1.0000   1.0000   1.0000   1.0000   1.0000   1.0000   1.0000
     1.0000   1.0000   1.0000   1.0000   1.0000   1.0000   1.0000   1.0000
     1.0000   1.0000   1.0000   1.0000   1.0000   1.0000   1.0000   1.0000
     1.0000   1.0000   1.0000   1.0000   1.0000   1.0000   1.0000   1.0000
     1.0000   1.0000   1.0000   1.0000   1.0000   1.0000   1.0000   1.0000
     1.0000   1.0000   1.0000   1.0000   1.0000   1.0000   1.0000   1.0000
     1.0000   1.0000   1.0000   1.0000   1.0000   1.0000   1.0000   1.0000
     1.0000   1.0000   1.0000   1.0000   1.0000   1.0000   1.0000   1.0000
     1.0000   1.0000   1.0000   1.0000   1.0000   1.0000   1.0000   1.0000
     1.0000   1.0000   1.0000   1.0000   1.0000   1.0000   1.0000   1.0000
     1.0000   1.0000   1.0000   1.0000   1.0000   1.0000   1.0000   1.0000
     1.0000   1.0000   1.0000   1.0000   1.0000   1.0000   0.9999   0.9999
     0.9999   0.9998   0.9993   0.9988   0.9985   0.9982   0.9982   0.9978
     0.9976   0.9970   0.9966   0.9964   0.9959   0.9950   0.9947   0.9937
     0.9931   0.9918   0.9887   0.9879   0.9868   0.9853   0.9833   0.9809
     0.9774   0.9668   0.9523   0.9480   0.9401   0.9367   0.9244   0.9144
     0.9078   0.9022   0.8965   0.8664   0.8536   0.8216   0.7771   0.7440
     0.7400   0.7343   0.7292   0.7240   0.7170   0.7119   0.7042   0.6983
     0.6927   0.6864   0.6812   0.6757   0.6717   0.6534   0.6483   0.6441
     0.6251   0.4541   0.4072   0.3654   0.3325   0.3220   0.2164   0.1727
     0.0744   0.0399   0.0188   0.0069   0.0028   0.0003   0.0002   0.0001
     0.0001   0.0001   0.0000   0.0000   0.0000   0.0000   0.0000   0.0000
     0.0000   0.0000   0.0000   0.0000   0.0000   0.0000   0.0000   0.0000
     0.0000   0.0000   0.0000   0.0000   0.0000   0.0000   0.0000   0.0000

          k =-0.5000 0.2500 0.0000 ( 65138 PWs)   bands (ev):

   -92.7360 -92.6826 -92.5908 -92.5412 -92.4849 -92.4426 -92.4252 -92.3028
   -56.0894 -56.0672 -55.9478 -55.9367 -55.9295 -55.9236 -55.8876 -55.8598
   -55.8438 -55.8421 -55.8343 -55.7923 -55.7720 -55.7360 -55.7176 -55.6849
   -55.6766 -55.6308 -55.6299 -55.6278 -55.6194 -55.5778 -55.5555 -55.4683
   -31.3073 -31.2956 -31.1500 -31.0646 -31.0611 -31.0466 -30.8855 -30.8327
   -29.8812 -29.8421 -29.8150 -29.7079 -15.0176 -14.9723 -14.8946 -14.7941
   -14.7534 -14.6272 -14.5404 -14.4085 -14.1009 -14.0700 -14.0584 -14.0144
   -13.9916 -13.9679 -13.9308 -13.9194 -13.9013 -13.8598 -13.8499 -13.7474
   -13.6724 -13.6230 -13.6167 -13.5965 -13.5118 -13.5021 -13.4013 -13.3525
   -13.2338 -13.1979 -13.1012 -13.0609 -13.0496 -13.0326 -13.0198 -12.9880
   -12.9732 -12.9481 -12.9285 -12.8522 -12.8087 -12.7985 -12.7480 -12.7414
   -12.6564 -12.6486 -12.5730 -12.4643 -12.3554 -12.3268 -12.2333 -12.2073
   -11.8071 -11.7944 -11.7801 -11.7682 -11.7469 -11.7166 -11.6362 -11.6279
   -11.6043 -11.5688 -11.5407 -11.5317  -2.4745  -2.4326  -2.2847  -2.2427
    -2.0816  -2.0034  -1.8637  -1.7275  -1.6688  -1.6424  -1.6041  -1.5665
    -1.4858  -1.3704  -1.3133  -1.2902  -1.2634  -1.1870  -1.1591  -1.1205
    -1.1034  -1.0426  -1.0121  -0.9741  -0.9394  -0.9105  -0.8521  -0.8256
    -0.7845  -0.7481  -0.6432  -0.6193  -0.5231  -0.4706  -0.4348  -0.3734
    -0.2968  -0.2645  -0.1606  -0.1274  -0.0638  -0.0201   0.0210   0.0831
     0.1099   0.1421   0.1964   0.2344   0.5544   0.6057   0.6609   0.6779
     0.9770   1.0400   1.1126   1.1413   1.3157   1.3505   1.3882   1.4006
     1.4183   1.4357   1.5057   1.5514   1.5899   1.6245   1.7316   1.7789
     1.8077   1.8175   1.8467   1.8807   1.8958   1.9048   1.9257   1.9513
     1.9919   2.0153   2.0475   2.0725   2.1017   2.1629   2.2826   2.3814
     2.4115   2.4786   2.5175   2.5788   2.6070   2.6219   2.6609   2.6934
     2.7157   2.7855   2.8021   2.8559   2.8580   2.8650   2.8871   2.9061
     2.9179   2.9358   2.9466   2.9699   2.9826   2.9922   3.0022   3.0079
     3.0202   3.5568   3.5828   3.7416   3.7593   4.0340   4.1080   4.1734
     4.3623   4.7521   4.8462   5.0174   5.0512   5.3807   5.3998   5.5611
     5.6306   5.7150   5.7750   6.2134   6.3737   6.4831   6.6599   7.0970
     7.4447   7.5413   7.6377   7.6923   7.7730   7.8631   7.9964   8.1567
     8.3301   8.4095   8.4332   8.5003   8.5492   8.5743   8.6401   8.7259

     occupation numbers 
     1.0000   1.0000   1.0000   1.0000   1.0000   1.0000   1.0000   1.0000
     1.0000   1.0000   1.0000   1.0000   1.0000   1.0000   1.0000   1.0000
     1.0000   1.0000   1.0000   1.0000   1.0000   1.0000   1.0000   1.0000
     1.0000   1.0000   1.0000   1.0000   1.0000   1.0000   1.0000   1.0000
     1.0000   1.0000   1.0000   1.0000   1.0000   1.0000   1.0000   1.0000
     1.0000   1.0000   1.0000   1.0000   1.0000   1.0000   1.0000   1.0000
     1.0000   1.0000   1.0000   1.0000   1.0000   1.0000   1.0000   1.0000
     1.0000   1.0000   1.0000   1.0000   1.0000   1.0000   1.0000   1.0000
     1.0000   1.0000   1.0000   1.0000   1.0000   1.0000   1.0000   1.0000
     1.0000   1.0000   1.0000   1.0000   1.0000   1.0000   1.0000   1.0000
     1.0000   1.0000   1.0000   1.0000   1.0000   1.0000   1.0000   1.0000
     1.0000   1.0000   1.0000   1.0000   1.0000   1.0000   1.0000   1.0000
     1.0000   1.0000   1.0000   1.0000   1.0000   1.0000   1.0000   1.0000
     1.0000   1.0000   1.0000   1.0000   1.0000   1.0000   1.0000   1.0000
     1.0000   1.0000   1.0000   1.0000   1.0000   1.0000   1.0000   1.0000
     1.0000   1.0000   1.0000   1.0000   1.0000   1.0000   1.0000   1.0000
     1.0000   1.0000   1.0000   1.0000   1.0000   1.0000   1.0000   1.0000
     1.0000   1.0000   1.0000   1.0000   1.0000   1.0000   1.0000   1.0000
     1.0000   1.0000   1.0000   1.0000   1.0000   1.0000   1.0000   1.0000
     1.0000   1.0000   1.0000   1.0000   1.0000   1.0000   1.0000   0.9999
     0.9997   0.9996   0.9994   0.9993   0.9983   0.9980   0.9976   0.9975
     0.9973   0.9971   0.9960   0.9951   0.9942   0.9933   0.9897   0.9877
     0.9862   0.9857   0.9840   0.9819   0.9809   0.9803   0.9787   0.9767
     0.9732   0.9710   0.9676   0.9649   0.9614   0.9531   0.9329   0.9117
     0.9044   0.8863   0.8748   0.8550   0.8453   0.8400   0.8255   0.8128
     0.8038   0.7738   0.7663   0.7411   0.7401   0.7367   0.7259   0.7165
     0.7105   0.7013   0.6958   0.6835   0.6768   0.6717   0.6663   0.6632
     0.6565   0.3468   0.3327   0.2520   0.2437   0.1351   0.1127   0.0952
     0.0559   0.0151   0.0105   0.0052   0.0045   0.0010   0.0009   0.0004
     0.0003   0.0002   0.0001   0.0000   0.0000   0.0000   0.0000   0.0000
     0.0000   0.0000   0.0000   0.0000   0.0000   0.0000   0.0000   0.0000
     0.0000   0.0000   0.0000   0.0000   0.0000   0.0000   0.0000   0.0000

     the Fermi energy is     3.2915 ev

!    total energy              =   -4399.91755635 Ry
     estimated scf accuracy    <          4.3E-09 Ry
     smearing contrib. (-TS)   =      -1.14676194 Ry
     internal energy E=F+TS    =   -4398.77079441 Ry

     The total energy is F=E-TS. E is the sum of the following terms:
     one-electron contribution =  -21252.12818301 Ry
     hartree contribution      =   10753.65125522 Ry
     xc contribution           =    -686.72500933 Ry
     ewald contribution        =    7053.07633971 Ry
     one-center paw contrib.   =    -266.64519699 Ry
      -> PAW hartree energy AE =      25.16849613 Ry
      -> PAW hartree energy PS =     -25.05233604 Ry
      -> PAW xc energy AE      =     -16.51828618 Ry
      -> PAW xc energy PS      =       6.87778901 Ry
      -> total E_H with PAW    =   10753.76741531 Ry
      -> total E_XC with PAW   =    -696.36550649 Ry

     convergence has been achieved in  47 iterations

     Writing all to output data dir /bsuhome/zayahcortright/scratch/pwscf.save/
 
     init_run     :      7.57s CPU      7.94s WALL (       1 calls)
     electrons    :    678.80s CPU    690.92s WALL (       1 calls)

     Called by init_run:
     wfcinit      :      5.93s CPU      6.05s WALL (       1 calls)
     wfcinit:atom :      0.05s CPU      0.06s WALL (       5 calls)
     wfcinit:wfcr :      5.60s CPU      5.66s WALL (       5 calls)
     potinit      :      0.22s CPU      0.24s WALL (       1 calls)
     hinit0       :      0.54s CPU      0.70s WALL (       1 calls)

     Called by electrons:
     c_bands      :    538.92s CPU    543.66s WALL (      47 calls)
     sum_band     :    104.82s CPU    108.98s WALL (      47 calls)
     v_of_rho     :      5.18s CPU      5.50s WALL (      48 calls)
     v_h          :      0.44s CPU      0.45s WALL (      48 calls)
     v_xc         :      4.74s CPU      5.05s WALL (      48 calls)
     newd         :     15.94s CPU     18.47s WALL (      48 calls)
     PAW_pot      :      1.51s CPU      1.53s WALL (      48 calls)
     mix_rho      :     12.14s CPU     12.40s WALL (      47 calls)

     Called by c_bands:
     init_us_2    :      6.63s CPU      6.69s WALL (     475 calls)
     init_us_2:cp :      6.62s CPU      6.69s WALL (     475 calls)
     cegterg      :    508.16s CPU    512.70s WALL (     235 calls)

     Called by sum_band:
     sum_band:wei :      0.32s CPU      0.33s WALL (      47 calls)
     sum_band:loo :     85.83s CPU     86.46s WALL (      47 calls)
     sum_band:buf :      1.46s CPU      1.48s WALL (     235 calls)
     sum_band:ini :      3.03s CPU      3.04s WALL (     235 calls)
     sum_band:cal :     17.68s CPU     17.73s WALL (     235 calls)
     sum_band:bec :      0.54s CPU      0.54s WALL (     235 calls)
     addusdens    :     17.49s CPU     20.99s WALL (      47 calls)
                                        0.00s GPU  (      47 calls)
     addusd:skk   :      0.34s CPU      0.65s WALL (     188 calls)
                                        0.00s GPU  (     188 calls)

     Called by *egterg:
     cdiaghg      :     57.13s CPU     57.35s WALL (    1349 calls)
     cegterg:over :     36.36s CPU     36.49s WALL (    1114 calls)
     cegterg:upda :     27.14s CPU     27.46s WALL (    1114 calls)
     cegterg:last :     56.12s CPU     56.28s WALL (     431 calls)
     cdiaghg:chol :      3.23s CPU      3.25s WALL (    1349 calls)
     cdiaghg:inve :      3.51s CPU      3.53s WALL (    1349 calls)
     cdiaghg:para :      7.22s CPU      7.26s WALL (    2698 calls)
     h_psi        :    279.20s CPU    281.88s WALL (    1354 calls)
     s_psi        :     37.67s CPU     37.77s WALL (    1354 calls)
     g_psi        :      1.11s CPU      1.12s WALL (    1114 calls)

     Called by h_psi:
     h_psi:calbec :     41.52s CPU     41.69s WALL (    1354 calls)
     vloc_psi     :    196.93s CPU    198.92s WALL (    1354 calls)
     add_vuspsi   :     37.68s CPU     37.80s WALL (    1354 calls)

     General routines
     calbec       :     59.19s CPU     59.42s WALL (    1589 calls)
     fft          :      3.49s CPU      3.55s WALL (     622 calls)
     ffts         :      4.44s CPU      4.47s WALL (    5009 calls)
     fftw         :    165.60s CPU    167.05s WALL (  314814 calls)
     interpolate  :      0.39s CPU      0.40s WALL (      48 calls)
 
     Parallel routines

     PAW routines
     PAW_pot      :      1.51s CPU      1.53s WALL (      48 calls)
 
     PWSCF        :  11m27.96s CPU  11m43.53s WALL

 
   This run was terminated on:   0:17:18  22Jun2024            

=------------------------------------------------------------------------------=
   JOB DONE.
=------------------------------------------------------------------------------=
