
     Program PWSCF v.7.2 starts on 20Jun2024 at 19:10:30 

     This program is part of the open-source Quantum ESPRESSO suite
     for quantum simulation of materials; please cite
         "P. Giannozzi et al., J. Phys.:Condens. Matter 21 395502 (2009);
         "P. Giannozzi et al., J. Phys.:Condens. Matter 29 465901 (2017);
         "P. Giannozzi et al., J. Chem. Phys. 152 154105 (2020);
          URL http://www.quantum-espresso.org", 
     in publications or presentations arising from this work. More details at
     http://www.quantum-espresso.org/quote

     Parallel version (MPI & OpenMP), running on      48 processor cores
     Number of MPI processes:                48
     Threads/MPI process:                     1

     MPI processes distributed on     1 nodes
     41850 MiB available memory on the printing compute node when the environment starts
 
     Reading input from espresso.pwi
Warning: card &CELL ignored
Warning: card / ignored
Warning: card &FCP ignored
Warning: card / ignored
Warning: card &RISM ignored
Warning: card / ignored

     Current dimensions of program PWSCF are:
     Max number of different atomic species (ntypx) = 10
     Max number of k-points (npk) =  40000
     Max angular momentum in pseudopotentials (lmaxx) =  4
     file O.pbe-n-kjpaw_psl.0.1.UPF: wavefunction(s)  2P renormalized
     signal trapping enabled: kill the code with -SIGUSR1 to stop cleanly the simulation 
 
     K-points division:     npool     =       2
     R & G space division:  proc/nbgrp/npool/nimage =      24
     Subspace diagonalization in iterative solution of the eigenvalue problem:
     one sub-group per band group will be used
     scalapack distributed-memory algorithm (size of sub-group:  3*  3 procs)

 
     Parallelization info
     --------------------
     sticks:   dense  smooth     PW     G-vecs:    dense   smooth      PW
     Min         350     175     47                61430    21716    3036
     Max         351     177     48                61449    21727    3041
     Sum        8421    4205   1137              1474595   521381   72913
 
     Using Slab Decomposition
 


     bravais-lattice index     =            0
     lattice parameter (alat)  =      14.8599  a.u.
     unit-cell volume          =    8305.1283 (a.u.)^3
     number of atoms/cell      =           51
     number of atomic types    =            4
     number of electrons       =       437.00
     number of Kohn-Sham states=          263
     kinetic-energy cutoff     =      60.0000  Ry
     charge density cutoff     =     480.0000  Ry
     scf convergence threshold =      1.0E-08
     mixing beta               =       0.1500
     number of iterations used =            8  local-TF  mixing
     Exchange-correlation= PBE
                           (   1   4   3   4   0   0   0)

     celldm(1)=  14.859904  celldm(2)=   0.000000  celldm(3)=   0.000000
     celldm(4)=   0.000000  celldm(5)=   0.000000  celldm(6)=   0.000000

     crystal axes: (cart. coord. in units of alat)
               a(1) = (   1.000000   0.000000   0.000000 )  
               a(2) = (   0.000000   1.000000   0.000000 )  
               a(3) = (   0.000000   0.000000   2.531036 )  

     reciprocal axes: (cart. coord. in units 2 pi/alat)
               b(1) = (  1.000000  0.000000  0.000000 )  
               b(2) = (  0.000000  1.000000  0.000000 )  
               b(3) = (  0.000000  0.000000  0.395095 )  


     PseudoPot. # 1 for Sr read from file:
     /bsuhome/zayahcortright/q-e/pseudo/Sr_pbe_v1.uspp.F.UPF
     MD5 check sum: 6b418c05fbe9db5448babca5e47b7a5b
     Pseudo is Ultrasoft + core correction, Zval = 10.0
     Generated by new atomic code, or converted to UPF format
     Using radial grid of  883 points,  6 beta functions with: 
                l(1) =   0
                l(2) =   0
                l(3) =   1
                l(4) =   1
                l(5) =   2
                l(6) =   2
     Q(r) pseudized with  6 coefficients,  rinner =    1.400   1.400   1.400
                                                       1.400   1.400

     PseudoPot. # 2 for O  read from file:
     /bsuhome/zayahcortright/q-e/pseudo/O.pbe-n-kjpaw_psl.0.1.UPF
     MD5 check sum: 0234752ac141de4415c5fc33072bef88
     Pseudo is Projector augmented-wave + core cor, Zval =  6.0
     Generated using "atomic" code by A. Dal Corso  v.5.0.99 svn rev. 10869
     Shape of augmentation charge: BESSEL
     Using radial grid of 1095 points,  4 beta functions with: 
                l(1) =   0
                l(2) =   0
                l(3) =   1
                l(4) =   1
     Q(r) pseudized with 0 coefficients 


     PseudoPot. # 3 for Co read from file:
     /bsuhome/zayahcortright/q-e/pseudo/Co_pbe_v1.2.uspp.F.UPF
     MD5 check sum: 5f91765df6ddd3222702df6e7b74a16d
     Pseudo is Ultrasoft + core correction, Zval = 17.0
     Generated by new atomic code, or converted to UPF format
     Using radial grid of  863 points,  6 beta functions with: 
                l(1) =   0
                l(2) =   0
                l(3) =   1
                l(4) =   1
                l(5) =   2
                l(6) =   2
     Q(r) pseudized with  8 coefficients,  rinner =    1.200   1.200   1.200
                                                       1.200   1.200

     PseudoPot. # 4 for H  read from file:
     /bsuhome/zayahcortright/q-e/pseudo/H.pbe-rrkjus_psl.1.0.0.UPF
     MD5 check sum: f52b6d4d1c606e5624b1dc7b2218f220
     Pseudo is Ultrasoft, Zval =  1.0
     Generated using "atomic" code by A. Dal Corso  v.5.1
     Using radial grid of  929 points,  2 beta functions with: 
                l(1) =   0
                l(2) =   0
     Q(r) pseudized with 0 coefficients 


     atomic species   valence    mass     pseudopotential
        Sr            10.00    87.62000     Sr( 1.00)
        O              6.00    15.99900     O ( 1.00)
        Co            17.00    58.93319     Co( 1.00)
        H              1.00     1.00800     H ( 1.00)

     No symmetry found


                                    s                        frac. trans.

      isym =  1     identity                                     

 cryst.   s( 1) = (     1          0          0      )
                  (     0          1          0      )
                  (     0          0          1      )

 cart.    s( 1) = (  1.0000000  0.0000000  0.0000000 )
                  (  0.0000000  1.0000000  0.0000000 )
                  (  0.0000000  0.0000000  1.0000000 )


   Cartesian axes

     site n.     atom                  positions (alat units)
         1           Sr  tau(   1) = (   0.2508693   0.7491307   1.7574407  )
         2           O   tau(   2) = (   0.4985141   0.5014859   1.7715967  )
         3           Sr  tau(   3) = (   0.7482398   0.7454518   1.7648669  )
         4           Sr  tau(   4) = (   0.7441748   0.2558252   1.7667843  )
         5           Sr  tau(   5) = (   0.2508693   0.7491307   1.2696799  )
         6           Sr  tau(   6) = (   0.2508693   0.7491307   0.7632319  )
         7           Co  tau(   7) = (   0.4998914   0.5001086   1.0164559  )
         8           Co  tau(   8) = (   0.4936915   0.5063085   1.5135603  )
         9           O   tau(   9) = (   0.4988895   0.7610401   1.0164559  )
        10           O   tau(  10) = (   0.2389599   0.5011105   1.0164559  )
        11           O   tau(  11) = (   0.0070918   0.7374880   1.0164559  )
        12           O   tau(  12) = (   0.0088340   0.7405089   1.5135603  )
        13           O   tau(  13) = (   0.5066944   0.7415376   1.5135603  )
        14           O   tau(  14) = (   0.2584624   0.4933056   1.5135603  )
        15           O   tau(  15) = (   0.4985141   0.5014859   0.7773880  )
        16           O   tau(  16) = (   0.4985141   0.5014859   1.2555238  )
        17           Sr  tau(  17) = (   0.7482398   0.7454518   0.7706582  )
        18           Sr  tau(  18) = (   0.7482398   0.7454518   1.2622536  )
        19           Sr  tau(  19) = (   0.7441748   0.2558252   0.7725755  )
        20           Sr  tau(  20) = (   0.7441748   0.2558252   1.2603363  )
        21           O   tau(  21) = (   0.7322655   0.0078049   1.5135603  )
        22           O   tau(  22) = (   0.7558175   0.4996027   1.5135603  )
        23           O   tau(  23) = (   0.5003973   0.2441825   1.5135603  )
        24           O   tau(  24) = (   0.7527966   0.4978604   1.0164559  )
        25           O   tau(  25) = (   0.5021396   0.2472034   1.0164559  )
        26           O   tau(  26) = (   0.7517679   0.0000000   1.0164559  )
        27           O   tau(  27) = (   0.0114961   0.4948124   1.7455321  )
        28           O   tau(  28) = (   0.0048226   0.0077944   1.7715967  )
        29           Sr  tau(  29) = (   0.2545482   0.2517602   1.7648669  )
        30           O   tau(  30) = (   0.5048017   0.0015068   1.7786929  )
        31           Co  tau(  31) = (   0.0056869   0.5006215   1.0164559  )
        32           Co  tau(  32) = (   0.0065315   0.4997770   1.5135603  )
        33           Co  tau(  33) = (   0.0061999   0.0064171   1.0164559  )
        34           Co  tau(  34) = (   0.0000000   0.0126169   1.5135603  )
        35           O   tau(  35) = (   0.0114961   0.4948124   1.2815885  )
        36           O   tau(  36) = (   0.0114961   0.4948124   0.7513233  )
        37           O   tau(  37) = (   0.0051979   0.2673486   1.0164559  )
        38           O   tau(  38) = (   0.0130029   0.2478461   1.5135603  )
        39           O   tau(  39) = (   0.0048226   0.0077944   0.7773880  )
        40           O   tau(  40) = (   0.0048226   0.0077944   1.2555238  )
        41           Sr  tau(  41) = (   0.2545482   0.2517602   0.7706582  )
        42           Sr  tau(  42) = (   0.2545482   0.2517602   1.2622536  )
        43           Co  tau(  43) = (   0.4989925   0.0073160   1.5135603  )
        44           Co  tau(  44) = (   0.4998370   0.0064714   1.0164559  )
        45           O   tau(  45) = (   0.5048017   0.0015068   0.7844841  )
        46           O   tau(  46) = (   0.5048017   0.0015068   1.2484277  )
        47           O   tau(  47) = (   0.2621260   0.0059111   1.5135603  )
        48           O   tau(  48) = (   0.2591051   0.0041689   1.0164559  )
        49           O   tau(  49) = (   0.9951520   0.0000000   2.1602013  )
        50           O   tau(  50) = (   0.9951520   0.0000000   2.3186489  )
        51           H   tau(  51) = (   0.9951520   0.0000000   2.4431567  )

   Crystallographic axes

     site n.     atom                  positions (cryst. coord.)
         1           Sr  tau(   1) = (  0.2508693  0.7491307  0.6943562  )
         2           O   tau(   2) = (  0.4985141  0.5014859  0.6999492  )
         3           Sr  tau(   3) = (  0.7482398  0.7454518  0.6972903  )
         4           Sr  tau(   4) = (  0.7441748  0.2558252  0.6980478  )
         5           Sr  tau(   5) = (  0.2508693  0.7491307  0.5016443  )
         6           Sr  tau(   6) = (  0.2508693  0.7491307  0.3015492  )
         7           Co  tau(   7) = (  0.4998914  0.5001086  0.4015968  )
         8           Co  tau(   8) = (  0.4936915  0.5063085  0.5980003  )
         9           O   tau(   9) = (  0.4988895  0.7610401  0.4015968  )
        10           O   tau(  10) = (  0.2389599  0.5011105  0.4015968  )
        11           O   tau(  11) = (  0.0070918  0.7374880  0.4015968  )
        12           O   tau(  12) = (  0.0088340  0.7405089  0.5980003  )
        13           O   tau(  13) = (  0.5066944  0.7415376  0.5980003  )
        14           O   tau(  14) = (  0.2584624  0.4933056  0.5980003  )
        15           O   tau(  15) = (  0.4985141  0.5014859  0.3071422  )
        16           O   tau(  16) = (  0.4985141  0.5014859  0.4960513  )
        17           Sr  tau(  17) = (  0.7482398  0.7454518  0.3044833  )
        18           Sr  tau(  18) = (  0.7482398  0.7454518  0.4987103  )
        19           Sr  tau(  19) = (  0.7441748  0.2558252  0.3052408  )
        20           Sr  tau(  20) = (  0.7441748  0.2558252  0.4979527  )
        21           O   tau(  21) = (  0.7322655  0.0078049  0.5980003  )
        22           O   tau(  22) = (  0.7558175  0.4996027  0.5980003  )
        23           O   tau(  23) = (  0.5003973  0.2441825  0.5980003  )
        24           O   tau(  24) = (  0.7527966  0.4978604  0.4015968  )
        25           O   tau(  25) = (  0.5021396  0.2472034  0.4015968  )
        26           O   tau(  26) = (  0.7517679  0.0000000  0.4015968  )
        27           O   tau(  27) = (  0.0114961  0.4948124  0.6896512  )
        28           O   tau(  28) = (  0.0048226  0.0077944  0.6999492  )
        29           Sr  tau(  29) = (  0.2545482  0.2517602  0.6972903  )
        30           O   tau(  30) = (  0.5048017  0.0015068  0.7027529  )
        31           Co  tau(  31) = (  0.0056869  0.5006215  0.4015968  )
        32           Co  tau(  32) = (  0.0065315  0.4997770  0.5980003  )
        33           Co  tau(  33) = (  0.0061999  0.0064171  0.4015968  )
        34           Co  tau(  34) = (  0.0000000  0.0126169  0.5980003  )
        35           O   tau(  35) = (  0.0114961  0.4948124  0.5063494  )
        36           O   tau(  36) = (  0.0114961  0.4948124  0.2968442  )
        37           O   tau(  37) = (  0.0051979  0.2673486  0.4015968  )
        38           O   tau(  38) = (  0.0130029  0.2478461  0.5980003  )
        39           O   tau(  39) = (  0.0048226  0.0077944  0.3071422  )
        40           O   tau(  40) = (  0.0048226  0.0077944  0.4960513  )
        41           Sr  tau(  41) = (  0.2545482  0.2517602  0.3044833  )
        42           Sr  tau(  42) = (  0.2545482  0.2517602  0.4987103  )
        43           Co  tau(  43) = (  0.4989925  0.0073160  0.5980003  )
        44           Co  tau(  44) = (  0.4998370  0.0064714  0.4015968  )
        45           O   tau(  45) = (  0.5048017  0.0015068  0.3099459  )
        46           O   tau(  46) = (  0.5048017  0.0015068  0.4932477  )
        47           O   tau(  47) = (  0.2621260  0.0059111  0.5980003  )
        48           O   tau(  48) = (  0.2591051  0.0041689  0.4015968  )
        49           O   tau(  49) = (  0.9951520  0.0000000  0.8534850  )
        50           O   tau(  50) = (  0.9951520  0.0000000  0.9160869  )
        51           H   tau(  51) = (  0.9951520  0.0000000  0.9652793  )

     number of k points=    10  Gaussian smearing, width (Ry)=  0.0700
                       cart. coord. in units 2pi/alat
        k(    1) = (   0.0000000   0.0000000   0.0000000), wk =   0.1250000
        k(    2) = (   0.0000000   0.2500000   0.0000000), wk =   0.2500000
        k(    3) = (   0.0000000  -0.5000000   0.0000000), wk =   0.1250000
        k(    4) = (   0.2500000   0.2500000   0.0000000), wk =   0.2500000
        k(    5) = (   0.2500000  -0.5000000   0.0000000), wk =   0.2500000
        k(    6) = (  -0.5000000  -0.5000000   0.0000000), wk =   0.1250000
        k(    7) = (   0.2500000   0.0000000   0.0000000), wk =   0.2500000
        k(    8) = (  -0.5000000   0.0000000   0.0000000), wk =   0.1250000
        k(    9) = (  -0.2500000   0.2500000   0.0000000), wk =   0.2500000
        k(   10) = (  -0.5000000   0.2500000   0.0000000), wk =   0.2500000

                       cryst. coord.
        k(    1) = (   0.0000000   0.0000000   0.0000000), wk =   0.1250000
        k(    2) = (   0.0000000   0.2500000   0.0000000), wk =   0.2500000
        k(    3) = (   0.0000000  -0.5000000   0.0000000), wk =   0.1250000
        k(    4) = (   0.2500000   0.2500000   0.0000000), wk =   0.2500000
        k(    5) = (   0.2500000  -0.5000000   0.0000000), wk =   0.2500000
        k(    6) = (  -0.5000000  -0.5000000   0.0000000), wk =   0.1250000
        k(    7) = (   0.2500000   0.0000000   0.0000000), wk =   0.2500000
        k(    8) = (  -0.5000000   0.0000000   0.0000000), wk =   0.1250000
        k(    9) = (  -0.2500000   0.2500000   0.0000000), wk =   0.2500000
        k(   10) = (  -0.5000000   0.2500000   0.0000000), wk =   0.2500000

     Dense  grid:  1474595 G-vectors     FFT dimensions: ( 108, 108, 270)

     Smooth grid:   521381 G-vectors     FFT dimensions: (  75,  75, 192)

     Dynamical RAM for                 wfc:      10.90 MB

     Dynamical RAM for     wfc (w. buffer):      65.37 MB

     Dynamical RAM for           str. fact:       3.75 MB

     Dynamical RAM for           local pot:       0.00 MB

     Dynamical RAM for          nlocal pot:      24.94 MB

     Dynamical RAM for                qrad:       7.03 MB

     Dynamical RAM for          rho,v,vnew:       6.02 MB

     Dynamical RAM for               rhoin:       2.01 MB

     Dynamical RAM for            rho*nmix:      15.00 MB

     Dynamical RAM for           G-vectors:       3.68 MB

     Dynamical RAM for          h,s,v(r/c):       1.40 MB

     Dynamical RAM for          <psi|beta>:       2.42 MB

     Dynamical RAM for                 psi:      21.79 MB

     Dynamical RAM for                hpsi:      21.79 MB

     Dynamical RAM for                spsi:      21.79 MB

     Dynamical RAM for      wfcinit/wfcrot:      34.89 MB

     Dynamical RAM for           addusdens:     101.73 MB

     Estimated static dynamical RAM per process >     122.82 MB

     Estimated max dynamical RAM per process >     239.55 MB

     Estimated total dynamical RAM >      10.88 GB

     Check: negative core charge=   -0.000004

     Initial potential from superposition of free atoms

     starting charge     428.5961, renormalised to     437.0000

     negative rho (up, down):  7.814E-01 0.000E+00
     Starting wfcs are  381 randomized atomic wfcs
     Checking if some PAW data can be deallocated... 
       PAW data deallocated on   18 nodes for type:  2

     total cpu time spent up to now is       10.1 secs

     Self-consistent Calculation

     iteration #  1     ecut=    60.00 Ry     beta= 0.15
     Davidson diagonalization with overlap

---- Real-time Memory Report at c_bands before calling an iterative solver
             0 MiB given to the printing process from OS
             0 MiB allocation reported by mallinfo(arena+hblkhd)
         32106 MiB available memory on the node where the printing process lives
------------------
     ethr =  1.00E-02,  avg # of iterations =  2.0

     negative rho (up, down):  7.716E-01 0.000E+00

     total cpu time spent up to now is       26.1 secs

     total energy              =   -4489.31933300 Ry
     estimated scf accuracy    <      49.75780700 Ry

     iteration #  2     ecut=    60.00 Ry     beta= 0.15
     Davidson diagonalization with overlap

---- Real-time Memory Report at c_bands before calling an iterative solver
             0 MiB given to the printing process from OS
             0 MiB allocation reported by mallinfo(arena+hblkhd)
         32482 MiB available memory on the node where the printing process lives
------------------
     ethr =  1.00E-02,  avg # of iterations =  1.0

     negative rho (up, down):  7.614E-01 0.000E+00

     total cpu time spent up to now is       39.2 secs

     total energy              =   -4486.82587454 Ry
     estimated scf accuracy    <      35.42982592 Ry

     iteration #  3     ecut=    60.00 Ry     beta= 0.15
     Davidson diagonalization with overlap

---- Real-time Memory Report at c_bands before calling an iterative solver
             0 MiB given to the printing process from OS
             0 MiB allocation reported by mallinfo(arena+hblkhd)
         31779 MiB available memory on the node where the printing process lives
------------------
     ethr =  8.11E-03,  avg # of iterations =  1.0

     negative rho (up, down):  7.563E-01 0.000E+00

     total cpu time spent up to now is       52.6 secs

     total energy              =   -4486.77205063 Ry
     estimated scf accuracy    <      35.29189468 Ry

     iteration #  4     ecut=    60.00 Ry     beta= 0.15
     Davidson diagonalization with overlap

---- Real-time Memory Report at c_bands before calling an iterative solver
             0 MiB given to the printing process from OS
             0 MiB allocation reported by mallinfo(arena+hblkhd)
         31698 MiB available memory on the node where the printing process lives
------------------
     ethr =  8.08E-03,  avg # of iterations =  1.0

     negative rho (up, down):  7.576E-01 0.000E+00

     total cpu time spent up to now is       65.8 secs

     total energy              =   -4486.60843077 Ry
     estimated scf accuracy    <      34.23883747 Ry

     iteration #  5     ecut=    60.00 Ry     beta= 0.15
     Davidson diagonalization with overlap

---- Real-time Memory Report at c_bands before calling an iterative solver
             0 MiB given to the printing process from OS
             0 MiB allocation reported by mallinfo(arena+hblkhd)
         31679 MiB available memory on the node where the printing process lives
------------------
     ethr =  7.83E-03,  avg # of iterations =  1.0

     negative rho (up, down):  7.338E-01 0.000E+00

     total cpu time spent up to now is       78.8 secs

     total energy              =   -4482.59199918 Ry
     estimated scf accuracy    <      22.72420400 Ry

     iteration #  6     ecut=    60.00 Ry     beta= 0.15
     Davidson diagonalization with overlap

---- Real-time Memory Report at c_bands before calling an iterative solver
             0 MiB given to the printing process from OS
             0 MiB allocation reported by mallinfo(arena+hblkhd)
         31666 MiB available memory on the node where the printing process lives
------------------
     ethr =  5.20E-03,  avg # of iterations =  2.0

     negative rho (up, down):  7.487E-01 0.000E+00

     total cpu time spent up to now is       93.4 secs

     total energy              =   -4483.65027130 Ry
     estimated scf accuracy    <      34.03507841 Ry

     iteration #  7     ecut=    60.00 Ry     beta= 0.15
     Davidson diagonalization with overlap

---- Real-time Memory Report at c_bands before calling an iterative solver
             0 MiB given to the printing process from OS
             0 MiB allocation reported by mallinfo(arena+hblkhd)
         31638 MiB available memory on the node where the printing process lives
------------------
     ethr =  5.20E-03,  avg # of iterations =  1.0

     negative rho (up, down):  7.532E-01 0.000E+00

     total cpu time spent up to now is      106.5 secs

     total energy              =   -4483.70194050 Ry
     estimated scf accuracy    <      35.15966851 Ry

     iteration #  8     ecut=    60.00 Ry     beta= 0.15
     Davidson diagonalization with overlap

---- Real-time Memory Report at c_bands before calling an iterative solver
             0 MiB given to the printing process from OS
             0 MiB allocation reported by mallinfo(arena+hblkhd)
         31624 MiB available memory on the node where the printing process lives
------------------
     ethr =  5.20E-03,  avg # of iterations =  1.0

     negative rho (up, down):  7.509E-01 0.000E+00

     total cpu time spent up to now is      119.5 secs

     total energy              =   -4483.78503416 Ry
     estimated scf accuracy    <       6.05691317 Ry

     iteration #  9     ecut=    60.00 Ry     beta= 0.15
     Davidson diagonalization with overlap

---- Real-time Memory Report at c_bands before calling an iterative solver
             0 MiB given to the printing process from OS
             0 MiB allocation reported by mallinfo(arena+hblkhd)
         31596 MiB available memory on the node where the printing process lives
------------------
     ethr =  1.39E-03,  avg # of iterations =  3.4

     negative rho (up, down):  7.654E-01 0.000E+00

     total cpu time spent up to now is      134.5 secs

     total energy              =   -4483.73382563 Ry
     estimated scf accuracy    <       3.63602642 Ry

     iteration # 10     ecut=    60.00 Ry     beta= 0.15
     Davidson diagonalization with overlap

---- Real-time Memory Report at c_bands before calling an iterative solver
             0 MiB given to the printing process from OS
             0 MiB allocation reported by mallinfo(arena+hblkhd)
         31549 MiB available memory on the node where the printing process lives
------------------
     ethr =  8.32E-04,  avg # of iterations = 12.0

     negative rho (up, down):  7.886E-01 0.000E+00

     total cpu time spent up to now is      154.8 secs

     total energy              =   -4483.52594752 Ry
     estimated scf accuracy    <       4.56914431 Ry

     iteration # 11     ecut=    60.00 Ry     beta= 0.15
     Davidson diagonalization with overlap

---- Real-time Memory Report at c_bands before calling an iterative solver
             0 MiB given to the printing process from OS
             0 MiB allocation reported by mallinfo(arena+hblkhd)
         31202 MiB available memory on the node where the printing process lives
------------------
     ethr =  8.32E-04,  avg # of iterations =  5.9

     negative rho (up, down):  7.906E-01 0.000E+00

     total cpu time spent up to now is      171.9 secs

     total energy              =   -4483.17014512 Ry
     estimated scf accuracy    <       4.39493680 Ry

     iteration # 12     ecut=    60.00 Ry     beta= 0.15
     Davidson diagonalization with overlap

---- Real-time Memory Report at c_bands before calling an iterative solver
             0 MiB given to the printing process from OS
             0 MiB allocation reported by mallinfo(arena+hblkhd)
         31170 MiB available memory on the node where the printing process lives
------------------
     ethr =  8.32E-04,  avg # of iterations =  5.5

     negative rho (up, down):  8.016E-01 0.000E+00

     total cpu time spent up to now is      188.7 secs

     total energy              =   -4483.20260096 Ry
     estimated scf accuracy    <       2.09854589 Ry

     iteration # 13     ecut=    60.00 Ry     beta= 0.15
     Davidson diagonalization with overlap

---- Real-time Memory Report at c_bands before calling an iterative solver
             0 MiB given to the printing process from OS
             0 MiB allocation reported by mallinfo(arena+hblkhd)
         31113 MiB available memory on the node where the printing process lives
------------------
     ethr =  4.80E-04,  avg # of iterations =  3.8

     negative rho (up, down):  8.020E-01 0.000E+00

     total cpu time spent up to now is      204.5 secs

     total energy              =   -4483.25567481 Ry
     estimated scf accuracy    <       1.19654597 Ry

     iteration # 14     ecut=    60.00 Ry     beta= 0.15
     Davidson diagonalization with overlap

---- Real-time Memory Report at c_bands before calling an iterative solver
             0 MiB given to the printing process from OS
             0 MiB allocation reported by mallinfo(arena+hblkhd)
         31113 MiB available memory on the node where the printing process lives
------------------
     ethr =  2.74E-04,  avg # of iterations =  7.3

     negative rho (up, down):  8.149E-01 0.000E+00

     total cpu time spent up to now is      222.1 secs

     total energy              =   -4483.11149384 Ry
     estimated scf accuracy    <       0.74086172 Ry

     iteration # 15     ecut=    60.00 Ry     beta= 0.15
     Davidson diagonalization with overlap

---- Real-time Memory Report at c_bands before calling an iterative solver
             0 MiB given to the printing process from OS
             0 MiB allocation reported by mallinfo(arena+hblkhd)
         31078 MiB available memory on the node where the printing process lives
------------------
     ethr =  1.70E-04,  avg # of iterations =  7.6

     negative rho (up, down):  8.180E-01 0.000E+00

     total cpu time spent up to now is      240.0 secs

     total energy              =   -4483.14085242 Ry
     estimated scf accuracy    <       3.72147495 Ry

     iteration # 16     ecut=    60.00 Ry     beta= 0.15
     Davidson diagonalization with overlap

---- Real-time Memory Report at c_bands before calling an iterative solver
             0 MiB given to the printing process from OS
             0 MiB allocation reported by mallinfo(arena+hblkhd)
         31086 MiB available memory on the node where the printing process lives
------------------
     ethr =  1.70E-04,  avg # of iterations =  3.0

     negative rho (up, down):  8.140E-01 0.000E+00

     total cpu time spent up to now is      255.3 secs

     total energy              =   -4483.10450236 Ry
     estimated scf accuracy    <       1.51766672 Ry

     iteration # 17     ecut=    60.00 Ry     beta= 0.15
     Davidson diagonalization with overlap

---- Real-time Memory Report at c_bands before calling an iterative solver
             0 MiB given to the printing process from OS
             0 MiB allocation reported by mallinfo(arena+hblkhd)
         31080 MiB available memory on the node where the printing process lives
------------------
     ethr =  1.70E-04,  avg # of iterations =  2.1

     negative rho (up, down):  8.194E-01 0.000E+00

     total cpu time spent up to now is      270.0 secs

     total energy              =   -4483.04431428 Ry
     estimated scf accuracy    <       0.40913312 Ry

     iteration # 18     ecut=    60.00 Ry     beta= 0.15
     Davidson diagonalization with overlap

---- Real-time Memory Report at c_bands before calling an iterative solver
             0 MiB given to the printing process from OS
             0 MiB allocation reported by mallinfo(arena+hblkhd)
         31081 MiB available memory on the node where the printing process lives
------------------
     ethr =  9.36E-05,  avg # of iterations = 11.6

     negative rho (up, down):  8.214E-01 0.000E+00

     total cpu time spent up to now is      289.7 secs

     total energy              =   -4483.03157766 Ry
     estimated scf accuracy    <       1.52908450 Ry

     iteration # 19     ecut=    60.00 Ry     beta= 0.15
     Davidson diagonalization with overlap

---- Real-time Memory Report at c_bands before calling an iterative solver
             0 MiB given to the printing process from OS
             0 MiB allocation reported by mallinfo(arena+hblkhd)
         31063 MiB available memory on the node where the printing process lives
------------------
     ethr =  9.36E-05,  avg # of iterations =  7.9

     negative rho (up, down):  8.272E-01 0.000E+00

     total cpu time spent up to now is      307.3 secs

     total energy              =   -4483.02422482 Ry
     estimated scf accuracy    <       0.54597846 Ry

     iteration # 20     ecut=    60.00 Ry     beta= 0.15
     Davidson diagonalization with overlap

---- Real-time Memory Report at c_bands before calling an iterative solver
             0 MiB given to the printing process from OS
             0 MiB allocation reported by mallinfo(arena+hblkhd)
         31030 MiB available memory on the node where the printing process lives
------------------
     ethr =  9.36E-05,  avg # of iterations =  5.3

     negative rho (up, down):  8.256E-01 0.000E+00

     total cpu time spent up to now is      324.0 secs

     total energy              =   -4482.97671454 Ry
     estimated scf accuracy    <       0.60918125 Ry

     iteration # 21     ecut=    60.00 Ry     beta= 0.15
     Davidson diagonalization with overlap

---- Real-time Memory Report at c_bands before calling an iterative solver
             0 MiB given to the printing process from OS
             0 MiB allocation reported by mallinfo(arena+hblkhd)
         31005 MiB available memory on the node where the printing process lives
------------------
     ethr =  9.36E-05,  avg # of iterations =  8.6

     negative rho (up, down):  8.409E-01 0.000E+00

     total cpu time spent up to now is      342.4 secs

     total energy              =   -4482.97704986 Ry
     estimated scf accuracy    <       0.09018479 Ry

     iteration # 22     ecut=    60.00 Ry     beta= 0.15
     Davidson diagonalization with overlap

---- Real-time Memory Report at c_bands before calling an iterative solver
             0 MiB given to the printing process from OS
             0 MiB allocation reported by mallinfo(arena+hblkhd)
         30996 MiB available memory on the node where the printing process lives
------------------
     ethr =  2.06E-05,  avg # of iterations = 10.4

     negative rho (up, down):  8.372E-01 0.000E+00

     total cpu time spent up to now is      362.2 secs

     total energy              =   -4482.97450760 Ry
     estimated scf accuracy    <       0.04946959 Ry

     iteration # 23     ecut=    60.00 Ry     beta= 0.15
     Davidson diagonalization with overlap

---- Real-time Memory Report at c_bands before calling an iterative solver
             0 MiB given to the printing process from OS
             0 MiB allocation reported by mallinfo(arena+hblkhd)
         30842 MiB available memory on the node where the printing process lives
------------------
     c_bands:  1 eigenvalues not converged
     ethr =  1.13E-05,  avg # of iterations =  4.2

     negative rho (up, down):  8.260E-01 0.000E+00

     total cpu time spent up to now is      378.3 secs

     total energy              =   -4482.96940605 Ry
     estimated scf accuracy    <       0.03254981 Ry

     iteration # 24     ecut=    60.00 Ry     beta= 0.15
     Davidson diagonalization with overlap

---- Real-time Memory Report at c_bands before calling an iterative solver
             0 MiB given to the printing process from OS
             0 MiB allocation reported by mallinfo(arena+hblkhd)
         30878 MiB available memory on the node where the printing process lives
------------------
     ethr =  7.45E-06,  avg # of iterations = 13.5

     negative rho (up, down):  8.212E-01 0.000E+00

     total cpu time spent up to now is      399.3 secs

     total energy              =   -4482.96956322 Ry
     estimated scf accuracy    <       0.01452275 Ry

     iteration # 25     ecut=    60.00 Ry     beta= 0.15
     Davidson diagonalization with overlap

---- Real-time Memory Report at c_bands before calling an iterative solver
             0 MiB given to the printing process from OS
             0 MiB allocation reported by mallinfo(arena+hblkhd)
         30843 MiB available memory on the node where the printing process lives
------------------
     ethr =  3.32E-06,  avg # of iterations =  2.2

     negative rho (up, down):  8.121E-01 0.000E+00

     total cpu time spent up to now is      414.2 secs

     total energy              =   -4482.96813259 Ry
     estimated scf accuracy    <       0.01033175 Ry

     iteration # 26     ecut=    60.00 Ry     beta= 0.15
     Davidson diagonalization with overlap

---- Real-time Memory Report at c_bands before calling an iterative solver
             0 MiB given to the printing process from OS
             0 MiB allocation reported by mallinfo(arena+hblkhd)
         30861 MiB available memory on the node where the printing process lives
------------------
     ethr =  2.36E-06,  avg # of iterations =  9.0

     negative rho (up, down):  7.959E-01 0.000E+00

     total cpu time spent up to now is      432.8 secs

     total energy              =   -4482.96693692 Ry
     estimated scf accuracy    <       0.00542289 Ry

     iteration # 27     ecut=    60.00 Ry     beta= 0.15
     Davidson diagonalization with overlap

---- Real-time Memory Report at c_bands before calling an iterative solver
             0 MiB given to the printing process from OS
             0 MiB allocation reported by mallinfo(arena+hblkhd)
         30855 MiB available memory on the node where the printing process lives
------------------
     ethr =  1.24E-06,  avg # of iterations =  8.9

     negative rho (up, down):  7.956E-01 0.000E+00

     total cpu time spent up to now is      452.9 secs

     total energy              =   -4482.96734005 Ry
     estimated scf accuracy    <       0.00157152 Ry

     iteration # 28     ecut=    60.00 Ry     beta= 0.15
     Davidson diagonalization with overlap

---- Real-time Memory Report at c_bands before calling an iterative solver
             0 MiB given to the printing process from OS
             0 MiB allocation reported by mallinfo(arena+hblkhd)
         30687 MiB available memory on the node where the printing process lives
------------------
     ethr =  3.60E-07,  avg # of iterations =  2.5

     negative rho (up, down):  7.947E-01 0.000E+00

     total cpu time spent up to now is      467.9 secs

     total energy              =   -4482.96732492 Ry
     estimated scf accuracy    <       0.00094071 Ry

     iteration # 29     ecut=    60.00 Ry     beta= 0.15
     Davidson diagonalization with overlap

---- Real-time Memory Report at c_bands before calling an iterative solver
             0 MiB given to the printing process from OS
             0 MiB allocation reported by mallinfo(arena+hblkhd)
         30761 MiB available memory on the node where the printing process lives
------------------
     ethr =  2.15E-07,  avg # of iterations =  3.0

     negative rho (up, down):  7.936E-01 0.000E+00

     total cpu time spent up to now is      483.1 secs

     total energy              =   -4482.96728982 Ry
     estimated scf accuracy    <       0.00061500 Ry

     iteration # 30     ecut=    60.00 Ry     beta= 0.15
     Davidson diagonalization with overlap

---- Real-time Memory Report at c_bands before calling an iterative solver
             0 MiB given to the printing process from OS
             0 MiB allocation reported by mallinfo(arena+hblkhd)
         30788 MiB available memory on the node where the printing process lives
------------------
     ethr =  1.41E-07,  avg # of iterations =  6.2

     negative rho (up, down):  7.927E-01 0.000E+00

     total cpu time spent up to now is      500.2 secs

     total energy              =   -4482.96726181 Ry
     estimated scf accuracy    <       0.00030188 Ry

     iteration # 31     ecut=    60.00 Ry     beta= 0.15
     Davidson diagonalization with overlap

---- Real-time Memory Report at c_bands before calling an iterative solver
             0 MiB given to the printing process from OS
             0 MiB allocation reported by mallinfo(arena+hblkhd)
         30775 MiB available memory on the node where the printing process lives
------------------
     c_bands:  1 eigenvalues not converged
     ethr =  6.91E-08,  avg # of iterations =  9.9

     negative rho (up, down):  7.924E-01 0.000E+00

     total cpu time spent up to now is      518.8 secs

     total energy              =   -4482.96725234 Ry
     estimated scf accuracy    <       0.00013397 Ry

     iteration # 32     ecut=    60.00 Ry     beta= 0.15
     Davidson diagonalization with overlap

---- Real-time Memory Report at c_bands before calling an iterative solver
             0 MiB given to the printing process from OS
             0 MiB allocation reported by mallinfo(arena+hblkhd)
         30778 MiB available memory on the node where the printing process lives
------------------
     ethr =  3.07E-08,  avg # of iterations =  4.0

     negative rho (up, down):  7.923E-01 0.000E+00

     total cpu time spent up to now is      534.5 secs

     total energy              =   -4482.96724635 Ry
     estimated scf accuracy    <       0.00007171 Ry

     iteration # 33     ecut=    60.00 Ry     beta= 0.15
     Davidson diagonalization with overlap

---- Real-time Memory Report at c_bands before calling an iterative solver
             0 MiB given to the printing process from OS
             0 MiB allocation reported by mallinfo(arena+hblkhd)
         30797 MiB available memory on the node where the printing process lives
------------------
     ethr =  1.64E-08,  avg # of iterations =  3.3

     negative rho (up, down):  7.921E-01 0.000E+00

     total cpu time spent up to now is      549.9 secs

     total energy              =   -4482.96724548 Ry
     estimated scf accuracy    <       0.00005077 Ry

     iteration # 34     ecut=    60.00 Ry     beta= 0.15
     Davidson diagonalization with overlap

---- Real-time Memory Report at c_bands before calling an iterative solver
             0 MiB given to the printing process from OS
             0 MiB allocation reported by mallinfo(arena+hblkhd)
         30843 MiB available memory on the node where the printing process lives
------------------
     ethr =  1.16E-08,  avg # of iterations =  4.6

     negative rho (up, down):  7.921E-01 0.000E+00

     total cpu time spent up to now is      565.9 secs

     total energy              =   -4482.96725093 Ry
     estimated scf accuracy    <       0.00002600 Ry

     iteration # 35     ecut=    60.00 Ry     beta= 0.15
     Davidson diagonalization with overlap

---- Real-time Memory Report at c_bands before calling an iterative solver
             0 MiB given to the printing process from OS
             0 MiB allocation reported by mallinfo(arena+hblkhd)
         30841 MiB available memory on the node where the printing process lives
------------------
     ethr =  5.95E-09,  avg # of iterations =  2.0

     negative rho (up, down):  7.922E-01 0.000E+00

     total cpu time spent up to now is      580.9 secs

     total energy              =   -4482.96726079 Ry
     estimated scf accuracy    <       0.00001874 Ry

     iteration # 36     ecut=    60.00 Ry     beta= 0.15
     Davidson diagonalization with overlap

---- Real-time Memory Report at c_bands before calling an iterative solver
             0 MiB given to the printing process from OS
             0 MiB allocation reported by mallinfo(arena+hblkhd)
         30829 MiB available memory on the node where the printing process lives
------------------
     ethr =  4.29E-09,  avg # of iterations =  4.0

     negative rho (up, down):  7.923E-01 0.000E+00

     total cpu time spent up to now is      596.5 secs

     total energy              =   -4482.96726523 Ry
     estimated scf accuracy    <       0.00000964 Ry

     iteration # 37     ecut=    60.00 Ry     beta= 0.15
     Davidson diagonalization with overlap

---- Real-time Memory Report at c_bands before calling an iterative solver
             0 MiB given to the printing process from OS
             0 MiB allocation reported by mallinfo(arena+hblkhd)
         30852 MiB available memory on the node where the printing process lives
------------------
     ethr =  2.21E-09,  avg # of iterations =  3.3

     negative rho (up, down):  7.923E-01 0.000E+00

     total cpu time spent up to now is      611.7 secs

     total energy              =   -4482.96726871 Ry
     estimated scf accuracy    <       0.00000614 Ry

     iteration # 38     ecut=    60.00 Ry     beta= 0.15
     Davidson diagonalization with overlap

---- Real-time Memory Report at c_bands before calling an iterative solver
             0 MiB given to the printing process from OS
             0 MiB allocation reported by mallinfo(arena+hblkhd)
         30870 MiB available memory on the node where the printing process lives
------------------
     ethr =  1.40E-09,  avg # of iterations =  4.5

     negative rho (up, down):  7.924E-01 0.000E+00

     total cpu time spent up to now is      627.3 secs

     total energy              =   -4482.96727039 Ry
     estimated scf accuracy    <       0.00000380 Ry

     iteration # 39     ecut=    60.00 Ry     beta= 0.15
     Davidson diagonalization with overlap

---- Real-time Memory Report at c_bands before calling an iterative solver
             0 MiB given to the printing process from OS
             0 MiB allocation reported by mallinfo(arena+hblkhd)
         30867 MiB available memory on the node where the printing process lives
------------------
     ethr =  8.71E-10,  avg # of iterations =  3.5

     negative rho (up, down):  7.924E-01 0.000E+00

     total cpu time spent up to now is      642.7 secs

     total energy              =   -4482.96727088 Ry
     estimated scf accuracy    <       0.00000273 Ry

     iteration # 40     ecut=    60.00 Ry     beta= 0.15
     Davidson diagonalization with overlap

---- Real-time Memory Report at c_bands before calling an iterative solver
             0 MiB given to the printing process from OS
             0 MiB allocation reported by mallinfo(arena+hblkhd)
         30868 MiB available memory on the node where the printing process lives
------------------
     ethr =  6.25E-10,  avg # of iterations =  4.2

     negative rho (up, down):  7.924E-01 0.000E+00

     total cpu time spent up to now is      659.9 secs

     total energy              =   -4482.96727107 Ry
     estimated scf accuracy    <       0.00000184 Ry

     iteration # 41     ecut=    60.00 Ry     beta= 0.15
     Davidson diagonalization with overlap

---- Real-time Memory Report at c_bands before calling an iterative solver
             0 MiB given to the printing process from OS
             0 MiB allocation reported by mallinfo(arena+hblkhd)
         30879 MiB available memory on the node where the printing process lives
------------------
     ethr =  4.20E-10,  avg # of iterations =  4.4

     negative rho (up, down):  7.924E-01 0.000E+00

     total cpu time spent up to now is      675.3 secs

     total energy              =   -4482.96727110 Ry
     estimated scf accuracy    <       0.00000101 Ry

     iteration # 42     ecut=    60.00 Ry     beta= 0.15
     Davidson diagonalization with overlap

---- Real-time Memory Report at c_bands before calling an iterative solver
             0 MiB given to the printing process from OS
             0 MiB allocation reported by mallinfo(arena+hblkhd)
         30900 MiB available memory on the node where the printing process lives
------------------
     ethr =  2.32E-10,  avg # of iterations =  3.6

     negative rho (up, down):  7.923E-01 0.000E+00

     total cpu time spent up to now is      690.7 secs

     total energy              =   -4482.96727099 Ry
     estimated scf accuracy    <       0.00000074 Ry

     iteration # 43     ecut=    60.00 Ry     beta= 0.15
     Davidson diagonalization with overlap

---- Real-time Memory Report at c_bands before calling an iterative solver
             0 MiB given to the printing process from OS
             0 MiB allocation reported by mallinfo(arena+hblkhd)
         30891 MiB available memory on the node where the printing process lives
------------------
     ethr =  1.68E-10,  avg # of iterations =  4.4

     negative rho (up, down):  7.923E-01 0.000E+00

     total cpu time spent up to now is      706.3 secs

     total energy              =   -4482.96727116 Ry
     estimated scf accuracy    <       0.00000046 Ry

     iteration # 44     ecut=    60.00 Ry     beta= 0.15
     Davidson diagonalization with overlap

---- Real-time Memory Report at c_bands before calling an iterative solver
             0 MiB given to the printing process from OS
             0 MiB allocation reported by mallinfo(arena+hblkhd)
         30897 MiB available memory on the node where the printing process lives
------------------
     ethr =  1.05E-10,  avg # of iterations =  4.2

     negative rho (up, down):  7.923E-01 0.000E+00

     total cpu time spent up to now is      721.8 secs

     total energy              =   -4482.96727148 Ry
     estimated scf accuracy    <       0.00000031 Ry

     iteration # 45     ecut=    60.00 Ry     beta= 0.15
     Davidson diagonalization with overlap

---- Real-time Memory Report at c_bands before calling an iterative solver
             0 MiB given to the printing process from OS
             0 MiB allocation reported by mallinfo(arena+hblkhd)
         30896 MiB available memory on the node where the printing process lives
------------------
     ethr =  7.03E-11,  avg # of iterations =  5.3

     negative rho (up, down):  7.923E-01 0.000E+00

     total cpu time spent up to now is      738.1 secs

     total energy              =   -4482.96727151 Ry
     estimated scf accuracy    <       0.00000010 Ry

     iteration # 46     ecut=    60.00 Ry     beta= 0.15
     Davidson diagonalization with overlap

---- Real-time Memory Report at c_bands before calling an iterative solver
             0 MiB given to the printing process from OS
             0 MiB allocation reported by mallinfo(arena+hblkhd)
         30874 MiB available memory on the node where the printing process lives
------------------
     ethr =  2.24E-11,  avg # of iterations =  4.8

     negative rho (up, down):  7.923E-01 0.000E+00

     total cpu time spent up to now is      754.7 secs

     total energy              =   -4482.96727153 Ry
     estimated scf accuracy    <       0.00000003 Ry

     iteration # 47     ecut=    60.00 Ry     beta= 0.15
     Davidson diagonalization with overlap

---- Real-time Memory Report at c_bands before calling an iterative solver
             0 MiB given to the printing process from OS
             0 MiB allocation reported by mallinfo(arena+hblkhd)
         30852 MiB available memory on the node where the printing process lives
------------------
     ethr =  5.98E-12,  avg # of iterations =  3.0

     negative rho (up, down):  7.923E-01 0.000E+00

     total cpu time spent up to now is      769.6 secs

     total energy              =   -4482.96727154 Ry
     estimated scf accuracy    <       0.00000002 Ry

     iteration # 48     ecut=    60.00 Ry     beta= 0.15
     Davidson diagonalization with overlap

---- Real-time Memory Report at c_bands before calling an iterative solver
             0 MiB given to the printing process from OS
             0 MiB allocation reported by mallinfo(arena+hblkhd)
         30873 MiB available memory on the node where the printing process lives
------------------
     ethr =  4.19E-12,  avg # of iterations =  4.5

     negative rho (up, down):  7.923E-01 0.000E+00

     total cpu time spent up to now is      785.2 secs

     total energy              =   -4482.96727154 Ry
     estimated scf accuracy    <       0.00000001 Ry

     iteration # 49     ecut=    60.00 Ry     beta= 0.15
     Davidson diagonalization with overlap

---- Real-time Memory Report at c_bands before calling an iterative solver
             0 MiB given to the printing process from OS
             0 MiB allocation reported by mallinfo(arena+hblkhd)
         30881 MiB available memory on the node where the printing process lives
------------------
     ethr =  2.83E-12,  avg # of iterations =  2.2

     negative rho (up, down):  7.923E-01 0.000E+00

     total cpu time spent up to now is      800.0 secs

     total energy              =   -4482.96727155 Ry
     estimated scf accuracy    <       0.00000001 Ry

     iteration # 50     ecut=    60.00 Ry     beta= 0.15
     Davidson diagonalization with overlap

---- Real-time Memory Report at c_bands before calling an iterative solver
             0 MiB given to the printing process from OS
             0 MiB allocation reported by mallinfo(arena+hblkhd)
         30891 MiB available memory on the node where the printing process lives
------------------
     ethr =  2.45E-12,  avg # of iterations =  4.0

     negative rho (up, down):  7.923E-01 0.000E+00

     total cpu time spent up to now is      815.5 secs

     End of self-consistent calculation

          k = 0.0000 0.0000 0.0000 ( 65197 PWs)   bands (ev):

   -92.3232 -92.2674 -92.1770 -92.1275 -92.0680 -92.0294 -92.0125 -91.8906
   -55.6763 -55.6538 -55.5350 -55.5244 -55.5163 -55.5111 -55.4730 -55.4467
   -55.4307 -55.4283 -55.4184 -55.3771 -55.3583 -55.3203 -55.3029 -55.2674
   -55.2629 -55.2186 -55.2164 -55.2153 -55.2068 -55.1656 -55.1432 -55.0573
   -30.9105 -30.8915 -30.7727 -30.7506 -30.6878 -30.6639 -30.5779 -30.4653
   -29.4754 -29.4320 -29.4061 -29.2976 -22.2452 -14.7088 -14.6744 -14.5877
   -14.4567 -14.2760 -14.1523 -13.8498 -13.8339 -13.8008 -13.7629 -13.7585
   -13.7181 -13.7113 -13.6941 -13.6791 -13.6597 -13.6231 -13.5583 -13.4116
   -13.2430 -13.2011 -13.1678 -13.1429 -13.1230 -13.0788 -13.0380 -12.9576
   -12.8850 -12.8037 -12.7864 -12.7435 -12.7329 -12.7085 -12.6913 -12.6719
   -12.6427 -12.6271 -12.6033 -12.5826 -12.5702 -12.5577 -12.5483 -12.5316
   -12.4996 -12.4824 -12.4553 -12.4012 -12.3642 -12.3513 -11.9757 -11.8309
   -11.7226 -11.6460 -11.4894 -11.4146 -11.4034 -11.3815 -11.3637 -11.2996
   -11.2823 -11.2478 -11.2188 -11.1077 -11.0269 -11.0233  -5.7751  -3.1533
    -3.1492  -2.5695  -2.3357  -2.1060  -1.9611  -1.8960  -1.7530  -1.4474
    -1.4332  -1.4113  -1.3305  -1.3117  -1.2434  -1.2279  -1.1856  -1.1391
    -0.9602  -0.7377  -0.7091  -0.5568  -0.5435  -0.5007  -0.4826  -0.4385
    -0.4235  -0.3604  -0.3344  -0.2688  -0.2551  -0.1733  -0.0482  -0.0328
    -0.0041   0.0733   0.0790   0.0923   0.1650   0.2425   0.2608   0.3357
     0.3559   0.4114   0.5037   0.5517   0.5751   0.5834   0.8335   0.8485
     1.0188   1.0897   1.1507   1.2002   1.2917   1.3042   1.3211   1.3885
     1.4171   1.4521   1.5110   1.6468   1.6974   1.7213   1.7370   1.7456
     1.8167   1.8969   1.9852   2.0004   2.0551   2.0803   2.1169   2.1411
     2.1464   2.2038   2.2521   2.2644   2.2919   2.3250   2.3941   2.5227
     2.5989   2.6516   2.6661   2.8130   2.8286   2.8754   2.8889   2.9811
     3.0271   3.0481   3.0700   3.0782   3.1006   3.1116   3.1654   3.2779
     3.3108   3.3260   3.3331   3.3984   3.4027   3.4281   3.4367   3.4441
     3.4544   3.4622   3.4749   3.4802   3.4948   3.5036   3.5105   3.5312
     3.5523   3.5580   3.5691   3.5863   3.7100   3.7626   4.4332   4.7750
     4.7955   5.1532   5.3890   5.5079   5.6891   6.2878   6.3310   6.3725
     6.6254   6.6320   6.6889   6.7387   6.9625   7.2222   7.2869   7.3551
     7.3946   7.6632   7.7510   7.9091   7.9404   7.9699   8.0398   8.1519
     8.3021   8.3392   8.3681   8.3852   8.5002   8.5807   8.6028

     occupation numbers 
     1.0000   1.0000   1.0000   1.0000   1.0000   1.0000   1.0000   1.0000
     1.0000   1.0000   1.0000   1.0000   1.0000   1.0000   1.0000   1.0000
     1.0000   1.0000   1.0000   1.0000   1.0000   1.0000   1.0000   1.0000
     1.0000   1.0000   1.0000   1.0000   1.0000   1.0000   1.0000   1.0000
     1.0000   1.0000   1.0000   1.0000   1.0000   1.0000   1.0000   1.0000
     1.0000   1.0000   1.0000   1.0000   1.0000   1.0000   1.0000   1.0000
     1.0000   1.0000   1.0000   1.0000   1.0000   1.0000   1.0000   1.0000
     1.0000   1.0000   1.0000   1.0000   1.0000   1.0000   1.0000   1.0000
     1.0000   1.0000   1.0000   1.0000   1.0000   1.0000   1.0000   1.0000
     1.0000   1.0000   1.0000   1.0000   1.0000   1.0000   1.0000   1.0000
     1.0000   1.0000   1.0000   1.0000   1.0000   1.0000   1.0000   1.0000
     1.0000   1.0000   1.0000   1.0000   1.0000   1.0000   1.0000   1.0000
     1.0000   1.0000   1.0000   1.0000   1.0000   1.0000   1.0000   1.0000
     1.0000   1.0000   1.0000   1.0000   1.0000   1.0000   1.0000   1.0000
     1.0000   1.0000   1.0000   1.0000   1.0000   1.0000   1.0000   1.0000
     1.0000   1.0000   1.0000   1.0000   1.0000   1.0000   1.0000   1.0000
     1.0000   1.0000   1.0000   1.0000   1.0000   1.0000   1.0000   1.0000
     1.0000   1.0000   1.0000   1.0000   1.0000   1.0000   1.0000   1.0000
     1.0000   1.0000   1.0000   1.0000   1.0000   1.0000   1.0000   1.0000
     1.0000   1.0000   1.0000   1.0000   1.0000   1.0000   1.0000   1.0000
     1.0000   0.9999   0.9999   0.9999   0.9998   0.9998   0.9998   0.9997
     0.9997   0.9996   0.9994   0.9989   0.9986   0.9984   0.9982   0.9982
     0.9975   0.9963   0.9946   0.9943   0.9928   0.9920   0.9907   0.9898
     0.9896   0.9870   0.9844   0.9837   0.9819   0.9796   0.9740   0.9602
     0.9494   0.9408   0.9382   0.9068   0.9029   0.8905   0.8867   0.8581
     0.8422   0.8346   0.8264   0.8233   0.8145   0.8101   0.7877   0.7361
     0.7199   0.7122   0.7086   0.6745   0.6722   0.6585   0.6538   0.6497
     0.6440   0.6397   0.6326   0.6297   0.6214   0.6164   0.6125   0.6007
     0.5886   0.5852   0.5789   0.5688   0.4959   0.4648   0.1391   0.0557
     0.0524   0.0156   0.0061   0.0037   0.0016   0.0001   0.0000   0.0000
     0.0000   0.0000   0.0000   0.0000   0.0000   0.0000   0.0000   0.0000
     0.0000   0.0000   0.0000   0.0000   0.0000   0.0000   0.0000   0.0000
     0.0000   0.0000   0.0000   0.0000   0.0000   0.0000   0.0000

          k = 0.0000 0.2500 0.0000 ( 65257 PWs)   bands (ev):

   -92.3232 -92.2674 -92.1770 -92.1275 -92.0680 -92.0294 -92.0125 -91.8906
   -55.6763 -55.6538 -55.5350 -55.5244 -55.5163 -55.5111 -55.4730 -55.4467
   -55.4307 -55.4283 -55.4184 -55.3771 -55.3583 -55.3203 -55.3029 -55.2674
   -55.2629 -55.2186 -55.2164 -55.2153 -55.2068 -55.1656 -55.1432 -55.0573
   -30.9103 -30.8913 -30.7724 -30.7508 -30.6882 -30.6641 -30.5776 -30.4656
   -29.4748 -29.4317 -29.4067 -29.2979 -22.2452 -14.6716 -14.6485 -14.5626
   -14.4276 -14.3139 -14.1425 -13.9952 -13.8155 -13.7877 -13.7640 -13.7621
   -13.7350 -13.6793 -13.6731 -13.6590 -13.6439 -13.6079 -13.4788 -13.4425
   -13.2799 -13.2680 -13.2103 -13.1758 -13.1351 -13.0954 -13.0578 -12.9771
   -12.9443 -12.9142 -12.8481 -12.7818 -12.7661 -12.7410 -12.7241 -12.6491
   -12.6144 -12.5925 -12.5681 -12.5436 -12.5377 -12.5150 -12.4990 -12.4915
   -12.4501 -12.4315 -12.4275 -12.3945 -12.2693 -12.1898 -12.0371 -11.8822
   -11.7790 -11.7134 -11.4549 -11.4114 -11.3841 -11.3554 -11.3388 -11.2917
   -11.2802 -11.2578 -11.2239 -11.1218 -11.0685 -11.0579  -5.7751  -3.1535
    -3.1492  -2.4343  -2.2113  -2.0743  -1.8925  -1.8487  -1.6840  -1.4675
    -1.3795  -1.3664  -1.3115  -1.2081  -1.1933  -1.1578  -1.1333  -1.0897
    -0.8914  -0.7638  -0.7512  -0.6756  -0.6640  -0.5594  -0.5282  -0.4742
    -0.4498  -0.4047  -0.3434  -0.3188  -0.2846  -0.2566  -0.2389  -0.2048
    -0.1325  -0.0785  -0.0211   0.0884   0.1079   0.1509   0.2676   0.3030
     0.3664   0.4174   0.4850   0.5042   0.5294   0.5835   0.8810   0.9691
     0.9972   1.0893   1.1328   1.1521   1.2800   1.2980   1.3905   1.4146
     1.4465   1.5623   1.6456   1.6742   1.6969   1.7135   1.7448   1.8058
     1.8311   1.8572   1.9074   1.9362   1.9653   2.0402   2.0719   2.1097
     2.1676   2.2172   2.2476   2.2774   2.3153   2.3379   2.4281   2.5563
     2.6291   2.6499   2.7308   2.7731   2.8093   2.8165   2.8838   2.9282
     2.9981   3.0429   3.0607   3.0845   3.1091   3.2398   3.2611   3.2923
     3.3133   3.3319   3.3411   3.3488   3.3569   3.3867   3.3897   3.4065
     3.4095   3.4229   3.4383   3.4486   3.4597   3.4828   3.4931   3.4981
     3.5327   3.5494   3.6106   3.9553   3.9946   4.2526   4.6159   4.7631
     4.9189   5.0963   5.4265   5.5487   5.8164   5.9116   6.1741   6.3255
     6.3500   6.4733   6.5382   6.7446   6.8885   7.0652   7.2869   7.4382
     7.5569   7.7467   7.8067   7.8839   7.9333   7.9440   8.0893   8.2068
     8.2461   8.4070   8.5038   8.5436   8.5928   8.6939   8.9215

     occupation numbers 
     1.0000   1.0000   1.0000   1.0000   1.0000   1.0000   1.0000   1.0000
     1.0000   1.0000   1.0000   1.0000   1.0000   1.0000   1.0000   1.0000
     1.0000   1.0000   1.0000   1.0000   1.0000   1.0000   1.0000   1.0000
     1.0000   1.0000   1.0000   1.0000   1.0000   1.0000   1.0000   1.0000
     1.0000   1.0000   1.0000   1.0000   1.0000   1.0000   1.0000   1.0000
     1.0000   1.0000   1.0000   1.0000   1.0000   1.0000   1.0000   1.0000
     1.0000   1.0000   1.0000   1.0000   1.0000   1.0000   1.0000   1.0000
     1.0000   1.0000   1.0000   1.0000   1.0000   1.0000   1.0000   1.0000
     1.0000   1.0000   1.0000   1.0000   1.0000   1.0000   1.0000   1.0000
     1.0000   1.0000   1.0000   1.0000   1.0000   1.0000   1.0000   1.0000
     1.0000   1.0000   1.0000   1.0000   1.0000   1.0000   1.0000   1.0000
     1.0000   1.0000   1.0000   1.0000   1.0000   1.0000   1.0000   1.0000
     1.0000   1.0000   1.0000   1.0000   1.0000   1.0000   1.0000   1.0000
     1.0000   1.0000   1.0000   1.0000   1.0000   1.0000   1.0000   1.0000
     1.0000   1.0000   1.0000   1.0000   1.0000   1.0000   1.0000   1.0000
     1.0000   1.0000   1.0000   1.0000   1.0000   1.0000   1.0000   1.0000
     1.0000   1.0000   1.0000   1.0000   1.0000   1.0000   1.0000   1.0000
     1.0000   1.0000   1.0000   1.0000   1.0000   1.0000   1.0000   1.0000
     1.0000   1.0000   1.0000   1.0000   1.0000   1.0000   1.0000   1.0000
     1.0000   1.0000   1.0000   1.0000   1.0000   1.0000   1.0000   1.0000
     1.0000   0.9999   0.9999   0.9999   0.9998   0.9998   0.9997   0.9997
     0.9996   0.9993   0.9989   0.9987   0.9986   0.9984   0.9982   0.9976
     0.9973   0.9969   0.9962   0.9956   0.9951   0.9932   0.9923   0.9910
     0.9887   0.9863   0.9847   0.9829   0.9803   0.9787   0.9708   0.9557
     0.9446   0.9411   0.9256   0.9163   0.9078   0.9060   0.8881   0.8750
     0.8524   0.8365   0.8299   0.8208   0.8111   0.7543   0.7442   0.7291
     0.7186   0.7092   0.7045   0.7006   0.6964   0.6807   0.6791   0.6701
     0.6685   0.6613   0.6529   0.6472   0.6411   0.6282   0.6224   0.6196
     0.5998   0.5902   0.5546   0.3540   0.3325   0.2073   0.0876   0.0577
     0.0355   0.0193   0.0052   0.0031   0.0009   0.0005   0.0001   0.0000
     0.0000   0.0000   0.0000   0.0000   0.0000   0.0000   0.0000   0.0000
     0.0000   0.0000   0.0000   0.0000   0.0000   0.0000   0.0000   0.0000
     0.0000   0.0000   0.0000   0.0000   0.0000   0.0000   0.0000

          k = 0.0000-0.5000 0.0000 ( 65180 PWs)   bands (ev):

   -92.3232 -92.2674 -92.1770 -92.1275 -92.0680 -92.0294 -92.0125 -91.8906
   -55.6763 -55.6538 -55.5350 -55.5244 -55.5163 -55.5111 -55.4730 -55.4467
   -55.4307 -55.4283 -55.4184 -55.3770 -55.3583 -55.3203 -55.3029 -55.2674
   -55.2629 -55.2186 -55.2164 -55.2153 -55.2068 -55.1656 -55.1432 -55.0573
   -30.9101 -30.8912 -30.7720 -30.7510 -30.6885 -30.6642 -30.5773 -30.4659
   -29.4741 -29.4314 -29.4073 -29.2982 -22.2452 -14.6406 -14.5916 -14.5402
   -14.4166 -14.3263 -14.1895 -14.0447 -13.9219 -13.7849 -13.7621 -13.7265
   -13.6820 -13.6658 -13.6228 -13.6017 -13.5555 -13.5406 -13.5122 -13.4766
   -13.4612 -13.4129 -13.2120 -13.1576 -13.1444 -13.0855 -13.0762 -12.9895
   -12.9783 -12.9255 -12.9174 -12.8523 -12.7590 -12.7407 -12.7176 -12.6909
   -12.6047 -12.5909 -12.5628 -12.5398 -12.5154 -12.5118 -12.4904 -12.4383
   -12.4086 -12.4032 -12.3381 -12.2847 -12.1482 -12.1279 -11.9691 -11.9574
   -11.8865 -11.8429 -11.4084 -11.4065 -11.3793 -11.3409 -11.3069 -11.2960
   -11.2535 -11.2495 -11.2056 -11.1433 -11.1293 -11.1149  -5.7750  -3.1537
    -3.1492  -2.2199  -2.1595  -2.0084  -1.9355  -1.6567  -1.5727  -1.4445
    -1.3057  -1.2711  -1.2501  -1.1702  -1.1404  -1.0587  -1.0236  -0.9483
    -0.9060  -0.8662  -0.8396  -0.7851  -0.7463  -0.7014  -0.6646  -0.6299
    -0.5966  -0.4857  -0.4403  -0.4089  -0.4079  -0.3221  -0.2878  -0.2666
    -0.2185  -0.1340  -0.0672   0.0128   0.0386   0.1432   0.1907   0.3432
     0.3683   0.3999   0.4595   0.5729   0.6156   0.7654   0.8287   0.8370
     0.9652   1.0000   1.1163   1.2423   1.3504   1.3812   1.4136   1.4212
     1.4626   1.4802   1.5170   1.5323   1.5442   1.6520   1.7106   1.7396
     1.7669   2.0205   2.0538   2.0745   2.1642   2.1926   2.2231   2.2384
     2.2750   2.2836   2.2941   2.3274   2.3710   2.3977   2.4234   2.4385
     2.4668   2.5207   2.5990   2.6223   2.8075   2.9750   2.9826   2.9913
     3.0376   3.0424   3.0538   3.0778   3.1063   3.1100   3.1200   3.1735
     3.1937   3.2692   3.2827   3.3497   3.3592   3.3836   3.3851   3.4054
     3.4079   3.4135   3.4157   3.4205   3.4321   3.4528   3.4538   3.5180
     3.5239   3.5389   3.5935   4.4877   4.5021   4.5317   4.6044   4.9601
     5.1550   5.2386   5.4709   5.5169   5.5898   5.8279   5.9652   6.0058
     6.2263   6.3841   6.3939   6.4379   7.0112   7.0753   7.1484   7.4319
     7.5649   7.6117   7.7294   7.9868   8.0531   8.0813   8.2143   8.2845
     8.4433   8.5978   8.6851   8.7244   8.7462   8.8567   8.9765

     occupation numbers 
     1.0000   1.0000   1.0000   1.0000   1.0000   1.0000   1.0000   1.0000
     1.0000   1.0000   1.0000   1.0000   1.0000   1.0000   1.0000   1.0000
     1.0000   1.0000   1.0000   1.0000   1.0000   1.0000   1.0000   1.0000
     1.0000   1.0000   1.0000   1.0000   1.0000   1.0000   1.0000   1.0000
     1.0000   1.0000   1.0000   1.0000   1.0000   1.0000   1.0000   1.0000
     1.0000   1.0000   1.0000   1.0000   1.0000   1.0000   1.0000   1.0000
     1.0000   1.0000   1.0000   1.0000   1.0000   1.0000   1.0000   1.0000
     1.0000   1.0000   1.0000   1.0000   1.0000   1.0000   1.0000   1.0000
     1.0000   1.0000   1.0000   1.0000   1.0000   1.0000   1.0000   1.0000
     1.0000   1.0000   1.0000   1.0000   1.0000   1.0000   1.0000   1.0000
     1.0000   1.0000   1.0000   1.0000   1.0000   1.0000   1.0000   1.0000
     1.0000   1.0000   1.0000   1.0000   1.0000   1.0000   1.0000   1.0000
     1.0000   1.0000   1.0000   1.0000   1.0000   1.0000   1.0000   1.0000
     1.0000   1.0000   1.0000   1.0000   1.0000   1.0000   1.0000   1.0000
     1.0000   1.0000   1.0000   1.0000   1.0000   1.0000   1.0000   1.0000
     1.0000   1.0000   1.0000   1.0000   1.0000   1.0000   1.0000   1.0000
     1.0000   1.0000   1.0000   1.0000   1.0000   1.0000   1.0000   1.0000
     1.0000   1.0000   1.0000   1.0000   1.0000   1.0000   1.0000   1.0000
     1.0000   1.0000   1.0000   1.0000   1.0000   1.0000   1.0000   1.0000
     1.0000   1.0000   1.0000   1.0000   1.0000   1.0000   1.0000   1.0000
     1.0000   1.0000   0.9999   0.9999   0.9998   0.9997   0.9997   0.9996
     0.9996   0.9995   0.9994   0.9994   0.9993   0.9988   0.9985   0.9982
     0.9980   0.9938   0.9928   0.9922   0.9888   0.9875   0.9860   0.9852
     0.9830   0.9825   0.9818   0.9795   0.9760   0.9737   0.9713   0.9698
     0.9668   0.9604   0.9494   0.9457   0.9082   0.8602   0.8576   0.8547
     0.8384   0.8367   0.8325   0.8234   0.8122   0.8107   0.8067   0.7842
     0.7753   0.7403   0.7337   0.7001   0.6952   0.6824   0.6816   0.6707
     0.6694   0.6664   0.6652   0.6626   0.6563   0.6449   0.6443   0.6083
     0.6049   0.5963   0.5646   0.1220   0.1177   0.1093   0.0904   0.0310
     0.0155   0.0113   0.0043   0.0035   0.0025   0.0008   0.0004   0.0003
     0.0001   0.0000   0.0000   0.0000   0.0000   0.0000   0.0000   0.0000
     0.0000   0.0000   0.0000   0.0000   0.0000   0.0000   0.0000   0.0000
     0.0000   0.0000   0.0000   0.0000   0.0000   0.0000   0.0000

          k = 0.2500 0.2500 0.0000 ( 65198 PWs)   bands (ev):

   -92.3232 -92.2674 -92.1770 -92.1275 -92.0680 -92.0294 -92.0125 -91.8906
   -55.6763 -55.6538 -55.5350 -55.5244 -55.5163 -55.5111 -55.4730 -55.4467
   -55.4307 -55.4283 -55.4184 -55.3771 -55.3583 -55.3203 -55.3029 -55.2674
   -55.2629 -55.2186 -55.2164 -55.2153 -55.2068 -55.1656 -55.1432 -55.0573
   -30.9086 -30.8931 -30.7722 -30.7504 -30.6880 -30.6644 -30.5778 -30.4657
   -29.4738 -29.4327 -29.4063 -29.2983 -22.2452 -14.6439 -14.6126 -14.5349
   -14.4173 -14.3053 -14.1813 -14.1002 -13.9019 -13.7623 -13.7390 -13.7285
   -13.6941 -13.6636 -13.6426 -13.6208 -13.5912 -13.5682 -13.4716 -13.4565
   -13.2955 -13.2832 -13.2519 -13.2320 -13.1975 -13.1448 -13.1109 -13.0589
   -12.9752 -12.9337 -12.8641 -12.7771 -12.7391 -12.7206 -12.6832 -12.6544
   -12.6433 -12.5996 -12.5812 -12.5701 -12.5413 -12.5129 -12.4895 -12.4568
   -12.4038 -12.3941 -12.3753 -12.3470 -12.2110 -12.0864 -12.0848 -11.9114
   -11.8096 -11.7625 -11.4270 -11.3950 -11.3845 -11.3771 -11.3148 -11.2797
   -11.2732 -11.2379 -11.2301 -11.1384 -11.0968 -11.0793  -5.7751  -3.1535
    -3.1494  -2.2963  -2.0857  -1.9684  -1.8757  -1.7527  -1.6873  -1.4925
    -1.3451  -1.3243  -1.2980  -1.2030  -1.1674  -1.0757  -1.0491  -0.9990
    -0.8662  -0.8192  -0.7473  -0.7016  -0.6580  -0.6329  -0.6073  -0.5664
    -0.5499  -0.4603  -0.4110  -0.3492  -0.2995  -0.2706  -0.2160  -0.2067
    -0.1435  -0.0926  -0.0403  -0.0018   0.0794   0.1319   0.1619   0.2045
     0.2579   0.3150   0.3643   0.3934   0.4598   0.5115   0.7754   0.9191
     0.9605   1.0080   1.0548   1.1159   1.1689   1.2234   1.2608   1.5355
     1.6083   1.6829   1.7088   1.7514   1.7886   1.8228   1.8589   1.8776
     1.9059   1.9414   1.9538   1.9732   2.0129   2.0550   2.0938   2.1335
     2.1734   2.1883   2.2163   2.2585   2.3074   2.3373   2.4698   2.5358
     2.5780   2.6089   2.6646   2.7332   2.7648   2.8026   2.8222   2.8372
     2.9456   2.9857   3.0742   3.0855   3.0989   3.2505   3.2678   3.2743
     3.2895   3.3029   3.3166   3.3291   3.3372   3.3472   3.3608   3.3723
     3.3921   3.3986   3.4093   3.4293   3.4441   3.4534   3.4849   3.7866
     3.8771   3.9131   3.9739   3.9979   4.2230   4.3281   4.6515   4.8142
     4.9922   5.1570   5.3396   5.5748   5.9316   5.9635   6.0040   6.1319
     6.2140   6.2657   6.3573   6.4244   6.9105   7.0124   7.0517   7.1950
     7.7172   7.8003   7.8243   7.9040   8.0380   8.1384   8.2114   8.2840
     8.3446   8.4328   8.6358   8.6791   8.7018   8.7381   8.8387

     occupation numbers 
     1.0000   1.0000   1.0000   1.0000   1.0000   1.0000   1.0000   1.0000
     1.0000   1.0000   1.0000   1.0000   1.0000   1.0000   1.0000   1.0000
     1.0000   1.0000   1.0000   1.0000   1.0000   1.0000   1.0000   1.0000
     1.0000   1.0000   1.0000   1.0000   1.0000   1.0000   1.0000   1.0000
     1.0000   1.0000   1.0000   1.0000   1.0000   1.0000   1.0000   1.0000
     1.0000   1.0000   1.0000   1.0000   1.0000   1.0000   1.0000   1.0000
     1.0000   1.0000   1.0000   1.0000   1.0000   1.0000   1.0000   1.0000
     1.0000   1.0000   1.0000   1.0000   1.0000   1.0000   1.0000   1.0000
     1.0000   1.0000   1.0000   1.0000   1.0000   1.0000   1.0000   1.0000
     1.0000   1.0000   1.0000   1.0000   1.0000   1.0000   1.0000   1.0000
     1.0000   1.0000   1.0000   1.0000   1.0000   1.0000   1.0000   1.0000
     1.0000   1.0000   1.0000   1.0000   1.0000   1.0000   1.0000   1.0000
     1.0000   1.0000   1.0000   1.0000   1.0000   1.0000   1.0000   1.0000
     1.0000   1.0000   1.0000   1.0000   1.0000   1.0000   1.0000   1.0000
     1.0000   1.0000   1.0000   1.0000   1.0000   1.0000   1.0000   1.0000
     1.0000   1.0000   1.0000   1.0000   1.0000   1.0000   1.0000   1.0000
     1.0000   1.0000   1.0000   1.0000   1.0000   1.0000   1.0000   1.0000
     1.0000   1.0000   1.0000   1.0000   1.0000   1.0000   1.0000   1.0000
     1.0000   1.0000   1.0000   1.0000   1.0000   1.0000   1.0000   1.0000
     1.0000   1.0000   1.0000   1.0000   1.0000   1.0000   1.0000   1.0000
     1.0000   1.0000   1.0000   0.9999   0.9999   0.9999   0.9999   0.9994
     0.9991   0.9986   0.9985   0.9981   0.9978   0.9974   0.9969   0.9966
     0.9962   0.9956   0.9953   0.9949   0.9940   0.9928   0.9916   0.9901
     0.9884   0.9878   0.9864   0.9840   0.9809   0.9787   0.9665   0.9585
     0.9526   0.9479   0.9385   0.9251   0.9182   0.9094   0.9046   0.9007
     0.8697   0.8566   0.8248   0.8204   0.8152   0.7492   0.7410   0.7378
     0.7304   0.7238   0.7169   0.7106   0.7065   0.7014   0.6944   0.6884
     0.6779   0.6744   0.6686   0.6578   0.6497   0.6446   0.6270   0.4506
     0.3980   0.3776   0.3438   0.3308   0.2200   0.1767   0.0795   0.0495
     0.0278   0.0154   0.0075   0.0027   0.0005   0.0004   0.0003   0.0002
     0.0001   0.0001   0.0000   0.0000   0.0000   0.0000   0.0000   0.0000
     0.0000   0.0000   0.0000   0.0000   0.0000   0.0000   0.0000   0.0000
     0.0000   0.0000   0.0000   0.0000   0.0000   0.0000   0.0000

          k = 0.2500-0.5000 0.0000 ( 65138 PWs)   bands (ev):

   -92.3232 -92.2674 -92.1770 -92.1275 -92.0680 -92.0294 -92.0125 -91.8906
   -55.6763 -55.6538 -55.5350 -55.5244 -55.5163 -55.5111 -55.4730 -55.4467
   -55.4307 -55.4283 -55.4184 -55.3770 -55.3583 -55.3203 -55.3029 -55.2674
   -55.2629 -55.2186 -55.2164 -55.2153 -55.2068 -55.1656 -55.1432 -55.0573
   -30.9084 -30.8929 -30.7719 -30.7506 -30.6884 -30.6646 -30.5775 -30.4660
   -29.4732 -29.4324 -29.4069 -29.2986 -22.2452 -14.6104 -14.5646 -14.4972
   -14.3851 -14.3507 -14.2293 -14.1461 -14.0176 -13.7622 -13.7024 -13.6571
   -13.6264 -13.6073 -13.5898 -13.5732 -13.5412 -13.5283 -13.4931 -13.4513
   -13.4384 -13.4082 -13.2958 -13.2478 -13.2154 -13.1682 -13.1354 -13.0993
   -13.0293 -12.9867 -12.8399 -12.7759 -12.7588 -12.7003 -12.6648 -12.6601
   -12.6223 -12.6032 -12.5772 -12.5464 -12.5430 -12.5054 -12.4921 -12.4559
   -12.4219 -12.4087 -12.2886 -12.2572 -12.1549 -12.1058 -11.9552 -11.9421
   -11.8778 -11.8469 -11.4024 -11.3906 -11.3795 -11.3523 -11.3209 -11.2924
   -11.2515 -11.2236 -11.2015 -11.1564 -11.1303 -11.1191  -5.7750  -3.1537
    -3.1494  -2.0787  -2.0118  -1.8825  -1.8046  -1.6774  -1.5927  -1.4690
    -1.3174  -1.2653  -1.2426  -1.1790  -1.1656  -1.0694  -1.0024  -0.9165
    -0.8699  -0.8602  -0.7945  -0.7547  -0.7183  -0.6715  -0.6351  -0.6000
    -0.5591  -0.5488  -0.5030  -0.4752  -0.4342  -0.4034  -0.3352  -0.2357
    -0.1963  -0.1197  -0.0565  -0.0103   0.0357   0.0591   0.1028   0.2672
     0.2769   0.3809   0.4232   0.4335   0.4811   0.5024   0.5445   0.5697
     0.6470   0.9016   0.9923   1.0777   1.1394   1.3902   1.4187   1.5074
     1.5339   1.7051   1.7358   1.7804   1.8034   1.8221   1.8419   1.9014
     1.9445   1.9834   2.0617   2.1356   2.1782   2.2036   2.2166   2.2485
     2.2640   2.2742   2.3120   2.3297   2.3461   2.3837   2.4014   2.4299
     2.4593   2.5185   2.5551   2.6301   2.7760   2.9280   2.9415   2.9610
     2.9878   3.0129   3.0408   3.0642   3.0685   3.0812   3.1009   3.1116
     3.2000   3.2478   3.2691   3.2706   3.2869   3.3077   3.3219   3.3403
     3.3476   3.3764   3.3894   3.4057   3.4153   3.4241   3.4348   3.9497
     3.9556   4.1175   4.1650   4.4951   4.5418   4.5511   4.6714   5.0249
     5.1895   5.2692   5.4789   5.5088   5.6291   5.6889   5.8963   5.9219
     6.1014   6.1507   6.2885   6.4898   6.5793   6.6519   7.1142   7.2392
     7.4804   7.6333   7.9701   8.0862   8.1717   8.2170   8.3430   8.4052
     8.5500   8.5944   8.6881   8.7576   8.8284   8.8800   8.9320

     occupation numbers 
     1.0000   1.0000   1.0000   1.0000   1.0000   1.0000   1.0000   1.0000
     1.0000   1.0000   1.0000   1.0000   1.0000   1.0000   1.0000   1.0000
     1.0000   1.0000   1.0000   1.0000   1.0000   1.0000   1.0000   1.0000
     1.0000   1.0000   1.0000   1.0000   1.0000   1.0000   1.0000   1.0000
     1.0000   1.0000   1.0000   1.0000   1.0000   1.0000   1.0000   1.0000
     1.0000   1.0000   1.0000   1.0000   1.0000   1.0000   1.0000   1.0000
     1.0000   1.0000   1.0000   1.0000   1.0000   1.0000   1.0000   1.0000
     1.0000   1.0000   1.0000   1.0000   1.0000   1.0000   1.0000   1.0000
     1.0000   1.0000   1.0000   1.0000   1.0000   1.0000   1.0000   1.0000
     1.0000   1.0000   1.0000   1.0000   1.0000   1.0000   1.0000   1.0000
     1.0000   1.0000   1.0000   1.0000   1.0000   1.0000   1.0000   1.0000
     1.0000   1.0000   1.0000   1.0000   1.0000   1.0000   1.0000   1.0000
     1.0000   1.0000   1.0000   1.0000   1.0000   1.0000   1.0000   1.0000
     1.0000   1.0000   1.0000   1.0000   1.0000   1.0000   1.0000   1.0000
     1.0000   1.0000   1.0000   1.0000   1.0000   1.0000   1.0000   1.0000
     1.0000   1.0000   1.0000   1.0000   1.0000   1.0000   1.0000   1.0000
     1.0000   1.0000   1.0000   1.0000   1.0000   1.0000   1.0000   1.0000
     1.0000   1.0000   1.0000   1.0000   1.0000   1.0000   1.0000   1.0000
     1.0000   1.0000   1.0000   1.0000   1.0000   1.0000   1.0000   1.0000
     1.0000   1.0000   1.0000   1.0000   1.0000   1.0000   1.0000   1.0000
     1.0000   1.0000   1.0000   1.0000   0.9999   0.9997   0.9997   0.9994
     0.9994   0.9985   0.9983   0.9978   0.9976   0.9974   0.9971   0.9963
     0.9955   0.9947   0.9926   0.9900   0.9882   0.9870   0.9863   0.9846
     0.9837   0.9831   0.9806   0.9793   0.9780   0.9749   0.9734   0.9707
     0.9676   0.9607   0.9559   0.9444   0.9157   0.8751   0.8709   0.8647
     0.8559   0.8473   0.8373   0.8286   0.8270   0.8221   0.8144   0.8101
     0.7725   0.7505   0.7403   0.7396   0.7317   0.7214   0.7143   0.7049
     0.7012   0.6862   0.6793   0.6706   0.6654   0.6607   0.6548   0.3571
     0.3538   0.2692   0.2464   0.1198   0.1065   0.1040   0.0752   0.0248
     0.0137   0.0100   0.0042   0.0037   0.0021   0.0016   0.0006   0.0005
     0.0002   0.0001   0.0001   0.0000   0.0000   0.0000   0.0000   0.0000
     0.0000   0.0000   0.0000   0.0000   0.0000   0.0000   0.0000   0.0000
     0.0000   0.0000   0.0000   0.0000   0.0000   0.0000   0.0000

          k =-0.5000-0.5000 0.0000 ( 65132 PWs)   bands (ev):

   -92.3232 -92.2674 -92.1770 -92.1275 -92.0680 -92.0294 -92.0125 -91.8906
   -55.6763 -55.6538 -55.5350 -55.5244 -55.5163 -55.5111 -55.4730 -55.4467
   -55.4307 -55.4283 -55.4184 -55.3770 -55.3583 -55.3203 -55.3029 -55.2674
   -55.2629 -55.2186 -55.2164 -55.2153 -55.2068 -55.1656 -55.1432 -55.0573
   -30.9062 -30.8952 -30.7717 -30.7503 -30.6882 -30.6650 -30.5777 -30.4662
   -29.4722 -29.4334 -29.4065 -29.2991 -22.2452 -14.5650 -14.5369 -14.4202
   -14.4092 -14.3176 -14.2761 -14.2499 -14.1164 -13.7621 -13.6155 -13.6060
   -13.5684 -13.5515 -13.5334 -13.5258 -13.4889 -13.4805 -13.4678 -13.4608
   -13.4450 -13.3654 -13.3589 -13.3371 -13.3154 -13.2957 -13.2127 -13.1928
   -13.0806 -13.0358 -12.7917 -12.7555 -12.6848 -12.6682 -12.6588 -12.6381
   -12.6183 -12.6119 -12.6027 -12.5864 -12.5251 -12.5077 -12.4942 -12.4739
   -12.4325 -12.4260 -12.2384 -12.2308 -12.1712 -12.0855 -11.9516 -11.9109
   -11.8723 -11.8526 -11.3987 -11.3866 -11.3688 -11.3520 -11.3175 -11.2997
   -11.2648 -11.2040 -11.1837 -11.1785 -11.1280 -11.1250  -5.7750  -3.1537
    -3.1495  -1.8558  -1.7792  -1.7694  -1.6944  -1.6568  -1.5786  -1.5110
    -1.3851  -1.2676  -1.2381  -1.1994  -1.1410  -1.0693  -1.0558  -0.9840
    -0.9412  -0.8260  -0.7995  -0.7503  -0.7172  -0.6535  -0.6109  -0.5911
    -0.5803  -0.5277  -0.4785  -0.4678  -0.3529  -0.2958  -0.2492  -0.2000
    -0.1760  -0.1647  -0.1275  -0.0883  -0.0555  -0.0395   0.0466   0.1097
     0.1632   0.1808   0.2590   0.3057   0.3185   0.3781   0.3993   0.4170
     0.4375   0.8681   0.9046   1.0151   1.0601   1.4249   1.4383   1.4692
     1.5091   1.7873   1.8074   1.8141   1.8516   1.9869   2.0832   2.1085
     2.1424   2.1511   2.1799   2.1924   2.2242   2.2292   2.2356   2.2526
     2.3167   2.3192   2.3436   2.3479   2.3759   2.3841   2.4246   2.4567
     2.4668   2.5027   2.5274   2.6018   2.6703   2.9382   2.9726   2.9897
     3.0128   3.0139   3.0447   3.0541   3.0715   3.0784   3.0875   3.0996
     3.1083   3.1248   3.1364   3.2011   3.2046   3.2259   3.2397   3.2501
     3.2694   3.2752   3.2850   3.3849   3.3891   3.4203   3.4301   4.3787
     4.3918   4.4103   4.4198   4.6948   4.7668   4.7944   5.0342   5.1534
     5.1770   5.2410   5.3543   5.4091   5.5435   5.5684   5.5784   5.7300
     6.0062   6.0525   6.1283   6.2593   6.5414   6.6706   6.7673   7.0566
     7.5302   7.5422   7.6700   8.2957   8.3179   8.3962   8.4620   8.5678
     8.6112   8.8165   8.9019   8.9237   8.9425   8.9536   8.9810

     occupation numbers 
     1.0000   1.0000   1.0000   1.0000   1.0000   1.0000   1.0000   1.0000
     1.0000   1.0000   1.0000   1.0000   1.0000   1.0000   1.0000   1.0000
     1.0000   1.0000   1.0000   1.0000   1.0000   1.0000   1.0000   1.0000
     1.0000   1.0000   1.0000   1.0000   1.0000   1.0000   1.0000   1.0000
     1.0000   1.0000   1.0000   1.0000   1.0000   1.0000   1.0000   1.0000
     1.0000   1.0000   1.0000   1.0000   1.0000   1.0000   1.0000   1.0000
     1.0000   1.0000   1.0000   1.0000   1.0000   1.0000   1.0000   1.0000
     1.0000   1.0000   1.0000   1.0000   1.0000   1.0000   1.0000   1.0000
     1.0000   1.0000   1.0000   1.0000   1.0000   1.0000   1.0000   1.0000
     1.0000   1.0000   1.0000   1.0000   1.0000   1.0000   1.0000   1.0000
     1.0000   1.0000   1.0000   1.0000   1.0000   1.0000   1.0000   1.0000
     1.0000   1.0000   1.0000   1.0000   1.0000   1.0000   1.0000   1.0000
     1.0000   1.0000   1.0000   1.0000   1.0000   1.0000   1.0000   1.0000
     1.0000   1.0000   1.0000   1.0000   1.0000   1.0000   1.0000   1.0000
[...]
     0.0000   0.0000   0.0000   0.0000   0.0000   0.0000   0.0000   0.0000
     0.0000   0.0000   0.0000   0.0000   0.0000   0.0000   0.0000

          k =-0.5000 0.0000 0.0000 ( 65180 PWs)   bands (ev):

   -92.3232 -92.2674 -92.1770 -92.1275 -92.0680 -92.0294 -92.0125 -91.8906
   -55.6763 -55.6538 -55.5350 -55.5244 -55.5163 -55.5111 -55.4730 -55.4467
   -55.4307 -55.4283 -55.4184 -55.3771 -55.3583 -55.3203 -55.3029 -55.2674
   -55.2629 -55.2186 -55.2164 -55.2153 -55.2068 -55.1656 -55.1432 -55.0573
   -30.9065 -30.8955 -30.7724 -30.7499 -30.6875 -30.6647 -30.5782 -30.4656
   -29.4734 -29.4340 -29.4053 -29.2984 -22.2452 -14.6438 -14.5962 -14.5334
   -14.4287 -14.3190 -14.1748 -14.0382 -13.8983 -13.7650 -13.7621 -13.7570
   -13.7352 -13.6883 -13.6248 -13.5919 -13.5485 -13.5427 -13.5259 -13.4695
   -13.4633 -13.3707 -13.1836 -13.1702 -13.1244 -13.1156 -13.0904 -12.9947
   -12.9767 -12.9025 -12.8841 -12.8790 -12.7653 -12.6874 -12.6798 -12.6757
   -12.6579 -12.6444 -12.5823 -12.5724 -12.5635 -12.5440 -12.4776 -12.4124
   -12.3799 -12.3637 -12.2731 -12.2641 -12.1742 -12.1555 -12.0035 -11.9614
   -11.8710 -11.8341 -11.4057 -11.3847 -11.3777 -11.3629 -11.3451 -11.3039
   -11.2404 -11.2230 -11.1907 -11.1457 -11.1363 -11.1203  -5.7751  -3.1533
    -3.1496  -2.2096  -2.1705  -2.0056  -1.9667  -1.6557  -1.5805  -1.4305
    -1.3124  -1.2743  -1.2278  -1.1797  -1.1535  -1.0326  -0.9867  -0.9737
    -0.8900  -0.8544  -0.8422  -0.8071  -0.7530  -0.6828  -0.6517  -0.6271
    -0.5330  -0.4821  -0.4342  -0.4019  -0.3799  -0.3513  -0.3026  -0.2779
    -0.2421  -0.1478  -0.0722  -0.0129   0.0519   0.2003   0.2560   0.3151
     0.3339   0.3879   0.4256   0.5516   0.5923   0.6414   0.8128   0.9106
     0.9559   1.0390   1.0862   1.2258   1.2427   1.3656   1.3987   1.4527
     1.4764   1.5186   1.5298   1.5757   1.6012   1.6634   1.7116   1.7585
     1.7681   2.0587   2.0687   2.0727   2.0973   2.2188   2.2264   2.2335
     2.2529   2.2859   2.2983   2.3326   2.3647   2.3820   2.4508   2.4532
     2.5116   2.5248   2.5911   2.6933   2.7870   2.8719   2.8869   2.9645
     3.0021   3.0243   3.0797   3.0877   3.1034   3.1085   3.1144   3.1412
     3.2095   3.2538   3.2978   3.3267   3.3747   3.3778   3.3791   3.3915
     3.4065   3.4179   3.4323   3.4357   3.4556   3.4625   3.4838   3.5046
     3.5088   3.6346   3.6428   4.4465   4.4748   4.5375   4.6611   5.0185
     5.1561   5.2210   5.3287   5.4516   5.7302   5.8799   5.9721   5.9996
     6.2227   6.2916   6.3970   6.4443   6.9954   7.0836   7.1501   7.4723
     7.4944   7.6998   7.7624   7.8721   8.0956   8.1157   8.2067   8.3639
     8.4561   8.5794   8.6447   8.7414   8.7503   8.8718   8.9232

     occupation numbers 
     1.0000   1.0000   1.0000   1.0000   1.0000   1.0000   1.0000   1.0000
     1.0000   1.0000   1.0000   1.0000   1.0000   1.0000   1.0000   1.0000
     1.0000   1.0000   1.0000   1.0000   1.0000   1.0000   1.0000   1.0000
     1.0000   1.0000   1.0000   1.0000   1.0000   1.0000   1.0000   1.0000
     1.0000   1.0000   1.0000   1.0000   1.0000   1.0000   1.0000   1.0000
     1.0000   1.0000   1.0000   1.0000   1.0000   1.0000   1.0000   1.0000
     1.0000   1.0000   1.0000   1.0000   1.0000   1.0000   1.0000   1.0000
     1.0000   1.0000   1.0000   1.0000   1.0000   1.0000   1.0000   1.0000
     1.0000   1.0000   1.0000   1.0000   1.0000   1.0000   1.0000   1.0000
     1.0000   1.0000   1.0000   1.0000   1.0000   1.0000   1.0000   1.0000
     1.0000   1.0000   1.0000   1.0000   1.0000   1.0000   1.0000   1.0000
     1.0000   1.0000   1.0000   1.0000   1.0000   1.0000   1.0000   1.0000
     1.0000   1.0000   1.0000   1.0000   1.0000   1.0000   1.0000   1.0000
     1.0000   1.0000   1.0000   1.0000   1.0000   1.0000   1.0000   1.0000
     1.0000   1.0000   1.0000   1.0000   1.0000   1.0000   1.0000   1.0000
     1.0000   1.0000   1.0000   1.0000   1.0000   1.0000   1.0000   1.0000
     1.0000   1.0000   1.0000   1.0000   1.0000   1.0000   1.0000   1.0000
     1.0000   1.0000   1.0000   1.0000   1.0000   1.0000   1.0000   1.0000
     1.0000   1.0000   1.0000   1.0000   1.0000   1.0000   1.0000   1.0000
     1.0000   1.0000   1.0000   1.0000   1.0000   1.0000   1.0000   1.0000
     1.0000   1.0000   0.9999   0.9999   0.9999   0.9997   0.9997   0.9996
     0.9995   0.9994   0.9994   0.9992   0.9991   0.9988   0.9984   0.9981
     0.9980   0.9927   0.9924   0.9923   0.9914   0.9862   0.9858   0.9855
     0.9844   0.9823   0.9815   0.9791   0.9766   0.9751   0.9685   0.9683
     0.9616   0.9599   0.9506   0.9331   0.9131   0.8914   0.8872   0.8636
     0.8510   0.8432   0.8227   0.8196   0.8134   0.8113   0.8089   0.7979
     0.7682   0.7477   0.7263   0.7119   0.6871   0.6854   0.6848   0.6782
     0.6702   0.6640   0.6562   0.6543   0.6433   0.6395   0.6276   0.6159
     0.6135   0.5405   0.5357   0.1348   0.1259   0.1077   0.0774   0.0254
     0.0155   0.0121   0.0079   0.0047   0.0013   0.0006   0.0004   0.0003
     0.0001   0.0001   0.0000   0.0000   0.0000   0.0000   0.0000   0.0000
     0.0000   0.0000   0.0000   0.0000   0.0000   0.0000   0.0000   0.0000
     0.0000   0.0000   0.0000   0.0000   0.0000   0.0000   0.0000

          k =-0.2500 0.2500 0.0000 ( 65198 PWs)   bands (ev):

   -92.3232 -92.2674 -92.1770 -92.1275 -92.0680 -92.0294 -92.0125 -91.8906
   -55.6763 -55.6538 -55.5350 -55.5244 -55.5163 -55.5111 -55.4730 -55.4467
   -55.4307 -55.4283 -55.4184 -55.3771 -55.3583 -55.3203 -55.3029 -55.2674
   -55.2629 -55.2186 -55.2164 -55.2153 -55.2068 -55.1656 -55.1432 -55.0573
   -30.9086 -30.8931 -30.7722 -30.7504 -30.6880 -30.6644 -30.5778 -30.4657
   -29.4738 -29.4327 -29.4063 -29.2983 -22.2452 -14.6454 -14.6114 -14.5334
   -14.4151 -14.3120 -14.1856 -14.0921 -13.8934 -13.7623 -13.7469 -13.7167
   -13.7075 -13.6593 -13.6350 -13.6200 -13.6111 -13.5683 -13.4680 -13.4571
   -13.3046 -13.2784 -13.2514 -13.2296 -13.1992 -13.1308 -13.1012 -13.0686
   -12.9842 -12.9334 -12.8575 -12.7807 -12.7412 -12.7139 -12.6749 -12.6517
   -12.6291 -12.6063 -12.5865 -12.5728 -12.5593 -12.5184 -12.4982 -12.4503
   -12.4079 -12.4016 -12.3814 -12.3249 -12.1923 -12.1038 -12.0753 -11.9171
   -11.8124 -11.7586 -11.4263 -11.4044 -11.3774 -11.3650 -11.3244 -11.2894
   -11.2666 -11.2449 -11.2225 -11.1381 -11.0922 -11.0826  -5.7751  -3.1535
    -3.1494  -2.2946  -2.0846  -1.9641  -1.8777  -1.7569  -1.6899  -1.4902
    -1.3417  -1.3221  -1.2959  -1.2035  -1.1662  -1.0756  -1.0424  -1.0165
    -0.8718  -0.8173  -0.7502  -0.7213  -0.6620  -0.6382  -0.5977  -0.5686
    -0.5290  -0.4668  -0.4203  -0.3604  -0.2907  -0.2668  -0.2128  -0.1845
    -0.1399  -0.0834  -0.0433   0.0039   0.0975   0.1357   0.1396   0.1915
     0.2550   0.3159   0.3668   0.3965   0.4635   0.5100   0.7571   0.9218
     0.9679   1.0015   1.0590   1.1129   1.1736   1.2298   1.2587   1.5428
     1.6598   1.6982   1.7287   1.7386   1.7805   1.7983   1.8418   1.8719
     1.8896   1.9155   1.9527   1.9652   2.0154   2.0300   2.0748   2.1433
     2.1653   2.1879   2.2224   2.2552   2.2899   2.3419   2.4585   2.5650
     2.6047   2.6463   2.6677   2.7320   2.7774   2.8033   2.8241   2.8479
     2.9462   2.9845   3.0752   3.0853   3.0980   3.2568   3.2660   3.2789
     3.2895   3.2997   3.3129   3.3191   3.3370   3.3462   3.3616   3.3711
     3.3839   3.3932   3.4000   3.4315   3.4433   3.4526   3.4867   3.7797
     3.8604   3.9161   3.9774   4.0058   4.2079   4.3365   4.6504   4.8148
     4.9885   5.1594   5.3500   5.5735   5.9316   5.9631   6.0050   6.1363
     6.2110   6.2657   6.3643   6.4147   6.9243   6.9988   7.0477   7.1988
     7.7177   7.8113   7.8248   7.9066   7.9993   8.1657   8.2042   8.2861
     8.3516   8.4337   8.6159   8.6941   8.7143   8.7348   8.8382

     occupation numbers 
     1.0000   1.0000   1.0000   1.0000   1.0000   1.0000   1.0000   1.0000
     1.0000   1.0000   1.0000   1.0000   1.0000   1.0000   1.0000   1.0000
     1.0000   1.0000   1.0000   1.0000   1.0000   1.0000   1.0000   1.0000
     1.0000   1.0000   1.0000   1.0000   1.0000   1.0000   1.0000   1.0000
     1.0000   1.0000   1.0000   1.0000   1.0000   1.0000   1.0000   1.0000
     1.0000   1.0000   1.0000   1.0000   1.0000   1.0000   1.0000   1.0000
     1.0000   1.0000   1.0000   1.0000   1.0000   1.0000   1.0000   1.0000
     1.0000   1.0000   1.0000   1.0000   1.0000   1.0000   1.0000   1.0000
     1.0000   1.0000   1.0000   1.0000   1.0000   1.0000   1.0000   1.0000
     1.0000   1.0000   1.0000   1.0000   1.0000   1.0000   1.0000   1.0000
     1.0000   1.0000   1.0000   1.0000   1.0000   1.0000   1.0000   1.0000
     1.0000   1.0000   1.0000   1.0000   1.0000   1.0000   1.0000   1.0000
     1.0000   1.0000   1.0000   1.0000   1.0000   1.0000   1.0000   1.0000
     1.0000   1.0000   1.0000   1.0000   1.0000   1.0000   1.0000   1.0000
     1.0000   1.0000   1.0000   1.0000   1.0000   1.0000   1.0000   1.0000
     1.0000   1.0000   1.0000   1.0000   1.0000   1.0000   1.0000   1.0000
     1.0000   1.0000   1.0000   1.0000   1.0000   1.0000   1.0000   1.0000
     1.0000   1.0000   1.0000   1.0000   1.0000   1.0000   1.0000   1.0000
     1.0000   1.0000   1.0000   1.0000   1.0000   1.0000   1.0000   1.0000
     1.0000   1.0000   1.0000   1.0000   1.0000   1.0000   1.0000   1.0000
     1.0000   1.0000   1.0000   0.9999   0.9999   0.9999   0.9999   0.9993
     0.9988   0.9985   0.9983   0.9982   0.9978   0.9977   0.9971   0.9967
     0.9965   0.9960   0.9953   0.9951   0.9939   0.9935   0.9922   0.9897
     0.9888   0.9878   0.9860   0.9842   0.9821   0.9784   0.9677   0.9545
     0.9485   0.9417   0.9379   0.9253   0.9154   0.9092   0.9041   0.8979
     0.8695   0.8570   0.8244   0.8205   0.8155   0.7462   0.7418   0.7356
     0.7304   0.7254   0.7188   0.7157   0.7066   0.7019   0.6939   0.6890
     0.6822   0.6773   0.6737   0.6566   0.6501   0.6450   0.6260   0.4547
     0.4077   0.3759   0.3418   0.3265   0.2267   0.1735   0.0798   0.0494
     0.0281   0.0153   0.0072   0.0027   0.0005   0.0004   0.0003   0.0002
     0.0001   0.0001   0.0000   0.0000   0.0000   0.0000   0.0000   0.0000
     0.0000   0.0000   0.0000   0.0000   0.0000   0.0000   0.0000   0.0000
     0.0000   0.0000   0.0000   0.0000   0.0000   0.0000   0.0000

          k =-0.5000 0.2500 0.0000 ( 65138 PWs)   bands (ev):

   -92.3232 -92.2674 -92.1770 -92.1275 -92.0680 -92.0294 -92.0125 -91.8906
   -55.6763 -55.6538 -55.5350 -55.5244 -55.5163 -55.5111 -55.4730 -55.4467
   -55.4307 -55.4283 -55.4184 -55.3771 -55.3583 -55.3203 -55.3029 -55.2674
   -55.2629 -55.2186 -55.2164 -55.2153 -55.2068 -55.1656 -55.1432 -55.0573
   -30.9063 -30.8953 -30.7721 -30.7501 -30.6879 -30.6648 -30.5779 -30.4659
   -29.4728 -29.4337 -29.4059 -29.2987 -22.2452 -14.6117 -14.5693 -14.4905
   -14.3940 -14.3489 -14.2211 -14.1411 -14.0124 -13.7622 -13.6973 -13.6677
   -13.6552 -13.6122 -13.5953 -13.5644 -13.5344 -13.5269 -13.5033 -13.4649
   -13.4492 -13.3565 -13.2682 -13.2316 -13.2172 -13.2075 -13.1524 -13.1012
   -13.0250 -12.9676 -12.8340 -12.7979 -12.7165 -12.6986 -12.6619 -12.6491
   -12.6378 -12.6148 -12.5977 -12.5763 -12.5674 -12.5111 -12.4904 -12.4414
   -12.4031 -12.3936 -12.2554 -12.2480 -12.1725 -12.1174 -11.9616 -11.9567
   -11.8661 -11.8430 -11.3986 -11.3860 -11.3718 -11.3601 -11.3389 -11.3086
   -11.2278 -11.2191 -11.1959 -11.1601 -11.1318 -11.1228  -5.7750  -3.1535
    -3.1496  -2.0679  -2.0252  -1.8755  -1.8337  -1.6749  -1.5992  -1.4547
    -1.3187  -1.2630  -1.2350  -1.1960  -1.1560  -1.0763  -0.9619  -0.9053
    -0.8817  -0.8569  -0.7827  -0.7510  -0.7156  -0.6951  -0.6349  -0.6083
    -0.5668  -0.5314  -0.5029  -0.4461  -0.4203  -0.3784  -0.3446  -0.2406
    -0.2153  -0.1310  -0.0658  -0.0349   0.0207   0.1088   0.1370   0.2422
     0.2679   0.3331   0.3747   0.4022   0.4850   0.5202   0.5524   0.6044
     0.6403   0.9425   0.9877   1.0646   1.1018   1.3737   1.4343   1.5089
     1.5340   1.7173   1.7535   1.7909   1.8068   1.8245   1.8423   1.9101
     1.9522   1.9873   2.0169   2.1203   2.1630   2.2068   2.2161   2.2462
     2.2768   2.2919   2.3065   2.3284   2.3533   2.3962   2.4219   2.4521
     2.4755   2.4995   2.5694   2.6855   2.7867   2.8156   2.8854   2.9287
     2.9797   3.0246   3.0315   3.0660   3.0839   3.0922   3.1064   3.1271
     3.2096   3.2514   3.2640   3.2715   3.2922   3.3156   3.3286   3.3421
     3.3547   3.3741   3.3882   3.3992   3.4068   3.4182   3.4307   3.9537
     3.9828   4.1492   4.1689   4.4501   4.5008   4.5533   4.7569   5.0708
     5.1773   5.2421   5.3527   5.4674   5.7362   5.7728   5.8469   5.9739
     6.0625   6.1214   6.3199   6.4237   6.5715   6.6547   7.1306   7.3115
     7.4328   7.6299   7.9766   8.0717   8.1884   8.2230   8.3236   8.3964
     8.5471   8.6503   8.7077   8.7344   8.8395   8.8714   8.9375

     occupation numbers 
     1.0000   1.0000   1.0000   1.0000   1.0000   1.0000   1.0000   1.0000
     1.0000   1.0000   1.0000   1.0000   1.0000   1.0000   1.0000   1.0000
     1.0000   1.0000   1.0000   1.0000   1.0000   1.0000   1.0000   1.0000
     1.0000   1.0000   1.0000   1.0000   1.0000   1.0000   1.0000   1.0000
     1.0000   1.0000   1.0000   1.0000   1.0000   1.0000   1.0000   1.0000
     1.0000   1.0000   1.0000   1.0000   1.0000   1.0000   1.0000   1.0000
     1.0000   1.0000   1.0000   1.0000   1.0000   1.0000   1.0000   1.0000
     1.0000   1.0000   1.0000   1.0000   1.0000   1.0000   1.0000   1.0000
     1.0000   1.0000   1.0000   1.0000   1.0000   1.0000   1.0000   1.0000
     1.0000   1.0000   1.0000   1.0000   1.0000   1.0000   1.0000   1.0000
     1.0000   1.0000   1.0000   1.0000   1.0000   1.0000   1.0000   1.0000
     1.0000   1.0000   1.0000   1.0000   1.0000   1.0000   1.0000   1.0000
     1.0000   1.0000   1.0000   1.0000   1.0000   1.0000   1.0000   1.0000
     1.0000   1.0000   1.0000   1.0000   1.0000   1.0000   1.0000   1.0000
     1.0000   1.0000   1.0000   1.0000   1.0000   1.0000   1.0000   1.0000
     1.0000   1.0000   1.0000   1.0000   1.0000   1.0000   1.0000   1.0000
     1.0000   1.0000   1.0000   1.0000   1.0000   1.0000   1.0000   1.0000
     1.0000   1.0000   1.0000   1.0000   1.0000   1.0000   1.0000   1.0000
     1.0000   1.0000   1.0000   1.0000   1.0000   1.0000   1.0000   1.0000
     1.0000   1.0000   1.0000   1.0000   1.0000   1.0000   1.0000   1.0000
     1.0000   1.0000   1.0000   1.0000   0.9999   0.9997   0.9996   0.9994
     0.9994   0.9984   0.9981   0.9977   0.9976   0.9974   0.9971   0.9961
     0.9953   0.9946   0.9939   0.9906   0.9889   0.9869   0.9864   0.9847
     0.9829   0.9819   0.9809   0.9794   0.9775   0.9738   0.9714   0.9684
     0.9658   0.9630   0.9538   0.9346   0.9132   0.9062   0.8877   0.8749
     0.8586   0.8431   0.8407   0.8279   0.8210   0.8178   0.8122   0.8038
     0.7682   0.7488   0.7428   0.7392   0.7291   0.7174   0.7109   0.7040
     0.6975   0.6874   0.6800   0.6741   0.6700   0.6639   0.6571   0.3549
     0.3389   0.2538   0.2445   0.1337   0.1181   0.1034   0.0588   0.0211
     0.0143   0.0111   0.0072   0.0044   0.0013   0.0011   0.0007   0.0004
     0.0002   0.0002   0.0001   0.0000   0.0000   0.0000   0.0000   0.0000
     0.0000   0.0000   0.0000   0.0000   0.0000   0.0000   0.0000   0.0000
     0.0000   0.0000   0.0000   0.0000   0.0000   0.0000   0.0000

     the Fermi energy is     3.7031 ev

!    total energy              =   -4482.96727154 Ry
     estimated scf accuracy    <          7.7E-09 Ry
     smearing contrib. (-TS)   =      -1.17272952 Ry
     internal energy E=F+TS    =   -4481.79454202 Ry

     The total energy is F=E-TS. E is the sum of the following terms:
     one-electron contribution =  -20252.33078614 Ry
     hartree contribution      =   10266.04610941 Ry
     xc contribution           =    -701.57707344 Ry
     ewald contribution        =    6491.72624170 Ry
     one-center paw contrib.   =    -285.65903355 Ry
      -> PAW hartree energy AE =      25.18943686 Ry
      -> PAW hartree energy PS =     -25.07309748 Ry
      -> PAW xc energy AE      =     -16.52115942 Ry
      -> PAW xc energy PS      =       6.88083782 Ry
      -> total E_H with PAW    =   10266.16244880 Ry
      -> total E_XC with PAW   =    -711.21739504 Ry

     convergence has been achieved in  50 iterations

     Writing all to output data dir /bsuhome/zayahcortright/scratch/pwscf.save/
 
     init_run     :      8.89s CPU      9.32s WALL (       1 calls)
     electrons    :    780.84s CPU    805.67s WALL (       1 calls)

     Called by init_run:
     wfcinit      :      7.00s CPU      7.21s WALL (       1 calls)
     wfcinit:atom :      0.04s CPU      0.06s WALL (       5 calls)
     wfcinit:wfcr :      6.66s CPU      6.80s WALL (       5 calls)
     potinit      :      0.16s CPU      0.18s WALL (       1 calls)
     hinit0       :      0.84s CPU      0.96s WALL (       1 calls)

     Called by electrons:
     c_bands      :    625.71s CPU    632.20s WALL (      50 calls)
     sum_band     :    117.20s CPU    127.30s WALL (      50 calls)
     v_of_rho     :      5.52s CPU      5.84s WALL (      51 calls)
     v_h          :      0.49s CPU      0.49s WALL (      51 calls)
     v_xc         :      5.03s CPU      5.35s WALL (      51 calls)
     newd         :     16.70s CPU     24.12s WALL (      51 calls)
     PAW_pot      :      1.69s CPU      1.71s WALL (      51 calls)
     mix_rho      :     13.62s CPU     13.96s WALL (      50 calls)

     Called by c_bands:
     init_us_2    :      6.60s CPU      6.66s WALL (     505 calls)
     init_us_2:cp :      6.59s CPU      6.66s WALL (     505 calls)
     cegterg      :    589.28s CPU    595.53s WALL (     250 calls)

     Called by sum_band:
     sum_band:wei :      0.37s CPU      0.37s WALL (      50 calls)
     sum_band:loo :     99.37s CPU    100.41s WALL (      50 calls)
     sum_band:buf :      1.57s CPU      1.63s WALL (     250 calls)
     sum_band:ini :      3.10s CPU      3.12s WALL (     250 calls)
     sum_band:cal :     20.80s CPU     20.93s WALL (     250 calls)
     sum_band:bec :      0.56s CPU      0.58s WALL (     250 calls)
     addusdens    :     15.70s CPU     24.73s WALL (      50 calls)
                                        0.00s GPU  (      50 calls)
     addusd:skk   :      0.30s CPU      0.84s WALL (     200 calls)
                                        0.00s GPU  (     200 calls)

     Called by *egterg:
     cdiaghg      :     65.27s CPU     65.52s WALL (    1452 calls)
     cegterg:over :     42.81s CPU     42.97s WALL (    1202 calls)
     cegterg:upda :     32.74s CPU     33.27s WALL (    1202 calls)
     cegterg:last :     67.28s CPU     67.51s WALL (     468 calls)
     cdiaghg:chol :      3.78s CPU      3.80s WALL (    1452 calls)
     cdiaghg:inve :      3.98s CPU      4.00s WALL (    1452 calls)
     cdiaghg:para :      8.19s CPU      8.23s WALL (    2904 calls)
     h_psi        :    320.79s CPU    324.00s WALL (    1457 calls)
     s_psi        :     43.96s CPU     44.10s WALL (    1457 calls)
     g_psi        :      1.22s CPU      1.23s WALL (    1202 calls)

     Called by h_psi:
     h_psi:calbec :     48.34s CPU     48.54s WALL (    1457 calls)
     vloc_psi     :    225.48s CPU    227.61s WALL (    1457 calls)
     add_vuspsi   :     43.77s CPU     44.03s WALL (    1457 calls)

     General routines
     calbec       :     69.13s CPU     69.46s WALL (    1707 calls)
     fft          :      3.74s CPU      3.78s WALL (     661 calls)
     ffts         :      4.74s CPU      4.77s WALL (    5262 calls)
     fftw         :    189.11s CPU    190.78s WALL (  344720 calls)
     interpolate  :      0.42s CPU      0.42s WALL (      51 calls)
 
     Parallel routines

     PAW routines
     PAW_pot      :      1.69s CPU      1.71s WALL (      51 calls)
 
     PWSCF        :  13m12.34s CPU  13m40.73s WALL

 
   This run was terminated on:  19:24:11  20Jun2024            

=------------------------------------------------------------------------------=
   JOB DONE.
=------------------------------------------------------------------------------=
