
     Program PWSCF v.7.2 starts on 18Jun2024 at 20:45:21 

     This program is part of the open-source Quantum ESPRESSO suite
     for quantum simulation of materials; please cite
         "P. Giannozzi et al., J. Phys.:Condens. Matter 21 395502 (2009);
         "P. Giannozzi et al., J. Phys.:Condens. Matter 29 465901 (2017);
         "P. Giannozzi et al., J. Chem. Phys. 152 154105 (2020);
          URL http://www.quantum-espresso.org", 
     in publications or presentations arising from this work. More details at
     http://www.quantum-espresso.org/quote

     Parallel version (MPI & OpenMP), running on      48 processor cores
     Number of MPI processes:                48
     Threads/MPI process:                     1

     MPI processes distributed on     1 nodes
     16431 MiB available memory on the printing compute node when the environment starts
 
     Reading input from espresso.pwi
Warning: card &CELL ignored
Warning: card / ignored
Warning: card &FCP ignored
Warning: card / ignored
Warning: card &RISM ignored
Warning: card / ignored

     Current dimensions of program PWSCF are:
     Max number of different atomic species (ntypx) = 10
     Max number of k-points (npk) =  40000
     Max angular momentum in pseudopotentials (lmaxx) =  4
     file O.pbe-n-kjpaw_psl.0.1.UPF: wavefunction(s)  2P renormalized
     signal trapping enabled: kill the code with -SIGUSR1 to stop cleanly the simulation 
 
     K-points division:     npool     =       2
     R & G space division:  proc/nbgrp/npool/nimage =      24
     Subspace diagonalization in iterative solution of the eigenvalue problem:
     one sub-group per band group will be used
     scalapack distributed-memory algorithm (size of sub-group:  3*  3 procs)

 
     Parallelization info
     --------------------
     sticks:   dense  smooth     PW     G-vecs:    dense   smooth      PW
     Min         350     175     47                61430    21716    3036
     Max         351     177     48                61449    21727    3041
     Sum        8421    4205   1137              1474595   521381   72913
 
     Using Slab Decomposition
 


     bravais-lattice index     =            0
     lattice parameter (alat)  =      14.8599  a.u.
     unit-cell volume          =    8305.1283 (a.u.)^3
     number of atoms/cell      =           51
     number of atomic types    =            4
     number of electrons       =       437.00
     number of Kohn-Sham states=          263
     kinetic-energy cutoff     =      60.0000  Ry
     charge density cutoff     =     480.0000  Ry
     scf convergence threshold =      1.0E-08
     mixing beta               =       0.1500
     number of iterations used =            8  local-TF  mixing
     Exchange-correlation= PBE
                           (   1   4   3   4   0   0   0)

     celldm(1)=  14.859904  celldm(2)=   0.000000  celldm(3)=   0.000000
     celldm(4)=   0.000000  celldm(5)=   0.000000  celldm(6)=   0.000000

     crystal axes: (cart. coord. in units of alat)
               a(1) = (   1.000000   0.000000   0.000000 )  
               a(2) = (   0.000000   1.000000   0.000000 )  
               a(3) = (   0.000000   0.000000   2.531036 )  

     reciprocal axes: (cart. coord. in units 2 pi/alat)
               b(1) = (  1.000000  0.000000  0.000000 )  
               b(2) = (  0.000000  1.000000  0.000000 )  
               b(3) = (  0.000000  0.000000  0.395095 )  


     PseudoPot. # 1 for Sr read from file:
     /bsuhome/zayahcortright/q-e/pseudo/Sr_pbe_v1.uspp.F.UPF
     MD5 check sum: 6b418c05fbe9db5448babca5e47b7a5b
     Pseudo is Ultrasoft + core correction, Zval = 10.0
     Generated by new atomic code, or converted to UPF format
     Using radial grid of  883 points,  6 beta functions with: 
                l(1) =   0
                l(2) =   0
                l(3) =   1
                l(4) =   1
                l(5) =   2
                l(6) =   2
     Q(r) pseudized with  6 coefficients,  rinner =    1.400   1.400   1.400
                                                       1.400   1.400

     PseudoPot. # 2 for O  read from file:
     /bsuhome/zayahcortright/q-e/pseudo/O.pbe-n-kjpaw_psl.0.1.UPF
     MD5 check sum: 0234752ac141de4415c5fc33072bef88
     Pseudo is Projector augmented-wave + core cor, Zval =  6.0
     Generated using "atomic" code by A. Dal Corso  v.5.0.99 svn rev. 10869
     Shape of augmentation charge: BESSEL
     Using radial grid of 1095 points,  4 beta functions with: 
                l(1) =   0
                l(2) =   0
                l(3) =   1
                l(4) =   1
     Q(r) pseudized with 0 coefficients 


     PseudoPot. # 3 for Co read from file:
     /bsuhome/zayahcortright/q-e/pseudo/Co_pbe_v1.2.uspp.F.UPF
     MD5 check sum: 5f91765df6ddd3222702df6e7b74a16d
     Pseudo is Ultrasoft + core correction, Zval = 17.0
     Generated by new atomic code, or converted to UPF format
     Using radial grid of  863 points,  6 beta functions with: 
                l(1) =   0
                l(2) =   0
                l(3) =   1
                l(4) =   1
                l(5) =   2
                l(6) =   2
     Q(r) pseudized with  8 coefficients,  rinner =    1.200   1.200   1.200
                                                       1.200   1.200

     PseudoPot. # 4 for H  read from file:
     /bsuhome/zayahcortright/q-e/pseudo/H.pbe-rrkjus_psl.1.0.0.UPF
     MD5 check sum: f52b6d4d1c606e5624b1dc7b2218f220
     Pseudo is Ultrasoft, Zval =  1.0
     Generated using "atomic" code by A. Dal Corso  v.5.1
     Using radial grid of  929 points,  2 beta functions with: 
                l(1) =   0
                l(2) =   0
     Q(r) pseudized with 0 coefficients 


     atomic species   valence    mass     pseudopotential
        Sr            10.00    87.62000     Sr( 1.00)
        O              6.00    15.99900     O ( 1.00)
        Co            17.00    58.93319     Co( 1.00)
        H              1.00     1.00800     H ( 1.00)

     No symmetry found


                                    s                        frac. trans.

      isym =  1     identity                                     

 cryst.   s( 1) = (     1          0          0      )
                  (     0          1          0      )
                  (     0          0          1      )

 cart.    s( 1) = (  1.0000000  0.0000000  0.0000000 )
                  (  0.0000000  1.0000000  0.0000000 )
                  (  0.0000000  0.0000000  1.0000000 )


   Cartesian axes

     site n.     atom                  positions (alat units)
         1           Sr  tau(   1) = (   0.2508693   0.7491307   1.7574407  )
         2           O   tau(   2) = (   0.4985141   0.5014859   1.7715967  )
         3           Sr  tau(   3) = (   0.7482398   0.7454518   1.7648669  )
         4           Sr  tau(   4) = (   0.7441748   0.2558252   1.7667843  )
         5           Sr  tau(   5) = (   0.2508693   0.7491307   1.2696799  )
         6           Sr  tau(   6) = (   0.2508693   0.7491307   0.7632319  )
         7           Co  tau(   7) = (   0.4998914   0.5001086   1.0164559  )
         8           Co  tau(   8) = (   0.4936915   0.5063085   1.5135603  )
         9           O   tau(   9) = (   0.4988895   0.7610401   1.0164559  )
        10           O   tau(  10) = (   0.2389599   0.5011105   1.0164559  )
        11           O   tau(  11) = (   0.0070918   0.7374880   1.0164559  )
        12           O   tau(  12) = (   0.0088340   0.7405089   1.5135603  )
        13           O   tau(  13) = (   0.5066944   0.7415376   1.5135603  )
        14           O   tau(  14) = (   0.2584624   0.4933056   1.5135603  )
        15           O   tau(  15) = (   0.4985141   0.5014859   0.7773880  )
        16           O   tau(  16) = (   0.4985141   0.5014859   1.2555238  )
        17           Sr  tau(  17) = (   0.7482398   0.7454518   0.7706582  )
        18           Sr  tau(  18) = (   0.7482398   0.7454518   1.2622536  )
        19           Sr  tau(  19) = (   0.7441748   0.2558252   0.7725755  )
        20           Sr  tau(  20) = (   0.7441748   0.2558252   1.2603363  )
        21           O   tau(  21) = (   0.7322655   0.0078049   1.5135603  )
        22           O   tau(  22) = (   0.7558175   0.4996027   1.5135603  )
        23           O   tau(  23) = (   0.5003973   0.2441825   1.5135603  )
        24           O   tau(  24) = (   0.7527966   0.4978604   1.0164559  )
        25           O   tau(  25) = (   0.5021396   0.2472034   1.0164559  )
        26           O   tau(  26) = (   0.7517679   0.0000000   1.0164559  )
        27           O   tau(  27) = (   0.0114961   0.4948124   1.7455321  )
        28           O   tau(  28) = (   0.0048226   0.0077944   1.7715967  )
        29           Sr  tau(  29) = (   0.2545482   0.2517602   1.7648669  )
        30           O   tau(  30) = (   0.5048017   0.0015068   1.7786929  )
        31           Co  tau(  31) = (   0.0056869   0.5006215   1.0164559  )
        32           Co  tau(  32) = (   0.0065315   0.4997770   1.5135603  )
        33           Co  tau(  33) = (   0.0061999   0.0064171   1.0164559  )
        34           Co  tau(  34) = (   0.0000000   0.0126169   1.5135603  )
        35           O   tau(  35) = (   0.0114961   0.4948124   1.2815885  )
        36           O   tau(  36) = (   0.0114961   0.4948124   0.7513233  )
        37           O   tau(  37) = (   0.0051979   0.2673486   1.0164559  )
        38           O   tau(  38) = (   0.0130029   0.2478461   1.5135603  )
        39           O   tau(  39) = (   0.0048226   0.0077944   0.7773880  )
        40           O   tau(  40) = (   0.0048226   0.0077944   1.2555238  )
        41           Sr  tau(  41) = (   0.2545482   0.2517602   0.7706582  )
        42           Sr  tau(  42) = (   0.2545482   0.2517602   1.2622536  )
        43           Co  tau(  43) = (   0.4989925   0.0073160   1.5135603  )
        44           Co  tau(  44) = (   0.4998370   0.0064714   1.0164559  )
        45           O   tau(  45) = (   0.5048017   0.0015068   0.7844841  )
        46           O   tau(  46) = (   0.5048017   0.0015068   1.2484277  )
        47           O   tau(  47) = (   0.2621260   0.0059111   1.5135603  )
        48           O   tau(  48) = (   0.2591051   0.0041689   1.0164559  )
        49           O   tau(  49) = (   0.1421646   0.8529874   2.1602013  )
        50           O   tau(  50) = (   0.1421646   0.8529874   2.3186489  )
        51           H   tau(  51) = (   0.1421646   0.8529874   2.4431567  )

   Crystallographic axes

     site n.     atom                  positions (cryst. coord.)
         1           Sr  tau(   1) = (  0.2508693  0.7491307  0.6943562  )
         2           O   tau(   2) = (  0.4985141  0.5014859  0.6999492  )
         3           Sr  tau(   3) = (  0.7482398  0.7454518  0.6972903  )
         4           Sr  tau(   4) = (  0.7441748  0.2558252  0.6980478  )
         5           Sr  tau(   5) = (  0.2508693  0.7491307  0.5016443  )
         6           Sr  tau(   6) = (  0.2508693  0.7491307  0.3015492  )
         7           Co  tau(   7) = (  0.4998914  0.5001086  0.4015968  )
         8           Co  tau(   8) = (  0.4936915  0.5063085  0.5980003  )
         9           O   tau(   9) = (  0.4988895  0.7610401  0.4015968  )
        10           O   tau(  10) = (  0.2389599  0.5011105  0.4015968  )
        11           O   tau(  11) = (  0.0070918  0.7374880  0.4015968  )
        12           O   tau(  12) = (  0.0088340  0.7405089  0.5980003  )
        13           O   tau(  13) = (  0.5066944  0.7415376  0.5980003  )
        14           O   tau(  14) = (  0.2584624  0.4933056  0.5980003  )
        15           O   tau(  15) = (  0.4985141  0.5014859  0.3071422  )
        16           O   tau(  16) = (  0.4985141  0.5014859  0.4960513  )
        17           Sr  tau(  17) = (  0.7482398  0.7454518  0.3044833  )
        18           Sr  tau(  18) = (  0.7482398  0.7454518  0.4987103  )
        19           Sr  tau(  19) = (  0.7441748  0.2558252  0.3052408  )
        20           Sr  tau(  20) = (  0.7441748  0.2558252  0.4979527  )
        21           O   tau(  21) = (  0.7322655  0.0078049  0.5980003  )
        22           O   tau(  22) = (  0.7558175  0.4996027  0.5980003  )
        23           O   tau(  23) = (  0.5003973  0.2441825  0.5980003  )
        24           O   tau(  24) = (  0.7527966  0.4978604  0.4015968  )
        25           O   tau(  25) = (  0.5021396  0.2472034  0.4015968  )
        26           O   tau(  26) = (  0.7517679  0.0000000  0.4015968  )
        27           O   tau(  27) = (  0.0114961  0.4948124  0.6896512  )
        28           O   tau(  28) = (  0.0048226  0.0077944  0.6999492  )
        29           Sr  tau(  29) = (  0.2545482  0.2517602  0.6972903  )
        30           O   tau(  30) = (  0.5048017  0.0015068  0.7027529  )
        31           Co  tau(  31) = (  0.0056869  0.5006215  0.4015968  )
        32           Co  tau(  32) = (  0.0065315  0.4997770  0.5980003  )
        33           Co  tau(  33) = (  0.0061999  0.0064171  0.4015968  )
        34           Co  tau(  34) = (  0.0000000  0.0126169  0.5980003  )
        35           O   tau(  35) = (  0.0114961  0.4948124  0.5063494  )
        36           O   tau(  36) = (  0.0114961  0.4948124  0.2968442  )
        37           O   tau(  37) = (  0.0051979  0.2673486  0.4015968  )
        38           O   tau(  38) = (  0.0130029  0.2478461  0.5980003  )
        39           O   tau(  39) = (  0.0048226  0.0077944  0.3071422  )
        40           O   tau(  40) = (  0.0048226  0.0077944  0.4960513  )
        41           Sr  tau(  41) = (  0.2545482  0.2517602  0.3044833  )
        42           Sr  tau(  42) = (  0.2545482  0.2517602  0.4987103  )
        43           Co  tau(  43) = (  0.4989925  0.0073160  0.5980003  )
        44           Co  tau(  44) = (  0.4998370  0.0064714  0.4015968  )
        45           O   tau(  45) = (  0.5048017  0.0015068  0.3099459  )
        46           O   tau(  46) = (  0.5048017  0.0015068  0.4932477  )
        47           O   tau(  47) = (  0.2621260  0.0059111  0.5980003  )
        48           O   tau(  48) = (  0.2591051  0.0041689  0.4015968  )
        49           O   tau(  49) = (  0.1421646  0.8529874  0.8534850  )
        50           O   tau(  50) = (  0.1421646  0.8529874  0.9160869  )
        51           H   tau(  51) = (  0.1421646  0.8529874  0.9652793  )

     number of k points=    10  Gaussian smearing, width (Ry)=  0.0700
                       cart. coord. in units 2pi/alat
        k(    1) = (   0.0000000   0.0000000   0.0000000), wk =   0.1250000
        k(    2) = (   0.0000000   0.2500000   0.0000000), wk =   0.2500000
        k(    3) = (   0.0000000  -0.5000000   0.0000000), wk =   0.1250000
        k(    4) = (   0.2500000   0.2500000   0.0000000), wk =   0.2500000
        k(    5) = (   0.2500000  -0.5000000   0.0000000), wk =   0.2500000
        k(    6) = (  -0.5000000  -0.5000000   0.0000000), wk =   0.1250000
        k(    7) = (   0.2500000   0.0000000   0.0000000), wk =   0.2500000
        k(    8) = (  -0.5000000   0.0000000   0.0000000), wk =   0.1250000
        k(    9) = (  -0.2500000   0.2500000   0.0000000), wk =   0.2500000
        k(   10) = (  -0.5000000   0.2500000   0.0000000), wk =   0.2500000

                       cryst. coord.
        k(    1) = (   0.0000000   0.0000000   0.0000000), wk =   0.1250000
        k(    2) = (   0.0000000   0.2500000   0.0000000), wk =   0.2500000
        k(    3) = (   0.0000000  -0.5000000   0.0000000), wk =   0.1250000
        k(    4) = (   0.2500000   0.2500000   0.0000000), wk =   0.2500000
        k(    5) = (   0.2500000  -0.5000000   0.0000000), wk =   0.2500000
        k(    6) = (  -0.5000000  -0.5000000   0.0000000), wk =   0.1250000
        k(    7) = (   0.2500000   0.0000000   0.0000000), wk =   0.2500000
        k(    8) = (  -0.5000000   0.0000000   0.0000000), wk =   0.1250000
        k(    9) = (  -0.2500000   0.2500000   0.0000000), wk =   0.2500000
        k(   10) = (  -0.5000000   0.2500000   0.0000000), wk =   0.2500000

     Dense  grid:  1474595 G-vectors     FFT dimensions: ( 108, 108, 270)

     Smooth grid:   521381 G-vectors     FFT dimensions: (  75,  75, 192)

     Dynamical RAM for                 wfc:      10.90 MB

     Dynamical RAM for     wfc (w. buffer):      65.37 MB

     Dynamical RAM for           str. fact:       3.75 MB

     Dynamical RAM for           local pot:       0.00 MB

     Dynamical RAM for          nlocal pot:      24.94 MB

     Dynamical RAM for                qrad:       7.03 MB

     Dynamical RAM for          rho,v,vnew:       6.02 MB

     Dynamical RAM for               rhoin:       2.01 MB

     Dynamical RAM for            rho*nmix:      15.00 MB

     Dynamical RAM for           G-vectors:       3.68 MB

     Dynamical RAM for          h,s,v(r/c):       1.40 MB

     Dynamical RAM for          <psi|beta>:       2.42 MB

     Dynamical RAM for                 psi:      21.79 MB

     Dynamical RAM for                hpsi:      21.79 MB

     Dynamical RAM for                spsi:      21.79 MB

     Dynamical RAM for      wfcinit/wfcrot:      34.89 MB

     Dynamical RAM for           addusdens:     101.73 MB

     Estimated static dynamical RAM per process >     122.82 MB

     Estimated max dynamical RAM per process >     239.55 MB

     Estimated total dynamical RAM >      10.88 GB

     Check: negative core charge=   -0.000004

     Initial potential from superposition of free atoms

     starting charge     428.5961, renormalised to     437.0000

     negative rho (up, down):  7.813E-01 0.000E+00
     Starting wfcs are  381 randomized atomic wfcs
     Checking if some PAW data can be deallocated... 
       PAW data deallocated on   18 nodes for type:  2

     total cpu time spent up to now is        9.7 secs

     Self-consistent Calculation

     iteration #  1     ecut=    60.00 Ry     beta= 0.15
     Davidson diagonalization with overlap

---- Real-time Memory Report at c_bands before calling an iterative solver
             0 MiB given to the printing process from OS
             0 MiB allocation reported by mallinfo(arena+hblkhd)
          6894 MiB available memory on the node where the printing process lives
------------------
     ethr =  1.00E-02,  avg # of iterations =  2.0

     negative rho (up, down):  7.717E-01 0.000E+00

     total cpu time spent up to now is       25.8 secs

     total energy              =   -4489.33786074 Ry
     estimated scf accuracy    <      49.71131168 Ry

     iteration #  2     ecut=    60.00 Ry     beta= 0.15
     Davidson diagonalization with overlap

---- Real-time Memory Report at c_bands before calling an iterative solver
             0 MiB given to the printing process from OS
             0 MiB allocation reported by mallinfo(arena+hblkhd)
          7219 MiB available memory on the node where the printing process lives
------------------
     ethr =  1.00E-02,  avg # of iterations =  1.0

     negative rho (up, down):  7.614E-01 0.000E+00

     total cpu time spent up to now is       38.8 secs

     total energy              =   -4486.81431194 Ry
     estimated scf accuracy    <      35.43622747 Ry

     iteration #  3     ecut=    60.00 Ry     beta= 0.15
     Davidson diagonalization with overlap

---- Real-time Memory Report at c_bands before calling an iterative solver
             0 MiB given to the printing process from OS
             0 MiB allocation reported by mallinfo(arena+hblkhd)
          6422 MiB available memory on the node where the printing process lives
------------------
     ethr =  8.11E-03,  avg # of iterations =  1.0

     negative rho (up, down):  7.564E-01 0.000E+00

     total cpu time spent up to now is       51.9 secs

     total energy              =   -4486.76722974 Ry
     estimated scf accuracy    <      35.27743261 Ry

     iteration #  4     ecut=    60.00 Ry     beta= 0.15
     Davidson diagonalization with overlap

---- Real-time Memory Report at c_bands before calling an iterative solver
             0 MiB given to the printing process from OS
             0 MiB allocation reported by mallinfo(arena+hblkhd)
          6400 MiB available memory on the node where the printing process lives
------------------
     ethr =  8.07E-03,  avg # of iterations =  1.0

     negative rho (up, down):  7.576E-01 0.000E+00

     total cpu time spent up to now is       64.9 secs

     total energy              =   -4486.61691559 Ry
     estimated scf accuracy    <      34.29192935 Ry

     iteration #  5     ecut=    60.00 Ry     beta= 0.15
     Davidson diagonalization with overlap

---- Real-time Memory Report at c_bands before calling an iterative solver
             0 MiB given to the printing process from OS
             0 MiB allocation reported by mallinfo(arena+hblkhd)
          6393 MiB available memory on the node where the printing process lives
------------------
     ethr =  7.85E-03,  avg # of iterations =  1.0

     negative rho (up, down):  7.339E-01 0.000E+00

     total cpu time spent up to now is       77.8 secs

     total energy              =   -4482.62907206 Ry
     estimated scf accuracy    <      22.88988747 Ry

     iteration #  6     ecut=    60.00 Ry     beta= 0.15
     Davidson diagonalization with overlap

---- Real-time Memory Report at c_bands before calling an iterative solver
             0 MiB given to the printing process from OS
             0 MiB allocation reported by mallinfo(arena+hblkhd)
          6368 MiB available memory on the node where the printing process lives
------------------
     ethr =  5.24E-03,  avg # of iterations =  2.0

     negative rho (up, down):  7.484E-01 0.000E+00

     total cpu time spent up to now is       91.9 secs

     total energy              =   -4483.76007648 Ry
     estimated scf accuracy    <      36.57581797 Ry

     iteration #  7     ecut=    60.00 Ry     beta= 0.15
     Davidson diagonalization with overlap

---- Real-time Memory Report at c_bands before calling an iterative solver
             0 MiB given to the printing process from OS
             0 MiB allocation reported by mallinfo(arena+hblkhd)
          6347 MiB available memory on the node where the printing process lives
------------------
     ethr =  5.24E-03,  avg # of iterations =  1.0

     negative rho (up, down):  7.533E-01 0.000E+00

     total cpu time spent up to now is      104.7 secs

     total energy              =   -4483.59094476 Ry
     estimated scf accuracy    <      37.41935110 Ry

     iteration #  8     ecut=    60.00 Ry     beta= 0.15
     Davidson diagonalization with overlap

---- Real-time Memory Report at c_bands before calling an iterative solver
             0 MiB given to the printing process from OS
             0 MiB allocation reported by mallinfo(arena+hblkhd)
          6325 MiB available memory on the node where the printing process lives
------------------
     ethr =  5.24E-03,  avg # of iterations =  1.0

     negative rho (up, down):  7.507E-01 0.000E+00

     total cpu time spent up to now is      117.6 secs

     total energy              =   -4483.82693023 Ry
     estimated scf accuracy    <       6.07374642 Ry

     iteration #  9     ecut=    60.00 Ry     beta= 0.15
     Davidson diagonalization with overlap

---- Real-time Memory Report at c_bands before calling an iterative solver
             0 MiB given to the printing process from OS
             0 MiB allocation reported by mallinfo(arena+hblkhd)
          6308 MiB available memory on the node where the printing process lives
------------------
     ethr =  1.39E-03,  avg # of iterations =  4.0

     negative rho (up, down):  7.651E-01 0.000E+00

     total cpu time spent up to now is      132.7 secs

     total energy              =   -4483.73000257 Ry
     estimated scf accuracy    <       3.59046919 Ry

     iteration # 10     ecut=    60.00 Ry     beta= 0.15
     Davidson diagonalization with overlap

---- Real-time Memory Report at c_bands before calling an iterative solver
             0 MiB given to the printing process from OS
             0 MiB allocation reported by mallinfo(arena+hblkhd)
          6265 MiB available memory on the node where the printing process lives
------------------
     ethr =  8.22E-04,  avg # of iterations = 12.5

     negative rho (up, down):  7.871E-01 0.000E+00

     total cpu time spent up to now is      152.1 secs

     total energy              =   -4483.53223644 Ry
     estimated scf accuracy    <       4.57757752 Ry

     iteration # 11     ecut=    60.00 Ry     beta= 0.15
     Davidson diagonalization with overlap

---- Real-time Memory Report at c_bands before calling an iterative solver
             0 MiB given to the printing process from OS
             0 MiB allocation reported by mallinfo(arena+hblkhd)
          5837 MiB available memory on the node where the printing process lives
------------------
     ethr =  8.22E-04,  avg # of iterations =  6.9

     negative rho (up, down):  7.898E-01 0.000E+00

     total cpu time spent up to now is      169.2 secs

     total energy              =   -4483.18937851 Ry
     estimated scf accuracy    <       4.40599274 Ry

     iteration # 12     ecut=    60.00 Ry     beta= 0.15
     Davidson diagonalization with overlap

---- Real-time Memory Report at c_bands before calling an iterative solver
             0 MiB given to the printing process from OS
             0 MiB allocation reported by mallinfo(arena+hblkhd)
          5799 MiB available memory on the node where the printing process lives
------------------
     ethr =  8.22E-04,  avg # of iterations =  5.7

     negative rho (up, down):  8.007E-01 0.000E+00

     total cpu time spent up to now is      185.7 secs

     total energy              =   -4483.21082475 Ry
     estimated scf accuracy    <       2.10515492 Ry

     iteration # 13     ecut=    60.00 Ry     beta= 0.15
     Davidson diagonalization with overlap

---- Real-time Memory Report at c_bands before calling an iterative solver
             0 MiB given to the printing process from OS
             0 MiB allocation reported by mallinfo(arena+hblkhd)
          5778 MiB available memory on the node where the printing process lives
------------------
     ethr =  4.82E-04,  avg # of iterations =  4.5

     negative rho (up, down):  8.016E-01 0.000E+00

     total cpu time spent up to now is      201.4 secs

     total energy              =   -4483.26125157 Ry
     estimated scf accuracy    <       1.16652476 Ry

     iteration # 14     ecut=    60.00 Ry     beta= 0.15
     Davidson diagonalization with overlap

---- Real-time Memory Report at c_bands before calling an iterative solver
             0 MiB given to the printing process from OS
             0 MiB allocation reported by mallinfo(arena+hblkhd)
          5776 MiB available memory on the node where the printing process lives
------------------
     ethr =  2.67E-04,  avg # of iterations =  9.2

     negative rho (up, down):  8.143E-01 0.000E+00

     total cpu time spent up to now is      219.2 secs

     total energy              =   -4483.11958108 Ry
     estimated scf accuracy    <       0.75684051 Ry

     iteration # 15     ecut=    60.00 Ry     beta= 0.15
     Davidson diagonalization with overlap

---- Real-time Memory Report at c_bands before calling an iterative solver
             0 MiB given to the printing process from OS
             0 MiB allocation reported by mallinfo(arena+hblkhd)
          5745 MiB available memory on the node where the printing process lives
------------------
     ethr =  1.73E-04,  avg # of iterations =  4.6

     negative rho (up, down):  8.178E-01 0.000E+00

     total cpu time spent up to now is      235.6 secs

     total energy              =   -4483.14149025 Ry
     estimated scf accuracy    <       3.23994255 Ry

     iteration # 16     ecut=    60.00 Ry     beta= 0.15
     Davidson diagonalization with overlap

---- Real-time Memory Report at c_bands before calling an iterative solver
             0 MiB given to the printing process from OS
             0 MiB allocation reported by mallinfo(arena+hblkhd)
          5771 MiB available memory on the node where the printing process lives
------------------
     ethr =  1.73E-04,  avg # of iterations =  3.1

     negative rho (up, down):  8.140E-01 0.000E+00

     total cpu time spent up to now is      250.6 secs

     total energy              =   -4483.11446020 Ry
     estimated scf accuracy    <       1.28497350 Ry

     iteration # 17     ecut=    60.00 Ry     beta= 0.15
     Davidson diagonalization with overlap

---- Real-time Memory Report at c_bands before calling an iterative solver
             0 MiB given to the printing process from OS
             0 MiB allocation reported by mallinfo(arena+hblkhd)
          5767 MiB available memory on the node where the printing process lives
------------------
     ethr =  1.73E-04,  avg # of iterations =  3.6

     negative rho (up, down):  8.191E-01 0.000E+00

     total cpu time spent up to now is      265.3 secs

     total energy              =   -4483.05442006 Ry
     estimated scf accuracy    <       0.41558274 Ry

     iteration # 18     ecut=    60.00 Ry     beta= 0.15
     Davidson diagonalization with overlap

---- Real-time Memory Report at c_bands before calling an iterative solver
             0 MiB given to the printing process from OS
             0 MiB allocation reported by mallinfo(arena+hblkhd)
          5779 MiB available memory on the node where the printing process lives
------------------
     ethr =  9.51E-05,  avg # of iterations = 11.6

     negative rho (up, down):  8.209E-01 0.000E+00

     total cpu time spent up to now is      284.9 secs

     total energy              =   -4483.03820731 Ry
     estimated scf accuracy    <       1.25515191 Ry

     iteration # 19     ecut=    60.00 Ry     beta= 0.15
     Davidson diagonalization with overlap

---- Real-time Memory Report at c_bands before calling an iterative solver
             0 MiB given to the printing process from OS
             0 MiB allocation reported by mallinfo(arena+hblkhd)
          5802 MiB available memory on the node where the printing process lives
------------------
     ethr =  9.51E-05,  avg # of iterations =  8.7

     negative rho (up, down):  8.265E-01 0.000E+00

     total cpu time spent up to now is      302.6 secs

     total energy              =   -4483.03149292 Ry
     estimated scf accuracy    <       0.47524995 Ry

     iteration # 20     ecut=    60.00 Ry     beta= 0.15
     Davidson diagonalization with overlap

---- Real-time Memory Report at c_bands before calling an iterative solver
             0 MiB given to the printing process from OS
             0 MiB allocation reported by mallinfo(arena+hblkhd)
          5768 MiB available memory on the node where the printing process lives
------------------
     ethr =  9.51E-05,  avg # of iterations =  3.1

     negative rho (up, down):  8.259E-01 0.000E+00

     total cpu time spent up to now is      318.6 secs

     total energy              =   -4482.98751449 Ry
     estimated scf accuracy    <       0.62003987 Ry

     iteration # 21     ecut=    60.00 Ry     beta= 0.15
     Davidson diagonalization with overlap

---- Real-time Memory Report at c_bands before calling an iterative solver
             0 MiB given to the printing process from OS
             0 MiB allocation reported by mallinfo(arena+hblkhd)
          5767 MiB available memory on the node where the printing process lives
------------------
     ethr =  9.51E-05,  avg # of iterations =  8.6

     negative rho (up, down):  8.424E-01 0.000E+00

     total cpu time spent up to now is      336.9 secs

     total energy              =   -4482.98164314 Ry
     estimated scf accuracy    <       0.13266695 Ry

     iteration # 22     ecut=    60.00 Ry     beta= 0.15
     Davidson diagonalization with overlap

---- Real-time Memory Report at c_bands before calling an iterative solver
             0 MiB given to the printing process from OS
             0 MiB allocation reported by mallinfo(arena+hblkhd)
          5740 MiB available memory on the node where the printing process lives
------------------
     ethr =  3.04E-05,  avg # of iterations = 11.1

     negative rho (up, down):  8.420E-01 0.000E+00

     total cpu time spent up to now is      357.3 secs

     total energy              =   -4482.98015443 Ry
     estimated scf accuracy    <       0.04909388 Ry

     iteration # 23     ecut=    60.00 Ry     beta= 0.15
     Davidson diagonalization with overlap

---- Real-time Memory Report at c_bands before calling an iterative solver
             0 MiB given to the printing process from OS
             0 MiB allocation reported by mallinfo(arena+hblkhd)
          5596 MiB available memory on the node where the printing process lives
------------------
     ethr =  1.12E-05,  avg # of iterations =  6.0

     negative rho (up, down):  8.299E-01 0.000E+00

     total cpu time spent up to now is      374.4 secs

     total energy              =   -4482.97559835 Ry
     estimated scf accuracy    <       0.03040423 Ry

     iteration # 24     ecut=    60.00 Ry     beta= 0.15
     Davidson diagonalization with overlap

---- Real-time Memory Report at c_bands before calling an iterative solver
             0 MiB given to the printing process from OS
             0 MiB allocation reported by mallinfo(arena+hblkhd)
          5589 MiB available memory on the node where the printing process lives
------------------
     ethr =  6.96E-06,  avg # of iterations = 12.1

     negative rho (up, down):  8.215E-01 0.000E+00

     total cpu time spent up to now is      394.7 secs

     total energy              =   -4482.97540531 Ry
     estimated scf accuracy    <       0.01534251 Ry

     iteration # 25     ecut=    60.00 Ry     beta= 0.15
     Davidson diagonalization with overlap

---- Real-time Memory Report at c_bands before calling an iterative solver
             0 MiB given to the printing process from OS
             0 MiB allocation reported by mallinfo(arena+hblkhd)
          5573 MiB available memory on the node where the printing process lives
------------------
     ethr =  3.51E-06,  avg # of iterations =  2.1

     negative rho (up, down):  8.142E-01 0.000E+00

     total cpu time spent up to now is      410.0 secs

     total energy              =   -4482.97391866 Ry
     estimated scf accuracy    <       0.01032066 Ry

     iteration # 26     ecut=    60.00 Ry     beta= 0.15
     Davidson diagonalization with overlap

---- Real-time Memory Report at c_bands before calling an iterative solver
             0 MiB given to the printing process from OS
             0 MiB allocation reported by mallinfo(arena+hblkhd)
          5583 MiB available memory on the node where the printing process lives
------------------
     ethr =  2.36E-06,  avg # of iterations =  8.8

     negative rho (up, down):  7.967E-01 0.000E+00

     total cpu time spent up to now is      428.5 secs

     total energy              =   -4482.97302665 Ry
     estimated scf accuracy    <       0.00506282 Ry

     iteration # 27     ecut=    60.00 Ry     beta= 0.15
     Davidson diagonalization with overlap

---- Real-time Memory Report at c_bands before calling an iterative solver
             0 MiB given to the printing process from OS
             0 MiB allocation reported by mallinfo(arena+hblkhd)
          5585 MiB available memory on the node where the printing process lives
------------------
     ethr =  1.16E-06,  avg # of iterations =  9.0

     negative rho (up, down):  7.985E-01 0.000E+00

     total cpu time spent up to now is      447.3 secs

     total energy              =   -4482.97319148 Ry
     estimated scf accuracy    <       0.00220248 Ry

     iteration # 28     ecut=    60.00 Ry     beta= 0.15
     Davidson diagonalization with overlap

---- Real-time Memory Report at c_bands before calling an iterative solver
             0 MiB given to the printing process from OS
             0 MiB allocation reported by mallinfo(arena+hblkhd)
          5530 MiB available memory on the node where the printing process lives
------------------
     ethr =  5.04E-07,  avg # of iterations =  7.2

     negative rho (up, down):  7.947E-01 0.000E+00

     total cpu time spent up to now is      464.3 secs

     total energy              =   -4482.97313621 Ry
     estimated scf accuracy    <       0.00115162 Ry

     iteration # 29     ecut=    60.00 Ry     beta= 0.15
     Davidson diagonalization with overlap

---- Real-time Memory Report at c_bands before calling an iterative solver
             0 MiB given to the printing process from OS
             0 MiB allocation reported by mallinfo(arena+hblkhd)
          5472 MiB available memory on the node where the printing process lives
------------------
     ethr =  2.64E-07,  avg # of iterations =  6.6

     negative rho (up, down):  7.932E-01 0.000E+00

     total cpu time spent up to now is      481.7 secs

     total energy              =   -4482.97312175 Ry
     estimated scf accuracy    <       0.00052452 Ry

     iteration # 30     ecut=    60.00 Ry     beta= 0.15
     Davidson diagonalization with overlap

---- Real-time Memory Report at c_bands before calling an iterative solver
             0 MiB given to the printing process from OS
             0 MiB allocation reported by mallinfo(arena+hblkhd)
          5469 MiB available memory on the node where the printing process lives
------------------
     ethr =  1.20E-07,  avg # of iterations =  4.6

     negative rho (up, down):  7.929E-01 0.000E+00

     total cpu time spent up to now is      497.7 secs

     total energy              =   -4482.97312998 Ry
     estimated scf accuracy    <       0.00024494 Ry

     iteration # 31     ecut=    60.00 Ry     beta= 0.15
     Davidson diagonalization with overlap

---- Real-time Memory Report at c_bands before calling an iterative solver
             0 MiB given to the printing process from OS
             0 MiB allocation reported by mallinfo(arena+hblkhd)
          5474 MiB available memory on the node where the printing process lives
------------------
     ethr =  5.61E-08,  avg # of iterations =  2.3

     negative rho (up, down):  7.928E-01 0.000E+00

     total cpu time spent up to now is      512.2 secs

     total energy              =   -4482.97310703 Ry
     estimated scf accuracy    <       0.00020153 Ry

     iteration # 32     ecut=    60.00 Ry     beta= 0.15
     Davidson diagonalization with overlap

---- Real-time Memory Report at c_bands before calling an iterative solver
             0 MiB given to the printing process from OS
             0 MiB allocation reported by mallinfo(arena+hblkhd)
          5487 MiB available memory on the node where the printing process lives
------------------
     ethr =  4.61E-08,  avg # of iterations =  3.1

     negative rho (up, down):  7.926E-01 0.000E+00

     total cpu time spent up to now is      527.3 secs

     total energy              =   -4482.97306333 Ry
     estimated scf accuracy    <       0.00013698 Ry

     iteration # 33     ecut=    60.00 Ry     beta= 0.15
     Davidson diagonalization with overlap

---- Real-time Memory Report at c_bands before calling an iterative solver
             0 MiB given to the printing process from OS
             0 MiB allocation reported by mallinfo(arena+hblkhd)
          5491 MiB available memory on the node where the printing process lives
------------------
     ethr =  3.13E-08,  avg # of iterations =  3.8

     negative rho (up, down):  7.924E-01 0.000E+00

     total cpu time spent up to now is      542.9 secs

     total energy              =   -4482.97307305 Ry
     estimated scf accuracy    <       0.00006194 Ry

     iteration # 34     ecut=    60.00 Ry     beta= 0.15
     Davidson diagonalization with overlap

---- Real-time Memory Report at c_bands before calling an iterative solver
             0 MiB given to the printing process from OS
             0 MiB allocation reported by mallinfo(arena+hblkhd)
          5503 MiB available memory on the node where the printing process lives
------------------
     ethr =  1.42E-08,  avg # of iterations =  3.5

     negative rho (up, down):  7.922E-01 0.000E+00

     total cpu time spent up to now is      558.1 secs

     total energy              =   -4482.97308538 Ry
     estimated scf accuracy    <       0.00003295 Ry

     iteration # 35     ecut=    60.00 Ry     beta= 0.15
     Davidson diagonalization with overlap

---- Real-time Memory Report at c_bands before calling an iterative solver
             0 MiB given to the printing process from OS
             0 MiB allocation reported by mallinfo(arena+hblkhd)
          5500 MiB available memory on the node where the printing process lives
------------------
     ethr =  7.54E-09,  avg # of iterations =  3.3

     negative rho (up, down):  7.921E-01 0.000E+00

     total cpu time spent up to now is      573.2 secs

     total energy              =   -4482.97309450 Ry
     estimated scf accuracy    <       0.00002113 Ry

     iteration # 36     ecut=    60.00 Ry     beta= 0.15
     Davidson diagonalization with overlap

---- Real-time Memory Report at c_bands before calling an iterative solver
             0 MiB given to the printing process from OS
             0 MiB allocation reported by mallinfo(arena+hblkhd)
          5633 MiB available memory on the node where the printing process lives
------------------
     ethr =  4.83E-09,  avg # of iterations =  2.8

     negative rho (up, down):  7.922E-01 0.000E+00

     total cpu time spent up to now is      588.0 secs

     total energy              =   -4482.97309855 Ry
     estimated scf accuracy    <       0.00001512 Ry

     iteration # 37     ecut=    60.00 Ry     beta= 0.15
     Davidson diagonalization with overlap

---- Real-time Memory Report at c_bands before calling an iterative solver
             0 MiB given to the printing process from OS
             0 MiB allocation reported by mallinfo(arena+hblkhd)
          5595 MiB available memory on the node where the printing process lives
------------------
     ethr =  3.46E-09,  avg # of iterations =  3.5

     negative rho (up, down):  7.923E-01 0.000E+00

     total cpu time spent up to now is      603.1 secs

     total energy              =   -4482.97310176 Ry
     estimated scf accuracy    <       0.00001226 Ry

     iteration # 38     ecut=    60.00 Ry     beta= 0.15
     Davidson diagonalization with overlap

---- Real-time Memory Report at c_bands before calling an iterative solver
             0 MiB given to the printing process from OS
             0 MiB allocation reported by mallinfo(arena+hblkhd)
          5609 MiB available memory on the node where the printing process lives
------------------
     ethr =  2.81E-09,  avg # of iterations =  4.3

     negative rho (up, down):  7.924E-01 0.000E+00

     total cpu time spent up to now is      618.7 secs

     total energy              =   -4482.97310296 Ry
     estimated scf accuracy    <       0.00000609 Ry

     iteration # 39     ecut=    60.00 Ry     beta= 0.15
     Davidson diagonalization with overlap

---- Real-time Memory Report at c_bands before calling an iterative solver
             0 MiB given to the printing process from OS
             0 MiB allocation reported by mallinfo(arena+hblkhd)
          5616 MiB available memory on the node where the printing process lives
------------------
     ethr =  1.39E-09,  avg # of iterations =  5.0

     negative rho (up, down):  7.924E-01 0.000E+00

     total cpu time spent up to now is      634.4 secs

     total energy              =   -4482.97310328 Ry
     estimated scf accuracy    <       0.00000386 Ry

     iteration # 40     ecut=    60.00 Ry     beta= 0.15
     Davidson diagonalization with overlap

---- Real-time Memory Report at c_bands before calling an iterative solver
             0 MiB given to the printing process from OS
             0 MiB allocation reported by mallinfo(arena+hblkhd)
          5636 MiB available memory on the node where the printing process lives
------------------
     ethr =  8.83E-10,  avg # of iterations =  4.5

     negative rho (up, down):  7.924E-01 0.000E+00

     total cpu time spent up to now is      649.8 secs

     total energy              =   -4482.97310293 Ry
     estimated scf accuracy    <       0.00000314 Ry

     iteration # 41     ecut=    60.00 Ry     beta= 0.15
     Davidson diagonalization with overlap

---- Real-time Memory Report at c_bands before calling an iterative solver
             0 MiB given to the printing process from OS
             0 MiB allocation reported by mallinfo(arena+hblkhd)
          5626 MiB available memory on the node where the printing process lives
------------------
     ethr =  7.18E-10,  avg # of iterations =  4.0

     negative rho (up, down):  7.923E-01 0.000E+00

     total cpu time spent up to now is      665.1 secs

     total energy              =   -4482.97310288 Ry
     estimated scf accuracy    <       0.00000280 Ry

     iteration # 42     ecut=    60.00 Ry     beta= 0.15
     Davidson diagonalization with overlap

---- Real-time Memory Report at c_bands before calling an iterative solver
             0 MiB given to the printing process from OS
             0 MiB allocation reported by mallinfo(arena+hblkhd)
          5643 MiB available memory on the node where the printing process lives
------------------
     ethr =  6.41E-10,  avg # of iterations =  2.0

     negative rho (up, down):  7.923E-01 0.000E+00

     total cpu time spent up to now is      679.5 secs

     total energy              =   -4482.97310291 Ry
     estimated scf accuracy    <       0.00000257 Ry

     iteration # 43     ecut=    60.00 Ry     beta= 0.15
     Davidson diagonalization with overlap

---- Real-time Memory Report at c_bands before calling an iterative solver
             0 MiB given to the printing process from OS
             0 MiB allocation reported by mallinfo(arena+hblkhd)
          5644 MiB available memory on the node where the printing process lives
------------------
     ethr =  5.87E-10,  avg # of iterations =  3.9

     negative rho (up, down):  7.923E-01 0.000E+00

     total cpu time spent up to now is      695.2 secs

     total energy              =   -4482.97310263 Ry
     estimated scf accuracy    <       0.00000138 Ry

     iteration # 44     ecut=    60.00 Ry     beta= 0.15
     Davidson diagonalization with overlap

---- Real-time Memory Report at c_bands before calling an iterative solver
             0 MiB given to the printing process from OS
             0 MiB allocation reported by mallinfo(arena+hblkhd)
          5642 MiB available memory on the node where the printing process lives
------------------
     ethr =  3.16E-10,  avg # of iterations =  4.1

     negative rho (up, down):  7.923E-01 0.000E+00

     total cpu time spent up to now is      710.5 secs

     total energy              =   -4482.97310271 Ry
     estimated scf accuracy    <       0.00000091 Ry

     iteration # 45     ecut=    60.00 Ry     beta= 0.15
     Davidson diagonalization with overlap

---- Real-time Memory Report at c_bands before calling an iterative solver
             0 MiB given to the printing process from OS
             0 MiB allocation reported by mallinfo(arena+hblkhd)
          5640 MiB available memory on the node where the printing process lives
------------------
     ethr =  2.08E-10,  avg # of iterations =  3.2

     negative rho (up, down):  7.923E-01 0.000E+00

     total cpu time spent up to now is      725.6 secs

     total energy              =   -4482.97310272 Ry
     estimated scf accuracy    <       0.00000068 Ry

     iteration # 46     ecut=    60.00 Ry     beta= 0.15
     Davidson diagonalization with overlap

---- Real-time Memory Report at c_bands before calling an iterative solver
             0 MiB given to the printing process from OS
             0 MiB allocation reported by mallinfo(arena+hblkhd)
          5638 MiB available memory on the node where the printing process lives
------------------
     ethr =  1.56E-10,  avg # of iterations =  4.5

     negative rho (up, down):  7.923E-01 0.000E+00

     total cpu time spent up to now is      741.1 secs

     total energy              =   -4482.97310289 Ry
     estimated scf accuracy    <       0.00000026 Ry

     iteration # 47     ecut=    60.00 Ry     beta= 0.15
     Davidson diagonalization with overlap

---- Real-time Memory Report at c_bands before calling an iterative solver
             0 MiB given to the printing process from OS
             0 MiB allocation reported by mallinfo(arena+hblkhd)
          5640 MiB available memory on the node where the printing process lives
------------------
     ethr =  5.84E-11,  avg # of iterations =  3.9

     negative rho (up, down):  7.923E-01 0.000E+00

     total cpu time spent up to now is      756.4 secs

     total energy              =   -4482.97310295 Ry
     estimated scf accuracy    <       0.00000015 Ry

     iteration # 48     ecut=    60.00 Ry     beta= 0.15
     Davidson diagonalization with overlap

---- Real-time Memory Report at c_bands before calling an iterative solver
             0 MiB given to the printing process from OS
             0 MiB allocation reported by mallinfo(arena+hblkhd)
          5641 MiB available memory on the node where the printing process lives
------------------
     ethr =  3.48E-11,  avg # of iterations =  4.2

     negative rho (up, down):  7.923E-01 0.000E+00

     total cpu time spent up to now is      771.9 secs

     total energy              =   -4482.97310301 Ry
     estimated scf accuracy    <       0.00000009 Ry

     iteration # 49     ecut=    60.00 Ry     beta= 0.15
     Davidson diagonalization with overlap

---- Real-time Memory Report at c_bands before calling an iterative solver
             0 MiB given to the printing process from OS
             0 MiB allocation reported by mallinfo(arena+hblkhd)
          5642 MiB available memory on the node where the printing process lives
------------------
     ethr =  2.04E-11,  avg # of iterations =  4.9

     negative rho (up, down):  7.923E-01 0.000E+00

     total cpu time spent up to now is      787.8 secs

     total energy              =   -4482.97310305 Ry
     estimated scf accuracy    <       0.00000004 Ry

     iteration # 50     ecut=    60.00 Ry     beta= 0.15
     Davidson diagonalization with overlap

---- Real-time Memory Report at c_bands before calling an iterative solver
             0 MiB given to the printing process from OS
             0 MiB allocation reported by mallinfo(arena+hblkhd)
          5638 MiB available memory on the node where the printing process lives
------------------
     ethr =  8.51E-12,  avg # of iterations =  4.6

     negative rho (up, down):  7.923E-01 0.000E+00

     total cpu time spent up to now is      803.7 secs

     total energy              =   -4482.97310306 Ry
     estimated scf accuracy    <       0.00000002 Ry

     iteration # 51     ecut=    60.00 Ry     beta= 0.15
     Davidson diagonalization with overlap

---- Real-time Memory Report at c_bands before calling an iterative solver
             0 MiB given to the printing process from OS
             0 MiB allocation reported by mallinfo(arena+hblkhd)
          5636 MiB available memory on the node where the printing process lives
------------------
     ethr =  4.90E-12,  avg # of iterations =  3.7

     negative rho (up, down):  7.923E-01 0.000E+00

     total cpu time spent up to now is      818.9 secs

     total energy              =   -4482.97310306 Ry
     estimated scf accuracy    <       0.00000001 Ry

     iteration # 52     ecut=    60.00 Ry     beta= 0.15
     Davidson diagonalization with overlap

---- Real-time Memory Report at c_bands before calling an iterative solver
             0 MiB given to the printing process from OS
             0 MiB allocation reported by mallinfo(arena+hblkhd)
          5638 MiB available memory on the node where the printing process lives
------------------
     ethr =  2.61E-12,  avg # of iterations =  3.4

     negative rho (up, down):  7.923E-01 0.000E+00

     total cpu time spent up to now is      833.5 secs

     End of self-consistent calculation

          k = 0.0000 0.0000 0.0000 ( 65197 PWs)   bands (ev):

   -92.3384 -92.2837 -92.1922 -92.1430 -92.0846 -92.0446 -92.0275 -91.9047
   -55.6915 -55.6701 -55.5501 -55.5395 -55.5316 -55.5262 -55.4892 -55.4619
   -55.4457 -55.4436 -55.4345 -55.3931 -55.3738 -55.3368 -55.3181 -55.2840
   -55.2784 -55.2337 -55.2310 -55.2304 -55.2219 -55.1793 -55.1582 -55.0717
   -30.9253 -30.9061 -30.7957 -30.7656 -30.7469 -30.6787 -30.4898 -30.4520
   -29.4896 -29.4461 -29.4212 -29.3119 -22.2530 -14.7234 -14.6861 -14.6017
   -14.4710 -14.2878 -14.1641 -13.8633 -13.8488 -13.8139 -13.7806 -13.7717
   -13.7330 -13.7243 -13.7061 -13.6923 -13.6658 -13.6400 -13.5726 -13.4256
   -13.2552 -13.2150 -13.1816 -13.1561 -13.1366 -13.0923 -13.0521 -12.9723
   -12.8997 -12.8172 -12.8082 -12.7580 -12.7462 -12.7230 -12.7076 -12.6935
   -12.6595 -12.6415 -12.6219 -12.6091 -12.5950 -12.5745 -12.5666 -12.5481
   -12.4869 -12.4606 -12.4499 -12.3654 -12.3234 -12.3151 -11.9905 -11.8457
   -11.7202 -11.6465 -11.5036 -11.4287 -11.4179 -11.3956 -11.3781 -11.3139
   -11.2969 -11.2619 -11.2333 -11.1220 -11.0413 -11.0377  -5.9009  -3.1542
    -3.1528  -2.5839  -2.3503  -2.1209  -1.9751  -1.9107  -1.7678  -1.4618
    -1.4477  -1.4263  -1.3445  -1.3257  -1.2578  -1.2422  -1.1998  -1.1543
    -0.9742  -0.7514  -0.7226  -0.5717  -0.5581  -0.5137  -0.4969  -0.4524
    -0.4365  -0.3750  -0.3490  -0.2818  -0.2685  -0.1879  -0.0623  -0.0471
    -0.0183   0.0635   0.0673   0.0794   0.1497   0.2287   0.2522   0.3218
     0.3436   0.3980   0.4856   0.5372   0.5590   0.5655   0.8199   0.8364
     1.0057   1.0764   1.1387   1.1815   1.2749   1.2902   1.3066   1.3755
     1.4033   1.4390   1.4970   1.6324   1.6844   1.7077   1.7233   1.7325
     1.8035   1.8820   1.9731   1.9881   2.0459   2.0672   2.1042   2.1283
     2.1331   2.1887   2.2395   2.2487   2.2815   2.3195   2.3803   2.5091
     2.5876   2.6384   2.6537   2.8012   2.8158   2.8625   2.8739   2.9738
     3.0139   3.0400   3.0518   3.0571   3.0607   3.0816   3.1519   3.2637
     3.2968   3.3109   3.3180   3.3842   3.3885   3.4129   3.4217   3.4295
     3.4402   3.4473   3.4604   3.4659   3.4799   3.4888   3.4969   3.5167
     3.5376   3.5430   3.5545   3.5731   3.6954   3.7475   4.4212   4.7544
     4.7889   5.1397   5.3852   5.4762   5.7007   6.2768   6.3186   6.3550
     6.6164   6.6347   6.6747   6.7238   6.9805   7.1771   7.2065   7.3330
     7.6180   7.6503   7.7744   7.9106   7.9370   7.9640   7.9749   8.0388
     8.3154   8.3436   8.3781   8.4279   8.5284   8.5931   8.6518

     occupation numbers 
     1.0000   1.0000   1.0000   1.0000   1.0000   1.0000   1.0000   1.0000
     1.0000   1.0000   1.0000   1.0000   1.0000   1.0000   1.0000   1.0000
     1.0000   1.0000   1.0000   1.0000   1.0000   1.0000   1.0000   1.0000
     1.0000   1.0000   1.0000   1.0000   1.0000   1.0000   1.0000   1.0000
     1.0000   1.0000   1.0000   1.0000   1.0000   1.0000   1.0000   1.0000
     1.0000   1.0000   1.0000   1.0000   1.0000   1.0000   1.0000   1.0000
     1.0000   1.0000   1.0000   1.0000   1.0000   1.0000   1.0000   1.0000
     1.0000   1.0000   1.0000   1.0000   1.0000   1.0000   1.0000   1.0000
     1.0000   1.0000   1.0000   1.0000   1.0000   1.0000   1.0000   1.0000
     1.0000   1.0000   1.0000   1.0000   1.0000   1.0000   1.0000   1.0000
     1.0000   1.0000   1.0000   1.0000   1.0000   1.0000   1.0000   1.0000
     1.0000   1.0000   1.0000   1.0000   1.0000   1.0000   1.0000   1.0000
     1.0000   1.0000   1.0000   1.0000   1.0000   1.0000   1.0000   1.0000
     1.0000   1.0000   1.0000   1.0000   1.0000   1.0000   1.0000   1.0000
     1.0000   1.0000   1.0000   1.0000   1.0000   1.0000   1.0000   1.0000
     1.0000   1.0000   1.0000   1.0000   1.0000   1.0000   1.0000   1.0000
     1.0000   1.0000   1.0000   1.0000   1.0000   1.0000   1.0000   1.0000
     1.0000   1.0000   1.0000   1.0000   1.0000   1.0000   1.0000   1.0000
     1.0000   1.0000   1.0000   1.0000   1.0000   1.0000   1.0000   1.0000
     1.0000   1.0000   1.0000   1.0000   1.0000   1.0000   1.0000   1.0000
     1.0000   0.9999   0.9999   0.9999   0.9998   0.9998   0.9998   0.9997
     0.9997   0.9996   0.9994   0.9989   0.9985   0.9984   0.9982   0.9982
     0.9974   0.9963   0.9946   0.9942   0.9926   0.9919   0.9907   0.9897
     0.9895   0.9870   0.9843   0.9837   0.9816   0.9789   0.9739   0.9600
     0.9489   0.9404   0.9377   0.9060   0.9023   0.8899   0.8866   0.8555
     0.8416   0.8320   0.8276   0.8256   0.8242   0.8160   0.7870   0.7357
     0.7193   0.7122   0.7086   0.6740   0.6717   0.6585   0.6537   0.6494
     0.6435   0.6396   0.6323   0.6292   0.6213   0.6163   0.6117   0.6004
     0.5883   0.5852   0.5786   0.5677   0.4956   0.4648   0.1381   0.0566
     0.0510   0.0156   0.0059   0.0040   0.0014   0.0001   0.0000   0.0000
     0.0000   0.0000   0.0000   0.0000   0.0000   0.0000   0.0000   0.0000
     0.0000   0.0000   0.0000   0.0000   0.0000   0.0000   0.0000   0.0000
     0.0000   0.0000   0.0000   0.0000   0.0000   0.0000   0.0000

          k = 0.0000 0.2500 0.0000 ( 65257 PWs)   bands (ev):

   -92.3384 -92.2837 -92.1922 -92.1430 -92.0846 -92.0446 -92.0275 -91.9047
   -55.6915 -55.6701 -55.5501 -55.5395 -55.5316 -55.5262 -55.4892 -55.4619
   -55.4457 -55.4436 -55.4345 -55.3931 -55.3739 -55.3368 -55.3181 -55.2840
   -55.2784 -55.2337 -55.2310 -55.2304 -55.2219 -55.1793 -55.1582 -55.0717
   -30.9252 -30.9060 -30.7951 -30.7658 -30.7475 -30.6788 -30.4890 -30.4529
   -29.4890 -29.4458 -29.4219 -29.3122 -22.2530 -14.6865 -14.6601 -14.5768
   -14.4418 -14.3257 -14.1547 -14.0093 -13.8298 -13.7998 -13.7801 -13.7775
   -13.7494 -13.6921 -13.6861 -13.6714 -13.6542 -13.6211 -13.4928 -13.4558
   -13.2942 -13.2796 -13.2242 -13.1900 -13.1481 -13.1084 -13.0720 -12.9914
   -12.9590 -12.9297 -12.8625 -12.7972 -12.7859 -12.7556 -12.7384 -12.6754
   -12.6317 -12.6051 -12.5826 -12.5538 -12.5325 -12.5227 -12.5132 -12.4778
   -12.4629 -12.4464 -12.4328 -12.3567 -12.2342 -12.1668 -12.0518 -11.8969
   -11.7775 -11.7146 -11.4691 -11.4255 -11.3984 -11.3701 -11.3534 -11.3058
   -11.2946 -11.2723 -11.2377 -11.1363 -11.0830 -11.0723  -5.9009  -3.1544
    -3.1529  -2.4487  -2.2260  -2.0889  -1.9068  -1.8633  -1.6988  -1.4817
    -1.3942  -1.3812  -1.3255  -1.2227  -1.2073  -1.1727  -1.1477  -1.1038
    -0.9056  -0.7777  -0.7651  -0.6895  -0.6778  -0.5734  -0.5429  -0.4887
    -0.4637  -0.4194  -0.3573  -0.3322  -0.2985  -0.2700  -0.2525  -0.2181
    -0.1467  -0.0926  -0.0332   0.0759   0.0961   0.1381   0.2566   0.2908
     0.3540   0.4042   0.4678   0.4840   0.5142   0.5700   0.8680   0.9566
     0.9852   1.0752   1.1171   1.1350   1.2660   1.2836   1.3751   1.4015
     1.4326   1.5479   1.6330   1.6605   1.6838   1.7000   1.7306   1.7917
     1.8173   1.8434   1.8934   1.9228   1.9518   2.0286   2.0620   2.0983
     2.1548   2.2045   2.2356   2.2683   2.3031   2.3246   2.4172   2.5444
     2.6166   2.6369   2.7167   2.7594   2.7966   2.8036   2.8708   2.9135
     2.9922   3.0296   3.0459   3.0559   3.0659   3.2249   3.2461   3.2777
     3.2991   3.3173   3.3264   3.3338   3.3424   3.3720   3.3745   3.3914
     3.3958   3.4076   3.4237   3.4342   3.4449   3.4676   3.4784   3.4831
     3.5183   3.5350   3.5956   3.9454   3.9784   4.2373   4.6053   4.7483
     4.9023   5.0838   5.4132   5.5263   5.8273   5.9027   6.1609   6.3122
     6.3356   6.4579   6.5248   6.7437   6.9054   7.0505   7.2477   7.5492
     7.5611   7.7016   7.7992   7.8903   7.9182   7.9430   8.1016   8.2154
     8.2816   8.4034   8.5391   8.5695   8.6058   8.6813   8.9313

     occupation numbers 
     1.0000   1.0000   1.0000   1.0000   1.0000   1.0000   1.0000   1.0000
     1.0000   1.0000   1.0000   1.0000   1.0000   1.0000   1.0000   1.0000
     1.0000   1.0000   1.0000   1.0000   1.0000   1.0000   1.0000   1.0000
     1.0000   1.0000   1.0000   1.0000   1.0000   1.0000   1.0000   1.0000
     1.0000   1.0000   1.0000   1.0000   1.0000   1.0000   1.0000   1.0000
     1.0000   1.0000   1.0000   1.0000   1.0000   1.0000   1.0000   1.0000
     1.0000   1.0000   1.0000   1.0000   1.0000   1.0000   1.0000   1.0000
     1.0000   1.0000   1.0000   1.0000   1.0000   1.0000   1.0000   1.0000
     1.0000   1.0000   1.0000   1.0000   1.0000   1.0000   1.0000   1.0000
     1.0000   1.0000   1.0000   1.0000   1.0000   1.0000   1.0000   1.0000
     1.0000   1.0000   1.0000   1.0000   1.0000   1.0000   1.0000   1.0000
     1.0000   1.0000   1.0000   1.0000   1.0000   1.0000   1.0000   1.0000
     1.0000   1.0000   1.0000   1.0000   1.0000   1.0000   1.0000   1.0000
     1.0000   1.0000   1.0000   1.0000   1.0000   1.0000   1.0000   1.0000
     1.0000   1.0000   1.0000   1.0000   1.0000   1.0000   1.0000   1.0000
     1.0000   1.0000   1.0000   1.0000   1.0000   1.0000   1.0000   1.0000
     1.0000   1.0000   1.0000   1.0000   1.0000   1.0000   1.0000   1.0000
     1.0000   1.0000   1.0000   1.0000   1.0000   1.0000   1.0000   1.0000
     1.0000   1.0000   1.0000   1.0000   1.0000   1.0000   1.0000   1.0000
     1.0000   1.0000   1.0000   1.0000   1.0000   1.0000   1.0000   1.0000
     1.0000   0.9999   0.9999   0.9999   0.9998   0.9998   0.9997   0.9997
     0.9996   0.9993   0.9989   0.9987   0.9985   0.9984   0.9982   0.9976
     0.9973   0.9969   0.9961   0.9956   0.9950   0.9931   0.9921   0.9909
     0.9886   0.9862   0.9845   0.9825   0.9801   0.9785   0.9704   0.9552
     0.9442   0.9407   0.9254   0.9160   0.9072   0.9054   0.8875   0.8749
     0.8492   0.8359   0.8298   0.8260   0.8222   0.7542   0.7441   0.7288
     0.7182   0.7090   0.7043   0.7005   0.6961   0.6805   0.6792   0.6702
     0.6678   0.6614   0.6526   0.6468   0.6409   0.6282   0.6222   0.6195
     0.5994   0.5898   0.5545   0.3512   0.3332   0.2073   0.0866   0.0577
     0.0357   0.0191   0.0052   0.0032   0.0007   0.0005   0.0001   0.0000
     0.0000   0.0000   0.0000   0.0000   0.0000   0.0000   0.0000   0.0000
     0.0000   0.0000   0.0000   0.0000   0.0000   0.0000   0.0000   0.0000
     0.0000   0.0000   0.0000   0.0000   0.0000   0.0000   0.0000

          k = 0.0000-0.5000 0.0000 ( 65180 PWs)   bands (ev):

   -92.3384 -92.2837 -92.1922 -92.1430 -92.0846 -92.0446 -92.0275 -91.9047
   -55.6915 -55.6701 -55.5501 -55.5395 -55.5316 -55.5262 -55.4892 -55.4619
   -55.4457 -55.4436 -55.4345 -55.3931 -55.3739 -55.3368 -55.3181 -55.2840
   -55.2784 -55.2337 -55.2310 -55.2304 -55.2219 -55.1793 -55.1582 -55.0717
   -30.9250 -30.9059 -30.7945 -30.7660 -30.7482 -30.6789 -30.4880 -30.4538
   -29.4883 -29.4455 -29.4225 -29.3125 -22.2530 -14.6541 -14.6051 -14.5545
   -14.4275 -14.3414 -14.2019 -14.0603 -13.9309 -13.7998 -13.7791 -13.7422
   -13.6940 -13.6807 -13.6357 -13.6156 -13.5711 -13.5526 -13.5268 -13.4893
   -13.4647 -13.4269 -13.2269 -13.1713 -13.1576 -13.1005 -13.0897 -13.0043
   -12.9954 -12.9367 -12.9322 -12.8670 -12.7744 -12.7549 -12.7313 -12.7185
   -12.6192 -12.6046 -12.5775 -12.5294 -12.5224 -12.5164 -12.4760 -12.4606
   -12.4146 -12.3598 -12.3517 -12.2994 -12.1629 -12.0942 -11.9722 -11.9393
   -11.8957 -11.8546 -11.4225 -11.4206 -11.3936 -11.3559 -11.3217 -11.3108
   -11.2675 -11.2636 -11.2191 -11.1579 -11.1438 -11.1293  -5.9009  -3.1546
    -3.1529  -2.2341  -2.1742  -2.0229  -1.9502  -1.6707  -1.5873  -1.4591
    -1.3204  -1.2852  -1.2647  -1.1854  -1.1543  -1.0737  -1.0380  -0.9622
    -0.9206  -0.8807  -0.8540  -0.7992  -0.7613  -0.7136  -0.6784  -0.6449
    -0.6099  -0.5005  -0.4549  -0.4230  -0.4219  -0.3357  -0.3020  -0.2800
    -0.2327  -0.1474  -0.0804   0.0020   0.0279   0.1317   0.1766   0.3285
     0.3573   0.3871   0.4399   0.5555   0.6047   0.7506   0.8155   0.8233
     0.9519   0.9897   1.0914   1.2293   1.3359   1.3677   1.4018   1.4077
     1.4484   1.4663   1.5030   1.5197   1.5292   1.6390   1.6973   1.7268
     1.7534   2.0092   2.0414   2.0612   2.1522   2.1804   2.2122   2.2283
     2.2636   2.2718   2.2822   2.3147   2.3587   2.3829   2.4108   2.4239
     2.4532   2.5072   2.5863   2.6113   2.7944   2.9622   2.9684   2.9861
     3.0234   3.0289   3.0409   3.0557   3.0595   3.0913   3.1038   3.1587
     3.1796   3.2556   3.2674   3.3360   3.3442   3.3687   3.3710   3.3905
     3.3940   3.3971   3.4017   3.4050   3.4169   3.4374   3.4390   3.5033
     3.5097   3.5246   3.5787   4.4771   4.4832   4.5226   4.5898   4.9541
     5.1232   5.2304   5.4182   5.5223   5.6135   5.8087   5.9255   6.0083
     6.2188   6.3733   6.3964   6.4444   7.0114   7.0618   7.1590   7.4030
     7.6012   7.6234   7.7139   8.0321   8.0690   8.1525   8.2076   8.3504
     8.4463   8.5995   8.6315   8.7198   8.7638   8.8539   8.9696

     occupation numbers 
     1.0000   1.0000   1.0000   1.0000   1.0000   1.0000   1.0000   1.0000
     1.0000   1.0000   1.0000   1.0000   1.0000   1.0000   1.0000   1.0000
     1.0000   1.0000   1.0000   1.0000   1.0000   1.0000   1.0000   1.0000
     1.0000   1.0000   1.0000   1.0000   1.0000   1.0000   1.0000   1.0000
     1.0000   1.0000   1.0000   1.0000   1.0000   1.0000   1.0000   1.0000
     1.0000   1.0000   1.0000   1.0000   1.0000   1.0000   1.0000   1.0000
     1.0000   1.0000   1.0000   1.0000   1.0000   1.0000   1.0000   1.0000
     1.0000   1.0000   1.0000   1.0000   1.0000   1.0000   1.0000   1.0000
     1.0000   1.0000   1.0000   1.0000   1.0000   1.0000   1.0000   1.0000
     1.0000   1.0000   1.0000   1.0000   1.0000   1.0000   1.0000   1.0000
     1.0000   1.0000   1.0000   1.0000   1.0000   1.0000   1.0000   1.0000
     1.0000   1.0000   1.0000   1.0000   1.0000   1.0000   1.0000   1.0000
     1.0000   1.0000   1.0000   1.0000   1.0000   1.0000   1.0000   1.0000
     1.0000   1.0000   1.0000   1.0000   1.0000   1.0000   1.0000   1.0000
     1.0000   1.0000   1.0000   1.0000   1.0000   1.0000   1.0000   1.0000
     1.0000   1.0000   1.0000   1.0000   1.0000   1.0000   1.0000   1.0000
     1.0000   1.0000   1.0000   1.0000   1.0000   1.0000   1.0000   1.0000
     1.0000   1.0000   1.0000   1.0000   1.0000   1.0000   1.0000   1.0000
     1.0000   1.0000   1.0000   1.0000   1.0000   1.0000   1.0000   1.0000
     1.0000   1.0000   1.0000   1.0000   1.0000   1.0000   1.0000   1.0000
     1.0000   1.0000   0.9999   0.9999   0.9998   0.9997   0.9997   0.9996
     0.9996   0.9995   0.9994   0.9994   0.9993   0.9988   0.9984   0.9982
     0.9980   0.9937   0.9928   0.9921   0.9887   0.9874   0.9858   0.9849
     0.9828   0.9823   0.9816   0.9793   0.9758   0.9737   0.9711   0.9697
     0.9666   0.9602   0.9491   0.9451   0.9077   0.8594   0.8574   0.8513
     0.8381   0.8361   0.8317   0.8261   0.8246   0.8122   0.8072   0.7840
     0.7749   0.7396   0.7339   0.6994   0.6951   0.6823   0.6811   0.6707
     0.6688   0.6671   0.6646   0.6628   0.6563   0.6451   0.6442   0.6081
     0.6044   0.5958   0.5644   0.1206   0.1188   0.1076   0.0903   0.0300
     0.0165   0.0110   0.0051   0.0032   0.0021   0.0008   0.0004   0.0003
     0.0001   0.0000   0.0000   0.0000   0.0000   0.0000   0.0000   0.0000
     0.0000   0.0000   0.0000   0.0000   0.0000   0.0000   0.0000   0.0000
     0.0000   0.0000   0.0000   0.0000   0.0000   0.0000   0.0000

          k = 0.2500 0.2500 0.0000 ( 65198 PWs)   bands (ev):

   -92.3384 -92.2837 -92.1922 -92.1430 -92.0846 -92.0446 -92.0275 -91.9047
   -55.6915 -55.6701 -55.5501 -55.5395 -55.5316 -55.5262 -55.4892 -55.4619
   -55.4457 -55.4436 -55.4345 -55.3931 -55.3738 -55.3368 -55.3181 -55.2840
   -55.2784 -55.2337 -55.2310 -55.2304 -55.2219 -55.1793 -55.1582 -55.0717
   -30.9234 -30.9077 -30.7950 -30.7654 -30.7474 -30.6792 -30.4891 -30.4530
   -29.4880 -29.4468 -29.4215 -29.3126 -22.2530 -14.6584 -14.6242 -14.5491
   -14.4314 -14.3178 -14.1938 -14.1145 -13.9142 -13.7794 -13.7535 -13.7423
   -13.7074 -13.6770 -13.6552 -13.6332 -13.5992 -13.5849 -13.4857 -13.4699
   -13.3103 -13.2964 -13.2661 -13.2460 -13.2073 -13.1585 -13.1210 -13.0736
   -12.9855 -12.9490 -12.8793 -12.7918 -12.7566 -12.7436 -12.7041 -12.6730
   -12.6636 -12.6130 -12.5966 -12.5867 -12.5554 -12.5355 -12.4658 -12.4265
   -12.3949 -12.3873 -12.3632 -12.3526 -12.1764 -12.1004 -12.0949 -11.9261
   -11.8112 -11.7569 -11.4412 -11.4092 -11.3987 -11.3915 -11.3288 -11.2944
   -11.2876 -11.2519 -11.2446 -11.1527 -11.1113 -11.0937  -5.9009  -3.1544
    -3.1530  -2.3106  -2.1003  -1.9832  -1.8897  -1.7674  -1.7019  -1.5067
    -1.3596  -1.3393  -1.3121  -1.2174  -1.1826  -1.0900  -1.0632  -1.0130
    -0.8807  -0.8333  -0.7610  -0.7154  -0.6721  -0.6472  -0.6220  -0.5810
    -0.5642  -0.4744  -0.4250  -0.3624  -0.3132  -0.2840  -0.2305  -0.2198
    -0.1572  -0.1061  -0.0525  -0.0163   0.0665   0.1196   0.1489   0.1905
     0.2440   0.3050   0.3521   0.3794   0.4463   0.4894   0.7622   0.9066
     0.9467   0.9976   1.0406   1.0936   1.1539   1.2108   1.2476   1.5224
     1.5948   1.6688   1.6946   1.7389   1.7745   1.8097   1.8457   1.8638
     1.8922   1.9290   1.9407   1.9590   1.9998   2.0410   2.0799   2.1228
     2.1643   2.1780   2.2040   2.2447   2.2966   2.3248   2.4584   2.5237
     2.5645   2.5943   2.6521   2.7205   2.7505   2.7886   2.8095   2.8233
     2.9362   2.9729   3.0512   3.0563   3.0700   3.2353   3.2529   3.2593
     3.2748   3.2883   3.3020   3.3150   3.3225   3.3323   3.3460   3.3578
     3.3772   3.3831   3.3949   3.4147   3.4290   3.4387   3.4695   3.7715
     3.8625   3.8994   3.9634   3.9816   4.2081   4.3133   4.6402   4.7989
     4.9772   5.1356   5.3265   5.5610   5.9215   5.9517   6.0067   6.1216
     6.2013   6.2477   6.3674   6.3980   6.9504   6.9720   7.0805   7.2147
     7.7071   7.8299   7.8602   7.9056   8.0229   8.1446   8.2009   8.3062
     8.3977   8.4668   8.4834   8.7000   8.7155   8.7890   8.8858

     occupation numbers 
     1.0000   1.0000   1.0000   1.0000   1.0000   1.0000   1.0000   1.0000
     1.0000   1.0000   1.0000   1.0000   1.0000   1.0000   1.0000   1.0000
     1.0000   1.0000   1.0000   1.0000   1.0000   1.0000   1.0000   1.0000
     1.0000   1.0000   1.0000   1.0000   1.0000   1.0000   1.0000   1.0000
     1.0000   1.0000   1.0000   1.0000   1.0000   1.0000   1.0000   1.0000
     1.0000   1.0000   1.0000   1.0000   1.0000   1.0000   1.0000   1.0000
     1.0000   1.0000   1.0000   1.0000   1.0000   1.0000   1.0000   1.0000
     1.0000   1.0000   1.0000   1.0000   1.0000   1.0000   1.0000   1.0000
     1.0000   1.0000   1.0000   1.0000   1.0000   1.0000   1.0000   1.0000
     1.0000   1.0000   1.0000   1.0000   1.0000   1.0000   1.0000   1.0000
     1.0000   1.0000   1.0000   1.0000   1.0000   1.0000   1.0000   1.0000
     1.0000   1.0000   1.0000   1.0000   1.0000   1.0000   1.0000   1.0000
     1.0000   1.0000   1.0000   1.0000   1.0000   1.0000   1.0000   1.0000
     1.0000   1.0000   1.0000   1.0000   1.0000   1.0000   1.0000   1.0000
     1.0000   1.0000   1.0000   1.0000   1.0000   1.0000   1.0000   1.0000
     1.0000   1.0000   1.0000   1.0000   1.0000   1.0000   1.0000   1.0000
     1.0000   1.0000   1.0000   1.0000   1.0000   1.0000   1.0000   1.0000
     1.0000   1.0000   1.0000   1.0000   1.0000   1.0000   1.0000   1.0000
     1.0000   1.0000   1.0000   1.0000   1.0000   1.0000   1.0000   1.0000
     1.0000   1.0000   1.0000   1.0000   1.0000   1.0000   1.0000   1.0000
     1.0000   1.0000   1.0000   0.9999   0.9999   0.9999   0.9999   0.9993
     0.9991   0.9986   0.9985   0.9981   0.9978   0.9974   0.9969   0.9966
     0.9962   0.9955   0.9953   0.9949   0.9939   0.9928   0.9915   0.9899
     0.9882   0.9875   0.9862   0.9839   0.9806   0.9785   0.9661   0.9581
     0.9524   0.9478   0.9380   0.9246   0.9180   0.9091   0.9040   0.9004
     0.8678   0.8558   0.8278   0.8259   0.8206   0.7493   0.7409   0.7378
     0.7302   0.7236   0.7167   0.7102   0.7063   0.7013   0.6942   0.6880
     0.6778   0.6746   0.6683   0.6576   0.6497   0.6444   0.6272   0.4506
     0.3978   0.3768   0.3413   0.3314   0.2200   0.1766   0.0787   0.0495
     0.0278   0.0158   0.0075   0.0027   0.0005   0.0004   0.0003   0.0002
     0.0001   0.0001   0.0000   0.0000   0.0000   0.0000   0.0000   0.0000
     0.0000   0.0000   0.0000   0.0000   0.0000   0.0000   0.0000   0.0000
     0.0000   0.0000   0.0000   0.0000   0.0000   0.0000   0.0000

          k = 0.2500-0.5000 0.0000 ( 65138 PWs)   bands (ev):

   -92.3384 -92.2837 -92.1922 -92.1430 -92.0846 -92.0446 -92.0275 -91.9047
   -55.6915 -55.6701 -55.5501 -55.5395 -55.5316 -55.5262 -55.4892 -55.4619
   -55.4457 -55.4436 -55.4345 -55.3931 -55.3739 -55.3368 -55.3181 -55.2840
   -55.2784 -55.2337 -55.2310 -55.2304 -55.2219 -55.1793 -55.1582 -55.0717
   -30.9232 -30.9076 -30.7944 -30.7657 -30.7480 -30.6793 -30.4882 -30.4539
   -29.4874 -29.4465 -29.4221 -29.3129 -22.2530 -14.6237 -14.5781 -14.5113
   -14.3960 -14.3657 -14.2425 -14.1613 -14.0282 -13.7789 -13.7174 -13.6713
   -13.6394 -13.6213 -13.6039 -13.5875 -13.5558 -13.5405 -13.5063 -13.4651
   -13.4460 -13.4201 -13.3106 -13.2621 -13.2255 -13.1831 -13.1464 -13.1138
   -13.0426 -13.0001 -12.8546 -12.7907 -12.7742 -12.7151 -12.7046 -12.6751
   -12.6373 -12.6189 -12.5919 -12.5612 -12.5261 -12.5204 -12.4700 -12.4549
   -12.4281 -12.3622 -12.3033 -12.2720 -12.1696 -12.0796 -11.9698 -11.9205
   -11.8863 -11.8535 -11.4166 -11.4047 -11.3939 -11.3669 -11.3351 -11.3072
   -11.2654 -11.2381 -11.2156 -11.1709 -11.1448 -11.1333  -5.9009  -3.1545
    -3.1530  -2.0927  -2.0265  -1.8969  -1.8193  -1.6913  -1.6075  -1.4836
    -1.3320  -1.2797  -1.2569  -1.1934  -1.1803  -1.0845  -1.0166  -0.9311
    -0.8839  -0.8742  -0.8093  -0.7689  -0.7329  -0.6860  -0.6488  -0.6140
    -0.5735  -0.5635  -0.5170  -0.4889  -0.4478  -0.4170  -0.3492  -0.2492
    -0.2105  -0.1329  -0.0690  -0.0225   0.0220   0.0450   0.0917   0.2545
     0.2635   0.3697   0.4086   0.4170   0.4641   0.4891   0.5293   0.5570
     0.6327   0.8906   0.9841   1.0552   1.1196   1.3791   1.4056   1.4959
     1.5201   1.6916   1.7230   1.7663   1.7896   1.8079   1.8280   1.8878
     1.9319   1.9701   2.0463   2.1261   2.1671   2.1915   2.2031   2.2379
     2.2523   2.2611   2.3012   2.3177   2.3347   2.3709   2.3873   2.4154
     2.4457   2.5055   2.5420   2.6177   2.7625   2.9143   2.9304   2.9485
     2.9741   2.9993   3.0267   3.0465   3.0518   3.0579   3.0719   3.0875
     3.1857   3.2336   3.2537   3.2565   3.2724   3.2927   3.3068   3.3250
     3.3333   3.3626   3.3752   3.3912   3.3999   3.4081   3.4195   3.9340
     3.9428   4.1027   4.1509   4.4823   4.5313   4.5344   4.6571   5.0182
     5.1532   5.2589   5.4410   5.4938   5.6551   5.6738   5.8751   5.9173
     6.0908   6.1154   6.2921   6.4904   6.5993   6.6305   7.1215   7.3003
     7.5302   7.6770   7.9544   8.0769   8.1763   8.2115   8.3401   8.4118
     8.5200   8.6375   8.6774   8.7769   8.8630   8.9141   8.9358

     occupation numbers 
     1.0000   1.0000   1.0000   1.0000   1.0000   1.0000   1.0000   1.0000
     1.0000   1.0000   1.0000   1.0000   1.0000   1.0000   1.0000   1.0000
     1.0000   1.0000   1.0000   1.0000   1.0000   1.0000   1.0000   1.0000
     1.0000   1.0000   1.0000   1.0000   1.0000   1.0000   1.0000   1.0000
     1.0000   1.0000   1.0000   1.0000   1.0000   1.0000   1.0000   1.0000
     1.0000   1.0000   1.0000   1.0000   1.0000   1.0000   1.0000   1.0000
     1.0000   1.0000   1.0000   1.0000   1.0000   1.0000   1.0000   1.0000
     1.0000   1.0000   1.0000   1.0000   1.0000   1.0000   1.0000   1.0000
     1.0000   1.0000   1.0000   1.0000   1.0000   1.0000   1.0000   1.0000
     1.0000   1.0000   1.0000   1.0000   1.0000   1.0000   1.0000   1.0000
     1.0000   1.0000   1.0000   1.0000   1.0000   1.0000   1.0000   1.0000
     1.0000   1.0000   1.0000   1.0000   1.0000   1.0000   1.0000   1.0000
     1.0000   1.0000   1.0000   1.0000   1.0000   1.0000   1.0000   1.0000
     1.0000   1.0000   1.0000   1.0000   1.0000   1.0000   1.0000   1.0000
     1.0000   1.0000   1.0000   1.0000   1.0000   1.0000   1.0000   1.0000
     1.0000   1.0000   1.0000   1.0000   1.0000   1.0000   1.0000   1.0000
     1.0000   1.0000   1.0000   1.0000   1.0000   1.0000   1.0000   1.0000
     1.0000   1.0000   1.0000   1.0000   1.0000   1.0000   1.0000   1.0000
     1.0000   1.0000   1.0000   1.0000   1.0000   1.0000   1.0000   1.0000
     1.0000   1.0000   1.0000   1.0000   1.0000   1.0000   1.0000   1.0000
     1.0000   1.0000   1.0000   1.0000   0.9999   0.9997   0.9996   0.9994
     0.9994   0.9985   0.9982   0.9978   0.9976   0.9974   0.9971   0.9962
     0.9954   0.9946   0.9926   0.9898   0.9880   0.9869   0.9863   0.9844
     0.9835   0.9829   0.9803   0.9791   0.9778   0.9748   0.9733   0.9706
     0.9675   0.9604   0.9556   0.9440   0.9153   0.8747   0.8697   0.8639
     0.8554   0.8467   0.8369   0.8296   0.8276   0.8252   0.8199   0.8137
     0.7721   0.7501   0.7405   0.7391   0.7314   0.7214   0.7143   0.7050
     0.7008   0.6855   0.6788   0.6703   0.6656   0.6611   0.6549   0.3574
     0.3526   0.2690   0.2459   0.1191   0.1053   0.1044   0.0751   0.0241
     0.0148   0.0098   0.0046   0.0037   0.0017   0.0016   0.0006   0.0005
     0.0002   0.0002   0.0001   0.0000   0.0000   0.0000   0.0000   0.0000
     0.0000   0.0000   0.0000   0.0000   0.0000   0.0000   0.0000   0.0000
     0.0000   0.0000   0.0000   0.0000   0.0000   0.0000   0.0000

          k =-0.5000-0.5000 0.0000 ( 65132 PWs)   bands (ev):

   -92.3384 -92.2837 -92.1922 -92.1430 -92.0846 -92.0446 -92.0275 -91.9047
   -55.6915 -55.6701 -55.5501 -55.5395 -55.5316 -55.5262 -55.4892 -55.4619
   -55.4457 -55.4436 -55.4345 -55.3931 -55.3739 -55.3368 -55.3181 -55.2840
   -55.2784 -55.2337 -55.2310 -55.2304 -55.2219 -55.1793 -55.1582 -55.0717
   -30.9210 -30.9098 -30.7943 -30.7653 -30.7479 -30.6797 -30.4883 -30.4540
   -29.4863 -29.4475 -29.4217 -29.3133 -22.2530 -14.5775 -14.5507 -14.4332
   -14.4230 -14.3325 -14.2896 -14.2631 -14.1281 -13.7788 -13.6290 -13.6194
   -13.5824 -13.5662 -13.5470 -13.5395 -13.5019 -13.4942 -13.4844 -13.4729
   -13.4591 -13.3801 -13.3723 -13.3514 -13.3204 -13.3099 -13.2179 -13.2074
   -13.0923 -13.0502 -12.8052 -12.7712 -12.7059 -12.6902 -12.6760 -12.6699
   -12.6332 -12.6303 -12.6215 -12.6020 -12.5345 -12.5124 -12.4717 -12.4464
   -12.4324 -12.3781 -12.2531 -12.2456 -12.1859 -12.0655 -11.9663 -11.8979
   -11.8798 -11.8526 -11.4131 -11.4008 -11.3830 -11.3665 -11.3315 -11.3134
   -11.2800 -11.2186 -11.1983 -11.1927 -11.1424 -11.1391  -5.9009  -3.1546
    -3.1532  -1.8694  -1.7931  -1.7836  -1.7098  -1.6713  -1.5931  -1.5254
    -1.3997  -1.2824  -1.2525  -1.2134  -1.1557  -1.0839  -1.0707  -0.9984
    -0.9562  -0.8407  -0.8134  -0.7640  -0.7322  -0.6682  -0.6249  -0.6052
    -0.5942  -0.5414  -0.4933  -0.4818  -0.3665  -0.3083  -0.2632  -0.2141
    -0.1892  -0.1781  -0.1419  -0.1024  -0.0683  -0.0542   0.0329   0.0974
     0.1484   0.1682   0.2451   0.2937   0.3057   0.3651   0.3887   0.4036
     0.4169   0.8582   0.8980   0.9993   1.0315   1.4120   1.4263   1.4572
     1.4978   1.7739   1.7936   1.7997   1.8388   1.9727   2.0700   2.0949
     2.1302   2.1409   2.1684   2.1787   2.2110   2.2161   2.2248   2.2399
     2.3019   2.3051   2.3323   2.3360   2.3630   2.3728   2.4127   2.4431
     2.4529   2.4894   2.5151   2.5874   2.6560   2.9258   2.9579   2.9765
     2.9978   2.9999   3.0336   3.0390   3.0544   3.0559   3.0639   3.0743
     3.0906   3.1095   3.1212   3.1867   3.1905   3.2102   3.2251   3.2362
     3.2557   3.2600   3.2697   3.3707   3.3750   3.4036   3.4145   4.3601
     4.3782   4.4010   4.4095   4.6796   4.7517   4.7794   5.0187   5.1390
     5.1505   5.2263   5.3453   5.3953   5.4717   5.5638   5.5875   5.7393
     5.9893   6.0833   6.1198   6.2043   6.5126   6.7190   6.7368   7.2398
[...]
     0.0000   0.0000   0.0000   0.0000   0.0000   0.0000   0.0000   0.0000
     0.0000   0.0000   0.0000   0.0000   0.0000   0.0000   0.0000

          k =-0.5000 0.0000 0.0000 ( 65180 PWs)   bands (ev):

   -92.3384 -92.2837 -92.1922 -92.1430 -92.0846 -92.0446 -92.0275 -91.9047
   -55.6915 -55.6701 -55.5501 -55.5395 -55.5316 -55.5262 -55.4892 -55.4619
   -55.4457 -55.4436 -55.4345 -55.3931 -55.3738 -55.3368 -55.3181 -55.2840
   -55.2784 -55.2337 -55.2310 -55.2304 -55.2219 -55.1793 -55.1582 -55.0717
   -30.9214 -30.9101 -30.7955 -30.7649 -30.7467 -30.6794 -30.4901 -30.4522
   -29.4876 -29.4481 -29.4204 -29.3127 -22.2530 -14.6579 -14.6084 -14.5463
   -14.4432 -14.3326 -14.1894 -14.0480 -13.9141 -13.7816 -13.7759 -13.7718
   -13.7502 -13.6946 -13.6387 -13.6049 -13.5587 -13.5562 -13.5415 -13.4842
   -13.4805 -13.3796 -13.1983 -13.1797 -13.1388 -13.1306 -13.0995 -13.0095
   -12.9824 -12.9174 -12.8993 -12.8937 -12.7981 -12.7026 -12.6972 -12.6848
   -12.6718 -12.6598 -12.6102 -12.6008 -12.5860 -12.5656 -12.4484 -12.3746
   -12.3248 -12.3176 -12.2880 -12.2788 -12.1889 -12.1685 -12.0294 -11.9762
   -11.8629 -11.8214 -11.4201 -11.3989 -11.3920 -11.3770 -11.3591 -11.3177
   -11.2551 -11.2380 -11.2057 -11.1597 -11.1503 -11.1346  -5.9009  -3.1543
    -3.1531  -2.2239  -2.1851  -2.0202  -1.9814  -1.6698  -1.5946  -1.4447
    -1.3270  -1.2887  -1.2426  -1.1942  -1.1685  -1.0472  -1.0016  -0.9877
    -0.9044  -0.8693  -0.8555  -0.8219  -0.7668  -0.6966  -0.6664  -0.6413
    -0.5467  -0.4963  -0.4473  -0.4158  -0.3940  -0.3650  -0.3171  -0.2922
    -0.2552  -0.1602  -0.0866  -0.0250   0.0382   0.1910   0.2389   0.3005
     0.3223   0.3789   0.4112   0.5379   0.5795   0.6211   0.7983   0.8963
     0.9422   1.0182   1.0773   1.2132   1.2229   1.3529   1.3847   1.4395
     1.4619   1.5060   1.5162   1.5614   1.5884   1.6516   1.6978   1.7456
     1.7539   2.0490   2.0560   2.0655   2.0866   2.2069   2.2157   2.2218
     2.2406   2.2719   2.2840   2.3206   2.3507   2.3675   2.4361   2.4395
     2.4975   2.5121   2.5766   2.6819   2.7757   2.8577   2.8723   2.9534
     2.9871   3.0131   3.0535   3.0537   3.0872   3.0900   3.0991   3.1272
     3.1954   3.2389   3.2827   3.3127   3.3596   3.3631   3.3644   3.3768
     3.3908   3.4037   3.4180   3.4205   3.4408   3.4472   3.4692   3.4897
     3.4941   3.6211   3.6280   4.4262   4.4635   4.5265   4.6492   4.9896
     5.1322   5.2420   5.3049   5.4375   5.7145   5.8709   5.9459   5.9817
     6.1753   6.3693   6.3841   6.4691   6.9810   7.0651   7.1547   7.4586
     7.4987   7.6964   7.7325   7.9717   8.0876   8.1212   8.2064   8.3699
     8.4966   8.6258   8.6652   8.7237   8.7760   8.8648   8.9408

     occupation numbers 
     1.0000   1.0000   1.0000   1.0000   1.0000   1.0000   1.0000   1.0000
     1.0000   1.0000   1.0000   1.0000   1.0000   1.0000   1.0000   1.0000
     1.0000   1.0000   1.0000   1.0000   1.0000   1.0000   1.0000   1.0000
     1.0000   1.0000   1.0000   1.0000   1.0000   1.0000   1.0000   1.0000
     1.0000   1.0000   1.0000   1.0000   1.0000   1.0000   1.0000   1.0000
     1.0000   1.0000   1.0000   1.0000   1.0000   1.0000   1.0000   1.0000
     1.0000   1.0000   1.0000   1.0000   1.0000   1.0000   1.0000   1.0000
     1.0000   1.0000   1.0000   1.0000   1.0000   1.0000   1.0000   1.0000
     1.0000   1.0000   1.0000   1.0000   1.0000   1.0000   1.0000   1.0000
     1.0000   1.0000   1.0000   1.0000   1.0000   1.0000   1.0000   1.0000
     1.0000   1.0000   1.0000   1.0000   1.0000   1.0000   1.0000   1.0000
     1.0000   1.0000   1.0000   1.0000   1.0000   1.0000   1.0000   1.0000
     1.0000   1.0000   1.0000   1.0000   1.0000   1.0000   1.0000   1.0000
     1.0000   1.0000   1.0000   1.0000   1.0000   1.0000   1.0000   1.0000
     1.0000   1.0000   1.0000   1.0000   1.0000   1.0000   1.0000   1.0000
     1.0000   1.0000   1.0000   1.0000   1.0000   1.0000   1.0000   1.0000
     1.0000   1.0000   1.0000   1.0000   1.0000   1.0000   1.0000   1.0000
     1.0000   1.0000   1.0000   1.0000   1.0000   1.0000   1.0000   1.0000
     1.0000   1.0000   1.0000   1.0000   1.0000   1.0000   1.0000   1.0000
     1.0000   1.0000   1.0000   1.0000   1.0000   1.0000   1.0000   1.0000
     1.0000   1.0000   0.9999   0.9999   0.9999   0.9997   0.9997   0.9996
     0.9995   0.9994   0.9994   0.9992   0.9991   0.9988   0.9984   0.9980
     0.9980   0.9925   0.9923   0.9920   0.9913   0.9861   0.9856   0.9853
     0.9842   0.9823   0.9815   0.9788   0.9765   0.9750   0.9685   0.9681
     0.9615   0.9596   0.9506   0.9324   0.9122   0.8912   0.8871   0.8623
     0.8510   0.8418   0.8269   0.8269   0.8138   0.8127   0.8090   0.7975
     0.7677   0.7476   0.7263   0.7113   0.6871   0.6853   0.6846   0.6780
     0.6705   0.6635   0.6557   0.6544   0.6432   0.6396   0.6274   0.6158
     0.6133   0.5396   0.5355   0.1365   0.1247   0.1065   0.0768   0.0266
     0.0160   0.0105   0.0082   0.0047   0.0013   0.0006   0.0004   0.0003
     0.0001   0.0000   0.0000   0.0000   0.0000   0.0000   0.0000   0.0000
     0.0000   0.0000   0.0000   0.0000   0.0000   0.0000   0.0000   0.0000
     0.0000   0.0000   0.0000   0.0000   0.0000   0.0000   0.0000

          k =-0.2500 0.2500 0.0000 ( 65198 PWs)   bands (ev):

   -92.3384 -92.2837 -92.1922 -92.1430 -92.0846 -92.0446 -92.0275 -91.9047
   -55.6915 -55.6701 -55.5501 -55.5395 -55.5316 -55.5262 -55.4892 -55.4619
   -55.4457 -55.4436 -55.4345 -55.3931 -55.3738 -55.3368 -55.3181 -55.2840
   -55.2784 -55.2337 -55.2310 -55.2304 -55.2219 -55.1793 -55.1582 -55.0717
   -30.9234 -30.9077 -30.7950 -30.7654 -30.7474 -30.6792 -30.4891 -30.4530
   -29.4880 -29.4468 -29.4215 -29.3126 -22.2530 -14.6598 -14.6231 -14.5475
   -14.4295 -14.3246 -14.1973 -14.1068 -13.9061 -13.7793 -13.7608 -13.7305
   -13.7227 -13.6717 -13.6499 -13.6334 -13.6189 -13.5810 -13.4825 -13.4709
   -13.3190 -13.2920 -13.2640 -13.2436 -13.2097 -13.1447 -13.1130 -13.0834
   -12.9958 -12.9456 -12.8726 -12.7952 -12.7582 -12.7401 -12.6926 -12.6751
   -12.6484 -12.6269 -12.5927 -12.5832 -12.5698 -12.5417 -12.4670 -12.4240
   -12.4178 -12.3991 -12.3479 -12.3395 -12.1880 -12.0901 -12.0820 -11.9319
   -11.8060 -11.7634 -11.4404 -11.4186 -11.3918 -11.3794 -11.3385 -11.3041
   -11.2806 -11.2596 -11.2367 -11.1524 -11.1067 -11.0969  -5.9009  -3.1544
    -3.1530  -2.3090  -2.0993  -1.9788  -1.8916  -1.7716  -1.7046  -1.5044
    -1.3563  -1.3371  -1.3100  -1.2180  -1.1813  -1.0897  -1.0564  -1.0307
    -0.8863  -0.8313  -0.7643  -0.7353  -0.6755  -0.6526  -0.6122  -0.5832
    -0.5432  -0.4810  -0.4342  -0.3737  -0.3044  -0.2801  -0.2268  -0.1985
    -0.1538  -0.0968  -0.0557  -0.0103   0.0848   0.1225   0.1273   0.1775
     0.2417   0.3054   0.3541   0.3837   0.4505   0.4872   0.7433   0.9095
     0.9547   0.9890   1.0459   1.0945   1.1542   1.2163   1.2468   1.5299
     1.6460   1.6846   1.7157   1.7243   1.7675   1.7843   1.8283   1.8585
     1.8754   1.9013   1.9403   1.9526   2.0012   2.0168   2.0612   2.1355
     2.1539   2.1765   2.2103   2.2429   2.2775   2.3307   2.4473   2.5532
     2.5902   2.6339   2.6540   2.7183   2.7632   2.7896   2.8106   2.8345
     2.9368   2.9712   3.0479   3.0559   3.0746   3.2423   3.2507   3.2643
     3.2746   3.2849   3.2982   3.3050   3.3222   3.3307   3.3469   3.3566
     3.3694   3.3788   3.3842   3.4168   3.4285   3.4377   3.4716   3.7646
     3.8454   3.9027   3.9656   3.9910   4.1926   4.3216   4.6403   4.7986
     4.9747   5.1360   5.3365   5.5618   5.9381   5.9526   5.9873   6.1244
     6.1968   6.2510   6.3565   6.4051   6.9177   6.9975   7.1008   7.2220
     7.7121   7.7799   7.8681   7.9162   7.9867   8.1671   8.2040   8.3333
     8.3722   8.4574   8.5688   8.6883   8.7295   8.7540   8.8444

     occupation numbers 
     1.0000   1.0000   1.0000   1.0000   1.0000   1.0000   1.0000   1.0000
     1.0000   1.0000   1.0000   1.0000   1.0000   1.0000   1.0000   1.0000
     1.0000   1.0000   1.0000   1.0000   1.0000   1.0000   1.0000   1.0000
     1.0000   1.0000   1.0000   1.0000   1.0000   1.0000   1.0000   1.0000
     1.0000   1.0000   1.0000   1.0000   1.0000   1.0000   1.0000   1.0000
     1.0000   1.0000   1.0000   1.0000   1.0000   1.0000   1.0000   1.0000
     1.0000   1.0000   1.0000   1.0000   1.0000   1.0000   1.0000   1.0000
     1.0000   1.0000   1.0000   1.0000   1.0000   1.0000   1.0000   1.0000
     1.0000   1.0000   1.0000   1.0000   1.0000   1.0000   1.0000   1.0000
     1.0000   1.0000   1.0000   1.0000   1.0000   1.0000   1.0000   1.0000
     1.0000   1.0000   1.0000   1.0000   1.0000   1.0000   1.0000   1.0000
     1.0000   1.0000   1.0000   1.0000   1.0000   1.0000   1.0000   1.0000
     1.0000   1.0000   1.0000   1.0000   1.0000   1.0000   1.0000   1.0000
     1.0000   1.0000   1.0000   1.0000   1.0000   1.0000   1.0000   1.0000
     1.0000   1.0000   1.0000   1.0000   1.0000   1.0000   1.0000   1.0000
     1.0000   1.0000   1.0000   1.0000   1.0000   1.0000   1.0000   1.0000
     1.0000   1.0000   1.0000   1.0000   1.0000   1.0000   1.0000   1.0000
     1.0000   1.0000   1.0000   1.0000   1.0000   1.0000   1.0000   1.0000
     1.0000   1.0000   1.0000   1.0000   1.0000   1.0000   1.0000   1.0000
     1.0000   1.0000   1.0000   1.0000   1.0000   1.0000   1.0000   1.0000
     1.0000   1.0000   1.0000   0.9999   0.9999   0.9999   0.9999   0.9993
     0.9988   0.9985   0.9983   0.9982   0.9978   0.9976   0.9971   0.9967
     0.9964   0.9960   0.9953   0.9950   0.9939   0.9935   0.9921   0.9894
     0.9886   0.9876   0.9859   0.9841   0.9819   0.9781   0.9673   0.9540
     0.9485   0.9412   0.9376   0.9250   0.9152   0.9089   0.9037   0.8975
     0.8677   0.8564   0.8291   0.8260   0.8188   0.7459   0.7419   0.7354
     0.7303   0.7253   0.7186   0.7152   0.7065   0.7021   0.6938   0.6887
     0.6819   0.6769   0.6740   0.6564   0.6500   0.6449   0.6260   0.4547
     0.4076   0.3749   0.3401   0.3264   0.2268   0.1734   0.0787   0.0496
     0.0280   0.0158   0.0072   0.0027   0.0004   0.0004   0.0003   0.0001
     0.0001   0.0001   0.0000   0.0000   0.0000   0.0000   0.0000   0.0000
     0.0000   0.0000   0.0000   0.0000   0.0000   0.0000   0.0000   0.0000
     0.0000   0.0000   0.0000   0.0000   0.0000   0.0000   0.0000

          k =-0.5000 0.2500 0.0000 ( 65138 PWs)   bands (ev):

   -92.3384 -92.2837 -92.1922 -92.1430 -92.0846 -92.0446 -92.0275 -91.9047
   -55.6915 -55.6701 -55.5501 -55.5395 -55.5316 -55.5262 -55.4892 -55.4619
   -55.4457 -55.4436 -55.4345 -55.3931 -55.3738 -55.3368 -55.3181 -55.2840
   -55.2784 -55.2337 -55.2310 -55.2304 -55.2219 -55.1793 -55.1582 -55.0717
   -30.9212 -30.9099 -30.7949 -30.7651 -30.7473 -30.6796 -30.4892 -30.4531
   -29.4870 -29.4478 -29.4211 -29.3130 -22.2530 -14.6254 -14.5819 -14.5034
   -14.4080 -14.3636 -14.2354 -14.1518 -14.0264 -13.7790 -13.7114 -13.6814
   -13.6685 -13.6242 -13.6074 -13.5784 -13.5455 -13.5406 -13.5177 -13.4814
   -13.4641 -13.3668 -13.2828 -13.2402 -13.2321 -13.2212 -13.1598 -13.1158
   -13.0322 -12.9860 -12.8484 -12.8129 -12.7440 -12.7192 -12.6801 -12.6665
   -12.6605 -12.6267 -12.6110 -12.5907 -12.5826 -12.5441 -12.4560 -12.4094
   -12.3800 -12.3508 -12.2702 -12.2625 -12.1871 -12.1096 -11.9723 -11.9705
   -11.8611 -11.8351 -11.4130 -11.4002 -11.3860 -11.3744 -11.3529 -11.3226
   -11.2427 -11.2339 -11.2108 -11.1742 -11.1459 -11.1371  -5.9009  -3.1544
    -3.1532  -2.0821  -2.0396  -1.8901  -1.8483  -1.6892  -1.6133  -1.4689
    -1.3335  -1.2772  -1.2498  -1.2103  -1.1710  -1.0911  -0.9766  -0.9198
    -0.8966  -0.8713  -0.7958  -0.7658  -0.7288  -0.7097  -0.6489  -0.6225
    -0.5807  -0.5457  -0.5170  -0.4602  -0.4341  -0.3927  -0.3586  -0.2543
    -0.2285  -0.1435  -0.0804  -0.0478   0.0076   0.0944   0.1238   0.2292
     0.2566   0.3195   0.3635   0.3914   0.4712   0.5028   0.5340   0.5894
     0.6265   0.9303   0.9801   1.0497   1.0757   1.3618   1.4212   1.4957
     1.5226   1.7031   1.7397   1.7773   1.7930   1.8106   1.8284   1.8971
     1.9381   1.9752   2.0044   2.1124   2.1532   2.1931   2.2026   2.2357
     2.2645   2.2798   2.2943   2.3167   2.3392   2.3821   2.4077   2.4381
     2.4619   2.4872   2.5553   2.6734   2.7731   2.8019   2.8717   2.9136
     2.9704   3.0097   3.0174   3.0428   3.0555   3.0693   3.0888   3.1123
     3.1953   3.2360   3.2496   3.2569   3.2773   3.3007   3.3134   3.3279
     3.3400   3.3596   3.3735   3.3847   3.3925   3.4024   3.4143   3.9381
     3.9716   4.1343   4.1546   4.4329   4.4881   4.5402   4.7435   5.0490
     5.1428   5.2508   5.3460   5.4400   5.7279   5.7625   5.8353   5.9450
     6.0503   6.1131   6.2812   6.4989   6.5676   6.6659   7.1001   7.2738
     7.5722   7.6931   7.9727   8.0581   8.1875   8.1999   8.3184   8.3746
     8.5271   8.6248   8.7197   8.8107   8.8302   8.9228   8.9615

     occupation numbers 
     1.0000   1.0000   1.0000   1.0000   1.0000   1.0000   1.0000   1.0000
     1.0000   1.0000   1.0000   1.0000   1.0000   1.0000   1.0000   1.0000
     1.0000   1.0000   1.0000   1.0000   1.0000   1.0000   1.0000   1.0000
     1.0000   1.0000   1.0000   1.0000   1.0000   1.0000   1.0000   1.0000
     1.0000   1.0000   1.0000   1.0000   1.0000   1.0000   1.0000   1.0000
     1.0000   1.0000   1.0000   1.0000   1.0000   1.0000   1.0000   1.0000
     1.0000   1.0000   1.0000   1.0000   1.0000   1.0000   1.0000   1.0000
     1.0000   1.0000   1.0000   1.0000   1.0000   1.0000   1.0000   1.0000
     1.0000   1.0000   1.0000   1.0000   1.0000   1.0000   1.0000   1.0000
     1.0000   1.0000   1.0000   1.0000   1.0000   1.0000   1.0000   1.0000
     1.0000   1.0000   1.0000   1.0000   1.0000   1.0000   1.0000   1.0000
     1.0000   1.0000   1.0000   1.0000   1.0000   1.0000   1.0000   1.0000
     1.0000   1.0000   1.0000   1.0000   1.0000   1.0000   1.0000   1.0000
     1.0000   1.0000   1.0000   1.0000   1.0000   1.0000   1.0000   1.0000
     1.0000   1.0000   1.0000   1.0000   1.0000   1.0000   1.0000   1.0000
     1.0000   1.0000   1.0000   1.0000   1.0000   1.0000   1.0000   1.0000
     1.0000   1.0000   1.0000   1.0000   1.0000   1.0000   1.0000   1.0000
     1.0000   1.0000   1.0000   1.0000   1.0000   1.0000   1.0000   1.0000
     1.0000   1.0000   1.0000   1.0000   1.0000   1.0000   1.0000   1.0000
     1.0000   1.0000   1.0000   1.0000   1.0000   1.0000   1.0000   1.0000
     1.0000   1.0000   1.0000   1.0000   0.9999   0.9997   0.9996   0.9994
     0.9993   0.9984   0.9981   0.9977   0.9976   0.9973   0.9971   0.9961
     0.9953   0.9945   0.9938   0.9903   0.9887   0.9868   0.9863   0.9845
     0.9827   0.9817   0.9807   0.9791   0.9774   0.9738   0.9714   0.9683
     0.9657   0.9627   0.9537   0.9340   0.9128   0.9059   0.8873   0.8749
     0.8567   0.8431   0.8403   0.8310   0.8262   0.8209   0.8132   0.8037
     0.7678   0.7489   0.7425   0.7390   0.7290   0.7174   0.7109   0.7036
     0.6973   0.6871   0.6797   0.6738   0.6696   0.6642   0.6578   0.3552
     0.3368   0.2537   0.2442   0.1343   0.1174   0.1029   0.0585   0.0216
     0.0154   0.0102   0.0069   0.0046   0.0012   0.0010   0.0007   0.0004
     0.0002   0.0002   0.0001   0.0000   0.0000   0.0000   0.0000   0.0000
     0.0000   0.0000   0.0000   0.0000   0.0000   0.0000   0.0000   0.0000
     0.0000   0.0000   0.0000   0.0000   0.0000   0.0000   0.0000

     the Fermi energy is     3.6880 ev

!    total energy              =   -4482.97310306 Ry
     estimated scf accuracy    <          8.0E-09 Ry
     smearing contrib. (-TS)   =      -1.17261804 Ry
     internal energy E=F+TS    =   -4481.80048503 Ry

     The total energy is F=E-TS. E is the sum of the following terms:
     one-electron contribution =  -20251.91635212 Ry
     hartree contribution      =   10265.62132980 Ry
     xc contribution           =    -701.58286045 Ry
     ewald contribution        =    6491.73278061 Ry
     one-center paw contrib.   =    -285.65538287 Ry
      -> PAW hartree energy AE =      25.18419601 Ry
      -> PAW hartree energy PS =     -25.06790155 Ry
      -> PAW xc energy AE      =     -16.52044032 Ry
      -> PAW xc energy PS      =       6.88007479 Ry
      -> total E_H with PAW    =   10265.73762426 Ry
      -> total E_XC with PAW   =    -711.22322598 Ry

     convergence has been achieved in  52 iterations

     Writing all to output data dir /bsuhome/zayahcortright/scratch/pwscf.save/
 
     init_run     :      7.81s CPU      8.83s WALL (       1 calls)
     electrons    :    790.41s CPU    824.31s WALL (       1 calls)

     Called by init_run:
     wfcinit      :      6.27s CPU      6.50s WALL (       1 calls)
     wfcinit:atom :      0.06s CPU      0.08s WALL (       5 calls)
     wfcinit:wfcr :      5.94s CPU      6.08s WALL (       5 calls)
     potinit      :      0.18s CPU      0.21s WALL (       1 calls)
     hinit0       :      0.42s CPU      0.94s WALL (       1 calls)

     Called by electrons:
     c_bands      :    633.88s CPU    641.06s WALL (      52 calls)
     sum_band     :    118.04s CPU    133.14s WALL (      52 calls)
     v_of_rho     :      5.66s CPU      6.07s WALL (      53 calls)
     v_h          :      0.46s CPU      0.47s WALL (      53 calls)
     v_xc         :      5.19s CPU      5.60s WALL (      53 calls)
     newd         :     17.29s CPU     28.10s WALL (      53 calls)
     PAW_pot      :      1.70s CPU      1.75s WALL (      53 calls)
     mix_rho      :     13.08s CPU     13.47s WALL (      52 calls)

     Called by c_bands:
     init_us_2    :      6.98s CPU      7.05s WALL (     525 calls)
     init_us_2:cp :      6.97s CPU      7.05s WALL (     525 calls)
     cegterg      :    600.02s CPU    606.91s WALL (     260 calls)

     Called by sum_band:
     sum_band:wei :      0.36s CPU      0.36s WALL (      52 calls)
     sum_band:loo :     99.28s CPU    100.08s WALL (      52 calls)
     sum_band:buf :      1.40s CPU      1.48s WALL (     260 calls)
     sum_band:ini :      3.13s CPU      3.14s WALL (     260 calls)
     sum_band:cal :     21.44s CPU     21.53s WALL (     260 calls)
     sum_band:bec :      0.62s CPU      0.63s WALL (     260 calls)
     addusdens    :     16.86s CPU     31.10s WALL (      52 calls)
                                        0.00s GPU  (      52 calls)
     addusd:skk   :      0.33s CPU      1.01s WALL (     208 calls)
                                        0.00s GPU  (     208 calls)

     Called by *egterg:
     cdiaghg      :     64.79s CPU     65.03s WALL (    1487 calls)
     cegterg:over :     45.95s CPU     46.14s WALL (    1227 calls)
     cegterg:upda :     33.47s CPU     34.09s WALL (    1227 calls)
     cegterg:last :     69.37s CPU     69.63s WALL (     487 calls)
     cdiaghg:chol :      3.78s CPU      3.81s WALL (    1487 calls)
     cdiaghg:inve :      3.93s CPU      3.95s WALL (    1487 calls)
     cdiaghg:para :      8.32s CPU      8.36s WALL (    2974 calls)
     h_psi        :    324.10s CPU    327.48s WALL (    1492 calls)
     s_psi        :     44.34s CPU     44.49s WALL (    1492 calls)
     g_psi        :      1.16s CPU      1.17s WALL (    1227 calls)

     Called by h_psi:
     h_psi:calbec :     50.58s CPU     50.86s WALL (    1492 calls)
     vloc_psi     :    226.18s CPU    228.31s WALL (    1492 calls)
     add_vuspsi   :     44.32s CPU     44.54s WALL (    1492 calls)

     General routines
     calbec       :     72.01s CPU     72.38s WALL (    1752 calls)
     fft          :      3.95s CPU      4.01s WALL (     687 calls)
     ffts         :      4.88s CPU      4.92s WALL (    5518 calls)
     fftw         :    193.26s CPU    194.82s WALL (  358292 calls)
     interpolate  :      0.46s CPU      0.47s WALL (      53 calls)
 
     Parallel routines

     PAW routines
     PAW_pot      :      1.70s CPU      1.75s WALL (      53 calls)
 
     PWSCF        :  13m20.18s CPU  13m59.71s WALL

 
   This run was terminated on:  20:59:21  18Jun2024            

=------------------------------------------------------------------------------=
   JOB DONE.
=------------------------------------------------------------------------------=
