
     Program PWSCF v.7.2 starts on 21Jun2024 at 16:40: 4 

     This program is part of the open-source Quantum ESPRESSO suite
     for quantum simulation of materials; please cite
         "P. Giannozzi et al., J. Phys.:Condens. Matter 21 395502 (2009);
         "P. Giannozzi et al., J. Phys.:Condens. Matter 29 465901 (2017);
         "P. Giannozzi et al., J. Chem. Phys. 152 154105 (2020);
          URL http://www.quantum-espresso.org", 
     in publications or presentations arising from this work. More details at
     http://www.quantum-espresso.org/quote

     Parallel version (MPI & OpenMP), running on      48 processor cores
     Number of MPI processes:                48
     Threads/MPI process:                     1

     MPI processes distributed on     1 nodes
     33245 MiB available memory on the printing compute node when the environment starts
 
     Reading input from espresso.pwi
Warning: card &CELL ignored
Warning: card / ignored
Warning: card &FCP ignored
Warning: card / ignored
Warning: card &RISM ignored
Warning: card / ignored

     Current dimensions of program PWSCF are:
     Max number of different atomic species (ntypx) = 10
     Max number of k-points (npk) =  40000
     Max angular momentum in pseudopotentials (lmaxx) =  4
     file O.pbe-n-kjpaw_psl.0.1.UPF: wavefunction(s)  2P renormalized
     signal trapping enabled: kill the code with -SIGUSR1 to stop cleanly the simulation 
 
     K-points division:     npool     =       2
     R & G space division:  proc/nbgrp/npool/nimage =      24
     Subspace diagonalization in iterative solution of the eigenvalue problem:
     one sub-group per band group will be used
     scalapack distributed-memory algorithm (size of sub-group:  3*  3 procs)

 
     Parallelization info
     --------------------
     sticks:   dense  smooth     PW     G-vecs:    dense   smooth      PW
     Min         350     175     47                61430    21716    3036
     Max         351     177     48                61449    21727    3041
     Sum        8421    4205   1137              1474595   521381   72913
 
     Using Slab Decomposition
 


     bravais-lattice index     =            0
     lattice parameter (alat)  =      14.8599  a.u.
     unit-cell volume          =    8305.1283 (a.u.)^3
     number of atoms/cell      =           50
     number of atomic types    =            4
     number of electrons       =       431.00
     number of Kohn-Sham states=          259
     kinetic-energy cutoff     =      60.0000  Ry
     charge density cutoff     =     480.0000  Ry
     scf convergence threshold =      1.0E-08
     mixing beta               =       0.1500
     number of iterations used =            8  local-TF  mixing
     Exchange-correlation= PBE
                           (   1   4   3   4   0   0   0)

     celldm(1)=  14.859904  celldm(2)=   0.000000  celldm(3)=   0.000000
     celldm(4)=   0.000000  celldm(5)=   0.000000  celldm(6)=   0.000000

     crystal axes: (cart. coord. in units of alat)
               a(1) = (   1.000000   0.000000   0.000000 )  
               a(2) = (   0.000000   1.000000   0.000000 )  
               a(3) = (   0.000000   0.000000   2.531036 )  

     reciprocal axes: (cart. coord. in units 2 pi/alat)
               b(1) = (  1.000000  0.000000  0.000000 )  
               b(2) = (  0.000000  1.000000  0.000000 )  
               b(3) = (  0.000000  0.000000  0.395095 )  


     PseudoPot. # 1 for Sr read from file:
     /bsuhome/zayahcortright/q-e/pseudo/Sr_pbe_v1.uspp.F.UPF
     MD5 check sum: 6b418c05fbe9db5448babca5e47b7a5b
     Pseudo is Ultrasoft + core correction, Zval = 10.0
     Generated by new atomic code, or converted to UPF format
     Using radial grid of  883 points,  6 beta functions with: 
                l(1) =   0
                l(2) =   0
                l(3) =   1
                l(4) =   1
                l(5) =   2
                l(6) =   2
     Q(r) pseudized with  6 coefficients,  rinner =    1.400   1.400   1.400
                                                       1.400   1.400

     PseudoPot. # 2 for O  read from file:
     /bsuhome/zayahcortright/q-e/pseudo/O.pbe-n-kjpaw_psl.0.1.UPF
     MD5 check sum: 0234752ac141de4415c5fc33072bef88
     Pseudo is Projector augmented-wave + core cor, Zval =  6.0
     Generated using "atomic" code by A. Dal Corso  v.5.0.99 svn rev. 10869
     Shape of augmentation charge: BESSEL
     Using radial grid of 1095 points,  4 beta functions with: 
                l(1) =   0
                l(2) =   0
                l(3) =   1
                l(4) =   1
     Q(r) pseudized with 0 coefficients 


     PseudoPot. # 3 for Co read from file:
     /bsuhome/zayahcortright/q-e/pseudo/Co_pbe_v1.2.uspp.F.UPF
     MD5 check sum: 5f91765df6ddd3222702df6e7b74a16d
     Pseudo is Ultrasoft + core correction, Zval = 17.0
     Generated by new atomic code, or converted to UPF format
     Using radial grid of  863 points,  6 beta functions with: 
                l(1) =   0
                l(2) =   0
                l(3) =   1
                l(4) =   1
                l(5) =   2
                l(6) =   2
     Q(r) pseudized with  8 coefficients,  rinner =    1.200   1.200   1.200
                                                       1.200   1.200

     PseudoPot. # 4 for H  read from file:
     /bsuhome/zayahcortright/q-e/pseudo/H.pbe-rrkjus_psl.1.0.0.UPF
     MD5 check sum: f52b6d4d1c606e5624b1dc7b2218f220
     Pseudo is Ultrasoft, Zval =  1.0
     Generated using "atomic" code by A. Dal Corso  v.5.1
     Using radial grid of  929 points,  2 beta functions with: 
                l(1) =   0
                l(2) =   0
     Q(r) pseudized with 0 coefficients 


     atomic species   valence    mass     pseudopotential
        Sr            10.00    87.62000     Sr( 1.00)
        O              6.00    15.99900     O ( 1.00)
        Co            17.00    58.93319     Co( 1.00)
        H              1.00     1.00800     H ( 1.00)

     No symmetry found


                                    s                        frac. trans.

      isym =  1     identity                                     

 cryst.   s( 1) = (     1          0          0      )
                  (     0          1          0      )
                  (     0          0          1      )

 cart.    s( 1) = (  1.0000000  0.0000000  0.0000000 )
                  (  0.0000000  1.0000000  0.0000000 )
                  (  0.0000000  0.0000000  1.0000000 )


   Cartesian axes

     site n.     atom                  positions (alat units)
         1           Sr  tau(   1) = (   0.2508693   0.7491307   1.7574407  )
         2           O   tau(   2) = (   0.4985141   0.5014859   1.7715967  )
         3           Sr  tau(   3) = (   0.7482398   0.7454518   1.7648669  )
         4           Sr  tau(   4) = (   0.7441748   0.2558252   1.7667843  )
         5           Sr  tau(   5) = (   0.2508693   0.7491307   1.2696799  )
         6           Sr  tau(   6) = (   0.2508693   0.7491307   0.7632319  )
         7           Co  tau(   7) = (   0.4998914   0.5001086   1.0164559  )
         8           Co  tau(   8) = (   0.4936915   0.5063085   1.5135603  )
         9           O   tau(   9) = (   0.4988895   0.7610401   1.0164559  )
        10           O   tau(  10) = (   0.2389599   0.5011105   1.0164559  )
        11           O   tau(  11) = (   0.0070918   0.7374880   1.0164559  )
        12           O   tau(  12) = (   0.0088340   0.7405089   1.5135603  )
        13           O   tau(  13) = (   0.5066944   0.7415376   1.5135603  )
        14           O   tau(  14) = (   0.2584624   0.4933056   1.5135603  )
        15           O   tau(  15) = (   0.4985141   0.5014859   0.7773880  )
        16           O   tau(  16) = (   0.4985141   0.5014859   1.2555238  )
        17           Sr  tau(  17) = (   0.7482398   0.7454518   0.7706582  )
        18           Sr  tau(  18) = (   0.7482398   0.7454518   1.2622536  )
        19           Sr  tau(  19) = (   0.7441748   0.2558252   0.7725755  )
        20           Sr  tau(  20) = (   0.7441748   0.2558252   1.2603363  )
        21           O   tau(  21) = (   0.7322655   0.0078049   1.5135603  )
        22           O   tau(  22) = (   0.7558175   0.4996027   1.5135603  )
        23           O   tau(  23) = (   0.5003973   0.2441825   1.5135603  )
        24           O   tau(  24) = (   0.7527966   0.4978604   1.0164559  )
        25           O   tau(  25) = (   0.5021396   0.2472034   1.0164559  )
        26           O   tau(  26) = (   0.7517679   0.0000000   1.0164559  )
        27           O   tau(  27) = (   0.0114961   0.4948124   1.7455321  )
        28           O   tau(  28) = (   0.0048226   0.0077944   1.7715967  )
        29           Sr  tau(  29) = (   0.2545482   0.2517602   1.7648669  )
        30           O   tau(  30) = (   0.5048017   0.0015068   1.7786929  )
        31           Co  tau(  31) = (   0.0056869   0.5006215   1.0164559  )
        32           Co  tau(  32) = (   0.0065315   0.4997770   1.5135603  )
        33           Co  tau(  33) = (   0.0061999   0.0064171   1.0164559  )
        34           Co  tau(  34) = (   0.0000000   0.0126169   1.5135603  )
        35           O   tau(  35) = (   0.0114961   0.4948124   1.2815885  )
        36           O   tau(  36) = (   0.0114961   0.4948124   0.7513233  )
        37           O   tau(  37) = (   0.0051979   0.2673486   1.0164559  )
        38           O   tau(  38) = (   0.0130029   0.2478461   1.5135603  )
        39           O   tau(  39) = (   0.0048226   0.0077944   0.7773880  )
        40           O   tau(  40) = (   0.0048226   0.0077944   1.2555238  )
        41           Sr  tau(  41) = (   0.2545482   0.2517602   0.7706582  )
        42           Sr  tau(  42) = (   0.2545482   0.2517602   1.2622536  )
        43           Co  tau(  43) = (   0.4989925   0.0073160   1.5135603  )
        44           Co  tau(  44) = (   0.4998370   0.0064714   1.0164559  )
        45           O   tau(  45) = (   0.5048017   0.0015068   0.7844841  )
        46           O   tau(  46) = (   0.5048017   0.0015068   1.2484277  )
        47           O   tau(  47) = (   0.2621260   0.0059111   1.5135603  )
        48           O   tau(  48) = (   0.2591051   0.0041689   1.0164559  )
        49           O   tau(  49) = (   0.1421646   0.2843291   2.1602013  )
        50           H   tau(  50) = (   0.1421646   0.2843291   2.2847091  )

   Crystallographic axes

     site n.     atom                  positions (cryst. coord.)
         1           Sr  tau(   1) = (  0.2508693  0.7491307  0.6943562  )
         2           O   tau(   2) = (  0.4985141  0.5014859  0.6999492  )
         3           Sr  tau(   3) = (  0.7482398  0.7454518  0.6972903  )
         4           Sr  tau(   4) = (  0.7441748  0.2558252  0.6980478  )
         5           Sr  tau(   5) = (  0.2508693  0.7491307  0.5016443  )
         6           Sr  tau(   6) = (  0.2508693  0.7491307  0.3015492  )
         7           Co  tau(   7) = (  0.4998914  0.5001086  0.4015968  )
         8           Co  tau(   8) = (  0.4936915  0.5063085  0.5980003  )
         9           O   tau(   9) = (  0.4988895  0.7610401  0.4015968  )
        10           O   tau(  10) = (  0.2389599  0.5011105  0.4015968  )
        11           O   tau(  11) = (  0.0070918  0.7374880  0.4015968  )
        12           O   tau(  12) = (  0.0088340  0.7405089  0.5980003  )
        13           O   tau(  13) = (  0.5066944  0.7415376  0.5980003  )
        14           O   tau(  14) = (  0.2584624  0.4933056  0.5980003  )
        15           O   tau(  15) = (  0.4985141  0.5014859  0.3071422  )
        16           O   tau(  16) = (  0.4985141  0.5014859  0.4960513  )
        17           Sr  tau(  17) = (  0.7482398  0.7454518  0.3044833  )
        18           Sr  tau(  18) = (  0.7482398  0.7454518  0.4987103  )
        19           Sr  tau(  19) = (  0.7441748  0.2558252  0.3052408  )
        20           Sr  tau(  20) = (  0.7441748  0.2558252  0.4979527  )
        21           O   tau(  21) = (  0.7322655  0.0078049  0.5980003  )
        22           O   tau(  22) = (  0.7558175  0.4996027  0.5980003  )
        23           O   tau(  23) = (  0.5003973  0.2441825  0.5980003  )
        24           O   tau(  24) = (  0.7527966  0.4978604  0.4015968  )
        25           O   tau(  25) = (  0.5021396  0.2472034  0.4015968  )
        26           O   tau(  26) = (  0.7517679  0.0000000  0.4015968  )
        27           O   tau(  27) = (  0.0114961  0.4948124  0.6896512  )
        28           O   tau(  28) = (  0.0048226  0.0077944  0.6999492  )
        29           Sr  tau(  29) = (  0.2545482  0.2517602  0.6972903  )
        30           O   tau(  30) = (  0.5048017  0.0015068  0.7027529  )
        31           Co  tau(  31) = (  0.0056869  0.5006215  0.4015968  )
        32           Co  tau(  32) = (  0.0065315  0.4997770  0.5980003  )
        33           Co  tau(  33) = (  0.0061999  0.0064171  0.4015968  )
        34           Co  tau(  34) = (  0.0000000  0.0126169  0.5980003  )
        35           O   tau(  35) = (  0.0114961  0.4948124  0.5063494  )
        36           O   tau(  36) = (  0.0114961  0.4948124  0.2968442  )
        37           O   tau(  37) = (  0.0051979  0.2673486  0.4015968  )
        38           O   tau(  38) = (  0.0130029  0.2478461  0.5980003  )
        39           O   tau(  39) = (  0.0048226  0.0077944  0.3071422  )
        40           O   tau(  40) = (  0.0048226  0.0077944  0.4960513  )
        41           Sr  tau(  41) = (  0.2545482  0.2517602  0.3044833  )
        42           Sr  tau(  42) = (  0.2545482  0.2517602  0.4987103  )
        43           Co  tau(  43) = (  0.4989925  0.0073160  0.5980003  )
        44           Co  tau(  44) = (  0.4998370  0.0064714  0.4015968  )
        45           O   tau(  45) = (  0.5048017  0.0015068  0.3099459  )
        46           O   tau(  46) = (  0.5048017  0.0015068  0.4932477  )
        47           O   tau(  47) = (  0.2621260  0.0059111  0.5980003  )
        48           O   tau(  48) = (  0.2591051  0.0041689  0.4015968  )
        49           O   tau(  49) = (  0.1421646  0.2843291  0.8534850  )
        50           H   tau(  50) = (  0.1421646  0.2843291  0.9026774  )

     number of k points=    10  Gaussian smearing, width (Ry)=  0.0700
                       cart. coord. in units 2pi/alat
        k(    1) = (   0.0000000   0.0000000   0.0000000), wk =   0.1250000
        k(    2) = (   0.0000000   0.2500000   0.0000000), wk =   0.2500000
        k(    3) = (   0.0000000  -0.5000000   0.0000000), wk =   0.1250000
        k(    4) = (   0.2500000   0.2500000   0.0000000), wk =   0.2500000
        k(    5) = (   0.2500000  -0.5000000   0.0000000), wk =   0.2500000
        k(    6) = (  -0.5000000  -0.5000000   0.0000000), wk =   0.1250000
        k(    7) = (   0.2500000   0.0000000   0.0000000), wk =   0.2500000
        k(    8) = (  -0.5000000   0.0000000   0.0000000), wk =   0.1250000
        k(    9) = (  -0.2500000   0.2500000   0.0000000), wk =   0.2500000
        k(   10) = (  -0.5000000   0.2500000   0.0000000), wk =   0.2500000

                       cryst. coord.
        k(    1) = (   0.0000000   0.0000000   0.0000000), wk =   0.1250000
        k(    2) = (   0.0000000   0.2500000   0.0000000), wk =   0.2500000
        k(    3) = (   0.0000000  -0.5000000   0.0000000), wk =   0.1250000
        k(    4) = (   0.2500000   0.2500000   0.0000000), wk =   0.2500000
        k(    5) = (   0.2500000  -0.5000000   0.0000000), wk =   0.2500000
        k(    6) = (  -0.5000000  -0.5000000   0.0000000), wk =   0.1250000
        k(    7) = (   0.2500000   0.0000000   0.0000000), wk =   0.2500000
        k(    8) = (  -0.5000000   0.0000000   0.0000000), wk =   0.1250000
        k(    9) = (  -0.2500000   0.2500000   0.0000000), wk =   0.2500000
        k(   10) = (  -0.5000000   0.2500000   0.0000000), wk =   0.2500000

     Dense  grid:  1474595 G-vectors     FFT dimensions: ( 108, 108, 270)

     Smooth grid:   521381 G-vectors     FFT dimensions: (  75,  75, 192)

     Dynamical RAM for                 wfc:      10.73 MB

     Dynamical RAM for     wfc (w. buffer):      64.38 MB

     Dynamical RAM for           str. fact:       3.75 MB

     Dynamical RAM for           local pot:       0.00 MB

     Dynamical RAM for          nlocal pot:      24.61 MB

     Dynamical RAM for                qrad:       7.03 MB

     Dynamical RAM for          rho,v,vnew:       6.02 MB

     Dynamical RAM for               rhoin:       2.01 MB

     Dynamical RAM for            rho*nmix:      15.00 MB

     Dynamical RAM for           G-vectors:       3.68 MB

     Dynamical RAM for          h,s,v(r/c):       1.35 MB

     Dynamical RAM for          <psi|beta>:       2.35 MB

     Dynamical RAM for                 psi:      21.46 MB

     Dynamical RAM for                hpsi:      21.46 MB

     Dynamical RAM for                spsi:      21.46 MB

     Dynamical RAM for      wfcinit/wfcrot:      34.49 MB

     Dynamical RAM for           addusdens:     101.26 MB

     Estimated static dynamical RAM per process >     121.50 MB

     Estimated max dynamical RAM per process >     237.76 MB

     Estimated total dynamical RAM >      10.79 GB

     Check: negative core charge=   -0.000004

     Initial potential from superposition of free atoms

     starting charge     422.5961, renormalised to     431.0000

     negative rho (up, down):  7.819E-01 0.000E+00
     Starting wfcs are  377 randomized atomic wfcs
     Checking if some PAW data can be deallocated... 
       PAW data deallocated on   19 nodes for type:  2

     total cpu time spent up to now is        9.2 secs

     Self-consistent Calculation

     iteration #  1     ecut=    60.00 Ry     beta= 0.15
     Davidson diagonalization with overlap

---- Real-time Memory Report at c_bands before calling an iterative solver
             0 MiB given to the printing process from OS
             0 MiB allocation reported by mallinfo(arena+hblkhd)
         23991 MiB available memory on the node where the printing process lives
------------------
     ethr =  1.00E-02,  avg # of iterations =  2.0

     negative rho (up, down):  7.717E-01 0.000E+00

     total cpu time spent up to now is       26.5 secs

     total energy              =   -4446.65547126 Ry
     estimated scf accuracy    <      44.51065993 Ry

     iteration #  2     ecut=    60.00 Ry     beta= 0.15
     Davidson diagonalization with overlap

---- Real-time Memory Report at c_bands before calling an iterative solver
             0 MiB given to the printing process from OS
             0 MiB allocation reported by mallinfo(arena+hblkhd)
         24263 MiB available memory on the node where the printing process lives
------------------
     ethr =  1.00E-02,  avg # of iterations =  1.0

     negative rho (up, down):  7.588E-01 0.000E+00

     total cpu time spent up to now is       41.6 secs

     total energy              =   -4443.42011981 Ry
     estimated scf accuracy    <      29.91577113 Ry

     iteration #  3     ecut=    60.00 Ry     beta= 0.15
     Davidson diagonalization with overlap

---- Real-time Memory Report at c_bands before calling an iterative solver
             0 MiB given to the printing process from OS
             0 MiB allocation reported by mallinfo(arena+hblkhd)
         23423 MiB available memory on the node where the printing process lives
------------------
     ethr =  6.94E-03,  avg # of iterations =  1.0

     negative rho (up, down):  7.556E-01 0.000E+00

     total cpu time spent up to now is       56.9 secs

     total energy              =   -4444.26911255 Ry
     estimated scf accuracy    <      26.95184955 Ry

     iteration #  4     ecut=    60.00 Ry     beta= 0.15
     Davidson diagonalization with overlap

---- Real-time Memory Report at c_bands before calling an iterative solver
             0 MiB given to the printing process from OS
             0 MiB allocation reported by mallinfo(arena+hblkhd)
         23396 MiB available memory on the node where the printing process lives
------------------
     ethr =  6.25E-03,  avg # of iterations =  1.0

     negative rho (up, down):  7.509E-01 0.000E+00

     total cpu time spent up to now is       72.1 secs

     total energy              =   -4443.14221896 Ry
     estimated scf accuracy    <      20.01277497 Ry

     iteration #  5     ecut=    60.00 Ry     beta= 0.15
     Davidson diagonalization with overlap

---- Real-time Memory Report at c_bands before calling an iterative solver
             0 MiB given to the printing process from OS
             0 MiB allocation reported by mallinfo(arena+hblkhd)
         23381 MiB available memory on the node where the printing process lives
------------------
     ethr =  4.64E-03,  avg # of iterations =  1.0

     negative rho (up, down):  7.392E-01 0.000E+00

     total cpu time spent up to now is       87.3 secs

     total energy              =   -4442.41227780 Ry
     estimated scf accuracy    <      13.02453255 Ry

     iteration #  6     ecut=    60.00 Ry     beta= 0.15
     Davidson diagonalization with overlap

---- Real-time Memory Report at c_bands before calling an iterative solver
             0 MiB given to the printing process from OS
             0 MiB allocation reported by mallinfo(arena+hblkhd)
         23360 MiB available memory on the node where the printing process lives
------------------
     ethr =  3.02E-03,  avg # of iterations =  1.0

     negative rho (up, down):  7.425E-01 0.000E+00

     total cpu time spent up to now is      102.4 secs

     total energy              =   -4442.83448305 Ry
     estimated scf accuracy    <       5.17681647 Ry

     iteration #  7     ecut=    60.00 Ry     beta= 0.15
     Davidson diagonalization with overlap

---- Real-time Memory Report at c_bands before calling an iterative solver
             0 MiB given to the printing process from OS
             0 MiB allocation reported by mallinfo(arena+hblkhd)
         23349 MiB available memory on the node where the printing process lives
------------------
     ethr =  1.20E-03,  avg # of iterations =  1.7

     negative rho (up, down):  7.647E-01 0.000E+00

     total cpu time spent up to now is      118.1 secs

     total energy              =   -4441.61960729 Ry
     estimated scf accuracy    <       4.02455406 Ry

     iteration #  8     ecut=    60.00 Ry     beta= 0.15
     Davidson diagonalization with overlap

---- Real-time Memory Report at c_bands before calling an iterative solver
             0 MiB given to the printing process from OS
             0 MiB allocation reported by mallinfo(arena+hblkhd)
         23323 MiB available memory on the node where the printing process lives
------------------
     ethr =  9.34E-04,  avg # of iterations =  4.3

     negative rho (up, down):  7.740E-01 0.000E+00

     total cpu time spent up to now is      137.7 secs

     total energy              =   -4441.19144450 Ry
     estimated scf accuracy    <      24.92270120 Ry

     iteration #  9     ecut=    60.00 Ry     beta= 0.15
     Davidson diagonalization with overlap

---- Real-time Memory Report at c_bands before calling an iterative solver
             0 MiB given to the printing process from OS
             0 MiB allocation reported by mallinfo(arena+hblkhd)
         23205 MiB available memory on the node where the printing process lives
------------------
     ethr =  9.34E-04,  avg # of iterations = 10.1

     negative rho (up, down):  7.707E-01 0.000E+00

     total cpu time spent up to now is      160.6 secs

     total energy              =   -4441.71368655 Ry
     estimated scf accuracy    <       4.31743756 Ry

     iteration # 10     ecut=    60.00 Ry     beta= 0.15
     Davidson diagonalization with overlap

---- Real-time Memory Report at c_bands before calling an iterative solver
             0 MiB given to the printing process from OS
             0 MiB allocation reported by mallinfo(arena+hblkhd)
         22864 MiB available memory on the node where the printing process lives
------------------
     ethr =  9.34E-04,  avg # of iterations =  1.0

     negative rho (up, down):  7.742E-01 0.000E+00

     total cpu time spent up to now is      175.7 secs

     total energy              =   -4441.87541892 Ry
     estimated scf accuracy    <       1.72510046 Ry

     iteration # 11     ecut=    60.00 Ry     beta= 0.15
     Davidson diagonalization with overlap

---- Real-time Memory Report at c_bands before calling an iterative solver
             0 MiB given to the printing process from OS
             0 MiB allocation reported by mallinfo(arena+hblkhd)
         22851 MiB available memory on the node where the printing process lives
------------------
     ethr =  4.00E-04,  avg # of iterations =  3.9

     negative rho (up, down):  8.010E-01 0.000E+00

     total cpu time spent up to now is      194.2 secs

     total energy              =   -4441.77697742 Ry
     estimated scf accuracy    <       1.01130951 Ry

     iteration # 12     ecut=    60.00 Ry     beta= 0.15
     Davidson diagonalization with overlap

---- Real-time Memory Report at c_bands before calling an iterative solver
             0 MiB given to the printing process from OS
             0 MiB allocation reported by mallinfo(arena+hblkhd)
         22822 MiB available memory on the node where the printing process lives
------------------
     ethr =  2.35E-04,  avg # of iterations =  6.1

     negative rho (up, down):  8.137E-01 0.000E+00

     total cpu time spent up to now is      214.2 secs

     total energy              =   -4441.88842581 Ry
     estimated scf accuracy    <       1.62772183 Ry

     iteration # 13     ecut=    60.00 Ry     beta= 0.15
     Davidson diagonalization with overlap

---- Real-time Memory Report at c_bands before calling an iterative solver
             0 MiB given to the printing process from OS
             0 MiB allocation reported by mallinfo(arena+hblkhd)
         22806 MiB available memory on the node where the printing process lives
------------------
     ethr =  2.35E-04,  avg # of iterations =  7.2

     negative rho (up, down):  8.192E-01 0.000E+00

     total cpu time spent up to now is      234.2 secs

     total energy              =   -4441.82325751 Ry
     estimated scf accuracy    <       1.12898166 Ry

     iteration # 14     ecut=    60.00 Ry     beta= 0.15
     Davidson diagonalization with overlap

---- Real-time Memory Report at c_bands before calling an iterative solver
             0 MiB given to the printing process from OS
             0 MiB allocation reported by mallinfo(arena+hblkhd)
         22780 MiB available memory on the node where the printing process lives
------------------
     ethr =  2.35E-04,  avg # of iterations =  4.2

     negative rho (up, down):  8.152E-01 0.000E+00

     total cpu time spent up to now is      252.2 secs

     total energy              =   -4441.76475356 Ry
     estimated scf accuracy    <       0.50725608 Ry

     iteration # 15     ecut=    60.00 Ry     beta= 0.15
     Davidson diagonalization with overlap

---- Real-time Memory Report at c_bands before calling an iterative solver
             0 MiB given to the printing process from OS
             0 MiB allocation reported by mallinfo(arena+hblkhd)
         22785 MiB available memory on the node where the printing process lives
------------------
     ethr =  1.18E-04,  avg # of iterations =  5.2

     negative rho (up, down):  8.258E-01 0.000E+00

     total cpu time spent up to now is      271.8 secs

     total energy              =   -4441.74124617 Ry
     estimated scf accuracy    <       0.32753422 Ry

     iteration # 16     ecut=    60.00 Ry     beta= 0.15
     Davidson diagonalization with overlap

---- Real-time Memory Report at c_bands before calling an iterative solver
             0 MiB given to the printing process from OS
             0 MiB allocation reported by mallinfo(arena+hblkhd)
         22785 MiB available memory on the node where the printing process lives
------------------
     ethr =  7.60E-05,  avg # of iterations = 12.2

     negative rho (up, down):  8.297E-01 0.000E+00

     total cpu time spent up to now is      294.6 secs

     total energy              =   -4441.73524973 Ry
     estimated scf accuracy    <       0.33730146 Ry

     iteration # 17     ecut=    60.00 Ry     beta= 0.15
     Davidson diagonalization with overlap

---- Real-time Memory Report at c_bands before calling an iterative solver
             0 MiB given to the printing process from OS
             0 MiB allocation reported by mallinfo(arena+hblkhd)
         22764 MiB available memory on the node where the printing process lives
------------------
     ethr =  7.60E-05,  avg # of iterations =  1.2

     negative rho (up, down):  8.289E-01 0.000E+00

     total cpu time spent up to now is      310.6 secs

     total energy              =   -4441.72255422 Ry
     estimated scf accuracy    <       0.24805159 Ry

     iteration # 18     ecut=    60.00 Ry     beta= 0.15
     Davidson diagonalization with overlap

---- Real-time Memory Report at c_bands before calling an iterative solver
             0 MiB given to the printing process from OS
             0 MiB allocation reported by mallinfo(arena+hblkhd)
         22763 MiB available memory on the node where the printing process lives
------------------
     ethr =  5.76E-05,  avg # of iterations =  4.5

     negative rho (up, down):  8.132E-01 0.000E+00

     total cpu time spent up to now is      328.6 secs

     total energy              =   -4441.69106997 Ry
     estimated scf accuracy    <       0.16308601 Ry

     iteration # 19     ecut=    60.00 Ry     beta= 0.15
     Davidson diagonalization with overlap

---- Real-time Memory Report at c_bands before calling an iterative solver
             0 MiB given to the printing process from OS
             0 MiB allocation reported by mallinfo(arena+hblkhd)
         22757 MiB available memory on the node where the printing process lives
------------------
     ethr =  3.78E-05,  avg # of iterations =  8.0

     negative rho (up, down):  8.274E-01 0.000E+00

     total cpu time spent up to now is      350.0 secs

     total energy              =   -4441.68116516 Ry
     estimated scf accuracy    <       0.10527526 Ry

     iteration # 20     ecut=    60.00 Ry     beta= 0.15
     Davidson diagonalization with overlap

---- Real-time Memory Report at c_bands before calling an iterative solver
             0 MiB given to the printing process from OS
             0 MiB allocation reported by mallinfo(arena+hblkhd)
         22722 MiB available memory on the node where the printing process lives
------------------
     c_bands:  1 eigenvalues not converged
     ethr =  2.44E-05,  avg # of iterations =  9.6

     negative rho (up, down):  8.208E-01 0.000E+00

     total cpu time spent up to now is      371.8 secs

     total energy              =   -4441.67645067 Ry
     estimated scf accuracy    <       0.06046118 Ry

     iteration # 21     ecut=    60.00 Ry     beta= 0.15
     Davidson diagonalization with overlap

---- Real-time Memory Report at c_bands before calling an iterative solver
             0 MiB given to the printing process from OS
             0 MiB allocation reported by mallinfo(arena+hblkhd)
         22712 MiB available memory on the node where the printing process lives
------------------
     ethr =  1.40E-05,  avg # of iterations =  8.6

     negative rho (up, down):  8.223E-01 0.000E+00

     total cpu time spent up to now is      393.1 secs

     total energy              =   -4441.67567040 Ry
     estimated scf accuracy    <       0.03830625 Ry

     iteration # 22     ecut=    60.00 Ry     beta= 0.15
     Davidson diagonalization with overlap

---- Real-time Memory Report at c_bands before calling an iterative solver
             0 MiB given to the printing process from OS
             0 MiB allocation reported by mallinfo(arena+hblkhd)
         22698 MiB available memory on the node where the printing process lives
------------------
     ethr =  8.89E-06,  avg # of iterations =  9.2

     negative rho (up, down):  8.187E-01 0.000E+00

     total cpu time spent up to now is      414.4 secs

     total energy              =   -4441.67528981 Ry
     estimated scf accuracy    <       0.02554396 Ry

     iteration # 23     ecut=    60.00 Ry     beta= 0.15
     Davidson diagonalization with overlap

---- Real-time Memory Report at c_bands before calling an iterative solver
             0 MiB given to the printing process from OS
             0 MiB allocation reported by mallinfo(arena+hblkhd)
         22692 MiB available memory on the node where the printing process lives
------------------
     ethr =  5.93E-06,  avg # of iterations =  3.4

     negative rho (up, down):  7.931E-01 0.000E+00

     total cpu time spent up to now is      431.8 secs

     total energy              =   -4441.66977472 Ry
     estimated scf accuracy    <       0.02011751 Ry

     iteration # 24     ecut=    60.00 Ry     beta= 0.15
     Davidson diagonalization with overlap

---- Real-time Memory Report at c_bands before calling an iterative solver
             0 MiB given to the printing process from OS
             0 MiB allocation reported by mallinfo(arena+hblkhd)
         22633 MiB available memory on the node where the printing process lives
------------------
     c_bands:  2 eigenvalues not converged
     c_bands:  1 eigenvalues not converged
     ethr =  4.67E-06,  avg # of iterations = 12.9

     negative rho (up, down):  7.964E-01 0.000E+00

     total cpu time spent up to now is      455.6 secs

     total energy              =   -4441.66957251 Ry
     estimated scf accuracy    <       0.00984638 Ry

     iteration # 25     ecut=    60.00 Ry     beta= 0.15
     Davidson diagonalization with overlap

---- Real-time Memory Report at c_bands before calling an iterative solver
             0 MiB given to the printing process from OS
             0 MiB allocation reported by mallinfo(arena+hblkhd)
         22647 MiB available memory on the node where the printing process lives
------------------
     ethr =  2.28E-06,  avg # of iterations = 10.6

     negative rho (up, down):  8.009E-01 0.000E+00

     total cpu time spent up to now is      478.5 secs

     total energy              =   -4441.66942826 Ry
     estimated scf accuracy    <       0.00452301 Ry

     iteration # 26     ecut=    60.00 Ry     beta= 0.15
     Davidson diagonalization with overlap

---- Real-time Memory Report at c_bands before calling an iterative solver
             0 MiB given to the printing process from OS
             0 MiB allocation reported by mallinfo(arena+hblkhd)
         22606 MiB available memory on the node where the printing process lives
------------------
     c_bands:  1 eigenvalues not converged
     ethr =  1.05E-06,  avg # of iterations =  9.3

     negative rho (up, down):  8.020E-01 0.000E+00

     total cpu time spent up to now is      500.6 secs

     total energy              =   -4441.66947947 Ry
     estimated scf accuracy    <       0.00241572 Ry

     iteration # 27     ecut=    60.00 Ry     beta= 0.15
     Davidson diagonalization with overlap

---- Real-time Memory Report at c_bands before calling an iterative solver
             0 MiB given to the printing process from OS
             0 MiB allocation reported by mallinfo(arena+hblkhd)
         22631 MiB available memory on the node where the printing process lives
------------------
     c_bands:  1 eigenvalues not converged
     ethr =  5.60E-07,  avg # of iterations =  6.2

     negative rho (up, down):  7.992E-01 0.000E+00

     total cpu time spent up to now is      520.4 secs

     total energy              =   -4441.66935302 Ry
     estimated scf accuracy    <       0.00129368 Ry

     iteration # 28     ecut=    60.00 Ry     beta= 0.15
     Davidson diagonalization with overlap

---- Real-time Memory Report at c_bands before calling an iterative solver
             0 MiB given to the printing process from OS
             0 MiB allocation reported by mallinfo(arena+hblkhd)
         22607 MiB available memory on the node where the printing process lives
------------------
     c_bands:  1 eigenvalues not converged
     ethr =  3.00E-07,  avg # of iterations = 11.2

     negative rho (up, down):  7.959E-01 0.000E+00

     total cpu time spent up to now is      542.8 secs

     total energy              =   -4441.66925171 Ry
     estimated scf accuracy    <       0.00061487 Ry

     iteration # 29     ecut=    60.00 Ry     beta= 0.15
     Davidson diagonalization with overlap

---- Real-time Memory Report at c_bands before calling an iterative solver
             0 MiB given to the printing process from OS
             0 MiB allocation reported by mallinfo(arena+hblkhd)
         22598 MiB available memory on the node where the printing process lives
------------------
     c_bands:  1 eigenvalues not converged
     ethr =  1.43E-07,  avg # of iterations =  8.4

     negative rho (up, down):  7.940E-01 0.000E+00

     total cpu time spent up to now is      564.1 secs

     total energy              =   -4441.66919037 Ry
     estimated scf accuracy    <       0.00027632 Ry

     iteration # 30     ecut=    60.00 Ry     beta= 0.15
     Davidson diagonalization with overlap

---- Real-time Memory Report at c_bands before calling an iterative solver
             0 MiB given to the printing process from OS
             0 MiB allocation reported by mallinfo(arena+hblkhd)
         22656 MiB available memory on the node where the printing process lives
------------------
     ethr =  6.41E-08,  avg # of iterations =  4.6

     negative rho (up, down):  7.936E-01 0.000E+00

     total cpu time spent up to now is      585.2 secs

     total energy              =   -4441.66921600 Ry
     estimated scf accuracy    <       0.00008002 Ry

     iteration # 31     ecut=    60.00 Ry     beta= 0.15
     Davidson diagonalization with overlap

---- Real-time Memory Report at c_bands before calling an iterative solver
             0 MiB given to the printing process from OS
             0 MiB allocation reported by mallinfo(arena+hblkhd)
         22577 MiB available memory on the node where the printing process lives
------------------
     ethr =  1.86E-08,  avg # of iterations =  2.1

     negative rho (up, down):  7.933E-01 0.000E+00

     total cpu time spent up to now is      603.2 secs

     total energy              =   -4441.66921752 Ry
     estimated scf accuracy    <       0.00004751 Ry

     iteration # 32     ecut=    60.00 Ry     beta= 0.15
     Davidson diagonalization with overlap

---- Real-time Memory Report at c_bands before calling an iterative solver
             0 MiB given to the printing process from OS
             0 MiB allocation reported by mallinfo(arena+hblkhd)
         22593 MiB available memory on the node where the printing process lives
------------------
     ethr =  1.10E-08,  avg # of iterations =  2.0

     negative rho (up, down):  7.927E-01 0.000E+00

     total cpu time spent up to now is      620.4 secs

     total energy              =   -4441.66921785 Ry
     estimated scf accuracy    <       0.00002883 Ry

     iteration # 33     ecut=    60.00 Ry     beta= 0.15
     Davidson diagonalization with overlap

---- Real-time Memory Report at c_bands before calling an iterative solver
             0 MiB given to the printing process from OS
             0 MiB allocation reported by mallinfo(arena+hblkhd)
         22586 MiB available memory on the node where the printing process lives
------------------
     ethr =  6.69E-09,  avg # of iterations =  2.9

     negative rho (up, down):  7.928E-01 0.000E+00

     total cpu time spent up to now is      638.7 secs

     total energy              =   -4441.66922235 Ry
     estimated scf accuracy    <       0.00001242 Ry

     iteration # 34     ecut=    60.00 Ry     beta= 0.15
     Davidson diagonalization with overlap

---- Real-time Memory Report at c_bands before calling an iterative solver
             0 MiB given to the printing process from OS
             0 MiB allocation reported by mallinfo(arena+hblkhd)
         22584 MiB available memory on the node where the printing process lives
------------------
     ethr =  2.88E-09,  avg # of iterations =  1.9

     negative rho (up, down):  7.927E-01 0.000E+00

     total cpu time spent up to now is      655.8 secs

     total energy              =   -4441.66922557 Ry
     estimated scf accuracy    <       0.00000827 Ry

     iteration # 35     ecut=    60.00 Ry     beta= 0.15
     Davidson diagonalization with overlap

---- Real-time Memory Report at c_bands before calling an iterative solver
             0 MiB given to the printing process from OS
             0 MiB allocation reported by mallinfo(arena+hblkhd)
         22589 MiB available memory on the node where the printing process lives
------------------
     ethr =  1.92E-09,  avg # of iterations =  2.1

     negative rho (up, down):  7.927E-01 0.000E+00

     total cpu time spent up to now is      673.0 secs

     total energy              =   -4441.66922952 Ry
     estimated scf accuracy    <       0.00000592 Ry

     iteration # 36     ecut=    60.00 Ry     beta= 0.15
     Davidson diagonalization with overlap

---- Real-time Memory Report at c_bands before calling an iterative solver
             0 MiB given to the printing process from OS
             0 MiB allocation reported by mallinfo(arena+hblkhd)
         22592 MiB available memory on the node where the printing process lives
------------------
     ethr =  1.37E-09,  avg # of iterations =  2.8

     negative rho (up, down):  7.926E-01 0.000E+00

     total cpu time spent up to now is      690.7 secs

     total energy              =   -4441.66923279 Ry
     estimated scf accuracy    <       0.00000436 Ry

     iteration # 37     ecut=    60.00 Ry     beta= 0.15
     Davidson diagonalization with overlap

---- Real-time Memory Report at c_bands before calling an iterative solver
             0 MiB given to the printing process from OS
             0 MiB allocation reported by mallinfo(arena+hblkhd)
         22596 MiB available memory on the node where the printing process lives
------------------
     ethr =  1.01E-09,  avg # of iterations =  3.3

     negative rho (up, down):  7.925E-01 0.000E+00

     total cpu time spent up to now is      708.7 secs

     total energy              =   -4441.66923349 Ry
     estimated scf accuracy    <       0.00000217 Ry

     iteration # 38     ecut=    60.00 Ry     beta= 0.15
     Davidson diagonalization with overlap

---- Real-time Memory Report at c_bands before calling an iterative solver
             0 MiB given to the printing process from OS
             0 MiB allocation reported by mallinfo(arena+hblkhd)
         22595 MiB available memory on the node where the printing process lives
------------------
     ethr =  5.04E-10,  avg # of iterations =  3.3

     negative rho (up, down):  7.925E-01 0.000E+00

     total cpu time spent up to now is      726.7 secs

     total energy              =   -4441.66923339 Ry
     estimated scf accuracy    <       0.00000136 Ry

     iteration # 39     ecut=    60.00 Ry     beta= 0.15
     Davidson diagonalization with overlap

---- Real-time Memory Report at c_bands before calling an iterative solver
             0 MiB given to the printing process from OS
             0 MiB allocation reported by mallinfo(arena+hblkhd)
         22592 MiB available memory on the node where the printing process lives
------------------
     ethr =  3.15E-10,  avg # of iterations =  2.1

     negative rho (up, down):  7.925E-01 0.000E+00

     total cpu time spent up to now is      743.9 secs

     total energy              =   -4441.66923327 Ry
     estimated scf accuracy    <       0.00000082 Ry

     iteration # 40     ecut=    60.00 Ry     beta= 0.15
     Davidson diagonalization with overlap

---- Real-time Memory Report at c_bands before calling an iterative solver
             0 MiB given to the printing process from OS
             0 MiB allocation reported by mallinfo(arena+hblkhd)
         22595 MiB available memory on the node where the printing process lives
------------------
     ethr =  1.90E-10,  avg # of iterations =  3.2

     negative rho (up, down):  7.925E-01 0.000E+00

     total cpu time spent up to now is      761.9 secs

     total energy              =   -4441.66923337 Ry
     estimated scf accuracy    <       0.00000028 Ry

     iteration # 41     ecut=    60.00 Ry     beta= 0.15
     Davidson diagonalization with overlap

---- Real-time Memory Report at c_bands before calling an iterative solver
             0 MiB given to the printing process from OS
             0 MiB allocation reported by mallinfo(arena+hblkhd)
         22588 MiB available memory on the node where the printing process lives
------------------
     ethr =  6.53E-11,  avg # of iterations =  2.3

     negative rho (up, down):  7.925E-01 0.000E+00

     total cpu time spent up to now is      779.3 secs

     total energy              =   -4441.66923345 Ry
     estimated scf accuracy    <       0.00000017 Ry

     iteration # 42     ecut=    60.00 Ry     beta= 0.15
     Davidson diagonalization with overlap

---- Real-time Memory Report at c_bands before calling an iterative solver
             0 MiB given to the printing process from OS
             0 MiB allocation reported by mallinfo(arena+hblkhd)
         22595 MiB available memory on the node where the printing process lives
------------------
     ethr =  3.94E-11,  avg # of iterations =  2.2

     negative rho (up, down):  7.925E-01 0.000E+00

     total cpu time spent up to now is      796.6 secs

     total energy              =   -4441.66923352 Ry
     estimated scf accuracy    <       0.00000014 Ry

     iteration # 43     ecut=    60.00 Ry     beta= 0.15
     Davidson diagonalization with overlap

---- Real-time Memory Report at c_bands before calling an iterative solver
             0 MiB given to the printing process from OS
             0 MiB allocation reported by mallinfo(arena+hblkhd)
         22596 MiB available memory on the node where the printing process lives
------------------
     ethr =  3.14E-11,  avg # of iterations =  3.0

     negative rho (up, down):  7.925E-01 0.000E+00

     total cpu time spent up to now is      814.3 secs

     total energy              =   -4441.66923358 Ry
     estimated scf accuracy    <       0.00000009 Ry

     iteration # 44     ecut=    60.00 Ry     beta= 0.15
     Davidson diagonalization with overlap

---- Real-time Memory Report at c_bands before calling an iterative solver
             0 MiB given to the printing process from OS
             0 MiB allocation reported by mallinfo(arena+hblkhd)
         22593 MiB available memory on the node where the printing process lives
------------------
     ethr =  2.08E-11,  avg # of iterations =  2.8

     negative rho (up, down):  7.925E-01 0.000E+00

     total cpu time spent up to now is      831.7 secs

     total energy              =   -4441.66923361 Ry
     estimated scf accuracy    <       0.00000005 Ry

     iteration # 45     ecut=    60.00 Ry     beta= 0.15
     Davidson diagonalization with overlap

---- Real-time Memory Report at c_bands before calling an iterative solver
             0 MiB given to the printing process from OS
             0 MiB allocation reported by mallinfo(arena+hblkhd)
         22600 MiB available memory on the node where the printing process lives
------------------
     ethr =  1.24E-11,  avg # of iterations =  4.0

     negative rho (up, down):  7.925E-01 0.000E+00

     total cpu time spent up to now is      850.7 secs

     total energy              =   -4441.66923361 Ry
     estimated scf accuracy    <       0.00000002 Ry

     iteration # 46     ecut=    60.00 Ry     beta= 0.15
     Davidson diagonalization with overlap

---- Real-time Memory Report at c_bands before calling an iterative solver
             0 MiB given to the printing process from OS
             0 MiB allocation reported by mallinfo(arena+hblkhd)
         22596 MiB available memory on the node where the printing process lives
------------------
     ethr =  5.66E-12,  avg # of iterations =  4.0

     negative rho (up, down):  7.925E-01 0.000E+00

     total cpu time spent up to now is      868.9 secs

     total energy              =   -4441.66923361 Ry
     estimated scf accuracy    <       0.00000001 Ry

     iteration # 47     ecut=    60.00 Ry     beta= 0.15
     Davidson diagonalization with overlap

---- Real-time Memory Report at c_bands before calling an iterative solver
             0 MiB given to the printing process from OS
             0 MiB allocation reported by mallinfo(arena+hblkhd)
         22589 MiB available memory on the node where the printing process lives
------------------
     ethr =  2.49E-12,  avg # of iterations =  2.1

     negative rho (up, down):  7.925E-01 0.000E+00

     total cpu time spent up to now is      885.8 secs

     End of self-consistent calculation

          k = 0.0000 0.0000 0.0000 ( 65197 PWs)   bands (ev):

   -92.7033 -92.6538 -92.5579 -92.5114 -92.4535 -92.4098 -92.3925 -92.2737
   -56.0567 -56.0404 -55.9149 -55.9040 -55.8985 -55.8908 -55.8571 -55.8268
   -55.8111 -55.8093 -55.8040 -55.7607 -55.7422 -55.7043 -55.6846 -55.6535
   -55.6468 -55.5998 -55.5981 -55.5950 -55.5866 -55.5486 -55.5228 -55.4388
   -31.2807 -31.2611 -31.1361 -31.1194 -31.0323 -30.9685 -30.8929 -30.4379
   -29.8511 -29.8062 -29.7805 -29.6717 -15.0833 -15.0319 -14.9571 -14.8273
   -14.6288 -14.5075 -14.2213 -14.1984 -14.1720 -14.1258 -14.0768 -14.0599
   -14.0578 -14.0368 -14.0218 -13.9873 -13.9825 -13.9329 -13.7797 -13.5942
   -13.5680 -13.5377 -13.4998 -13.4853 -13.4333 -13.3997 -13.3251 -13.2528
   -13.1372 -13.1221 -13.1126 -13.0946 -13.0774 -13.0589 -13.0065 -13.0036
   -12.9806 -12.9582 -12.9273 -12.9251 -12.9102 -12.8967 -12.8540 -12.8118
   -12.7858 -12.7734 -12.5047 -12.4982 -12.3624 -12.3450 -12.1990 -11.9542
   -11.8836 -11.8624 -11.7899 -11.7784 -11.7538 -11.7360 -11.6736 -11.6562
   -11.6219 -11.5936 -11.4791 -11.4011 -11.3975  -2.9424  -2.7107  -2.4814
    -2.3328  -2.2711  -2.1296  -1.8215  -1.8070  -1.7887  -1.7015  -1.6832
    -1.6156  -1.5990  -1.5589  -1.5143  -1.3352  -1.2293  -1.1053  -1.0761
    -0.9331  -0.9181  -0.8698  -0.8503  -0.8062  -0.7890  -0.7356  -0.7088
    -0.6332  -0.6208  -0.5489  -0.4172  -0.4048  -0.3738  -0.2939  -0.2723
    -0.2272  -0.1975  -0.1286  -0.0807  -0.0298  -0.0059   0.0636   0.1331
     0.1791   0.2062   0.2155   0.4754   0.4872   0.6620   0.7257   0.7904
     0.8472   0.9261   0.9382   0.9577   1.0214   1.0501   1.0834   1.1408
     1.2720   1.3305   1.3522   1.3792   1.3875   1.4484   1.5190   1.6305
     1.6466   1.7043   1.7141   1.7575   1.7786   1.7887   1.8424   1.9068
     1.9153   1.9480   1.9857   2.0272   2.1590   2.2441   2.2844   2.3085
     2.4366   2.4485   2.4647   2.4743   2.5103   2.5133   2.6270   2.6574
     2.6841   2.7033   2.7203   2.8018   2.9066   2.9401   2.9496   2.9554
     3.0234   3.0281   3.0511   3.0592   3.0682   3.0793   3.0881   3.1016
     3.1079   3.1195   3.1279   3.1354   3.1552   3.1759   3.1812   3.1931
     3.2172   3.3332   3.4141   4.1043   4.4275   4.7668   4.8635   5.0432
     5.7838   5.9462   5.9836   6.0085   6.3118   6.3588   6.4764   6.4856
     6.7298   7.0045   7.0977   7.3118   7.4085   7.6393   7.6632   7.6847
     7.7269   7.8766   7.9331   8.0025   8.1085   8.1608   8.4804   8.5618
     8.7186   8.7979   8.8707

     occupation numbers 
     1.0000   1.0000   1.0000   1.0000   1.0000   1.0000   1.0000   1.0000
     1.0000   1.0000   1.0000   1.0000   1.0000   1.0000   1.0000   1.0000
     1.0000   1.0000   1.0000   1.0000   1.0000   1.0000   1.0000   1.0000
     1.0000   1.0000   1.0000   1.0000   1.0000   1.0000   1.0000   1.0000
     1.0000   1.0000   1.0000   1.0000   1.0000   1.0000   1.0000   1.0000
     1.0000   1.0000   1.0000   1.0000   1.0000   1.0000   1.0000   1.0000
     1.0000   1.0000   1.0000   1.0000   1.0000   1.0000   1.0000   1.0000
     1.0000   1.0000   1.0000   1.0000   1.0000   1.0000   1.0000   1.0000
     1.0000   1.0000   1.0000   1.0000   1.0000   1.0000   1.0000   1.0000
     1.0000   1.0000   1.0000   1.0000   1.0000   1.0000   1.0000   1.0000
     1.0000   1.0000   1.0000   1.0000   1.0000   1.0000   1.0000   1.0000
     1.0000   1.0000   1.0000   1.0000   1.0000   1.0000   1.0000   1.0000
     1.0000   1.0000   1.0000   1.0000   1.0000   1.0000   1.0000   1.0000
     1.0000   1.0000   1.0000   1.0000   1.0000   1.0000   1.0000   1.0000
     1.0000   1.0000   1.0000   1.0000   1.0000   1.0000   1.0000   1.0000
     1.0000   1.0000   1.0000   1.0000   1.0000   1.0000   1.0000   1.0000
     1.0000   1.0000   1.0000   1.0000   1.0000   1.0000   1.0000   1.0000
     1.0000   1.0000   1.0000   1.0000   1.0000   1.0000   1.0000   1.0000
     1.0000   1.0000   1.0000   1.0000   1.0000   1.0000   1.0000   1.0000
     1.0000   1.0000   1.0000   1.0000   1.0000   1.0000   0.9999   0.9999
     0.9999   0.9998   0.9998   0.9998   0.9997   0.9996   0.9996   0.9994
     0.9988   0.9985   0.9983   0.9981   0.9980   0.9973   0.9963   0.9941
     0.9936   0.9919   0.9916   0.9900   0.9891   0.9887   0.9861   0.9824
     0.9818   0.9795   0.9766   0.9730   0.9582   0.9456   0.9387   0.9343
     0.9063   0.9033   0.8991   0.8965   0.8866   0.8858   0.8498   0.8390
     0.8291   0.8218   0.8151   0.7811   0.7325   0.7159   0.7110   0.7081
     0.6725   0.6700   0.6575   0.6531   0.6482   0.6420   0.6371   0.6296
     0.6260   0.6195   0.6148   0.6105   0.5992   0.5872   0.5842   0.5772
     0.5632   0.4948   0.4469   0.1234   0.0507   0.0161   0.0111   0.0054
     0.0001   0.0000   0.0000   0.0000   0.0000   0.0000   0.0000   0.0000
     0.0000   0.0000   0.0000   0.0000   0.0000   0.0000   0.0000   0.0000
     0.0000   0.0000   0.0000   0.0000   0.0000   0.0000   0.0000   0.0000
     0.0000   0.0000   0.0000

          k = 0.0000 0.2500 0.0000 ( 65257 PWs)   bands (ev):

   -92.7033 -92.6538 -92.5579 -92.5114 -92.4535 -92.4098 -92.3925 -92.2737
   -56.0567 -56.0404 -55.9149 -55.9040 -55.8985 -55.8908 -55.8571 -55.8269
   -55.8111 -55.8093 -55.8040 -55.7607 -55.7422 -55.7043 -55.6846 -55.6535
   -55.6468 -55.5998 -55.5981 -55.5950 -55.5866 -55.5486 -55.5228 -55.4388
   -31.2805 -31.2610 -31.1359 -31.1196 -31.0325 -30.9687 -30.8929 -30.4380
   -29.8505 -29.8059 -29.7811 -29.6721 -15.0471 -15.0051 -14.9318 -14.7979
   -14.6714 -14.4978 -14.3648 -14.1869 -14.1488 -14.1308 -14.1019 -14.0426
   -14.0359 -14.0185 -14.0018 -13.9839 -13.9520 -13.8506 -13.8108 -13.6498
   -13.6205 -13.5799 -13.5415 -13.4846 -13.4540 -13.4048 -13.3453 -13.3106
   -13.2446 -13.1742 -13.1502 -13.1151 -13.1071 -13.0776 -12.9917 -12.9680
   -12.9390 -12.9252 -12.9042 -12.8797 -12.8695 -12.8416 -12.8141 -12.7984
   -12.7158 -12.6655 -12.4618 -12.4212 -12.4061 -12.3623 -12.2502 -12.0022
   -11.9398 -11.8276 -11.7866 -11.7577 -11.7290 -11.7123 -11.6654 -11.6543
   -11.6317 -11.5985 -11.4934 -11.4425 -11.4321  -2.8069  -2.5864  -2.4484
    -2.2661  -2.2227  -2.0596  -1.8388  -1.7560  -1.7429  -1.6816  -1.5820
    -1.5664  -1.5323  -1.5052  -1.4615  -1.2715  -1.2244  -1.1340  -1.1219
    -1.0451  -1.0358  -0.9322  -0.9037  -0.8435  -0.8180  -0.7794  -0.7143
    -0.6877  -0.6553  -0.6236  -0.6058  -0.5745  -0.5013  -0.4498  -0.3725
    -0.2697  -0.2399  -0.1985  -0.0915  -0.0518   0.0112   0.0568   0.1234
     0.1367   0.1584   0.2182   0.5223   0.6086   0.6413   0.7293   0.7761
     0.8030   0.9101   0.9304   1.0235   1.0502   1.0764   1.1906   1.2873
     1.3055   1.3322   1.3530   1.3738   1.4340   1.4614   1.4896   1.5357
     1.5730   1.6041   1.6921   1.7290   1.7589   1.8116   1.8644   1.9051
     1.9370   1.9615   1.9742   2.0765   2.1953   2.2695   2.2915   2.3581
     2.4037   2.4354   2.4456   2.4542   2.4689   2.5180   2.5527   2.6416
     2.6826   2.6989   2.8634   2.8847   2.9190   2.9419   2.9569   2.9654
     2.9722   2.9818   3.0114   3.0139   3.0319   3.0386   3.0459   3.0643
     3.0767   3.0840   3.1059   3.1168   3.1220   3.1574   3.1735   3.2332
     3.6019   3.6374   3.8793   4.2961   4.4214   4.7120   5.0163   5.0659
     5.6420   5.8193   5.9375   5.9841   6.0824   6.1046   6.1809   6.5934
     6.8300   7.0830   7.1300   7.3274   7.4800   7.4975   7.6394   7.6466
     7.8658   7.8968   8.0025   8.1777   8.2706   8.3765   8.4055   8.5371
     8.6022   8.8463   8.9488

     occupation numbers 
     1.0000   1.0000   1.0000   1.0000   1.0000   1.0000   1.0000   1.0000
     1.0000   1.0000   1.0000   1.0000   1.0000   1.0000   1.0000   1.0000
     1.0000   1.0000   1.0000   1.0000   1.0000   1.0000   1.0000   1.0000
     1.0000   1.0000   1.0000   1.0000   1.0000   1.0000   1.0000   1.0000
     1.0000   1.0000   1.0000   1.0000   1.0000   1.0000   1.0000   1.0000
     1.0000   1.0000   1.0000   1.0000   1.0000   1.0000   1.0000   1.0000
     1.0000   1.0000   1.0000   1.0000   1.0000   1.0000   1.0000   1.0000
     1.0000   1.0000   1.0000   1.0000   1.0000   1.0000   1.0000   1.0000
     1.0000   1.0000   1.0000   1.0000   1.0000   1.0000   1.0000   1.0000
     1.0000   1.0000   1.0000   1.0000   1.0000   1.0000   1.0000   1.0000
     1.0000   1.0000   1.0000   1.0000   1.0000   1.0000   1.0000   1.0000
     1.0000   1.0000   1.0000   1.0000   1.0000   1.0000   1.0000   1.0000
     1.0000   1.0000   1.0000   1.0000   1.0000   1.0000   1.0000   1.0000
     1.0000   1.0000   1.0000   1.0000   1.0000   1.0000   1.0000   1.0000
     1.0000   1.0000   1.0000   1.0000   1.0000   1.0000   1.0000   1.0000
     1.0000   1.0000   1.0000   1.0000   1.0000   1.0000   1.0000   1.0000
     1.0000   1.0000   1.0000   1.0000   1.0000   1.0000   1.0000   1.0000
     1.0000   1.0000   1.0000   1.0000   1.0000   1.0000   1.0000   1.0000
     1.0000   1.0000   1.0000   1.0000   1.0000   1.0000   1.0000   1.0000
     1.0000   1.0000   1.0000   1.0000   1.0000   1.0000   0.9999   0.9999
     0.9999   0.9998   0.9998   0.9997   0.9996   0.9996   0.9992   0.9988
     0.9986   0.9985   0.9983   0.9981   0.9975   0.9972   0.9968   0.9960
     0.9953   0.9947   0.9923   0.9911   0.9900   0.9877   0.9849   0.9825
     0.9803   0.9785   0.9775   0.9680   0.9532   0.9414   0.9374   0.9243
     0.9142   0.9066   0.9040   0.9018   0.8980   0.8844   0.8741   0.8446
     0.8297   0.8235   0.7531   0.7431   0.7264   0.7149   0.7073   0.7030
     0.6995   0.6945   0.6789   0.6776   0.6680   0.6643   0.6603   0.6503
     0.6435   0.6394   0.6272   0.6210   0.6181   0.5979   0.5886   0.5538
     0.3401   0.3210   0.2050   0.0745   0.0517   0.0197   0.0060   0.0049
     0.0003   0.0001   0.0001   0.0000   0.0000   0.0000   0.0000   0.0000
     0.0000   0.0000   0.0000   0.0000   0.0000   0.0000   0.0000   0.0000
     0.0000   0.0000   0.0000   0.0000   0.0000   0.0000   0.0000   0.0000
     0.0000   0.0000   0.0000

          k = 0.0000-0.5000 0.0000 ( 65180 PWs)   bands (ev):

   -92.7033 -92.6538 -92.5579 -92.5114 -92.4535 -92.4098 -92.3925 -92.2737
   -56.0567 -56.0404 -55.9149 -55.9040 -55.8985 -55.8908 -55.8571 -55.8268
   -55.8111 -55.8093 -55.8040 -55.7607 -55.7422 -55.7043 -55.6846 -55.6535
   -55.6468 -55.5998 -55.5981 -55.5950 -55.5866 -55.5486 -55.5228 -55.4388
   -31.2803 -31.2608 -31.1358 -31.1198 -31.0326 -30.9689 -30.8928 -30.4381
   -29.8499 -29.8056 -29.7818 -29.6724 -15.0086 -14.9613 -14.9028 -14.7795
   -14.6941 -14.5616 -14.3953 -14.2851 -14.1597 -14.0853 -14.0429 -14.0379
   -13.9906 -13.9838 -13.9725 -13.9195 -13.8952 -13.8745 -13.8455 -13.8029
   -13.7565 -13.5856 -13.5262 -13.4855 -13.4588 -13.4022 -13.3608 -13.3118
   -13.2860 -13.2625 -13.2205 -13.1177 -13.1080 -13.0672 -12.9856 -12.9662
   -12.9480 -12.9310 -12.8853 -12.8755 -12.8337 -12.8154 -12.7082 -12.6692
   -12.6546 -12.6248 -12.5173 -12.3819 -12.3631 -12.3253 -12.2930 -12.0751
   -12.0242 -11.7836 -11.7796 -11.7522 -11.7151 -11.6808 -11.6697 -11.6282
   -11.6241 -11.5800 -11.5151 -11.5025 -11.4889  -2.5916  -2.5336  -2.3828
    -2.3118  -2.0277  -1.9462  -1.8170  -1.6826  -1.6389  -1.6244  -1.5462
    -1.5163  -1.4311  -1.3979  -1.3178  -1.2831  -1.2482  -1.2324  -1.2155
    -1.1422  -1.1192  -1.0716  -1.0367  -1.0019  -0.9705  -0.8593  -0.8160
    -0.7787  -0.7742  -0.6899  -0.6597  -0.6379  -0.5874  -0.4998  -0.4305
    -0.3381  -0.2952  -0.2093  -0.1734  -0.0315   0.0249   0.0369   0.0933
     0.2166   0.2724   0.3896   0.4613   0.4695   0.5948   0.6548   0.7617
     0.8764   0.9811   1.0134   1.0536   1.0669   1.1001   1.1142   1.1479
     1.1641   1.1780   1.2859   1.3481   1.3844   1.4066   1.6754   1.7015
     1.7215   1.8141   1.8402   1.8691   1.8856   1.9102   1.9333   1.9420
     1.9651   2.0028   2.0341   2.0672   2.0697   2.0988   2.1505   2.2400
     2.2723   2.4345   2.4457   2.4616   2.6009   2.6131   2.6336   2.6693
     2.6773   2.6815   2.7321   2.7447   2.7977   2.8191   2.8952   2.9145
     2.9820   2.9846   3.0092   3.0124   3.0284   3.0326   3.0380   3.0430
     3.0447   3.0573   3.0759   3.0771   3.1430   3.1461   3.1630   3.2174
     4.1308   4.1429   4.1833   4.2602   4.7395   4.9030   5.0221   5.1737
     5.4123   5.4617   5.5812   5.7372   6.0319   6.0457   6.2536   6.5324
     6.8491   6.9495   7.2192   7.2867   7.4153   7.4479   7.7314   7.7655
     7.9057   7.9323   8.1944   8.3307   8.3785   8.4868   8.5613   8.6810
     8.8058   8.8231   8.8666

     occupation numbers 
     1.0000   1.0000   1.0000   1.0000   1.0000   1.0000   1.0000   1.0000
     1.0000   1.0000   1.0000   1.0000   1.0000   1.0000   1.0000   1.0000
     1.0000   1.0000   1.0000   1.0000   1.0000   1.0000   1.0000   1.0000
     1.0000   1.0000   1.0000   1.0000   1.0000   1.0000   1.0000   1.0000
     1.0000   1.0000   1.0000   1.0000   1.0000   1.0000   1.0000   1.0000
     1.0000   1.0000   1.0000   1.0000   1.0000   1.0000   1.0000   1.0000
     1.0000   1.0000   1.0000   1.0000   1.0000   1.0000   1.0000   1.0000
     1.0000   1.0000   1.0000   1.0000   1.0000   1.0000   1.0000   1.0000
     1.0000   1.0000   1.0000   1.0000   1.0000   1.0000   1.0000   1.0000
     1.0000   1.0000   1.0000   1.0000   1.0000   1.0000   1.0000   1.0000
     1.0000   1.0000   1.0000   1.0000   1.0000   1.0000   1.0000   1.0000
     1.0000   1.0000   1.0000   1.0000   1.0000   1.0000   1.0000   1.0000
     1.0000   1.0000   1.0000   1.0000   1.0000   1.0000   1.0000   1.0000
     1.0000   1.0000   1.0000   1.0000   1.0000   1.0000   1.0000   1.0000
     1.0000   1.0000   1.0000   1.0000   1.0000   1.0000   1.0000   1.0000
     1.0000   1.0000   1.0000   1.0000   1.0000   1.0000   1.0000   1.0000
     1.0000   1.0000   1.0000   1.0000   1.0000   1.0000   1.0000   1.0000
     1.0000   1.0000   1.0000   1.0000   1.0000   1.0000   1.0000   1.0000
     1.0000   1.0000   1.0000   1.0000   1.0000   1.0000   1.0000   1.0000
     1.0000   1.0000   1.0000   1.0000   1.0000   1.0000   1.0000   0.9999
     0.9999   0.9997   0.9997   0.9996   0.9996   0.9995   0.9995   0.9994
     0.9993   0.9993   0.9988   0.9983   0.9980   0.9978   0.9928   0.9920
     0.9913   0.9875   0.9862   0.9846   0.9837   0.9821   0.9806   0.9799
     0.9782   0.9751   0.9723   0.9690   0.9688   0.9656   0.9593   0.9463
     0.9409   0.9068   0.9040   0.8999   0.8586   0.8545   0.8475   0.8346
     0.8317   0.8301   0.8104   0.8053   0.7829   0.7734   0.7380   0.7286
     0.6944   0.6930   0.6801   0.6784   0.6698   0.6676   0.6646   0.6619
     0.6610   0.6541   0.6439   0.6432   0.6061   0.6044   0.5947   0.5631
     0.1156   0.1121   0.1011   0.0823   0.0178   0.0095   0.0058   0.0030
     0.0010   0.0008   0.0004   0.0002   0.0000   0.0000   0.0000   0.0000
     0.0000   0.0000   0.0000   0.0000   0.0000   0.0000   0.0000   0.0000
     0.0000   0.0000   0.0000   0.0000   0.0000   0.0000   0.0000   0.0000
     0.0000   0.0000   0.0000

          k = 0.2500 0.2500 0.0000 ( 65198 PWs)   bands (ev):

   -92.7033 -92.6538 -92.5579 -92.5114 -92.4535 -92.4098 -92.3925 -92.2737
   -56.0567 -56.0404 -55.9149 -55.9040 -55.8985 -55.8908 -55.8571 -55.8268
   -55.8111 -55.8093 -55.8040 -55.7607 -55.7422 -55.7043 -55.6846 -55.6535
   -55.6468 -55.5998 -55.5981 -55.5950 -55.5866 -55.5486 -55.5228 -55.4388
   -31.2788 -31.2627 -31.1358 -31.1192 -31.0328 -30.9686 -30.8930 -30.4381
   -29.8496 -29.8069 -29.7807 -29.6725 -15.0178 -14.9703 -14.9035 -14.7878
   -14.6643 -14.5381 -14.4716 -14.2635 -14.1102 -14.0970 -14.0606 -14.0313
   -14.0080 -13.9867 -13.9706 -13.9464 -13.9146 -13.8414 -13.8247 -13.6656
   -13.6510 -13.6186 -13.6028 -13.5292 -13.5113 -13.4400 -13.4287 -13.3008
   -13.2511 -13.2302 -13.1462 -13.1066 -13.0757 -13.0457 -13.0207 -12.9813
   -12.9496 -12.9365 -12.9195 -12.8665 -12.8135 -12.7919 -12.7546 -12.7461
   -12.7164 -12.6346 -12.4657 -12.4551 -12.3630 -12.3056 -12.2793 -12.0186
   -11.9893 -11.8005 -11.7694 -11.7579 -11.7516 -11.6885 -11.6531 -11.6469
   -11.6120 -11.6046 -11.5102 -11.4707 -11.4535  -2.6685  -2.4606  -2.3425
    -2.2470  -2.1273  -2.0629  -1.8634  -1.7201  -1.7019  -1.6691  -1.5767
    -1.5428  -1.4489  -1.4212  -1.3708  -1.2462  -1.2343  -1.1801  -1.1173
    -1.0737  -1.0278  -1.0052  -0.9821  -0.9387  -0.9240  -0.8336  -0.7829
    -0.7145  -0.6668  -0.6375  -0.5893  -0.5748  -0.5100  -0.4612  -0.3960
    -0.3675  -0.2767  -0.2297  -0.1983  -0.1637  -0.1082  -0.0296   0.0039
     0.0341   0.1096   0.1469   0.4095   0.5616   0.5914   0.6531   0.6935
     0.7624   0.8105   0.8686   0.9063   1.1777   1.2410   1.3148   1.3374
     1.3913   1.4179   1.4554   1.4924   1.5088   1.5357   1.5834   1.5903
     1.6057   1.6535   1.6903   1.7291   1.7901   1.8261   1.8375   1.8699
     1.9055   1.9616   1.9889   2.1158   2.1782   2.2112   2.2333   2.3059
     2.3661   2.3941   2.4258   2.4384   2.4521   2.4690   2.4734   2.5841
     2.6217   2.7126   2.8746   2.8919   2.8971   2.9142   2.9290   2.9423
     2.9544   2.9612   2.9727   2.9859   2.9991   3.0164   3.0236   3.0345
     3.0581   3.0681   3.0775   3.1084   3.4089   3.5020   3.5478   3.6180
     3.6341   3.8600   3.9518   4.3044   4.5087   4.7184   4.9808   5.1643
     5.6444   5.7041   5.7836   5.8362   5.8940   6.0850   6.1574   6.2075
     6.8889   6.9501   7.0825   7.3126   7.5495   7.6027   7.7100   7.8587
     7.8872   8.0104   8.1814   8.2257   8.3224   8.3665   8.4429   8.5169
     8.5586   8.7821   8.9093

     occupation numbers 
     1.0000   1.0000   1.0000   1.0000   1.0000   1.0000   1.0000   1.0000
     1.0000   1.0000   1.0000   1.0000   1.0000   1.0000   1.0000   1.0000
     1.0000   1.0000   1.0000   1.0000   1.0000   1.0000   1.0000   1.0000
     1.0000   1.0000   1.0000   1.0000   1.0000   1.0000   1.0000   1.0000
     1.0000   1.0000   1.0000   1.0000   1.0000   1.0000   1.0000   1.0000
     1.0000   1.0000   1.0000   1.0000   1.0000   1.0000   1.0000   1.0000
     1.0000   1.0000   1.0000   1.0000   1.0000   1.0000   1.0000   1.0000
     1.0000   1.0000   1.0000   1.0000   1.0000   1.0000   1.0000   1.0000
     1.0000   1.0000   1.0000   1.0000   1.0000   1.0000   1.0000   1.0000
     1.0000   1.0000   1.0000   1.0000   1.0000   1.0000   1.0000   1.0000
     1.0000   1.0000   1.0000   1.0000   1.0000   1.0000   1.0000   1.0000
     1.0000   1.0000   1.0000   1.0000   1.0000   1.0000   1.0000   1.0000
     1.0000   1.0000   1.0000   1.0000   1.0000   1.0000   1.0000   1.0000
     1.0000   1.0000   1.0000   1.0000   1.0000   1.0000   1.0000   1.0000
     1.0000   1.0000   1.0000   1.0000   1.0000   1.0000   1.0000   1.0000
     1.0000   1.0000   1.0000   1.0000   1.0000   1.0000   1.0000   1.0000
     1.0000   1.0000   1.0000   1.0000   1.0000   1.0000   1.0000   1.0000
     1.0000   1.0000   1.0000   1.0000   1.0000   1.0000   1.0000   1.0000
     1.0000   1.0000   1.0000   1.0000   1.0000   1.0000   1.0000   1.0000
     1.0000   1.0000   1.0000   1.0000   1.0000   1.0000   1.0000   1.0000
     0.9999   0.9999   0.9999   0.9998   0.9993   0.9990   0.9986   0.9984
     0.9980   0.9977   0.9972   0.9967   0.9965   0.9960   0.9951   0.9950
     0.9946   0.9935   0.9924   0.9911   0.9886   0.9869   0.9864   0.9846
     0.9824   0.9785   0.9763   0.9636   0.9556   0.9508   0.9474   0.9348
     0.9226   0.9164   0.9089   0.9058   0.9024   0.8980   0.8968   0.8641
     0.8516   0.8181   0.7479   0.7396   0.7371   0.7287   0.7214   0.7147
     0.7086   0.7051   0.6992   0.6923   0.6854   0.6763   0.6724   0.6665
     0.6537   0.6482   0.6430   0.6257   0.4500   0.3960   0.3700   0.3314
     0.3228   0.2132   0.1758   0.0728   0.0393   0.0192   0.0070   0.0031
     0.0003   0.0002   0.0001   0.0001   0.0001   0.0000   0.0000   0.0000
     0.0000   0.0000   0.0000   0.0000   0.0000   0.0000   0.0000   0.0000
     0.0000   0.0000   0.0000   0.0000   0.0000   0.0000   0.0000   0.0000
     0.0000   0.0000   0.0000

          k = 0.2500-0.5000 0.0000 ( 65138 PWs)   bands (ev):

   -92.7033 -92.6538 -92.5579 -92.5114 -92.4535 -92.4098 -92.3925 -92.2737
   -56.0567 -56.0404 -55.9149 -55.9040 -55.8985 -55.8908 -55.8571 -55.8268
   -55.8111 -55.8093 -55.8040 -55.7607 -55.7422 -55.7043 -55.6846 -55.6535
   -55.6468 -55.5998 -55.5981 -55.5950 -55.5866 -55.5486 -55.5228 -55.4388
   -31.2786 -31.2625 -31.1356 -31.1194 -31.0330 -30.9688 -30.8929 -30.4381
   -29.8490 -29.8066 -29.7814 -29.6728 -14.9774 -14.9342 -14.8595 -14.7513
   -14.7164 -14.6015 -14.5021 -14.3801 -14.0752 -14.0199 -13.9954 -13.9870
   -13.9707 -13.9564 -13.9440 -13.9037 -13.8818 -13.8574 -13.8221 -13.7942
   -13.7479 -13.6675 -13.6201 -13.5460 -13.5393 -13.4715 -13.4505 -13.3564
   -13.3101 -13.2096 -13.1449 -13.1278 -13.0569 -13.0292 -12.9936 -12.9794
   -12.9477 -12.9289 -12.9131 -12.8668 -12.8206 -12.8042 -12.7070 -12.6764
   -12.6585 -12.6271 -12.5240 -12.3703 -12.3421 -12.3227 -12.2567 -12.0679
   -12.0287 -11.7768 -11.7642 -11.7533 -11.7262 -11.6952 -11.6659 -11.6259
   -11.5967 -11.5760 -11.5284 -11.5040 -11.4932  -2.4494  -2.3852  -2.2564
    -2.1805  -2.0483  -1.9658  -1.8414  -1.6933  -1.6358  -1.6157  -1.5546
    -1.5415  -1.4418  -1.3779  -1.2930  -1.2492  -1.2379  -1.2215  -1.1685
    -1.1205  -1.0931  -1.0445  -1.0077  -0.9723  -0.9330  -0.9181  -0.8763
    -0.8467  -0.8038  -0.7731  -0.7064  -0.6014  -0.5644  -0.4851  -0.4191
    -0.3632  -0.3255  -0.3096  -0.2459  -0.0938  -0.0867   0.0349   0.0551
     0.0639   0.1102   0.1444   0.1812   0.2105   0.2747   0.5562   0.6539
     0.7259   0.7787   1.0437   1.0583   1.1478   1.1774   1.3383   1.3759
     1.4134   1.4359   1.4501   1.4712   1.5364   1.5866   1.6186   1.6963
     1.7921   1.8284   1.8472   1.8583   1.8935   1.9082   1.9137   1.9604
     1.9702   1.9889   2.0298   2.0392   2.0605   2.0962   2.1507   2.1949
     2.2728   2.4045   2.4325   2.4654   2.5535   2.5720   2.5905   2.6209
     2.6427   2.6711   2.6909   2.7063   2.7302   2.8246   2.8743   2.8937
     2.9013   2.9108   2.9313   2.9449   2.9644   2.9716   3.0093   3.0193
     3.0316   3.0390   3.0490   3.0581   3.5806   3.5963   3.7403   3.7929
     4.1330   4.1870   4.1910   4.3168   4.7588   4.9248   5.0588   5.1411
     5.3031   5.4320   5.6047   5.6522   5.7665   5.7896   6.3522   6.3958
     6.4837   6.6639   7.2437   7.3754   7.5460   7.7015   7.8053   7.8732
     7.9810   8.0443   8.2380   8.3913   8.4792   8.5326   8.5608   8.5620
     8.7147   8.7650   8.7933

     occupation numbers 
     1.0000   1.0000   1.0000   1.0000   1.0000   1.0000   1.0000   1.0000
     1.0000   1.0000   1.0000   1.0000   1.0000   1.0000   1.0000   1.0000
     1.0000   1.0000   1.0000   1.0000   1.0000   1.0000   1.0000   1.0000
     1.0000   1.0000   1.0000   1.0000   1.0000   1.0000   1.0000   1.0000
     1.0000   1.0000   1.0000   1.0000   1.0000   1.0000   1.0000   1.0000
     1.0000   1.0000   1.0000   1.0000   1.0000   1.0000   1.0000   1.0000
     1.0000   1.0000   1.0000   1.0000   1.0000   1.0000   1.0000   1.0000
     1.0000   1.0000   1.0000   1.0000   1.0000   1.0000   1.0000   1.0000
     1.0000   1.0000   1.0000   1.0000   1.0000   1.0000   1.0000   1.0000
     1.0000   1.0000   1.0000   1.0000   1.0000   1.0000   1.0000   1.0000
     1.0000   1.0000   1.0000   1.0000   1.0000   1.0000   1.0000   1.0000
     1.0000   1.0000   1.0000   1.0000   1.0000   1.0000   1.0000   1.0000
     1.0000   1.0000   1.0000   1.0000   1.0000   1.0000   1.0000   1.0000
     1.0000   1.0000   1.0000   1.0000   1.0000   1.0000   1.0000   1.0000
     1.0000   1.0000   1.0000   1.0000   1.0000   1.0000   1.0000   1.0000
     1.0000   1.0000   1.0000   1.0000   1.0000   1.0000   1.0000   1.0000
     1.0000   1.0000   1.0000   1.0000   1.0000   1.0000   1.0000   1.0000
     1.0000   1.0000   1.0000   1.0000   1.0000   1.0000   1.0000   1.0000
     1.0000   1.0000   1.0000   1.0000   1.0000   1.0000   1.0000   1.0000
     1.0000   1.0000   1.0000   1.0000   1.0000   1.0000   1.0000   1.0000
     0.9999   0.9999   0.9996   0.9996   0.9994   0.9993   0.9984   0.9981
     0.9977   0.9975   0.9973   0.9970   0.9960   0.9951   0.9943   0.9922
     0.9886   0.9868   0.9859   0.9853   0.9832   0.9823   0.9819   0.9786
     0.9778   0.9763   0.9727   0.9718   0.9697   0.9659   0.9593   0.9532
     0.9408   0.9140   0.9073   0.8989   0.8738   0.8680   0.8621   0.8519
     0.8443   0.8340   0.8265   0.8206   0.8112   0.7710   0.7480   0.7387
     0.7351   0.7304   0.7203   0.7134   0.7035   0.6998   0.6800   0.6747
     0.6681   0.6641   0.6587   0.6537   0.3518   0.3432   0.2684   0.2433
     0.1149   0.1001   0.0990   0.0703   0.0166   0.0087   0.0050   0.0035
     0.0017   0.0009   0.0004   0.0003   0.0001   0.0001   0.0000   0.0000
     0.0000   0.0000   0.0000   0.0000   0.0000   0.0000   0.0000   0.0000
     0.0000   0.0000   0.0000   0.0000   0.0000   0.0000   0.0000   0.0000
     0.0000   0.0000   0.0000

          k =-0.5000-0.5000 0.0000 ( 65132 PWs)   bands (ev):

   -92.7033 -92.6538 -92.5579 -92.5114 -92.4535 -92.4098 -92.3925 -92.2737
   -56.0567 -56.0404 -55.9149 -55.9040 -55.8985 -55.8908 -55.8571 -55.8268
   -55.8111 -55.8093 -55.8040 -55.7607 -55.7422 -55.7043 -55.6846 -55.6535
   -55.6468 -55.5998 -55.5981 -55.5950 -55.5866 -55.5486 -55.5228 -55.4388
   -31.2765 -31.2647 -31.1355 -31.1190 -31.0334 -30.9688 -30.8931 -30.4382
   -29.8480 -29.8076 -29.7810 -29.6732 -14.9290 -14.9067 -14.7911 -14.7725
   -14.6792 -14.6464 -14.6121 -14.4782 -13.9872 -13.9842 -13.9747 -13.9375
   -13.9224 -13.9014 -13.8766 -13.8624 -13.8487 -13.8317 -13.8290 -13.8132
   -13.7344 -13.7285 -13.6988 -13.6654 -13.6253 -13.5592 -13.5175 -13.3948
   -13.3513 -13.1605 -13.1252 -13.0524 -13.0301 -13.0258 -12.9931 -12.9862
   -12.9768 -12.9580 -12.9017 -12.8364 -12.8159 -12.7776 -12.7525 -12.7377
   -12.6085 -12.6006 -12.5403 -12.3729 -12.3204 -12.3115 -12.2237 -12.0621
   -12.0324 -11.7726 -11.7612 -11.7436 -11.7259 -11.6918 -11.6731 -11.6380
   -11.5757 -11.5581 -11.5515 -11.5023 -11.4991  -2.2235  -2.1505  -2.1422
    -2.0679  -2.0301  -1.9520  -1.8836  -1.7582  -1.6432  -1.6137  -1.5703
    -1.5162  -1.4455  -1.4287  -1.3605  -1.3182  -1.2360  -1.1990  -1.1640
    -1.1216  -1.0945  -1.0298  -0.9816  -0.9645  -0.9515  -0.8955  -0.8549
    -0.8368  -0.7244  -0.6667  -0.6168  -0.5726  -0.5433  -0.5266  -0.4956
    -0.4544  -0.4134  -0.4066  -0.3213  -0.2558  -0.2122  -0.1823  -0.1125
    -0.0496  -0.0436   0.0183   0.0515   0.0610   0.0766   0.5299   0.5775
     0.6662   0.7025   1.0692   1.0838   1.1173   1.1566   1.4254   1.4423
     1.4507   1.4938   1.6176   1.7111   1.7384   1.7753   1.8021   1.8202
     1.8306   1.8585   1.8711   1.8923   1.8981   1.9484   1.9487   1.9778
     1.9994   2.0182   2.0294   2.0688   2.0945   2.1088   2.1392   2.1721
     2.2312   2.2978   2.4276   2.4608   2.5659   2.5975   2.6195   2.6358
     2.6505   2.6776   2.6814   2.7014   2.7121   2.7292   2.7501   2.7619
     2.8262   2.8285   2.8513   2.8647   2.8768   2.8983   2.9026   2.9099
     3.0170   3.0219   3.0439   3.0560   4.0153   4.0425   4.0564   4.0791
     4.3174   4.3913   4.4162   4.6564   4.7793   4.8617   4.9911   5.0824
     5.0913   5.2058   5.2969   5.4408   5.8529   5.8860   5.9552   6.0232
     6.5494   6.8851   6.9103   7.2035   7.9125   7.9173   7.9406   7.9743
     8.0075   8.0692   8.1321   8.2670   8.4216   8.5831   8.6121   8.6371
     8.6694   8.7066   8.7446

     occupation numbers 
     1.0000   1.0000   1.0000   1.0000   1.0000   1.0000   1.0000   1.0000
     1.0000   1.0000   1.0000   1.0000   1.0000   1.0000   1.0000   1.0000
     1.0000   1.0000   1.0000   1.0000   1.0000   1.0000   1.0000   1.0000
     1.0000   1.0000   1.0000   1.0000   1.0000   1.0000   1.0000   1.0000
     1.0000   1.0000   1.0000   1.0000   1.0000   1.0000   1.0000   1.0000
     1.0000   1.0000   1.0000   1.0000   1.0000   1.0000   1.0000   1.0000
     1.0000   1.0000   1.0000   1.0000   1.0000   1.0000   1.0000   1.0000
     1.0000   1.0000   1.0000   1.0000   1.0000   1.0000   1.0000   1.0000
     1.0000   1.0000   1.0000   1.0000   1.0000   1.0000   1.0000   1.0000
     1.0000   1.0000   1.0000   1.0000   1.0000   1.0000   1.0000   1.0000
     1.0000   1.0000   1.0000   1.0000   1.0000   1.0000   1.0000   1.0000
     1.0000   1.0000   1.0000   1.0000   1.0000   1.0000   1.0000   1.0000
     1.0000   1.0000   1.0000   1.0000   1.0000   1.0000   1.0000   1.0000
     1.0000   1.0000   1.0000   1.0000   1.0000   1.0000   1.0000   1.0000
     1.0000   1.0000   1.0000   1.0000   1.0000   1.0000   1.0000   1.0000
     1.0000   1.0000   1.0000   1.0000   1.0000   1.0000   1.0000   1.0000
     1.0000   1.0000   1.0000   1.0000   1.0000   1.0000   1.0000   1.0000
     1.0000   1.0000   1.0000   1.0000   1.0000   1.0000   1.0000   1.0000
     1.0000   1.0000   1.0000   1.0000   1.0000   1.0000   1.0000   1.0000
     1.0000   1.0000   1.0000   1.0000   1.0000   1.0000   1.0000   1.0000
     1.0000   1.0000   0.9996   0.9996   0.9995   0.9994   0.9976   0.9974
     0.9973   0.9967   0.9944   0.9917   0.9907   0.9893   0.9881   0.9872
     0.9867   0.9852   0.9845   0.9833   0.9829   0.9795   0.9795   0.9772
     0.9754   0.9738   0.9728   0.9689   0.9661   0.9645   0.9608   0.9564
     0.9477   0.9363   0.9085   0.9001   0.8700   0.8598   0.8523   0.8467
     0.8415   0.8315   0.8301   0.8225   0.8184   0.8116   0.8031   0.7982
     0.7702   0.7692   0.7588   0.7525   0.7468   0.7365   0.7344   0.7308
     0.6759   0.6733   0.6614   0.6549   0.1524   0.1431   0.1385   0.1312
     0.0702   0.0566   0.0525   0.0240   0.0154   0.0112   0.0067   0.0045
     0.0043   0.0026   0.0017   0.0008   0.0001   0.0001   0.0000   0.0000
     0.0000   0.0000   0.0000   0.0000   0.0000   0.0000   0.0000   0.0000
     0.0000   0.0000   0.0000   0.0000   0.0000   0.0000   0.0000   0.0000
     0.0000   0.0000   0.0000

          k = 0.2500 0.0000 0.0000 ( 65257 PWs)   bands (ev):

   -92.7033 -92.6538 -92.5579 -92.5114 -92.4535 -92.4098 -92.3925 -92.2737
   -56.0567 -56.0404 -55.9149 -55.9040 -55.8985 -55.8908 -55.8571 -55.8268
   -55.8111 -55.8093 -55.8040 -55.7607 -55.7422 -55.7043 -55.6846 -55.6535
   -55.6468 -55.5998 -55.5981 -55.5950 -55.5866 -55.5486 -55.5228 -55.4388
   -31.2790 -31.2628 -31.1360 -31.1190 -31.0327 -30.9685 -30.8931 -30.4380
   -29.8502 -29.8072 -29.7801 -29.6722 -15.0508 -14.9999 -14.9379 -14.7908
   -14.6805 -14.4841 -14.3579 -14.1764 -14.1601 -14.1302 -14.0971 -14.0731
   -14.0369 -14.0208 -14.0033 -13.9855 -13.9557 -13.8420 -13.8102 -13.6617
   -13.5928 -13.5764 -13.5083 -13.4934 -13.4787 -13.4174 -13.3480 -13.3155
   -13.2243 -13.1620 -13.1540 -13.1051 -13.0632 -13.0463 -13.0288 -13.0125
   -12.9765 -12.9482 -12.9294 -12.8965 -12.8687 -12.8223 -12.8062 -12.7732
   -12.6822 -12.6334 -12.4766 -12.4397 -12.4084 -12.3624 -12.2512 -12.0002
[...]
     0.3516   0.3268   0.2043   0.0788   0.0461   0.0217   0.0059   0.0048
     0.0003   0.0001   0.0001   0.0000   0.0000   0.0000   0.0000   0.0000
     0.0000   0.0000   0.0000   0.0000   0.0000   0.0000   0.0000   0.0000
     0.0000   0.0000   0.0000   0.0000   0.0000   0.0000   0.0000   0.0000
     0.0000   0.0000   0.0000

          k =-0.5000 0.0000 0.0000 ( 65180 PWs)   bands (ev):

   -92.7033 -92.6538 -92.5579 -92.5114 -92.4535 -92.4098 -92.3925 -92.2737
   -56.0567 -56.0404 -55.9149 -55.9040 -55.8985 -55.8908 -55.8571 -55.8268
   -55.8111 -55.8093 -55.8040 -55.7607 -55.7422 -55.7043 -55.6846 -55.6535
   -55.6468 -55.5998 -55.5981 -55.5950 -55.5866 -55.5486 -55.5228 -55.4388
   -31.2769 -31.2649 -31.1359 -31.1186 -31.0331 -30.9684 -30.8932 -30.4380
   -29.8492 -29.8082 -29.7797 -29.6726 -15.0160 -14.9587 -14.8985 -14.7912
   -14.6885 -14.5453 -14.3930 -14.2575 -14.1344 -14.1182 -14.1107 -14.0469
   -13.9940 -13.9861 -13.9576 -13.9093 -13.8996 -13.8828 -13.8391 -13.8206
   -13.7098 -13.5573 -13.5124 -13.4953 -13.4879 -13.4206 -13.3665 -13.2976
   -13.2705 -13.2468 -13.2231 -13.0969 -13.0570 -13.0432 -13.0193 -13.0101
   -12.9763 -12.9463 -12.9275 -12.8962 -12.8747 -12.7985 -12.6430 -12.6339
   -12.6253 -12.5851 -12.5434 -12.4099 -12.3658 -12.3294 -12.3193 -12.0683
   -12.0184 -11.7808 -11.7579 -11.7523 -11.7362 -11.7184 -11.6775 -11.6146
   -11.5976 -11.5653 -11.5178 -11.5093 -11.4942  -2.5821  -2.5443  -2.3805
    -2.3418  -2.0266  -1.9509  -1.8041  -1.6874  -1.6479  -1.6007  -1.5539
    -1.5306  -1.4067  -1.3629  -1.3458  -1.2701  -1.2480  -1.2297  -1.1938
    -1.1775  -1.1218  -1.0544  -1.0272  -0.9943  -0.9014  -0.8554  -0.8048
    -0.7740  -0.7523  -0.7200  -0.6744  -0.6494  -0.6087  -0.5054  -0.4389
    -0.3641  -0.3058  -0.1444  -0.1056  -0.0583  -0.0077   0.0430   0.0575
     0.1968   0.2280   0.2805   0.4382   0.5376   0.5861   0.6816   0.7437
     0.8657   0.8763   1.0052   1.0304   1.0855   1.1227   1.1515   1.1634
     1.2079   1.2348   1.3012   1.3487   1.3977   1.4058   1.7056   1.7136
     1.7395   1.7560   1.8572   1.8722   1.8862   1.8941   1.9270   1.9362
     1.9761   1.9975   2.0204   2.0756   2.0924   2.1455   2.1674   2.2221
     2.3356   2.4237   2.4401   2.4655   2.5015   2.5163   2.6010   2.6243
     2.6570   2.7232   2.7332   2.7390   2.7702   2.8361   2.8800   2.9323
     2.9534   2.9988   3.0028   3.0054   3.0149   3.0316   3.0424   3.0559
     3.0615   3.0820   3.0868   3.1067   3.1271   3.1323   3.2616   3.2668
     4.0753   4.1309   4.1885   4.3175   4.7901   4.8632   5.0437   5.0557
     5.4815   5.5088   5.6041   5.6529   6.0325   6.0475   6.2601   6.5376
     6.7945   6.9982   7.2720   7.2938   7.3709   7.4139   7.7720   7.7847
     7.8806   7.8976   8.1714   8.3585   8.4584   8.5149   8.5320   8.6422
     8.7593   8.7993   8.9068

     occupation numbers 
     1.0000   1.0000   1.0000   1.0000   1.0000   1.0000   1.0000   1.0000
     1.0000   1.0000   1.0000   1.0000   1.0000   1.0000   1.0000   1.0000
     1.0000   1.0000   1.0000   1.0000   1.0000   1.0000   1.0000   1.0000
     1.0000   1.0000   1.0000   1.0000   1.0000   1.0000   1.0000   1.0000
     1.0000   1.0000   1.0000   1.0000   1.0000   1.0000   1.0000   1.0000
     1.0000   1.0000   1.0000   1.0000   1.0000   1.0000   1.0000   1.0000
     1.0000   1.0000   1.0000   1.0000   1.0000   1.0000   1.0000   1.0000
     1.0000   1.0000   1.0000   1.0000   1.0000   1.0000   1.0000   1.0000
     1.0000   1.0000   1.0000   1.0000   1.0000   1.0000   1.0000   1.0000
     1.0000   1.0000   1.0000   1.0000   1.0000   1.0000   1.0000   1.0000
     1.0000   1.0000   1.0000   1.0000   1.0000   1.0000   1.0000   1.0000
     1.0000   1.0000   1.0000   1.0000   1.0000   1.0000   1.0000   1.0000
     1.0000   1.0000   1.0000   1.0000   1.0000   1.0000   1.0000   1.0000
     1.0000   1.0000   1.0000   1.0000   1.0000   1.0000   1.0000   1.0000
     1.0000   1.0000   1.0000   1.0000   1.0000   1.0000   1.0000   1.0000
     1.0000   1.0000   1.0000   1.0000   1.0000   1.0000   1.0000   1.0000
     1.0000   1.0000   1.0000   1.0000   1.0000   1.0000   1.0000   1.0000
     1.0000   1.0000   1.0000   1.0000   1.0000   1.0000   1.0000   1.0000
     1.0000   1.0000   1.0000   1.0000   1.0000   1.0000   1.0000   1.0000
     1.0000   1.0000   1.0000   1.0000   1.0000   1.0000   1.0000   0.9999
     0.9999   0.9999   0.9997   0.9997   0.9996   0.9995   0.9994   0.9993
     0.9992   0.9990   0.9987   0.9983   0.9979   0.9978   0.9919   0.9916
     0.9907   0.9901   0.9853   0.9845   0.9836   0.9832   0.9810   0.9804
     0.9774   0.9756   0.9736   0.9681   0.9663   0.9600   0.9571   0.9492
     0.9290   0.9094   0.9054   0.8989   0.8891   0.8849   0.8586   0.8507
     0.8391   0.8139   0.8100   0.8076   0.7947   0.7658   0.7453   0.7197
     0.7091   0.6856   0.6835   0.6821   0.6771   0.6681   0.6623   0.6549
     0.6519   0.6405   0.6379   0.6267   0.6152   0.6122   0.5371   0.5340
     0.1324   0.1155   0.0997   0.0701   0.0148   0.0112   0.0053   0.0051
     0.0007   0.0006   0.0004   0.0003   0.0000   0.0000   0.0000   0.0000
     0.0000   0.0000   0.0000   0.0000   0.0000   0.0000   0.0000   0.0000
     0.0000   0.0000   0.0000   0.0000   0.0000   0.0000   0.0000   0.0000
     0.0000   0.0000   0.0000

          k =-0.2500 0.2500 0.0000 ( 65198 PWs)   bands (ev):

   -92.7033 -92.6538 -92.5579 -92.5114 -92.4535 -92.4098 -92.3925 -92.2737
   -56.0567 -56.0404 -55.9149 -55.9040 -55.8985 -55.8908 -55.8571 -55.8268
   -55.8111 -55.8093 -55.8040 -55.7607 -55.7422 -55.7043 -55.6846 -55.6535
   -55.6468 -55.5998 -55.5981 -55.5950 -55.5866 -55.5486 -55.5228 -55.4388
   -31.2788 -31.2627 -31.1358 -31.1192 -31.0328 -30.9686 -30.8930 -30.4381
   -29.8496 -29.8069 -29.7807 -29.6725 -15.0191 -14.9690 -14.9026 -14.7861
   -14.6697 -14.5444 -14.4632 -14.2533 -14.1170 -14.0882 -14.0730 -14.0257
   -14.0016 -13.9858 -13.9770 -13.9544 -13.9228 -13.8364 -13.8254 -13.6746
   -13.6476 -13.6158 -13.5973 -13.5311 -13.4986 -13.4378 -13.4292 -13.3059
   -13.2599 -13.2252 -13.1498 -13.1089 -13.0626 -13.0412 -13.0089 -12.9889
   -12.9523 -12.9300 -12.9169 -12.8886 -12.8273 -12.8161 -12.7730 -12.7545
   -12.6947 -12.5788 -12.4446 -12.4291 -12.3728 -12.3548 -12.2851 -12.0397
   -11.9639 -11.7997 -11.7789 -11.7508 -11.7394 -11.6981 -11.6628 -11.6404
   -11.6192 -11.5968 -11.5100 -11.4661 -11.4568  -2.6669  -2.4595  -2.3386
    -2.2483  -2.1316  -2.0658  -1.8609  -1.7170  -1.6995  -1.6671  -1.5774
    -1.5417  -1.4489  -1.4143  -1.3878  -1.2577  -1.2254  -1.1864  -1.1185
    -1.0879  -1.0311  -1.0122  -0.9719  -0.9436  -0.9028  -0.8397  -0.7917
    -0.7256  -0.6591  -0.6337  -0.5825  -0.5543  -0.5083  -0.4505  -0.3975
    -0.3644  -0.2594  -0.2316  -0.2143  -0.1735  -0.1113  -0.0349   0.0054
     0.0429   0.1136   0.1440   0.3911   0.5635   0.5991   0.6410   0.7021
     0.7633   0.8133   0.8772   0.9024   1.1854   1.2914   1.3314   1.3647
     1.3720   1.4133   1.4274   1.4743   1.5043   1.5177   1.5433   1.5911
     1.6083   1.6468   1.6702   1.7121   1.8009   1.8193   1.8393   1.8751
     1.9005   1.9446   1.9946   2.1026   2.2091   2.2339   2.2823   2.3019
     2.3661   2.4051   2.4310   2.4339   2.4559   2.4709   2.4802   2.5853
     2.6207   2.7114   2.8822   2.8894   2.9034   2.9127   2.9244   2.9383
     2.9453   2.9636   2.9725   2.9860   2.9961   3.0078   3.0175   3.0259
     3.0590   3.0684   3.0767   3.1107   3.4023   3.4838   3.5500   3.6245
     3.6414   3.8442   3.9604   4.3035   4.5064   4.7197   4.9910   5.1643
     5.6471   5.7005   5.7852   5.8320   5.8949   6.0888   6.1695   6.1932
     6.8809   6.9549   7.1057   7.2848   7.5633   7.6112   7.6710   7.8608
     7.9075   7.9859   8.2116   8.2571   8.3301   8.3562   8.4406   8.4768
     8.5707   8.7803   8.9082

     occupation numbers 
     1.0000   1.0000   1.0000   1.0000   1.0000   1.0000   1.0000   1.0000
     1.0000   1.0000   1.0000   1.0000   1.0000   1.0000   1.0000   1.0000
     1.0000   1.0000   1.0000   1.0000   1.0000   1.0000   1.0000   1.0000
     1.0000   1.0000   1.0000   1.0000   1.0000   1.0000   1.0000   1.0000
     1.0000   1.0000   1.0000   1.0000   1.0000   1.0000   1.0000   1.0000
     1.0000   1.0000   1.0000   1.0000   1.0000   1.0000   1.0000   1.0000
     1.0000   1.0000   1.0000   1.0000   1.0000   1.0000   1.0000   1.0000
     1.0000   1.0000   1.0000   1.0000   1.0000   1.0000   1.0000   1.0000
     1.0000   1.0000   1.0000   1.0000   1.0000   1.0000   1.0000   1.0000
     1.0000   1.0000   1.0000   1.0000   1.0000   1.0000   1.0000   1.0000
     1.0000   1.0000   1.0000   1.0000   1.0000   1.0000   1.0000   1.0000
     1.0000   1.0000   1.0000   1.0000   1.0000   1.0000   1.0000   1.0000
     1.0000   1.0000   1.0000   1.0000   1.0000   1.0000   1.0000   1.0000
     1.0000   1.0000   1.0000   1.0000   1.0000   1.0000   1.0000   1.0000
     1.0000   1.0000   1.0000   1.0000   1.0000   1.0000   1.0000   1.0000
     1.0000   1.0000   1.0000   1.0000   1.0000   1.0000   1.0000   1.0000
     1.0000   1.0000   1.0000   1.0000   1.0000   1.0000   1.0000   1.0000
     1.0000   1.0000   1.0000   1.0000   1.0000   1.0000   1.0000   1.0000
     1.0000   1.0000   1.0000   1.0000   1.0000   1.0000   1.0000   1.0000
     1.0000   1.0000   1.0000   1.0000   1.0000   1.0000   1.0000   1.0000
     0.9999   0.9999   0.9999   0.9998   0.9993   0.9987   0.9985   0.9982
     0.9981   0.9977   0.9976   0.9970   0.9966   0.9963   0.9959   0.9950
     0.9946   0.9936   0.9930   0.9917   0.9882   0.9873   0.9863   0.9843
     0.9828   0.9798   0.9758   0.9652   0.9511   0.9473   0.9391   0.9355
     0.9226   0.9139   0.9077   0.9069   0.9014   0.8975   0.8950   0.8637
     0.8520   0.8186   0.7442   0.7408   0.7340   0.7295   0.7237   0.7167
     0.7132   0.7039   0.6993   0.6923   0.6870   0.6808   0.6756   0.6712
     0.6532   0.6480   0.6435   0.6245   0.4539   0.4064   0.3688   0.3279
     0.3189   0.2201   0.1725   0.0730   0.0396   0.0191   0.0067   0.0031
     0.0003   0.0002   0.0001   0.0001   0.0001   0.0000   0.0000   0.0000
     0.0000   0.0000   0.0000   0.0000   0.0000   0.0000   0.0000   0.0000
     0.0000   0.0000   0.0000   0.0000   0.0000   0.0000   0.0000   0.0000
     0.0000   0.0000   0.0000

          k =-0.5000 0.2500 0.0000 ( 65138 PWs)   bands (ev):

   -92.7033 -92.6538 -92.5579 -92.5114 -92.4535 -92.4098 -92.3925 -92.2737
   -56.0567 -56.0404 -55.9149 -55.9040 -55.8985 -55.8908 -55.8571 -55.8268
   -55.8111 -55.8093 -55.8040 -55.7607 -55.7422 -55.7043 -55.6846 -55.6535
   -55.6468 -55.5998 -55.5981 -55.5950 -55.5866 -55.5486 -55.5228 -55.4388
   -31.2767 -31.2648 -31.1357 -31.1188 -31.0332 -30.9686 -30.8931 -30.4381
   -29.8486 -29.8079 -29.7803 -29.6729 -14.9824 -14.9328 -14.8553 -14.7582
   -14.7170 -14.5925 -14.4988 -14.3735 -14.0670 -14.0364 -14.0248 -13.9869
   -13.9772 -13.9557 -13.9313 -13.8958 -13.8849 -13.8624 -13.8267 -13.8173
   -13.7050 -13.6396 -13.5904 -13.5833 -13.5551 -13.4733 -13.4673 -13.3435
   -13.2951 -13.2028 -13.1678 -13.0768 -13.0535 -13.0276 -13.0180 -12.9874
   -12.9551 -12.9423 -12.9220 -12.8928 -12.8316 -12.8061 -12.6845 -12.6551
   -12.6250 -12.6176 -12.5417 -12.3720 -12.3514 -12.3245 -12.2677 -12.0645
   -12.0255 -11.7731 -11.7598 -11.7461 -11.7343 -11.7119 -11.6823 -11.6020
   -11.5921 -11.5706 -11.5324 -11.5055 -11.4968  -2.4394  -2.3982  -2.2500
    -2.2083  -2.0463  -1.9694  -1.8284  -1.6936  -1.6354  -1.6089  -1.5702
    -1.5329  -1.4516  -1.3364  -1.2798  -1.2609  -1.2396  -1.2253  -1.1418
    -1.1255  -1.0848  -1.0692  -1.0081  -0.9764  -0.9407  -0.9050  -0.8763
    -0.8175  -0.7908  -0.7495  -0.7140  -0.6087  -0.5827  -0.4864  -0.4336
    -0.3969  -0.3358  -0.2595  -0.2264  -0.1230  -0.0863  -0.0257   0.0225
     0.0616   0.1204   0.1497   0.1844   0.2308   0.2703   0.5915   0.6512
     0.7138   0.7451   1.0168   1.0827   1.1492   1.1810   1.3529   1.3871
     1.4250   1.4355   1.4537   1.4714   1.5418   1.5870   1.6273   1.6609
     1.7783   1.8188   1.8466   1.8582   1.8969   1.9215   1.9376   1.9503
     1.9684   1.9912   2.0353   2.0501   2.0877   2.1128   2.1452   2.2005
     2.3241   2.4119   2.4363   2.4510   2.4633   2.5141   2.5515   2.6174
     2.6525   2.6576   2.6989   2.7310   2.7536   2.8357   2.8773   2.8922
     2.8967   2.9177   2.9394   2.9517   2.9674   2.9794   3.0027   3.0160
     3.0246   3.0326   3.0424   3.0552   3.5848   3.6243   3.7735   3.7934
     4.0824   4.1473   4.1986   4.4022   4.7845   4.8807   5.0462   5.0757
     5.4101   5.4311   5.5884   5.6276   5.7440   5.8022   6.3579   6.3921
     6.4893   6.6647   7.2531   7.3602   7.5540   7.7121   7.7923   7.8809
     7.9771   8.0305   8.2223   8.3978   8.5110   8.5210   8.5784   8.5977
     8.6657   8.7519   8.8115

     occupation numbers 
     1.0000   1.0000   1.0000   1.0000   1.0000   1.0000   1.0000   1.0000
     1.0000   1.0000   1.0000   1.0000   1.0000   1.0000   1.0000   1.0000
     1.0000   1.0000   1.0000   1.0000   1.0000   1.0000   1.0000   1.0000
     1.0000   1.0000   1.0000   1.0000   1.0000   1.0000   1.0000   1.0000
     1.0000   1.0000   1.0000   1.0000   1.0000   1.0000   1.0000   1.0000
     1.0000   1.0000   1.0000   1.0000   1.0000   1.0000   1.0000   1.0000
     1.0000   1.0000   1.0000   1.0000   1.0000   1.0000   1.0000   1.0000
     1.0000   1.0000   1.0000   1.0000   1.0000   1.0000   1.0000   1.0000
     1.0000   1.0000   1.0000   1.0000   1.0000   1.0000   1.0000   1.0000
     1.0000   1.0000   1.0000   1.0000   1.0000   1.0000   1.0000   1.0000
     1.0000   1.0000   1.0000   1.0000   1.0000   1.0000   1.0000   1.0000
     1.0000   1.0000   1.0000   1.0000   1.0000   1.0000   1.0000   1.0000
     1.0000   1.0000   1.0000   1.0000   1.0000   1.0000   1.0000   1.0000
     1.0000   1.0000   1.0000   1.0000   1.0000   1.0000   1.0000   1.0000
     1.0000   1.0000   1.0000   1.0000   1.0000   1.0000   1.0000   1.0000
     1.0000   1.0000   1.0000   1.0000   1.0000   1.0000   1.0000   1.0000
     1.0000   1.0000   1.0000   1.0000   1.0000   1.0000   1.0000   1.0000
     1.0000   1.0000   1.0000   1.0000   1.0000   1.0000   1.0000   1.0000
     1.0000   1.0000   1.0000   1.0000   1.0000   1.0000   1.0000   1.0000
     1.0000   1.0000   1.0000   1.0000   1.0000   1.0000   1.0000   1.0000
     0.9999   0.9999   0.9997   0.9996   0.9994   0.9993   0.9983   0.9980
     0.9976   0.9975   0.9973   0.9970   0.9959   0.9951   0.9941   0.9932
     0.9892   0.9873   0.9859   0.9853   0.9830   0.9814   0.9803   0.9793
     0.9780   0.9761   0.9722   0.9708   0.9668   0.9640   0.9600   0.9524
     0.9313   0.9123   0.9064   0.9026   0.8995   0.8855   0.8744   0.8531
     0.8408   0.8389   0.8235   0.8108   0.8016   0.7659   0.7466   0.7394
     0.7373   0.7270   0.7162   0.7100   0.7019   0.6957   0.6835   0.6764
     0.6719   0.6676   0.6623   0.6553   0.3495   0.3280   0.2524   0.2431
     0.1302   0.1108   0.0971   0.0547   0.0151   0.0104   0.0053   0.0047
     0.0010   0.0009   0.0004   0.0003   0.0002   0.0001   0.0000   0.0000
     0.0000   0.0000   0.0000   0.0000   0.0000   0.0000   0.0000   0.0000
     0.0000   0.0000   0.0000   0.0000   0.0000   0.0000   0.0000   0.0000
     0.0000   0.0000   0.0000

     the Fermi energy is     3.3243 ev

!    total energy              =   -4441.66923360 Ry
     estimated scf accuracy    <          6.6E-09 Ry
     smearing contrib. (-TS)   =      -1.15491303 Ry
     internal energy E=F+TS    =   -4440.51432057 Ry

     The total energy is F=E-TS. E is the sum of the following terms:
     one-electron contribution =  -20804.47737412 Ry
     hartree contribution      =   10534.20993174 Ry
     xc contribution           =    -694.18810465 Ry
     ewald contribution        =    6800.10947131 Ry
     one-center paw contrib.   =    -276.16824484 Ry
      -> PAW hartree energy AE =      25.15541501 Ry
      -> PAW hartree energy PS =     -25.03938302 Ry
      -> PAW xc energy AE      =     -16.51644192 Ry
      -> PAW xc energy PS      =       6.87585018 Ry
      -> total E_H with PAW    =   10534.32596373 Ry
      -> total E_XC with PAW   =    -703.82869638 Ry

     convergence has been achieved in  47 iterations

     Writing all to output data dir /bsuhome/zayahcortright/scratch/pwscf.save/
 
     init_run     :      7.98s CPU      8.54s WALL (       1 calls)
     electrons    :    802.80s CPU    876.83s WALL (       1 calls)

     Called by init_run:
     wfcinit      :      6.22s CPU      6.45s WALL (       1 calls)
     wfcinit:atom :      0.05s CPU      0.08s WALL (       5 calls)
     wfcinit:wfcr :      5.88s CPU      6.02s WALL (       5 calls)
     potinit      :      0.17s CPU      0.19s WALL (       1 calls)
     hinit0       :      0.67s CPU      0.76s WALL (       1 calls)

     Called by electrons:
     c_bands      :    645.02s CPU    653.40s WALL (      47 calls)
     sum_band     :    118.37s CPU    152.13s WALL (      47 calls)
     v_of_rho     :      5.35s CPU      5.86s WALL (      48 calls)
     v_h          :      0.47s CPU      0.48s WALL (      48 calls)
     v_xc         :      4.88s CPU      5.38s WALL (      48 calls)
     newd         :     19.01s CPU     49.78s WALL (      48 calls)
     PAW_pot      :      1.61s CPU      1.64s WALL (      48 calls)
     mix_rho      :     13.12s CPU     13.65s WALL (      47 calls)

     Called by c_bands:
     init_us_2    :      6.54s CPU      6.65s WALL (     475 calls)
     init_us_2:cp :      6.54s CPU      6.65s WALL (     475 calls)
     cegterg      :    608.04s CPU    616.09s WALL (     235 calls)

     Called by sum_band:
     sum_band:wei :      0.33s CPU      0.34s WALL (      47 calls)
     sum_band:loo :     92.04s CPU     92.73s WALL (      47 calls)
     sum_band:buf :      1.33s CPU      1.39s WALL (     235 calls)
     sum_band:ini :      2.98s CPU      2.99s WALL (     235 calls)
     sum_band:cal :     18.63s CPU     18.69s WALL (     235 calls)
     sum_band:bec :      0.53s CPU      0.55s WALL (     235 calls)
     addusdens    :     23.13s CPU     56.16s WALL (      47 calls)
                                        0.00s GPU  (      47 calls)
     addusd:skk   :      0.33s CPU      1.62s WALL (     188 calls)
                                        0.00s GPU  (     188 calls)

     Called by *egterg:
     cdiaghg      :     59.27s CPU     59.56s WALL (    1357 calls)
     cegterg:over :     50.15s CPU     50.33s WALL (    1122 calls)
     cegterg:upda :     51.64s CPU     52.40s WALL (    1122 calls)
     cegterg:last :     68.49s CPU     68.73s WALL (     426 calls)
     cdiaghg:chol :      3.41s CPU      3.43s WALL (    1357 calls)
     cdiaghg:inve :      3.73s CPU      3.74s WALL (    1357 calls)
     cdiaghg:para :      7.70s CPU      7.75s WALL (    2714 calls)
     h_psi        :    310.91s CPU    314.59s WALL (    1362 calls)
     s_psi        :     39.11s CPU     39.25s WALL (    1362 calls)
     g_psi        :      2.66s CPU      2.67s WALL (    1122 calls)

     Called by h_psi:
     h_psi:calbec :     44.18s CPU     44.38s WALL (    1362 calls)
     vloc_psi     :    221.58s CPU    223.62s WALL (    1362 calls)
     add_vuspsi   :     38.52s CPU     38.75s WALL (    1362 calls)

     General routines
     calbec       :     62.81s CPU     63.06s WALL (    1597 calls)
     fft          :      4.94s CPU      5.00s WALL (     622 calls)
     ffts         :      4.46s CPU      4.51s WALL (    5047 calls)
     fftw         :    186.22s CPU    187.64s WALL (  320143 calls)
     interpolate  :      0.41s CPU      0.42s WALL (      48 calls)
 
     Parallel routines

     PAW routines
     PAW_pot      :      1.61s CPU      1.64s WALL (      48 calls)
 
     PWSCF        :  13m32.62s CPU  14m50.92s WALL

 
   This run was terminated on:  16:54:54  21Jun2024            

=------------------------------------------------------------------------------=
   JOB DONE.
=------------------------------------------------------------------------------=
