
     Program PWSCF v.7.2 starts on 22Jun2024 at  0: 9: 4 

     This program is part of the open-source Quantum ESPRESSO suite
     for quantum simulation of materials; please cite
         "P. Giannozzi et al., J. Phys.:Condens. Matter 21 395502 (2009);
         "P. Giannozzi et al., J. Phys.:Condens. Matter 29 465901 (2017);
         "P. Giannozzi et al., J. Chem. Phys. 152 154105 (2020);
          URL http://www.quantum-espresso.org", 
     in publications or presentations arising from this work. More details at
     http://www.quantum-espresso.org/quote

     Parallel version (MPI & OpenMP), running on      48 processor cores
     Number of MPI processes:                48
     Threads/MPI process:                     1

     MPI processes distributed on     1 nodes
     33221 MiB available memory on the printing compute node when the environment starts
 
     Reading input from espresso.pwi
Warning: card &CELL ignored
Warning: card / ignored
Warning: card &FCP ignored
Warning: card / ignored
Warning: card &RISM ignored
Warning: card / ignored

     Current dimensions of program PWSCF are:
     Max number of different atomic species (ntypx) = 10
     Max number of k-points (npk) =  40000
     Max angular momentum in pseudopotentials (lmaxx) =  4
     file O.pbe-n-kjpaw_psl.0.1.UPF: wavefunction(s)  2P renormalized
     signal trapping enabled: kill the code with -SIGUSR1 to stop cleanly the simulation 
 
     K-points division:     npool     =       2
     R & G space division:  proc/nbgrp/npool/nimage =      24
     Subspace diagonalization in iterative solution of the eigenvalue problem:
     one sub-group per band group will be used
     scalapack distributed-memory algorithm (size of sub-group:  3*  3 procs)

 
     Parallelization info
     --------------------
     sticks:   dense  smooth     PW     G-vecs:    dense   smooth      PW
     Min         350     175     47                61430    21716    3036
     Max         351     177     48                61449    21727    3041
     Sum        8421    4205   1137              1474595   521381   72913
 
     Using Slab Decomposition
 


     bravais-lattice index     =            0
     lattice parameter (alat)  =      14.8599  a.u.
     unit-cell volume          =    8305.1283 (a.u.)^3
     number of atoms/cell      =           50
     number of atomic types    =            4
     number of electrons       =       431.00
     number of Kohn-Sham states=          259
     kinetic-energy cutoff     =      60.0000  Ry
     charge density cutoff     =     480.0000  Ry
     scf convergence threshold =      1.0E-08
     mixing beta               =       0.1500
     number of iterations used =            8  local-TF  mixing
     Exchange-correlation= PBE
                           (   1   4   3   4   0   0   0)

     celldm(1)=  14.859904  celldm(2)=   0.000000  celldm(3)=   0.000000
     celldm(4)=   0.000000  celldm(5)=   0.000000  celldm(6)=   0.000000

     crystal axes: (cart. coord. in units of alat)
               a(1) = (   1.000000   0.000000   0.000000 )  
               a(2) = (   0.000000   1.000000   0.000000 )  
               a(3) = (   0.000000   0.000000   2.531036 )  

     reciprocal axes: (cart. coord. in units 2 pi/alat)
               b(1) = (  1.000000  0.000000  0.000000 )  
               b(2) = (  0.000000  1.000000  0.000000 )  
               b(3) = (  0.000000  0.000000  0.395095 )  


     PseudoPot. # 1 for Sr read from file:
     /bsuhome/zayahcortright/q-e/pseudo/Sr_pbe_v1.uspp.F.UPF
     MD5 check sum: 6b418c05fbe9db5448babca5e47b7a5b
     Pseudo is Ultrasoft + core correction, Zval = 10.0
     Generated by new atomic code, or converted to UPF format
     Using radial grid of  883 points,  6 beta functions with: 
                l(1) =   0
                l(2) =   0
                l(3) =   1
                l(4) =   1
                l(5) =   2
                l(6) =   2
     Q(r) pseudized with  6 coefficients,  rinner =    1.400   1.400   1.400
                                                       1.400   1.400

     PseudoPot. # 2 for O  read from file:
     /bsuhome/zayahcortright/q-e/pseudo/O.pbe-n-kjpaw_psl.0.1.UPF
     MD5 check sum: 0234752ac141de4415c5fc33072bef88
     Pseudo is Projector augmented-wave + core cor, Zval =  6.0
     Generated using "atomic" code by A. Dal Corso  v.5.0.99 svn rev. 10869
     Shape of augmentation charge: BESSEL
     Using radial grid of 1095 points,  4 beta functions with: 
                l(1) =   0
                l(2) =   0
                l(3) =   1
                l(4) =   1
     Q(r) pseudized with 0 coefficients 


     PseudoPot. # 3 for Co read from file:
     /bsuhome/zayahcortright/q-e/pseudo/Co_pbe_v1.2.uspp.F.UPF
     MD5 check sum: 5f91765df6ddd3222702df6e7b74a16d
     Pseudo is Ultrasoft + core correction, Zval = 17.0
     Generated by new atomic code, or converted to UPF format
     Using radial grid of  863 points,  6 beta functions with: 
                l(1) =   0
                l(2) =   0
                l(3) =   1
                l(4) =   1
                l(5) =   2
                l(6) =   2
     Q(r) pseudized with  8 coefficients,  rinner =    1.200   1.200   1.200
                                                       1.200   1.200

     PseudoPot. # 4 for H  read from file:
     /bsuhome/zayahcortright/q-e/pseudo/H.pbe-rrkjus_psl.1.0.0.UPF
     MD5 check sum: f52b6d4d1c606e5624b1dc7b2218f220
     Pseudo is Ultrasoft, Zval =  1.0
     Generated using "atomic" code by A. Dal Corso  v.5.1
     Using radial grid of  929 points,  2 beta functions with: 
                l(1) =   0
                l(2) =   0
     Q(r) pseudized with 0 coefficients 


     atomic species   valence    mass     pseudopotential
        Sr            10.00    87.62000     Sr( 1.00)
        O              6.00    15.99900     O ( 1.00)
        Co            17.00    58.93319     Co( 1.00)
        H              1.00     1.00800     H ( 1.00)

     No symmetry found


                                    s                        frac. trans.

      isym =  1     identity                                     

 cryst.   s( 1) = (     1          0          0      )
                  (     0          1          0      )
                  (     0          0          1      )

 cart.    s( 1) = (  1.0000000  0.0000000  0.0000000 )
                  (  0.0000000  1.0000000  0.0000000 )
                  (  0.0000000  0.0000000  1.0000000 )


   Cartesian axes

     site n.     atom                  positions (alat units)
         1           Sr  tau(   1) = (   0.2508693   0.7491307   1.7574407  )
         2           O   tau(   2) = (   0.4985141   0.5014859   1.7715967  )
         3           Sr  tau(   3) = (   0.7482398   0.7454518   1.7648669  )
         4           Sr  tau(   4) = (   0.7441748   0.2558252   1.7667843  )
         5           Sr  tau(   5) = (   0.2508693   0.7491307   1.2696799  )
         6           Sr  tau(   6) = (   0.2508693   0.7491307   0.7632319  )
         7           Co  tau(   7) = (   0.4998914   0.5001086   1.0164559  )
         8           Co  tau(   8) = (   0.4936915   0.5063085   1.5135603  )
         9           O   tau(   9) = (   0.4988895   0.7610401   1.0164559  )
        10           O   tau(  10) = (   0.2389599   0.5011105   1.0164559  )
        11           O   tau(  11) = (   0.0070918   0.7374880   1.0164559  )
        12           O   tau(  12) = (   0.0088340   0.7405089   1.5135603  )
        13           O   tau(  13) = (   0.5066944   0.7415376   1.5135603  )
        14           O   tau(  14) = (   0.2584624   0.4933056   1.5135603  )
        15           O   tau(  15) = (   0.4985141   0.5014859   0.7773880  )
        16           O   tau(  16) = (   0.4985141   0.5014859   1.2555238  )
        17           Sr  tau(  17) = (   0.7482398   0.7454518   0.7706582  )
        18           Sr  tau(  18) = (   0.7482398   0.7454518   1.2622536  )
        19           Sr  tau(  19) = (   0.7441748   0.2558252   0.7725755  )
        20           Sr  tau(  20) = (   0.7441748   0.2558252   1.2603363  )
        21           O   tau(  21) = (   0.7322655   0.0078049   1.5135603  )
        22           O   tau(  22) = (   0.7558175   0.4996027   1.5135603  )
        23           O   tau(  23) = (   0.5003973   0.2441825   1.5135603  )
        24           O   tau(  24) = (   0.7527966   0.4978604   1.0164559  )
        25           O   tau(  25) = (   0.5021396   0.2472034   1.0164559  )
        26           O   tau(  26) = (   0.7517679   0.0000000   1.0164559  )
        27           O   tau(  27) = (   0.0114961   0.4948124   1.7455321  )
        28           O   tau(  28) = (   0.0048226   0.0077944   1.7715967  )
        29           Sr  tau(  29) = (   0.2545482   0.2517602   1.7648669  )
        30           O   tau(  30) = (   0.5048017   0.0015068   1.7786929  )
        31           Co  tau(  31) = (   0.0056869   0.5006215   1.0164559  )
        32           Co  tau(  32) = (   0.0065315   0.4997770   1.5135603  )
        33           Co  tau(  33) = (   0.0061999   0.0064171   1.0164559  )
        34           Co  tau(  34) = (   0.0000000   0.0126169   1.5135603  )
        35           O   tau(  35) = (   0.0114961   0.4948124   1.2815885  )
        36           O   tau(  36) = (   0.0114961   0.4948124   0.7513233  )
        37           O   tau(  37) = (   0.0051979   0.2673486   1.0164559  )
        38           O   tau(  38) = (   0.0130029   0.2478461   1.5135603  )
        39           O   tau(  39) = (   0.0048226   0.0077944   0.7773880  )
        40           O   tau(  40) = (   0.0048226   0.0077944   1.2555238  )
        41           Sr  tau(  41) = (   0.2545482   0.2517602   0.7706582  )
        42           Sr  tau(  42) = (   0.2545482   0.2517602   1.2622536  )
        43           Co  tau(  43) = (   0.4989925   0.0073160   1.5135603  )
        44           Co  tau(  44) = (   0.4998370   0.0064714   1.0164559  )
        45           O   tau(  45) = (   0.5048017   0.0015068   0.7844841  )
        46           O   tau(  46) = (   0.5048017   0.0015068   1.2484277  )
        47           O   tau(  47) = (   0.2621260   0.0059111   1.5135603  )
        48           O   tau(  48) = (   0.2591051   0.0041689   1.0164559  )
        49           O   tau(  49) = (   0.7108228   0.1421646   2.1602013  )
        50           H   tau(  50) = (   0.7108228   0.1421646   2.2847091  )

   Crystallographic axes

     site n.     atom                  positions (cryst. coord.)
         1           Sr  tau(   1) = (  0.2508693  0.7491307  0.6943562  )
         2           O   tau(   2) = (  0.4985141  0.5014859  0.6999492  )
         3           Sr  tau(   3) = (  0.7482398  0.7454518  0.6972903  )
         4           Sr  tau(   4) = (  0.7441748  0.2558252  0.6980478  )
         5           Sr  tau(   5) = (  0.2508693  0.7491307  0.5016443  )
         6           Sr  tau(   6) = (  0.2508693  0.7491307  0.3015492  )
         7           Co  tau(   7) = (  0.4998914  0.5001086  0.4015968  )
         8           Co  tau(   8) = (  0.4936915  0.5063085  0.5980003  )
         9           O   tau(   9) = (  0.4988895  0.7610401  0.4015968  )
        10           O   tau(  10) = (  0.2389599  0.5011105  0.4015968  )
        11           O   tau(  11) = (  0.0070918  0.7374880  0.4015968  )
        12           O   tau(  12) = (  0.0088340  0.7405089  0.5980003  )
        13           O   tau(  13) = (  0.5066944  0.7415376  0.5980003  )
        14           O   tau(  14) = (  0.2584624  0.4933056  0.5980003  )
        15           O   tau(  15) = (  0.4985141  0.5014859  0.3071422  )
        16           O   tau(  16) = (  0.4985141  0.5014859  0.4960513  )
        17           Sr  tau(  17) = (  0.7482398  0.7454518  0.3044833  )
        18           Sr  tau(  18) = (  0.7482398  0.7454518  0.4987103  )
        19           Sr  tau(  19) = (  0.7441748  0.2558252  0.3052408  )
        20           Sr  tau(  20) = (  0.7441748  0.2558252  0.4979527  )
        21           O   tau(  21) = (  0.7322655  0.0078049  0.5980003  )
        22           O   tau(  22) = (  0.7558175  0.4996027  0.5980003  )
        23           O   tau(  23) = (  0.5003973  0.2441825  0.5980003  )
        24           O   tau(  24) = (  0.7527966  0.4978604  0.4015968  )
        25           O   tau(  25) = (  0.5021396  0.2472034  0.4015968  )
        26           O   tau(  26) = (  0.7517679  0.0000000  0.4015968  )
        27           O   tau(  27) = (  0.0114961  0.4948124  0.6896512  )
        28           O   tau(  28) = (  0.0048226  0.0077944  0.6999492  )
        29           Sr  tau(  29) = (  0.2545482  0.2517602  0.6972903  )
        30           O   tau(  30) = (  0.5048017  0.0015068  0.7027529  )
        31           Co  tau(  31) = (  0.0056869  0.5006215  0.4015968  )
        32           Co  tau(  32) = (  0.0065315  0.4997770  0.5980003  )
        33           Co  tau(  33) = (  0.0061999  0.0064171  0.4015968  )
        34           Co  tau(  34) = (  0.0000000  0.0126169  0.5980003  )
        35           O   tau(  35) = (  0.0114961  0.4948124  0.5063494  )
        36           O   tau(  36) = (  0.0114961  0.4948124  0.2968442  )
        37           O   tau(  37) = (  0.0051979  0.2673486  0.4015968  )
        38           O   tau(  38) = (  0.0130029  0.2478461  0.5980003  )
        39           O   tau(  39) = (  0.0048226  0.0077944  0.3071422  )
        40           O   tau(  40) = (  0.0048226  0.0077944  0.4960513  )
        41           Sr  tau(  41) = (  0.2545482  0.2517602  0.3044833  )
        42           Sr  tau(  42) = (  0.2545482  0.2517602  0.4987103  )
        43           Co  tau(  43) = (  0.4989925  0.0073160  0.5980003  )
        44           Co  tau(  44) = (  0.4998370  0.0064714  0.4015968  )
        45           O   tau(  45) = (  0.5048017  0.0015068  0.3099459  )
        46           O   tau(  46) = (  0.5048017  0.0015068  0.4932477  )
        47           O   tau(  47) = (  0.2621260  0.0059111  0.5980003  )
        48           O   tau(  48) = (  0.2591051  0.0041689  0.4015968  )
        49           O   tau(  49) = (  0.7108228  0.1421646  0.8534850  )
        50           H   tau(  50) = (  0.7108228  0.1421646  0.9026774  )

     number of k points=    10  Gaussian smearing, width (Ry)=  0.0700
                       cart. coord. in units 2pi/alat
        k(    1) = (   0.0000000   0.0000000   0.0000000), wk =   0.1250000
        k(    2) = (   0.0000000   0.2500000   0.0000000), wk =   0.2500000
        k(    3) = (   0.0000000  -0.5000000   0.0000000), wk =   0.1250000
        k(    4) = (   0.2500000   0.2500000   0.0000000), wk =   0.2500000
        k(    5) = (   0.2500000  -0.5000000   0.0000000), wk =   0.2500000
        k(    6) = (  -0.5000000  -0.5000000   0.0000000), wk =   0.1250000
        k(    7) = (   0.2500000   0.0000000   0.0000000), wk =   0.2500000
        k(    8) = (  -0.5000000   0.0000000   0.0000000), wk =   0.1250000
        k(    9) = (  -0.2500000   0.2500000   0.0000000), wk =   0.2500000
        k(   10) = (  -0.5000000   0.2500000   0.0000000), wk =   0.2500000

                       cryst. coord.
        k(    1) = (   0.0000000   0.0000000   0.0000000), wk =   0.1250000
        k(    2) = (   0.0000000   0.2500000   0.0000000), wk =   0.2500000
        k(    3) = (   0.0000000  -0.5000000   0.0000000), wk =   0.1250000
        k(    4) = (   0.2500000   0.2500000   0.0000000), wk =   0.2500000
        k(    5) = (   0.2500000  -0.5000000   0.0000000), wk =   0.2500000
        k(    6) = (  -0.5000000  -0.5000000   0.0000000), wk =   0.1250000
        k(    7) = (   0.2500000   0.0000000   0.0000000), wk =   0.2500000
        k(    8) = (  -0.5000000   0.0000000   0.0000000), wk =   0.1250000
        k(    9) = (  -0.2500000   0.2500000   0.0000000), wk =   0.2500000
        k(   10) = (  -0.5000000   0.2500000   0.0000000), wk =   0.2500000

     Dense  grid:  1474595 G-vectors     FFT dimensions: ( 108, 108, 270)

     Smooth grid:   521381 G-vectors     FFT dimensions: (  75,  75, 192)

     Dynamical RAM for                 wfc:      10.73 MB

     Dynamical RAM for     wfc (w. buffer):      64.38 MB

     Dynamical RAM for           str. fact:       3.75 MB

     Dynamical RAM for           local pot:       0.00 MB

     Dynamical RAM for          nlocal pot:      24.61 MB

     Dynamical RAM for                qrad:       7.03 MB

     Dynamical RAM for          rho,v,vnew:       6.02 MB

     Dynamical RAM for               rhoin:       2.01 MB

     Dynamical RAM for            rho*nmix:      15.00 MB

     Dynamical RAM for           G-vectors:       3.68 MB

     Dynamical RAM for          h,s,v(r/c):       1.35 MB

     Dynamical RAM for          <psi|beta>:       2.35 MB

     Dynamical RAM for                 psi:      21.46 MB

     Dynamical RAM for                hpsi:      21.46 MB

     Dynamical RAM for                spsi:      21.46 MB

     Dynamical RAM for      wfcinit/wfcrot:      34.49 MB

     Dynamical RAM for           addusdens:     101.26 MB

     Estimated static dynamical RAM per process >     121.50 MB

     Estimated max dynamical RAM per process >     237.76 MB

     Estimated total dynamical RAM >      10.79 GB

     Check: negative core charge=   -0.000004

     Initial potential from superposition of free atoms

     starting charge     422.5961, renormalised to     431.0000

     negative rho (up, down):  7.819E-01 0.000E+00
     Starting wfcs are  377 randomized atomic wfcs
     Checking if some PAW data can be deallocated... 
       PAW data deallocated on   19 nodes for type:  2

     total cpu time spent up to now is        9.5 secs

     Self-consistent Calculation

     iteration #  1     ecut=    60.00 Ry     beta= 0.15
     Davidson diagonalization with overlap

---- Real-time Memory Report at c_bands before calling an iterative solver
             0 MiB given to the printing process from OS
             0 MiB allocation reported by mallinfo(arena+hblkhd)
         23983 MiB available memory on the node where the printing process lives
------------------
     ethr =  1.00E-02,  avg # of iterations =  2.0

     negative rho (up, down):  7.715E-01 0.000E+00

     total cpu time spent up to now is       26.2 secs

     total energy              =   -4446.61731373 Ry
     estimated scf accuracy    <      44.51501255 Ry

     iteration #  2     ecut=    60.00 Ry     beta= 0.15
     Davidson diagonalization with overlap

---- Real-time Memory Report at c_bands before calling an iterative solver
             0 MiB given to the printing process from OS
             0 MiB allocation reported by mallinfo(arena+hblkhd)
         24263 MiB available memory on the node where the printing process lives
------------------
     ethr =  1.00E-02,  avg # of iterations =  1.0

     negative rho (up, down):  7.585E-01 0.000E+00

     total cpu time spent up to now is       40.2 secs

     total energy              =   -4443.37428943 Ry
     estimated scf accuracy    <      29.72402600 Ry

     iteration #  3     ecut=    60.00 Ry     beta= 0.15
     Davidson diagonalization with overlap

---- Real-time Memory Report at c_bands before calling an iterative solver
             0 MiB given to the printing process from OS
             0 MiB allocation reported by mallinfo(arena+hblkhd)
         23417 MiB available memory on the node where the printing process lives
------------------
     ethr =  6.90E-03,  avg # of iterations =  1.0

     negative rho (up, down):  7.556E-01 0.000E+00

     total cpu time spent up to now is       54.4 secs

     total energy              =   -4444.27223162 Ry
     estimated scf accuracy    <      27.61300312 Ry

     iteration #  4     ecut=    60.00 Ry     beta= 0.15
     Davidson diagonalization with overlap

---- Real-time Memory Report at c_bands before calling an iterative solver
             0 MiB given to the printing process from OS
             0 MiB allocation reported by mallinfo(arena+hblkhd)
         23391 MiB available memory on the node where the printing process lives
------------------
     ethr =  6.41E-03,  avg # of iterations =  1.0

     negative rho (up, down):  7.500E-01 0.000E+00

     total cpu time spent up to now is       68.7 secs

     total energy              =   -4443.10594323 Ry
     estimated scf accuracy    <      20.07769956 Ry

     iteration #  5     ecut=    60.00 Ry     beta= 0.15
     Davidson diagonalization with overlap

---- Real-time Memory Report at c_bands before calling an iterative solver
             0 MiB given to the printing process from OS
             0 MiB allocation reported by mallinfo(arena+hblkhd)
         23372 MiB available memory on the node where the printing process lives
------------------
     ethr =  4.66E-03,  avg # of iterations =  1.0

     negative rho (up, down):  7.399E-01 0.000E+00

     total cpu time spent up to now is       82.8 secs

     total energy              =   -4442.49394283 Ry
     estimated scf accuracy    <      11.48537517 Ry

     iteration #  6     ecut=    60.00 Ry     beta= 0.15
     Davidson diagonalization with overlap

---- Real-time Memory Report at c_bands before calling an iterative solver
             0 MiB given to the printing process from OS
             0 MiB allocation reported by mallinfo(arena+hblkhd)
         23354 MiB available memory on the node where the printing process lives
------------------
     ethr =  2.66E-03,  avg # of iterations =  1.0

     negative rho (up, down):  7.429E-01 0.000E+00

     total cpu time spent up to now is       96.9 secs

     total energy              =   -4442.82061559 Ry
     estimated scf accuracy    <       4.98456279 Ry

     iteration #  7     ecut=    60.00 Ry     beta= 0.15
     Davidson diagonalization with overlap

---- Real-time Memory Report at c_bands before calling an iterative solver
             0 MiB given to the printing process from OS
             0 MiB allocation reported by mallinfo(arena+hblkhd)
         23340 MiB available memory on the node where the printing process lives
------------------
     ethr =  1.16E-03,  avg # of iterations =  1.7

     negative rho (up, down):  7.645E-01 0.000E+00

     total cpu time spent up to now is      111.4 secs

     total energy              =   -4441.60138400 Ry
     estimated scf accuracy    <       3.94661113 Ry

     iteration #  8     ecut=    60.00 Ry     beta= 0.15
     Davidson diagonalization with overlap

---- Real-time Memory Report at c_bands before calling an iterative solver
             0 MiB given to the printing process from OS
             0 MiB allocation reported by mallinfo(arena+hblkhd)
         23318 MiB available memory on the node where the printing process lives
------------------
     ethr =  9.16E-04,  avg # of iterations =  5.8

     negative rho (up, down):  7.727E-01 0.000E+00

     total cpu time spent up to now is      131.2 secs

     total energy              =   -4441.33975950 Ry
     estimated scf accuracy    <      18.27659805 Ry

     iteration #  9     ecut=    60.00 Ry     beta= 0.15
     Davidson diagonalization with overlap

---- Real-time Memory Report at c_bands before calling an iterative solver
             0 MiB given to the printing process from OS
             0 MiB allocation reported by mallinfo(arena+hblkhd)
         23113 MiB available memory on the node where the printing process lives
------------------
     ethr =  9.16E-04,  avg # of iterations =  9.8

     negative rho (up, down):  7.703E-01 0.000E+00

     total cpu time spent up to now is      152.4 secs

     total energy              =   -4441.75292179 Ry
     estimated scf accuracy    <       3.07890292 Ry

     iteration # 10     ecut=    60.00 Ry     beta= 0.15
     Davidson diagonalization with overlap

---- Real-time Memory Report at c_bands before calling an iterative solver
             0 MiB given to the printing process from OS
             0 MiB allocation reported by mallinfo(arena+hblkhd)
         22842 MiB available memory on the node where the printing process lives
------------------
     ethr =  7.14E-04,  avg # of iterations =  1.6

     negative rho (up, down):  7.769E-01 0.000E+00

     total cpu time spent up to now is      167.2 secs

     total energy              =   -4441.90948370 Ry
     estimated scf accuracy    <       1.33031905 Ry

     iteration # 11     ecut=    60.00 Ry     beta= 0.15
     Davidson diagonalization with overlap

---- Real-time Memory Report at c_bands before calling an iterative solver
             0 MiB given to the printing process from OS
             0 MiB allocation reported by mallinfo(arena+hblkhd)
         22818 MiB available memory on the node where the printing process lives
------------------
     ethr =  3.09E-04,  avg # of iterations =  3.4

     negative rho (up, down):  8.036E-01 0.000E+00

     total cpu time spent up to now is      185.0 secs

     total energy              =   -4441.75200539 Ry
     estimated scf accuracy    <       1.36683314 Ry

     iteration # 12     ecut=    60.00 Ry     beta= 0.15
     Davidson diagonalization with overlap

---- Real-time Memory Report at c_bands before calling an iterative solver
             0 MiB given to the printing process from OS
             0 MiB allocation reported by mallinfo(arena+hblkhd)
         22758 MiB available memory on the node where the printing process lives
------------------
     ethr =  3.09E-04,  avg # of iterations =  4.8

     negative rho (up, down):  8.123E-01 0.000E+00

     total cpu time spent up to now is      202.4 secs

     total energy              =   -4441.86483859 Ry
     estimated scf accuracy    <       1.04651011 Ry

     iteration # 13     ecut=    60.00 Ry     beta= 0.15
     Davidson diagonalization with overlap

---- Real-time Memory Report at c_bands before calling an iterative solver
             0 MiB given to the printing process from OS
             0 MiB allocation reported by mallinfo(arena+hblkhd)
         22738 MiB available memory on the node where the printing process lives
------------------
     ethr =  2.43E-04,  avg # of iterations =  6.7

     negative rho (up, down):  8.193E-01 0.000E+00

     total cpu time spent up to now is      220.6 secs

     total energy              =   -4441.80968378 Ry
     estimated scf accuracy    <       0.69642945 Ry

     iteration # 14     ecut=    60.00 Ry     beta= 0.15
     Davidson diagonalization with overlap

---- Real-time Memory Report at c_bands before calling an iterative solver
             0 MiB given to the printing process from OS
             0 MiB allocation reported by mallinfo(arena+hblkhd)
         22732 MiB available memory on the node where the printing process lives
------------------
     ethr =  1.62E-04,  avg # of iterations =  4.9

     negative rho (up, down):  8.247E-01 0.000E+00

     total cpu time spent up to now is      238.2 secs

     total energy              =   -4441.74351797 Ry
     estimated scf accuracy    <       0.37247992 Ry

     iteration # 15     ecut=    60.00 Ry     beta= 0.15
     Davidson diagonalization with overlap

---- Real-time Memory Report at c_bands before calling an iterative solver
             0 MiB given to the printing process from OS
             0 MiB allocation reported by mallinfo(arena+hblkhd)
         22730 MiB available memory on the node where the printing process lives
------------------
     ethr =  8.64E-05,  avg # of iterations = 10.9

     negative rho (up, down):  8.312E-01 0.000E+00

     total cpu time spent up to now is      259.2 secs

     total energy              =   -4441.73647040 Ry
     estimated scf accuracy    <       0.38220276 Ry

     iteration # 16     ecut=    60.00 Ry     beta= 0.15
     Davidson diagonalization with overlap

---- Real-time Memory Report at c_bands before calling an iterative solver
             0 MiB given to the printing process from OS
             0 MiB allocation reported by mallinfo(arena+hblkhd)
         22729 MiB available memory on the node where the printing process lives
------------------
     ethr =  8.64E-05,  avg # of iterations =  5.1

     negative rho (up, down):  8.305E-01 0.000E+00

     total cpu time spent up to now is      277.4 secs

     total energy              =   -4441.72074351 Ry
     estimated scf accuracy    <       0.30066435 Ry

     iteration # 17     ecut=    60.00 Ry     beta= 0.15
     Davidson diagonalization with overlap

---- Real-time Memory Report at c_bands before calling an iterative solver
             0 MiB given to the printing process from OS
             0 MiB allocation reported by mallinfo(arena+hblkhd)
         22734 MiB available memory on the node where the printing process lives
------------------
     ethr =  6.98E-05,  avg # of iterations =  3.8

     negative rho (up, down):  8.086E-01 0.000E+00

     total cpu time spent up to now is      294.6 secs

     total energy              =   -4441.69059553 Ry
     estimated scf accuracy    <       0.17620568 Ry

     iteration # 18     ecut=    60.00 Ry     beta= 0.15
     Davidson diagonalization with overlap

---- Real-time Memory Report at c_bands before calling an iterative solver
             0 MiB given to the printing process from OS
             0 MiB allocation reported by mallinfo(arena+hblkhd)
         22813 MiB available memory on the node where the printing process lives
------------------
     ethr =  4.09E-05,  avg # of iterations =  9.1

     negative rho (up, down):  8.390E-01 0.000E+00

     total cpu time spent up to now is      316.3 secs

     total energy              =   -4441.67250784 Ry
     estimated scf accuracy    <       0.16890875 Ry

     iteration # 19     ecut=    60.00 Ry     beta= 0.15
     Davidson diagonalization with overlap

---- Real-time Memory Report at c_bands before calling an iterative solver
             0 MiB given to the printing process from OS
             0 MiB allocation reported by mallinfo(arena+hblkhd)
         22700 MiB available memory on the node where the printing process lives
------------------
     ethr =  3.92E-05,  avg # of iterations =  7.8

     negative rho (up, down):  8.416E-01 0.000E+00

     total cpu time spent up to now is      336.0 secs

     total energy              =   -4441.67562296 Ry
     estimated scf accuracy    <       0.05162064 Ry

     iteration # 20     ecut=    60.00 Ry     beta= 0.15
     Davidson diagonalization with overlap

---- Real-time Memory Report at c_bands before calling an iterative solver
             0 MiB given to the printing process from OS
             0 MiB allocation reported by mallinfo(arena+hblkhd)
         22668 MiB available memory on the node where the printing process lives
------------------
     ethr =  1.20E-05,  avg # of iterations = 10.3

     negative rho (up, down):  8.185E-01 0.000E+00

     total cpu time spent up to now is      357.5 secs

     total energy              =   -4441.67482420 Ry
     estimated scf accuracy    <       0.03034887 Ry

     iteration # 21     ecut=    60.00 Ry     beta= 0.15
     Davidson diagonalization with overlap

---- Real-time Memory Report at c_bands before calling an iterative solver
             0 MiB given to the printing process from OS
             0 MiB allocation reported by mallinfo(arena+hblkhd)
         22650 MiB available memory on the node where the printing process lives
------------------
     c_bands:  1 eigenvalues not converged
     ethr =  7.04E-06,  avg # of iterations =  3.7

     negative rho (up, down):  8.100E-01 0.000E+00

     total cpu time spent up to now is      374.6 secs

     total energy              =   -4441.67198434 Ry
     estimated scf accuracy    <       0.02653578 Ry

     iteration # 22     ecut=    60.00 Ry     beta= 0.15
     Davidson diagonalization with overlap

---- Real-time Memory Report at c_bands before calling an iterative solver
             0 MiB given to the printing process from OS
             0 MiB allocation reported by mallinfo(arena+hblkhd)
         22646 MiB available memory on the node where the printing process lives
------------------
     ethr =  6.16E-06,  avg # of iterations =  3.6

     negative rho (up, down):  7.936E-01 0.000E+00

     total cpu time spent up to now is      391.6 secs

     total energy              =   -4441.66913463 Ry
     estimated scf accuracy    <       0.01868507 Ry

     iteration # 23     ecut=    60.00 Ry     beta= 0.15
     Davidson diagonalization with overlap

---- Real-time Memory Report at c_bands before calling an iterative solver
             0 MiB given to the printing process from OS
             0 MiB allocation reported by mallinfo(arena+hblkhd)
         22659 MiB available memory on the node where the printing process lives
------------------
     ethr =  4.34E-06,  avg # of iterations = 10.3

     negative rho (up, down):  7.945E-01 0.000E+00

     total cpu time spent up to now is      412.7 secs

     total energy              =   -4441.66791632 Ry
     estimated scf accuracy    <       0.01238557 Ry

     iteration # 24     ecut=    60.00 Ry     beta= 0.15
     Davidson diagonalization with overlap

---- Real-time Memory Report at c_bands before calling an iterative solver
             0 MiB given to the printing process from OS
             0 MiB allocation reported by mallinfo(arena+hblkhd)
         22652 MiB available memory on the node where the printing process lives
------------------
     ethr =  2.87E-06,  avg # of iterations =  9.5

     negative rho (up, down):  7.923E-01 0.000E+00

     total cpu time spent up to now is      433.5 secs

     total energy              =   -4441.66763211 Ry
     estimated scf accuracy    <       0.00809576 Ry

     iteration # 25     ecut=    60.00 Ry     beta= 0.15
     Davidson diagonalization with overlap

---- Real-time Memory Report at c_bands before calling an iterative solver
             0 MiB given to the printing process from OS
             0 MiB allocation reported by mallinfo(arena+hblkhd)
         22669 MiB available memory on the node where the printing process lives
------------------
     ethr =  1.88E-06,  avg # of iterations =  6.5

     negative rho (up, down):  7.933E-01 0.000E+00

     total cpu time spent up to now is      452.4 secs

     total energy              =   -4441.66704653 Ry
     estimated scf accuracy    <       0.00466511 Ry

     iteration # 26     ecut=    60.00 Ry     beta= 0.15
     Davidson diagonalization with overlap

---- Real-time Memory Report at c_bands before calling an iterative solver
             0 MiB given to the printing process from OS
             0 MiB allocation reported by mallinfo(arena+hblkhd)
         22693 MiB available memory on the node where the printing process lives
------------------
     ethr =  1.08E-06,  avg # of iterations =  8.3

     negative rho (up, down):  7.939E-01 0.000E+00

     total cpu time spent up to now is      473.2 secs

     total energy              =   -4441.66712510 Ry
     estimated scf accuracy    <       0.00234314 Ry

     iteration # 27     ecut=    60.00 Ry     beta= 0.15
     Davidson diagonalization with overlap

---- Real-time Memory Report at c_bands before calling an iterative solver
             0 MiB given to the printing process from OS
             0 MiB allocation reported by mallinfo(arena+hblkhd)
         22665 MiB available memory on the node where the printing process lives
------------------
     ethr =  5.44E-07,  avg # of iterations =  9.7

     negative rho (up, down):  7.928E-01 0.000E+00

     total cpu time spent up to now is      494.0 secs

     total energy              =   -4441.66716872 Ry
     estimated scf accuracy    <       0.00124376 Ry

     iteration # 28     ecut=    60.00 Ry     beta= 0.15
     Davidson diagonalization with overlap

---- Real-time Memory Report at c_bands before calling an iterative solver
             0 MiB given to the printing process from OS
             0 MiB allocation reported by mallinfo(arena+hblkhd)
         22666 MiB available memory on the node where the printing process lives
------------------
     ethr =  2.89E-07,  avg # of iterations =  7.4

     negative rho (up, down):  7.922E-01 0.000E+00

     total cpu time spent up to now is      513.5 secs

     total energy              =   -4441.66720535 Ry
     estimated scf accuracy    <       0.00069588 Ry

     iteration # 29     ecut=    60.00 Ry     beta= 0.15
     Davidson diagonalization with overlap

---- Real-time Memory Report at c_bands before calling an iterative solver
             0 MiB given to the printing process from OS
             0 MiB allocation reported by mallinfo(arena+hblkhd)
         22655 MiB available memory on the node where the printing process lives
------------------
     ethr =  1.61E-07,  avg # of iterations =  2.2

     negative rho (up, down):  7.912E-01 0.000E+00

     total cpu time spent up to now is      530.2 secs

     total energy              =   -4441.66718292 Ry
     estimated scf accuracy    <       0.00040964 Ry

     iteration # 30     ecut=    60.00 Ry     beta= 0.15
     Davidson diagonalization with overlap

---- Real-time Memory Report at c_bands before calling an iterative solver
             0 MiB given to the printing process from OS
             0 MiB allocation reported by mallinfo(arena+hblkhd)
         22664 MiB available memory on the node where the printing process lives
------------------
     ethr =  9.50E-08,  avg # of iterations =  3.3

     negative rho (up, down):  7.914E-01 0.000E+00

     total cpu time spent up to now is      548.1 secs

     total energy              =   -4441.66720018 Ry
     estimated scf accuracy    <       0.00010088 Ry

     iteration # 31     ecut=    60.00 Ry     beta= 0.15
     Davidson diagonalization with overlap

---- Real-time Memory Report at c_bands before calling an iterative solver
             0 MiB given to the printing process from OS
             0 MiB allocation reported by mallinfo(arena+hblkhd)
         22663 MiB available memory on the node where the printing process lives
------------------
     ethr =  2.34E-08,  avg # of iterations =  1.9

     negative rho (up, down):  7.911E-01 0.000E+00

     total cpu time spent up to now is      564.4 secs

     total energy              =   -4441.66717444 Ry
     estimated scf accuracy    <       0.00006350 Ry

     iteration # 32     ecut=    60.00 Ry     beta= 0.15
     Davidson diagonalization with overlap

---- Real-time Memory Report at c_bands before calling an iterative solver
             0 MiB given to the printing process from OS
             0 MiB allocation reported by mallinfo(arena+hblkhd)
         22663 MiB available memory on the node where the printing process lives
------------------
     ethr =  1.47E-08,  avg # of iterations =  4.0

     negative rho (up, down):  7.915E-01 0.000E+00

     total cpu time spent up to now is      582.0 secs

     total energy              =   -4441.66716532 Ry
     estimated scf accuracy    <       0.00003378 Ry

     iteration # 33     ecut=    60.00 Ry     beta= 0.15
     Davidson diagonalization with overlap

---- Real-time Memory Report at c_bands before calling an iterative solver
             0 MiB given to the printing process from OS
             0 MiB allocation reported by mallinfo(arena+hblkhd)
         22666 MiB available memory on the node where the printing process lives
------------------
     ethr =  7.84E-09,  avg # of iterations =  2.2

     negative rho (up, down):  7.921E-01 0.000E+00

     total cpu time spent up to now is      598.7 secs

     total energy              =   -4441.66716817 Ry
     estimated scf accuracy    <       0.00001800 Ry

     iteration # 34     ecut=    60.00 Ry     beta= 0.15
     Davidson diagonalization with overlap

---- Real-time Memory Report at c_bands before calling an iterative solver
             0 MiB given to the printing process from OS
             0 MiB allocation reported by mallinfo(arena+hblkhd)
         22681 MiB available memory on the node where the printing process lives
------------------
     ethr =  4.18E-09,  avg # of iterations =  3.1

     negative rho (up, down):  7.923E-01 0.000E+00

     total cpu time spent up to now is      615.7 secs

     total energy              =   -4441.66717362 Ry
     estimated scf accuracy    <       0.00000763 Ry

     iteration # 35     ecut=    60.00 Ry     beta= 0.15
     Davidson diagonalization with overlap

---- Real-time Memory Report at c_bands before calling an iterative solver
             0 MiB given to the printing process from OS
             0 MiB allocation reported by mallinfo(arena+hblkhd)
         22701 MiB available memory on the node where the printing process lives
------------------
     ethr =  1.77E-09,  avg # of iterations =  2.2

     negative rho (up, down):  7.924E-01 0.000E+00

     total cpu time spent up to now is      632.3 secs

     total energy              =   -4441.66717971 Ry
     estimated scf accuracy    <       0.00000536 Ry

     iteration # 36     ecut=    60.00 Ry     beta= 0.15
     Davidson diagonalization with overlap

---- Real-time Memory Report at c_bands before calling an iterative solver
             0 MiB given to the printing process from OS
             0 MiB allocation reported by mallinfo(arena+hblkhd)
         22708 MiB available memory on the node where the printing process lives
------------------
     ethr =  1.24E-09,  avg # of iterations =  2.9

     negative rho (up, down):  7.924E-01 0.000E+00

     total cpu time spent up to now is      649.2 secs

     total energy              =   -4441.66718415 Ry
     estimated scf accuracy    <       0.00000347 Ry

     iteration # 37     ecut=    60.00 Ry     beta= 0.15
     Davidson diagonalization with overlap

---- Real-time Memory Report at c_bands before calling an iterative solver
             0 MiB given to the printing process from OS
             0 MiB allocation reported by mallinfo(arena+hblkhd)
         22711 MiB available memory on the node where the printing process lives
------------------
     ethr =  8.04E-10,  avg # of iterations =  3.7

     negative rho (up, down):  7.925E-01 0.000E+00

     total cpu time spent up to now is      666.6 secs

     total energy              =   -4441.66718591 Ry
     estimated scf accuracy    <       0.00000206 Ry

     iteration # 38     ecut=    60.00 Ry     beta= 0.15
     Davidson diagonalization with overlap

---- Real-time Memory Report at c_bands before calling an iterative solver
             0 MiB given to the printing process from OS
             0 MiB allocation reported by mallinfo(arena+hblkhd)
         22720 MiB available memory on the node where the printing process lives
------------------
     ethr =  4.78E-10,  avg # of iterations =  3.8

     negative rho (up, down):  7.925E-01 0.000E+00

     total cpu time spent up to now is      684.2 secs

     total energy              =   -4441.66718622 Ry
     estimated scf accuracy    <       0.00000119 Ry

     iteration # 39     ecut=    60.00 Ry     beta= 0.15
     Davidson diagonalization with overlap

---- Real-time Memory Report at c_bands before calling an iterative solver
             0 MiB given to the printing process from OS
             0 MiB allocation reported by mallinfo(arena+hblkhd)
         22722 MiB available memory on the node where the printing process lives
------------------
     ethr =  2.77E-10,  avg # of iterations =  3.2

     negative rho (up, down):  7.925E-01 0.000E+00

     total cpu time spent up to now is      701.5 secs

     total energy              =   -4441.66718626 Ry
     estimated scf accuracy    <       0.00000063 Ry

     iteration # 40     ecut=    60.00 Ry     beta= 0.15
     Davidson diagonalization with overlap

---- Real-time Memory Report at c_bands before calling an iterative solver
             0 MiB given to the printing process from OS
             0 MiB allocation reported by mallinfo(arena+hblkhd)
         22724 MiB available memory on the node where the printing process lives
------------------
     ethr =  1.46E-10,  avg # of iterations =  2.4

     negative rho (up, down):  7.925E-01 0.000E+00

     total cpu time spent up to now is      718.1 secs

     total energy              =   -4441.66718632 Ry
     estimated scf accuracy    <       0.00000047 Ry

     iteration # 41     ecut=    60.00 Ry     beta= 0.15
     Davidson diagonalization with overlap

---- Real-time Memory Report at c_bands before calling an iterative solver
             0 MiB given to the printing process from OS
             0 MiB allocation reported by mallinfo(arena+hblkhd)
         22722 MiB available memory on the node where the printing process lives
------------------
     ethr =  1.09E-10,  avg # of iterations =  2.2

     negative rho (up, down):  7.925E-01 0.000E+00

     total cpu time spent up to now is      734.8 secs

     total energy              =   -4441.66718643 Ry
     estimated scf accuracy    <       0.00000024 Ry

     iteration # 42     ecut=    60.00 Ry     beta= 0.15
     Davidson diagonalization with overlap

---- Real-time Memory Report at c_bands before calling an iterative solver
             0 MiB given to the printing process from OS
             0 MiB allocation reported by mallinfo(arena+hblkhd)
         22723 MiB available memory on the node where the printing process lives
------------------
     ethr =  5.50E-11,  avg # of iterations =  2.7

     negative rho (up, down):  7.925E-01 0.000E+00

     total cpu time spent up to now is      751.7 secs

     total energy              =   -4441.66718646 Ry
     estimated scf accuracy    <       0.00000014 Ry

     iteration # 43     ecut=    60.00 Ry     beta= 0.15
     Davidson diagonalization with overlap

---- Real-time Memory Report at c_bands before calling an iterative solver
             0 MiB given to the printing process from OS
             0 MiB allocation reported by mallinfo(arena+hblkhd)
         22725 MiB available memory on the node where the printing process lives
------------------
     ethr =  3.24E-11,  avg # of iterations =  2.2

     negative rho (up, down):  7.925E-01 0.000E+00

     total cpu time spent up to now is      768.2 secs

     total energy              =   -4441.66718646 Ry
     estimated scf accuracy    <       0.00000007 Ry

     iteration # 44     ecut=    60.00 Ry     beta= 0.15
     Davidson diagonalization with overlap

---- Real-time Memory Report at c_bands before calling an iterative solver
             0 MiB given to the printing process from OS
             0 MiB allocation reported by mallinfo(arena+hblkhd)
         22723 MiB available memory on the node where the printing process lives
------------------
     ethr =  1.69E-11,  avg # of iterations =  3.0

     negative rho (up, down):  7.925E-01 0.000E+00

     total cpu time spent up to now is      785.3 secs

     total energy              =   -4441.66718645 Ry
     estimated scf accuracy    <       0.00000003 Ry

     iteration # 45     ecut=    60.00 Ry     beta= 0.15
     Davidson diagonalization with overlap

---- Real-time Memory Report at c_bands before calling an iterative solver
             0 MiB given to the printing process from OS
             0 MiB allocation reported by mallinfo(arena+hblkhd)
         22727 MiB available memory on the node where the printing process lives
------------------
     ethr =  7.63E-12,  avg # of iterations =  2.4

     negative rho (up, down):  7.925E-01 0.000E+00

     total cpu time spent up to now is      802.1 secs

     total energy              =   -4441.66718644 Ry
     estimated scf accuracy    <       0.00000002 Ry

     iteration # 46     ecut=    60.00 Ry     beta= 0.15
     Davidson diagonalization with overlap

---- Real-time Memory Report at c_bands before calling an iterative solver
             0 MiB given to the printing process from OS
             0 MiB allocation reported by mallinfo(arena+hblkhd)
         22723 MiB available memory on the node where the printing process lives
------------------
     ethr =  4.78E-12,  avg # of iterations =  2.8

     negative rho (up, down):  7.925E-01 0.000E+00

     total cpu time spent up to now is      818.9 secs

     total energy              =   -4441.66718644 Ry
     estimated scf accuracy    <       0.00000001 Ry

     iteration # 47     ecut=    60.00 Ry     beta= 0.15
     Davidson diagonalization with overlap

---- Real-time Memory Report at c_bands before calling an iterative solver
             0 MiB given to the printing process from OS
             0 MiB allocation reported by mallinfo(arena+hblkhd)
         22722 MiB available memory on the node where the printing process lives
------------------
     ethr =  2.40E-12,  avg # of iterations =  2.2

     negative rho (up, down):  7.925E-01 0.000E+00

     total cpu time spent up to now is      835.0 secs

     End of self-consistent calculation

          k = 0.0000 0.0000 0.0000 ( 65197 PWs)   bands (ev):

   -92.6945 -92.6421 -92.5481 -92.5034 -92.4436 -92.4008 -92.3833 -92.2638
   -56.0481 -56.0288 -55.9055 -55.8951 -55.8890 -55.8820 -55.8460 -55.8174
   -55.8019 -55.8003 -55.7928 -55.7505 -55.7348 -55.6945 -55.6745 -55.6439
   -55.6386 -55.5890 -55.5889 -55.5860 -55.5776 -55.5389 -55.5137 -55.4301
   -31.2718 -31.2526 -31.1105 -31.0576 -31.0239 -30.9321 -30.7731 -30.6539
   -29.8405 -29.7989 -29.7714 -29.6634 -15.0746 -15.0299 -14.9484 -14.8194
   -14.6238 -14.5028 -14.2110 -14.1925 -14.1633 -14.1140 -14.0697 -14.0563
   -14.0480 -14.0295 -14.0138 -13.9817 -13.9517 -13.9229 -13.7698 -13.5923
   -13.5584 -13.5281 -13.4958 -13.4810 -13.4226 -13.3885 -13.3164 -13.2440
   -13.1061 -13.0966 -13.0885 -13.0685 -13.0510 -13.0450 -12.9960 -12.9849
   -12.9739 -12.9446 -12.9169 -12.8956 -12.8613 -12.8480 -12.8217 -12.7362
   -12.7255 -12.7204 -12.6017 -12.5659 -12.5309 -12.3363 -12.1906 -11.9841
   -11.9207 -11.8541 -11.7804 -11.7689 -11.7465 -11.7290 -11.6652 -11.6474
   -11.6137 -11.5832 -11.4718 -11.3926 -11.3890  -2.9342  -2.7021  -2.4727
    -2.3255  -2.2626  -2.1209  -1.8135  -1.7993  -1.7800  -1.6958  -1.6757
    -1.6078  -1.5914  -1.5506  -1.5066  -1.3261  -1.2231  -1.1000  -1.0692
    -0.9241  -0.9092  -0.8632  -0.8414  -0.7974  -0.7811  -0.7272  -0.6996
    -0.6244  -0.6122  -0.5397  -0.4075  -0.3953  -0.3660  -0.2844  -0.2659
    -0.2611  -0.1931  -0.1209  -0.0626  -0.0224   0.0109   0.0768   0.1427
     0.1887   0.2154   0.2215   0.4797   0.4981   0.6714   0.7359   0.8051
     0.8481   0.9373   0.9487   0.9668   1.0322   1.0578   1.0936   1.1502
     1.2809   1.3410   1.3605   1.3815   1.3957   1.4602   1.5285   1.6373
     1.6509   1.7160   1.7291   1.7703   1.7866   1.7935   1.8523   1.9076
     1.9338   1.9679   2.0022   2.0376   2.1681   2.2535   2.2926   2.3132
     2.4399   2.4570   2.4835   2.4948   2.5198   2.5229   2.6364   2.6669
     2.6926   2.7110   2.7243   2.8067   2.9139   2.9462   2.9580   2.9644
     3.0324   3.0367   3.0608   3.0680   3.0768   3.0896   3.0967   3.1102
     3.1154   3.1288   3.1361   3.1437   3.1637   3.1850   3.1898   3.2020
     3.2326   3.3428   3.4194   4.1135   4.4439   4.7773   4.8687   5.0522
     5.7730   5.9446   5.9944   6.0150   6.3212   6.3678   6.4805   6.4940
     6.7317   7.0106   7.0937   7.3241   7.4008   7.6244   7.6629   7.6810
     7.7447   7.9045   7.9768   8.0478   8.1156   8.1829   8.4477   8.5372
     8.7260   8.7718   8.8667

     occupation numbers 
     1.0000   1.0000   1.0000   1.0000   1.0000   1.0000   1.0000   1.0000
     1.0000   1.0000   1.0000   1.0000   1.0000   1.0000   1.0000   1.0000
     1.0000   1.0000   1.0000   1.0000   1.0000   1.0000   1.0000   1.0000
     1.0000   1.0000   1.0000   1.0000   1.0000   1.0000   1.0000   1.0000
     1.0000   1.0000   1.0000   1.0000   1.0000   1.0000   1.0000   1.0000
     1.0000   1.0000   1.0000   1.0000   1.0000   1.0000   1.0000   1.0000
     1.0000   1.0000   1.0000   1.0000   1.0000   1.0000   1.0000   1.0000
     1.0000   1.0000   1.0000   1.0000   1.0000   1.0000   1.0000   1.0000
     1.0000   1.0000   1.0000   1.0000   1.0000   1.0000   1.0000   1.0000
     1.0000   1.0000   1.0000   1.0000   1.0000   1.0000   1.0000   1.0000
     1.0000   1.0000   1.0000   1.0000   1.0000   1.0000   1.0000   1.0000
     1.0000   1.0000   1.0000   1.0000   1.0000   1.0000   1.0000   1.0000
     1.0000   1.0000   1.0000   1.0000   1.0000   1.0000   1.0000   1.0000
     1.0000   1.0000   1.0000   1.0000   1.0000   1.0000   1.0000   1.0000
     1.0000   1.0000   1.0000   1.0000   1.0000   1.0000   1.0000   1.0000
     1.0000   1.0000   1.0000   1.0000   1.0000   1.0000   1.0000   1.0000
     1.0000   1.0000   1.0000   1.0000   1.0000   1.0000   1.0000   1.0000
     1.0000   1.0000   1.0000   1.0000   1.0000   1.0000   1.0000   1.0000
     1.0000   1.0000   1.0000   1.0000   1.0000   1.0000   1.0000   1.0000
     1.0000   1.0000   1.0000   1.0000   1.0000   1.0000   0.9999   0.9999
     0.9999   0.9998   0.9998   0.9998   0.9997   0.9996   0.9996   0.9994
     0.9988   0.9985   0.9983   0.9981   0.9980   0.9973   0.9963   0.9941
     0.9938   0.9918   0.9914   0.9899   0.9892   0.9889   0.9861   0.9829
     0.9812   0.9787   0.9760   0.9728   0.9582   0.9456   0.9389   0.9351
     0.9077   0.9034   0.8965   0.8935   0.8865   0.8856   0.8496   0.8388
     0.8293   0.8223   0.8171   0.7829   0.7333   0.7173   0.7114   0.7081
     0.6725   0.6702   0.6572   0.6532   0.6484   0.6413   0.6373   0.6298
     0.6269   0.6193   0.6152   0.6109   0.5995   0.5872   0.5844   0.5773
     0.5595   0.4944   0.4492   0.1234   0.0496   0.0160   0.0113   0.0054
     0.0001   0.0001   0.0000   0.0000   0.0000   0.0000   0.0000   0.0000
     0.0000   0.0000   0.0000   0.0000   0.0000   0.0000   0.0000   0.0000
     0.0000   0.0000   0.0000   0.0000   0.0000   0.0000   0.0000   0.0000
     0.0000   0.0000   0.0000

          k = 0.0000 0.2500 0.0000 ( 65257 PWs)   bands (ev):

   -92.6945 -92.6421 -92.5481 -92.5034 -92.4436 -92.4008 -92.3833 -92.2638
   -56.0481 -56.0288 -55.9055 -55.8951 -55.8890 -55.8820 -55.8460 -55.8174
   -55.8019 -55.8003 -55.7928 -55.7505 -55.7348 -55.6945 -55.6745 -55.6439
   -55.6386 -55.5890 -55.5889 -55.5860 -55.5776 -55.5389 -55.5137 -55.4301
   -31.2716 -31.2525 -31.1107 -31.0576 -31.0240 -30.9319 -30.7733 -30.6540
   -29.8399 -29.7986 -29.7721 -29.6637 -15.0381 -15.0039 -14.9231 -14.7900
   -14.6661 -14.4920 -14.3567 -14.1777 -14.1426 -14.1221 -14.0891 -14.0363
   -14.0241 -14.0125 -13.9936 -13.9808 -13.9259 -13.8420 -13.8018 -13.6410
   -13.6152 -13.5704 -13.5337 -13.4882 -13.4442 -13.3871 -13.3359 -13.3013
   -13.1963 -13.1511 -13.1407 -13.1029 -13.0872 -13.0354 -12.9772 -12.9535
   -12.9276 -12.8978 -12.8738 -12.8592 -12.8485 -12.8324 -12.7914 -12.7223
   -12.6178 -12.5906 -12.5652 -12.5375 -12.4864 -12.3976 -12.2418 -12.0376
   -11.9831 -11.8197 -11.7773 -11.7483 -11.7209 -11.7046 -11.6572 -11.6455
   -11.6226 -11.5892 -11.4860 -11.4341 -11.4237  -2.7989  -2.5778  -2.4402
    -2.2582  -2.2146  -2.0510  -1.8319  -1.7472  -1.7343  -1.6769  -1.5741
    -1.5579  -1.5247  -1.4974  -1.4535  -1.2616  -1.2194  -1.1258  -1.1144
    -1.0384  -1.0288  -0.9244  -0.8945  -0.8340  -0.8094  -0.7705  -0.7072
    -0.6799  -0.6479  -0.6133  -0.5961  -0.5652  -0.4917  -0.4416  -0.3759
    -0.2631  -0.2458  -0.2007  -0.0806  -0.0418   0.0208   0.0679   0.1336
     0.1423   0.1698   0.2328   0.5307   0.6173   0.6479   0.7370   0.7858
     0.8105   0.9190   0.9379   1.0390   1.0595   1.0849   1.1989   1.2921
     1.3168   1.3397   1.3571   1.3836   1.4429   1.4706   1.4995   1.5454
     1.5821   1.6138   1.6991   1.7292   1.7746   1.8193   1.8761   1.9364
     1.9495   1.9687   1.9901   2.0850   2.2030   2.2764   2.2976   2.3668
     2.4132   2.4372   2.4523   2.4693   2.4955   2.5278   2.5618   2.6527
     2.6860   2.7014   2.8717   2.8942   2.9277   2.9492   2.9656   2.9740
     2.9811   2.9903   3.0200   3.0218   3.0408   3.0440   3.0556   3.0740
     3.0850   3.0932   3.1151   3.1253   3.1303   3.1659   3.1825   3.2428
     3.6198   3.6438   3.8868   4.3043   4.4407   4.7175   5.0212   5.0756
     5.6481   5.8022   5.9445   5.9918   6.0899   6.1129   6.1901   6.5996
     6.8310   7.1000   7.1442   7.3341   7.4865   7.5036   7.5857   7.6495
     7.8515   7.9504   8.0084   8.1784   8.3456   8.3736   8.4200   8.5148
     8.5870   8.8455   8.9445

     occupation numbers 
     1.0000   1.0000   1.0000   1.0000   1.0000   1.0000   1.0000   1.0000
     1.0000   1.0000   1.0000   1.0000   1.0000   1.0000   1.0000   1.0000
     1.0000   1.0000   1.0000   1.0000   1.0000   1.0000   1.0000   1.0000
     1.0000   1.0000   1.0000   1.0000   1.0000   1.0000   1.0000   1.0000
     1.0000   1.0000   1.0000   1.0000   1.0000   1.0000   1.0000   1.0000
     1.0000   1.0000   1.0000   1.0000   1.0000   1.0000   1.0000   1.0000
     1.0000   1.0000   1.0000   1.0000   1.0000   1.0000   1.0000   1.0000
     1.0000   1.0000   1.0000   1.0000   1.0000   1.0000   1.0000   1.0000
     1.0000   1.0000   1.0000   1.0000   1.0000   1.0000   1.0000   1.0000
     1.0000   1.0000   1.0000   1.0000   1.0000   1.0000   1.0000   1.0000
     1.0000   1.0000   1.0000   1.0000   1.0000   1.0000   1.0000   1.0000
     1.0000   1.0000   1.0000   1.0000   1.0000   1.0000   1.0000   1.0000
     1.0000   1.0000   1.0000   1.0000   1.0000   1.0000   1.0000   1.0000
     1.0000   1.0000   1.0000   1.0000   1.0000   1.0000   1.0000   1.0000
     1.0000   1.0000   1.0000   1.0000   1.0000   1.0000   1.0000   1.0000
     1.0000   1.0000   1.0000   1.0000   1.0000   1.0000   1.0000   1.0000
     1.0000   1.0000   1.0000   1.0000   1.0000   1.0000   1.0000   1.0000
     1.0000   1.0000   1.0000   1.0000   1.0000   1.0000   1.0000   1.0000
     1.0000   1.0000   1.0000   1.0000   1.0000   1.0000   1.0000   1.0000
     1.0000   1.0000   1.0000   1.0000   1.0000   1.0000   0.9999   0.9999
     0.9999   0.9998   0.9998   0.9997   0.9996   0.9996   0.9992   0.9988
     0.9986   0.9985   0.9983   0.9981   0.9975   0.9972   0.9968   0.9960
     0.9953   0.9947   0.9924   0.9914   0.9897   0.9877   0.9848   0.9810
     0.9801   0.9786   0.9770   0.9681   0.9534   0.9417   0.9380   0.9244
     0.9141   0.9084   0.9046   0.9003   0.8933   0.8842   0.8740   0.8439
     0.8318   0.8260   0.7535   0.7429   0.7265   0.7158   0.7075   0.7032
     0.6995   0.6948   0.6791   0.6782   0.6680   0.6663   0.6600   0.6499
     0.6439   0.6393   0.6270   0.6213   0.6185   0.5982   0.5886   0.5535
     0.3353   0.3224   0.2056   0.0747   0.0501   0.0199   0.0061   0.0048
     0.0003   0.0001   0.0001   0.0000   0.0000   0.0000   0.0000   0.0000
     0.0000   0.0000   0.0000   0.0000   0.0000   0.0000   0.0000   0.0000
     0.0000   0.0000   0.0000   0.0000   0.0000   0.0000   0.0000   0.0000
     0.0000   0.0000   0.0000

          k = 0.0000-0.5000 0.0000 ( 65180 PWs)   bands (ev):

   -92.6945 -92.6421 -92.5481 -92.5034 -92.4436 -92.4008 -92.3833 -92.2638
   -56.0481 -56.0288 -55.9055 -55.8951 -55.8890 -55.8820 -55.8460 -55.8174
   -55.8019 -55.8003 -55.7928 -55.7504 -55.7348 -55.6945 -55.6745 -55.6439
   -55.6386 -55.5890 -55.5889 -55.5860 -55.5776 -55.5389 -55.5137 -55.4301
   -31.2714 -31.2523 -31.1109 -31.0575 -31.0241 -30.9317 -30.7736 -30.6541
   -29.8393 -29.7983 -29.7727 -29.6640 -15.0026 -14.9545 -14.8988 -14.7714
   -14.6862 -14.5536 -14.3903 -14.2772 -14.1509 -14.0688 -14.0337 -14.0270
   -13.9812 -13.9799 -13.9639 -13.9086 -13.8920 -13.8665 -13.8369 -13.7971
   -13.7369 -13.5764 -13.5180 -13.4939 -13.4500 -13.3695 -13.3521 -13.2775
   -13.2772 -13.2377 -13.2118 -13.1039 -13.0886 -13.0322 -12.9625 -12.9497
   -12.9228 -12.8966 -12.8758 -12.8557 -12.8292 -12.7178 -12.6993 -12.6459
   -12.6091 -12.5722 -12.5361 -12.5084 -12.4417 -12.3170 -12.2972 -12.1339
   -12.0823 -11.7743 -11.7712 -11.7429 -11.7065 -11.6720 -11.6606 -11.6196
   -11.6153 -11.5714 -11.5073 -11.4945 -11.4807  -2.5846  -2.5246  -2.3749
    -2.3029  -2.0215  -1.9371  -1.8096  -1.6736  -1.6358  -1.6162  -1.5380
    -1.5070  -1.4229  -1.3889  -1.3111  -1.2742  -1.2358  -1.2253  -1.2066
    -1.1473  -1.1066  -1.0643  -1.0268  -0.9924  -0.9606  -0.8503  -0.8067
    -0.7706  -0.7673  -0.6826  -0.6522  -0.6286  -0.5765  -0.4955  -0.4207
    -0.3362  -0.3086  -0.2012  -0.1554  -0.0224   0.0149   0.0447   0.1039
     0.2418   0.2841   0.3987   0.4703   0.4770   0.6031   0.6547   0.7744
     0.8831   0.9924   1.0228   1.0646   1.0672   1.1085   1.1221   1.1585
     1.1784   1.1906   1.2953   1.3597   1.3853   1.4087   1.6743   1.7102
     1.7359   1.8305   1.8599   1.8795   1.8961   1.9204   1.9448   1.9601
     1.9820   2.0111   2.0452   2.0751   2.0766   2.1092   2.1612   2.2459
     2.2785   2.4332   2.4553   2.4848   2.6097   2.6218   2.6459   2.6762
     2.6829   2.6911   2.7436   2.7524   2.8066   2.8276   2.9041   2.9189
     2.9865   2.9954   3.0177   3.0188   3.0372   3.0425   3.0463   3.0505
     3.0536   3.0673   3.0845   3.0872   3.1515   3.1553   3.1720   3.2263
     4.1424   4.1728   4.1940   4.2614   4.7472   4.9118   5.0309   5.1679
     5.4199   5.4702   5.5885   5.7301   6.0297   6.0578   6.2658   6.5430
     6.8547   6.9558   7.2267   7.3344   7.3739   7.4649   7.6752   7.7601
     7.9138   7.9611   8.1599   8.3810   8.4456   8.4942   8.5046   8.6832
     8.8129   8.8307   8.8795

     occupation numbers 
     1.0000   1.0000   1.0000   1.0000   1.0000   1.0000   1.0000   1.0000
     1.0000   1.0000   1.0000   1.0000   1.0000   1.0000   1.0000   1.0000
     1.0000   1.0000   1.0000   1.0000   1.0000   1.0000   1.0000   1.0000
     1.0000   1.0000   1.0000   1.0000   1.0000   1.0000   1.0000   1.0000
     1.0000   1.0000   1.0000   1.0000   1.0000   1.0000   1.0000   1.0000
     1.0000   1.0000   1.0000   1.0000   1.0000   1.0000   1.0000   1.0000
     1.0000   1.0000   1.0000   1.0000   1.0000   1.0000   1.0000   1.0000
     1.0000   1.0000   1.0000   1.0000   1.0000   1.0000   1.0000   1.0000
     1.0000   1.0000   1.0000   1.0000   1.0000   1.0000   1.0000   1.0000
     1.0000   1.0000   1.0000   1.0000   1.0000   1.0000   1.0000   1.0000
     1.0000   1.0000   1.0000   1.0000   1.0000   1.0000   1.0000   1.0000
     1.0000   1.0000   1.0000   1.0000   1.0000   1.0000   1.0000   1.0000
     1.0000   1.0000   1.0000   1.0000   1.0000   1.0000   1.0000   1.0000
     1.0000   1.0000   1.0000   1.0000   1.0000   1.0000   1.0000   1.0000
     1.0000   1.0000   1.0000   1.0000   1.0000   1.0000   1.0000   1.0000
     1.0000   1.0000   1.0000   1.0000   1.0000   1.0000   1.0000   1.0000
     1.0000   1.0000   1.0000   1.0000   1.0000   1.0000   1.0000   1.0000
     1.0000   1.0000   1.0000   1.0000   1.0000   1.0000   1.0000   1.0000
     1.0000   1.0000   1.0000   1.0000   1.0000   1.0000   1.0000   1.0000
     1.0000   1.0000   1.0000   1.0000   1.0000   1.0000   1.0000   0.9999
     0.9999   0.9997   0.9997   0.9996   0.9996   0.9995   0.9995   0.9994
     0.9993   0.9993   0.9988   0.9983   0.9981   0.9979   0.9931   0.9920
     0.9912   0.9872   0.9857   0.9846   0.9836   0.9821   0.9804   0.9793
     0.9776   0.9752   0.9721   0.9691   0.9690   0.9655   0.9591   0.9468
     0.9414   0.9093   0.9039   0.8962   0.8587   0.8547   0.8463   0.8354
     0.8330   0.8299   0.8094   0.8058   0.7830   0.7737   0.7381   0.7309
     0.6967   0.6921   0.6804   0.6798   0.6699   0.6671   0.6651   0.6628
     0.6611   0.6536   0.6441   0.6427   0.6064   0.6043   0.5947   0.5632
     0.1148   0.1063   0.1006   0.0841   0.0179   0.0095   0.0059   0.0032
     0.0010   0.0008   0.0004   0.0002   0.0000   0.0000   0.0000   0.0000
     0.0000   0.0000   0.0000   0.0000   0.0000   0.0000   0.0000   0.0000
     0.0000   0.0000   0.0000   0.0000   0.0000   0.0000   0.0000   0.0000
     0.0000   0.0000   0.0000

          k = 0.2500 0.2500 0.0000 ( 65198 PWs)   bands (ev):

   -92.6945 -92.6421 -92.5481 -92.5034 -92.4436 -92.4008 -92.3833 -92.2638
   -56.0481 -56.0288 -55.9055 -55.8951 -55.8890 -55.8820 -55.8460 -55.8174
   -55.8019 -55.8003 -55.7928 -55.7505 -55.7348 -55.6945 -55.6745 -55.6439
   -55.6386 -55.5890 -55.5889 -55.5860 -55.5776 -55.5389 -55.5137 -55.4301
   -31.2699 -31.2542 -31.1103 -31.0573 -31.0244 -30.9322 -30.7731 -30.6543
   -29.8389 -29.7996 -29.7717 -29.6641 -15.0093 -14.9699 -14.8949 -14.7796
   -14.6577 -14.5330 -14.4621 -14.2531 -14.1013 -14.0887 -14.0496 -14.0236
   -13.9976 -13.9812 -13.9714 -13.9394 -13.8896 -13.8309 -13.8151 -13.6555
   -13.6399 -13.6102 -13.5926 -13.5401 -13.5031 -13.4210 -13.4105 -13.2703
   -13.2349 -13.2143 -13.1364 -13.0956 -13.0458 -13.0130 -13.0042 -12.9640
   -12.9407 -12.9098 -12.8771 -12.8281 -12.7936 -12.7400 -12.7225 -12.7073
   -12.6723 -12.6448 -12.5509 -12.4461 -12.4338 -12.3773 -12.2710 -12.0768
   -12.0230 -11.7920 -11.7610 -11.7492 -11.7417 -11.6806 -11.6450 -11.6389
   -11.6032 -11.5942 -11.5029 -11.4625 -11.4450  -2.6606  -2.4520  -2.3342
    -2.2397  -2.1190  -2.0544  -1.8568  -1.7118  -1.6930  -1.6637  -1.5691
    -1.5349  -1.4401  -1.4134  -1.3631  -1.2390  -1.2194  -1.1819  -1.1092
    -1.0643  -1.0212  -0.9970  -0.9736  -0.9284  -0.9154  -0.8246  -0.7736
    -0.7089  -0.6601  -0.6284  -0.5793  -0.5626  -0.5019  -0.4539  -0.3957
    -0.3632  -0.2774  -0.2226  -0.1943  -0.1557  -0.1007  -0.0153   0.0131
     0.0379   0.1249   0.1519   0.4184   0.5661   0.6001   0.6604   0.7037
     0.7747   0.8225   0.8859   0.9119   1.1826   1.2489   1.3220   1.3482
     1.3960   1.4272   1.4623   1.5001   1.5166   1.5443   1.5915   1.5993
     1.6127   1.6569   1.6989   1.7378   1.7986   1.8418   1.8472   1.8964
     1.9172   1.9757   2.0062   2.1244   2.1865   2.2191   2.2422   2.3119
     2.3814   2.4026   2.4364   2.4424   2.4563   2.4773   2.5009   2.5966
     2.6262   2.7139   2.8835   2.9001   2.9064   2.9227   2.9375   2.9508
     2.9627   2.9699   2.9811   2.9938   3.0059   3.0249   3.0316   3.0430
     3.0653   3.0768   3.0862   3.1176   3.4179   3.5124   3.5534   3.6279
     3.6561   3.8635   3.9609   4.3149   4.5270   4.7244   4.9902   5.1686
     5.6535   5.7083   5.7671   5.8446   5.9023   6.0928   6.1634   6.2150
     6.9009   6.9380   7.0849   7.3002   7.5560   7.6072   7.7174   7.8570
     7.9022   8.0372   8.1825   8.2564   8.3223   8.3807   8.4494   8.4793
     8.6048   8.7645   8.9077

     occupation numbers 
     1.0000   1.0000   1.0000   1.0000   1.0000   1.0000   1.0000   1.0000
     1.0000   1.0000   1.0000   1.0000   1.0000   1.0000   1.0000   1.0000
     1.0000   1.0000   1.0000   1.0000   1.0000   1.0000   1.0000   1.0000
     1.0000   1.0000   1.0000   1.0000   1.0000   1.0000   1.0000   1.0000
     1.0000   1.0000   1.0000   1.0000   1.0000   1.0000   1.0000   1.0000
     1.0000   1.0000   1.0000   1.0000   1.0000   1.0000   1.0000   1.0000
     1.0000   1.0000   1.0000   1.0000   1.0000   1.0000   1.0000   1.0000
     1.0000   1.0000   1.0000   1.0000   1.0000   1.0000   1.0000   1.0000
     1.0000   1.0000   1.0000   1.0000   1.0000   1.0000   1.0000   1.0000
     1.0000   1.0000   1.0000   1.0000   1.0000   1.0000   1.0000   1.0000
     1.0000   1.0000   1.0000   1.0000   1.0000   1.0000   1.0000   1.0000
     1.0000   1.0000   1.0000   1.0000   1.0000   1.0000   1.0000   1.0000
     1.0000   1.0000   1.0000   1.0000   1.0000   1.0000   1.0000   1.0000
     1.0000   1.0000   1.0000   1.0000   1.0000   1.0000   1.0000   1.0000
     1.0000   1.0000   1.0000   1.0000   1.0000   1.0000   1.0000   1.0000
     1.0000   1.0000   1.0000   1.0000   1.0000   1.0000   1.0000   1.0000
     1.0000   1.0000   1.0000   1.0000   1.0000   1.0000   1.0000   1.0000
     1.0000   1.0000   1.0000   1.0000   1.0000   1.0000   1.0000   1.0000
     1.0000   1.0000   1.0000   1.0000   1.0000   1.0000   1.0000   1.0000
     1.0000   1.0000   1.0000   1.0000   1.0000   1.0000   1.0000   1.0000
     0.9999   0.9999   0.9999   0.9998   0.9993   0.9990   0.9986   0.9984
     0.9980   0.9977   0.9973   0.9968   0.9965   0.9961   0.9952   0.9950
     0.9947   0.9936   0.9924   0.9911   0.9887   0.9866   0.9863   0.9836
     0.9823   0.9781   0.9756   0.9637   0.9557   0.9510   0.9474   0.9353
     0.9213   0.9165   0.9086   0.9071   0.9036   0.8982   0.8918   0.8630
     0.8532   0.8212   0.7480   0.7400   0.7370   0.7290   0.7217   0.7150
     0.7090   0.7053   0.6995   0.6930   0.6866   0.6765   0.6730   0.6668
     0.6547   0.6484   0.6432   0.6257   0.4500   0.3952   0.3719   0.3309
     0.3159   0.2156   0.1757   0.0725   0.0382   0.0194   0.0069   0.0032
     0.0003   0.0002   0.0002   0.0001   0.0001   0.0000   0.0000   0.0000
     0.0000   0.0000   0.0000   0.0000   0.0000   0.0000   0.0000   0.0000
     0.0000   0.0000   0.0000   0.0000   0.0000   0.0000   0.0000   0.0000
     0.0000   0.0000   0.0000

          k = 0.2500-0.5000 0.0000 ( 65138 PWs)   bands (ev):

   -92.6945 -92.6421 -92.5481 -92.5034 -92.4436 -92.4008 -92.3833 -92.2638
   -56.0481 -56.0288 -55.9055 -55.8951 -55.8890 -55.8820 -55.8460 -55.8174
   -55.8019 -55.8003 -55.7928 -55.7504 -55.7348 -55.6945 -55.6745 -55.6439
   -55.6386 -55.5890 -55.5889 -55.5860 -55.5776 -55.5389 -55.5137 -55.4301
   -31.2697 -31.2540 -31.1105 -31.0573 -31.0245 -30.9320 -30.7733 -30.6543
   -29.8383 -29.7993 -29.7723 -29.6644 -14.9722 -14.9278 -14.8564 -14.7430
   -14.7075 -14.5933 -14.4937 -14.3718 -14.0653 -14.0094 -13.9873 -13.9801
   -13.9618 -13.9478 -13.9352 -13.8926 -13.8797 -13.8490 -13.8133 -13.7869
   -13.7284 -13.6590 -13.6107 -13.5540 -13.5316 -13.4625 -13.4223 -13.3150
   -13.2810 -13.2009 -13.1360 -13.1152 -13.0297 -12.9958 -12.9833 -12.9665
   -12.9371 -12.9056 -12.8730 -12.8470 -12.8072 -12.7260 -12.6501 -12.6476
   -12.6325 -12.6184 -12.5472 -12.5147 -12.3853 -12.3145 -12.2450 -12.1288
   -12.0926 -11.7677 -11.7557 -11.7444 -11.7167 -11.6864 -11.6570 -11.6169
   -11.5894 -11.5675 -11.5207 -11.4954 -11.4849  -2.4428  -2.3761  -2.2487
    -2.1716  -2.0419  -1.9572  -1.8340  -1.6848  -1.6305  -1.6088  -1.5461
    -1.5327  -1.4336  -1.3685  -1.2840  -1.2375  -1.2300  -1.2163  -1.1612
    -1.1183  -1.0836  -1.0357  -0.9993  -0.9637  -0.9241  -0.9085  -0.8667
    -0.8377  -0.7964  -0.7647  -0.6991  -0.5972  -0.5540  -0.4785  -0.4127
    -0.3627  -0.3203  -0.3008  -0.2441  -0.0828  -0.0725   0.0271   0.0656
     0.0765   0.1174   0.1512   0.1971   0.2215   0.2824   0.5602   0.6532
     0.7429   0.7994   1.0449   1.0717   1.1546   1.1852   1.3467   1.3789
     1.4221   1.4452   1.4593   1.4794   1.5425   1.5890   1.6239   1.7071
     1.8000   1.8412   1.8562   1.8733   1.9068   1.9190   1.9281   1.9748
     1.9826   2.0092   2.0361   2.0551   2.0699   2.1051   2.1616   2.2005
     2.2805   2.4123   2.4474   2.4715   2.5632   2.5820   2.6005   2.6272
     2.6505   2.6809   2.6998   2.7153   2.7415   2.8333   2.8823   2.9024
     2.9055   2.9196   2.9402   2.9538   2.9734   2.9798   3.0139   3.0253
     3.0398   3.0481   3.0572   3.0681   3.5953   3.6018   3.7495   3.8020
     4.1567   4.1962   4.2063   4.3217   4.7666   4.9336   5.0675   5.1410
     5.3130   5.4376   5.6082   5.6396   5.7748   5.7968   6.3599   6.4034
     6.4934   6.6759   7.2272   7.3691   7.5454   7.7070   7.8101   7.8821
     7.9306   8.0511   8.3131   8.3748   8.5121   8.5477   8.5609   8.5981
     8.7169   8.7705   8.7984

     occupation numbers 
     1.0000   1.0000   1.0000   1.0000   1.0000   1.0000   1.0000   1.0000
     1.0000   1.0000   1.0000   1.0000   1.0000   1.0000   1.0000   1.0000
     1.0000   1.0000   1.0000   1.0000   1.0000   1.0000   1.0000   1.0000
     1.0000   1.0000   1.0000   1.0000   1.0000   1.0000   1.0000   1.0000
     1.0000   1.0000   1.0000   1.0000   1.0000   1.0000   1.0000   1.0000
     1.0000   1.0000   1.0000   1.0000   1.0000   1.0000   1.0000   1.0000
     1.0000   1.0000   1.0000   1.0000   1.0000   1.0000   1.0000   1.0000
     1.0000   1.0000   1.0000   1.0000   1.0000   1.0000   1.0000   1.0000
     1.0000   1.0000   1.0000   1.0000   1.0000   1.0000   1.0000   1.0000
     1.0000   1.0000   1.0000   1.0000   1.0000   1.0000   1.0000   1.0000
     1.0000   1.0000   1.0000   1.0000   1.0000   1.0000   1.0000   1.0000
     1.0000   1.0000   1.0000   1.0000   1.0000   1.0000   1.0000   1.0000
     1.0000   1.0000   1.0000   1.0000   1.0000   1.0000   1.0000   1.0000
     1.0000   1.0000   1.0000   1.0000   1.0000   1.0000   1.0000   1.0000
     1.0000   1.0000   1.0000   1.0000   1.0000   1.0000   1.0000   1.0000
     1.0000   1.0000   1.0000   1.0000   1.0000   1.0000   1.0000   1.0000
     1.0000   1.0000   1.0000   1.0000   1.0000   1.0000   1.0000   1.0000
     1.0000   1.0000   1.0000   1.0000   1.0000   1.0000   1.0000   1.0000
     1.0000   1.0000   1.0000   1.0000   1.0000   1.0000   1.0000   1.0000
     1.0000   1.0000   1.0000   1.0000   1.0000   1.0000   1.0000   1.0000
     0.9999   0.9999   0.9997   0.9996   0.9994   0.9993   0.9984   0.9981
     0.9977   0.9975   0.9973   0.9970   0.9961   0.9952   0.9944   0.9921
     0.9886   0.9866   0.9859   0.9849   0.9829   0.9821   0.9815   0.9782
     0.9776   0.9754   0.9730   0.9712   0.9697   0.9659   0.9591   0.9537
     0.9410   0.9143   0.9058   0.8997   0.8736   0.8677   0.8618   0.8528
     0.8447   0.8337   0.8266   0.8206   0.8103   0.7711   0.7485   0.7389
     0.7374   0.7306   0.7203   0.7135   0.7035   0.7002   0.6824   0.6763
     0.6686   0.6641   0.6591   0.6532   0.3487   0.3451   0.2683   0.2433
     0.1107   0.1001   0.0975   0.0711   0.0167   0.0087   0.0050   0.0036
     0.0016   0.0009   0.0004   0.0003   0.0001   0.0001   0.0000   0.0000
     0.0000   0.0000   0.0000   0.0000   0.0000   0.0000   0.0000   0.0000
     0.0000   0.0000   0.0000   0.0000   0.0000   0.0000   0.0000   0.0000
     0.0000   0.0000   0.0000

          k =-0.5000-0.5000 0.0000 ( 65132 PWs)   bands (ev):

   -92.6945 -92.6421 -92.5481 -92.5034 -92.4436 -92.4008 -92.3833 -92.2638
   -56.0481 -56.0288 -55.9055 -55.8951 -55.8890 -55.8820 -55.8460 -55.8174
   -55.8019 -55.8003 -55.7928 -55.7504 -55.7348 -55.6945 -55.6745 -55.6439
   -55.6386 -55.5890 -55.5889 -55.5860 -55.5776 -55.5389 -55.5137 -55.4301
   -31.2675 -31.2563 -31.1101 -31.0570 -31.0249 -30.9322 -30.7730 -30.6546
   -29.8372 -29.8004 -29.7719 -29.6649 -14.9262 -14.9005 -14.7838 -14.7698
   -14.6677 -14.6409 -14.5982 -14.4694 -13.9816 -13.9759 -13.9653 -13.9321
   -13.9109 -13.8932 -13.8754 -13.8538 -13.8415 -13.8209 -13.8167 -13.8012
   -13.7243 -13.7194 -13.6750 -13.6558 -13.6454 -13.5525 -13.4890 -13.3508
   -13.3173 -13.1524 -13.1120 -13.0425 -13.0189 -12.9834 -12.9783 -12.9683
   -12.9632 -12.9491 -12.8735 -12.8041 -12.7878 -12.7370 -12.6977 -12.6711
   -12.6007 -12.5912 -12.5573 -12.5296 -12.3455 -12.3108 -12.1913 -12.1324
   -12.1035 -11.7645 -11.7516 -11.7337 -11.7170 -11.6819 -11.6661 -11.6286
   -11.5697 -11.5494 -11.5436 -11.4933 -11.4906  -2.2187  -2.1435  -2.1316
    -2.0604  -2.0227  -1.9440  -1.8761  -1.7501  -1.6350  -1.6048  -1.5660
    -1.5082  -1.4364  -1.4203  -1.3516  -1.3081  -1.2252  -1.1894  -1.1623
    -1.1112  -1.0855  -1.0209  -0.9748  -0.9552  -0.9441  -0.8891  -0.8461
    -0.8293  -0.7161  -0.6605  -0.6135  -0.5635  -0.5342  -0.5246  -0.4882
    -0.4432  -0.4103  -0.3957  -0.3131  -0.2464  -0.2031  -0.1743  -0.1034
    -0.0441  -0.0236   0.0281   0.0493   0.0678   0.0771   0.5298   0.5773
     0.6947   0.7221   1.0763   1.0912   1.1266   1.1585   1.4314   1.4517
     1.4571   1.4937   1.6255   1.7179   1.7468   1.7826   1.8102   1.8336
     1.8387   1.8688   1.8811   1.9040   1.9092   1.9568   1.9581   1.9891
     2.0243   2.0285   2.0485   2.0833   2.1049   2.1215   2.1482   2.1789
     2.2397   2.3069   2.4361   2.4700   2.5777   2.6073   2.6277   2.6446
     2.6589   2.6863   2.6928   2.7110   2.7224   2.7372   2.7568   2.7690
     2.8346   2.8376   2.8605   2.8723   2.8857   2.9050   2.9083   2.9191
     3.0225   3.0268   3.0541   3.0634   4.0210   4.0394   4.0895   4.1005
     4.3266   4.3998   4.4251   4.6669   4.7882   4.8706   4.9998   5.0905
     5.0988   5.2133   5.3112   5.4109   5.8603   5.8887   5.9588   6.0337
     6.5808   6.8410   6.9531   7.1545   7.8997   7.9338   7.9572   7.9821
     8.0192   8.0553   8.0976   8.2743   8.5656   8.5817   8.5966   8.6252
     8.6712   8.7478   8.7830

     occupation numbers 
     1.0000   1.0000   1.0000   1.0000   1.0000   1.0000   1.0000   1.0000
     1.0000   1.0000   1.0000   1.0000   1.0000   1.0000   1.0000   1.0000
     1.0000   1.0000   1.0000   1.0000   1.0000   1.0000   1.0000   1.0000
     1.0000   1.0000   1.0000   1.0000   1.0000   1.0000   1.0000   1.0000
     1.0000   1.0000   1.0000   1.0000   1.0000   1.0000   1.0000   1.0000
     1.0000   1.0000   1.0000   1.0000   1.0000   1.0000   1.0000   1.0000
     1.0000   1.0000   1.0000   1.0000   1.0000   1.0000   1.0000   1.0000
     1.0000   1.0000   1.0000   1.0000   1.0000   1.0000   1.0000   1.0000
     1.0000   1.0000   1.0000   1.0000   1.0000   1.0000   1.0000   1.0000
     1.0000   1.0000   1.0000   1.0000   1.0000   1.0000   1.0000   1.0000
     1.0000   1.0000   1.0000   1.0000   1.0000   1.0000   1.0000   1.0000
     1.0000   1.0000   1.0000   1.0000   1.0000   1.0000   1.0000   1.0000
     1.0000   1.0000   1.0000   1.0000   1.0000   1.0000   1.0000   1.0000
     1.0000   1.0000   1.0000   1.0000   1.0000   1.0000   1.0000   1.0000
     1.0000   1.0000   1.0000   1.0000   1.0000   1.0000   1.0000   1.0000
     1.0000   1.0000   1.0000   1.0000   1.0000   1.0000   1.0000   1.0000
     1.0000   1.0000   1.0000   1.0000   1.0000   1.0000   1.0000   1.0000
     1.0000   1.0000   1.0000   1.0000   1.0000   1.0000   1.0000   1.0000
     1.0000   1.0000   1.0000   1.0000   1.0000   1.0000   1.0000   1.0000
     1.0000   1.0000   1.0000   1.0000   1.0000   1.0000   1.0000   1.0000
     1.0000   0.9999   0.9996   0.9996   0.9995   0.9994   0.9976   0.9974
     0.9973   0.9968   0.9944   0.9918   0.9908   0.9894   0.9881   0.9870
     0.9868   0.9852   0.9845   0.9831   0.9828   0.9795   0.9794   0.9770
     0.9740   0.9737   0.9718   0.9683   0.9659   0.9640   0.9608   0.9568
     0.9478   0.9363   0.9086   0.9001   0.8691   0.8595   0.8527   0.8468
     0.8417   0.8317   0.8292   0.8223   0.8179   0.8120   0.8041   0.7990
     0.7705   0.7692   0.7587   0.7532   0.7469   0.7376   0.7361   0.7308
     0.6778   0.6755   0.6608   0.6557   0.1536   0.1472   0.1308   0.1273
     0.0701   0.0567   0.0525   0.0238   0.0154   0.0112   0.0067   0.0045
     0.0044   0.0026   0.0017   0.0010   0.0001   0.0001   0.0000   0.0000
     0.0000   0.0000   0.0000   0.0000   0.0000   0.0000   0.0000   0.0000
     0.0000   0.0000   0.0000   0.0000   0.0000   0.0000   0.0000   0.0000
     0.0000   0.0000   0.0000

          k = 0.2500 0.0000 0.0000 ( 65257 PWs)   bands (ev):

   -92.6945 -92.6421 -92.5481 -92.5034 -92.4436 -92.4008 -92.3833 -92.2638
   -56.0481 -56.0288 -55.9055 -55.8951 -55.8890 -55.8820 -55.8460 -55.8174
   -55.8019 -55.8003 -55.7928 -55.7505 -55.7348 -55.6945 -55.6745 -55.6439
   -55.6386 -55.5890 -55.5889 -55.5860 -55.5776 -55.5389 -55.5137 -55.4301
   -31.2701 -31.2543 -31.1101 -31.0574 -31.0242 -30.9324 -30.7729 -30.6542
   -29.8395 -29.8000 -29.7710 -29.6638 -15.0417 -15.0000 -14.9287 -14.7828
   -14.6730 -14.4827 -14.3458 -14.1682 -14.1509 -14.1197 -14.0893 -14.0654
   -14.0300 -14.0136 -13.9943 -13.9816 -13.9325 -13.8304 -13.7986 -13.6526
   -13.5781 -13.5724 -13.5115 -13.4851 -13.4727 -13.4016 -13.3379 -13.3068
   -13.1976 -13.1529 -13.1415 -13.0546 -13.0430 -13.0318 -13.0170 -12.9963
   -12.9628 -12.9272 -12.8831 -12.8137 -12.7927 -12.7664 -12.7620 -12.7217
   -12.7178 -12.7073 -12.5647 -12.4856 -12.4307 -12.3998 -12.2428 -12.0390
   -11.9896 -11.8191 -11.7666 -11.7500 -11.7374 -11.7105 -11.6594 -11.6363
   -11.6278 -11.5761 -11.4880 -11.4325 -11.4266  -2.7984  -2.5769  -2.4469
    -2.2742  -2.2106  -2.0411  -1.8333  -1.7563  -1.7126  -1.6776  -1.5767
    -1.5624  -1.5275  -1.5082  -1.4395  -1.2629  -1.2203  -1.1495  -1.1093
[...]
     0.3501   0.3282   0.2046   0.0788   0.0447   0.0216   0.0060   0.0049
     0.0003   0.0001   0.0001   0.0000   0.0000   0.0000   0.0000   0.0000
     0.0000   0.0000   0.0000   0.0000   0.0000   0.0000   0.0000   0.0000
     0.0000   0.0000   0.0000   0.0000   0.0000   0.0000   0.0000   0.0000
     0.0000   0.0000   0.0000

          k =-0.5000 0.0000 0.0000 ( 65180 PWs)   bands (ev):

   -92.6945 -92.6421 -92.5481 -92.5034 -92.4436 -92.4008 -92.3833 -92.2638
   -56.0481 -56.0288 -55.9055 -55.8951 -55.8890 -55.8820 -55.8460 -55.8174
   -55.8019 -55.8003 -55.7928 -55.7505 -55.7348 -55.6945 -55.6745 -55.6439
   -55.6386 -55.5890 -55.5889 -55.5860 -55.5776 -55.5389 -55.5137 -55.4301
   -31.2679 -31.2565 -31.1097 -31.0572 -31.0246 -30.9326 -30.7726 -30.6544
   -29.8384 -29.8010 -29.7707 -29.6642 -15.0081 -14.9570 -14.8946 -14.7781
   -14.6819 -14.5366 -14.3949 -14.2362 -14.1258 -14.1105 -14.1017 -14.0411
   -13.9863 -13.9807 -13.9534 -13.9038 -13.8892 -13.8725 -13.8301 -13.7947
   -13.6913 -13.5482 -13.5219 -13.4887 -13.4802 -13.3988 -13.3582 -13.2897
   -13.2616 -13.2384 -13.1997 -13.0483 -13.0389 -13.0212 -13.0074 -12.9827
   -12.9477 -12.9314 -12.9108 -12.7821 -12.7438 -12.7191 -12.7100 -12.6973
   -12.6340 -12.6248 -12.5546 -12.5348 -12.3637 -12.3209 -12.2060 -12.1628
   -12.1217 -11.7708 -11.7495 -11.7423 -11.7294 -11.7111 -11.6697 -11.6058
   -11.5874 -11.5535 -11.5112 -11.5022 -11.4862  -2.5744  -2.5357  -2.3725
    -2.3327  -2.0197  -1.9450  -1.7974  -1.6783  -1.6402  -1.5946  -1.5470
    -1.5217  -1.3975  -1.3538  -1.3382  -1.2566  -1.2321  -1.2197  -1.2008
    -1.1724  -1.1141  -1.0469  -1.0191  -0.9856  -0.8879  -0.8466  -0.7981
    -0.7655  -0.7435  -0.7131  -0.6652  -0.6399  -0.5999  -0.5058  -0.4273
    -0.3666  -0.3037  -0.1268  -0.1003  -0.0481  -0.0148   0.0596   0.0610
     0.2119   0.2361   0.2794   0.4476   0.5466   0.5979   0.6843   0.7667
     0.8728   0.8909   1.0186   1.0400   1.0928   1.1223   1.1590   1.1723
     1.2195   1.2394   1.3071   1.3588   1.4040   1.4125   1.7125   1.7275
     1.7412   1.7683   1.8673   1.8783   1.9018   1.9108   1.9358   1.9439
     1.9869   2.0069   2.0440   2.0845   2.1035   2.1549   2.1800   2.2290
     2.3408   2.4347   2.4415   2.4901   2.5135   2.5282   2.6124   2.6332
     2.6653   2.7312   2.7374   2.7459   2.7751   2.8442   2.8901   2.9352
     2.9642   3.0073   3.0120   3.0124   3.0247   3.0391   3.0508   3.0642
     3.0688   3.0917   3.0942   3.1172   3.1361   3.1413   3.2716   3.2776
     4.0818   4.1308   4.2001   4.3504   4.7978   4.8710   5.0493   5.0605
     5.4903   5.5146   5.6027   5.6605   6.0360   6.0455   6.2973   6.4767
     6.8006   7.0055   7.2720   7.2993   7.3290   7.4555   7.7793   7.7841
     7.8911   8.0727   8.1441   8.3255   8.3675   8.5076   8.5479   8.6337
     8.7668   8.8708   8.9187

     occupation numbers 
     1.0000   1.0000   1.0000   1.0000   1.0000   1.0000   1.0000   1.0000
     1.0000   1.0000   1.0000   1.0000   1.0000   1.0000   1.0000   1.0000
     1.0000   1.0000   1.0000   1.0000   1.0000   1.0000   1.0000   1.0000
     1.0000   1.0000   1.0000   1.0000   1.0000   1.0000   1.0000   1.0000
     1.0000   1.0000   1.0000   1.0000   1.0000   1.0000   1.0000   1.0000
     1.0000   1.0000   1.0000   1.0000   1.0000   1.0000   1.0000   1.0000
     1.0000   1.0000   1.0000   1.0000   1.0000   1.0000   1.0000   1.0000
     1.0000   1.0000   1.0000   1.0000   1.0000   1.0000   1.0000   1.0000
     1.0000   1.0000   1.0000   1.0000   1.0000   1.0000   1.0000   1.0000
     1.0000   1.0000   1.0000   1.0000   1.0000   1.0000   1.0000   1.0000
     1.0000   1.0000   1.0000   1.0000   1.0000   1.0000   1.0000   1.0000
     1.0000   1.0000   1.0000   1.0000   1.0000   1.0000   1.0000   1.0000
     1.0000   1.0000   1.0000   1.0000   1.0000   1.0000   1.0000   1.0000
     1.0000   1.0000   1.0000   1.0000   1.0000   1.0000   1.0000   1.0000
     1.0000   1.0000   1.0000   1.0000   1.0000   1.0000   1.0000   1.0000
     1.0000   1.0000   1.0000   1.0000   1.0000   1.0000   1.0000   1.0000
     1.0000   1.0000   1.0000   1.0000   1.0000   1.0000   1.0000   1.0000
     1.0000   1.0000   1.0000   1.0000   1.0000   1.0000   1.0000   1.0000
     1.0000   1.0000   1.0000   1.0000   1.0000   1.0000   1.0000   1.0000
     1.0000   1.0000   1.0000   1.0000   1.0000   1.0000   1.0000   0.9999
     0.9999   0.9999   0.9997   0.9997   0.9996   0.9995   0.9994   0.9993
     0.9992   0.9991   0.9987   0.9983   0.9979   0.9978   0.9920   0.9914
     0.9910   0.9899   0.9853   0.9846   0.9832   0.9827   0.9810   0.9805
     0.9772   0.9756   0.9722   0.9682   0.9661   0.9599   0.9566   0.9495
     0.9297   0.9090   0.9073   0.8947   0.8883   0.8841   0.8578   0.8508
     0.8394   0.8144   0.8119   0.8085   0.7964   0.7662   0.7448   0.7228
     0.7082   0.6859   0.6834   0.6832   0.6767   0.6689   0.6626   0.6553
     0.6528   0.6402   0.6388   0.6259   0.6152   0.6122   0.5365   0.5330
     0.1332   0.1182   0.0990   0.0655   0.0148   0.0112   0.0054   0.0052
     0.0007   0.0006   0.0004   0.0003   0.0000   0.0000   0.0000   0.0000
     0.0000   0.0000   0.0000   0.0000   0.0000   0.0000   0.0000   0.0000
     0.0000   0.0000   0.0000   0.0000   0.0000   0.0000   0.0000   0.0000
     0.0000   0.0000   0.0000

          k =-0.2500 0.2500 0.0000 ( 65198 PWs)   bands (ev):

   -92.6945 -92.6421 -92.5481 -92.5034 -92.4436 -92.4008 -92.3833 -92.2638
   -56.0481 -56.0288 -55.9055 -55.8951 -55.8890 -55.8820 -55.8460 -55.8174
   -55.8019 -55.8003 -55.7928 -55.7505 -55.7348 -55.6945 -55.6745 -55.6439
   -55.6386 -55.5890 -55.5889 -55.5860 -55.5776 -55.5389 -55.5137 -55.4301
   -31.2699 -31.2542 -31.1103 -31.0573 -31.0244 -30.9322 -30.7731 -30.6543
   -29.8389 -29.7996 -29.7717 -29.6641 -15.0106 -14.9686 -14.8939 -14.7778
   -14.6633 -14.5383 -14.4537 -14.2445 -14.1072 -14.0797 -14.0644 -14.0180
   -13.9938 -13.9824 -13.9686 -13.9510 -13.8969 -13.8260 -13.8155 -13.6656
   -13.6364 -13.6079 -13.5875 -13.5410 -13.4899 -13.4295 -13.4131 -13.2654
   -13.2288 -13.2119 -13.1406 -13.0973 -13.0344 -13.0103 -12.9888 -12.9749
   -12.9382 -12.9204 -12.8839 -12.8294 -12.7965 -12.7650 -12.7239 -12.6854
   -12.6667 -12.6566 -12.5528 -12.4665 -12.4358 -12.3337 -12.2767 -12.0625
   -12.0429 -11.7912 -11.7696 -11.7427 -11.7301 -11.6900 -11.6548 -11.6323
   -11.6095 -11.5872 -11.5026 -11.4580 -11.4482  -2.6590  -2.4509  -2.3300
    -2.2414  -2.1232  -2.0572  -1.8544  -1.7086  -1.6907  -1.6618  -1.5697
    -1.5337  -1.4405  -1.4063  -1.3806  -1.2407  -1.2249  -1.1757  -1.1136
    -1.0849  -1.0240  -1.0023  -0.9625  -0.9342  -0.8939  -0.8311  -0.7813
    -0.7214  -0.6507  -0.6240  -0.5745  -0.5452  -0.4985  -0.4439  -0.3987
    -0.3577  -0.2579  -0.2233  -0.2118  -0.1691  -0.1018  -0.0211   0.0179
     0.0456   0.1277   0.1506   0.3995   0.5675   0.6085   0.6491   0.7116
     0.7714   0.8324   0.8831   0.9144   1.1911   1.2984   1.3401   1.3720
     1.3771   1.4215   1.4380   1.4815   1.5133   1.5273   1.5523   1.5976
     1.6141   1.6567   1.6739   1.7209   1.8152   1.8324   1.8463   1.8945
     1.9130   1.9569   2.0189   2.1148   2.2153   2.2414   2.2898   2.3103
     2.3765   2.4162   2.4390   2.4445   2.4572   2.4827   2.5055   2.5947
     2.6246   2.7145   2.8899   2.8984   2.9120   2.9221   2.9331   2.9470
     2.9530   2.9718   2.9796   2.9946   3.0037   3.0162   3.0257   3.0344
     3.0668   3.0772   3.0855   3.1191   3.4112   3.4936   3.5575   3.6427
     3.6529   3.8484   3.9697   4.3141   4.5254   4.7250   5.0000   5.1686
     5.6542   5.7065   5.7698   5.8408   5.9030   6.0944   6.1721   6.2054
     6.8925   6.9403   7.0934   7.3015   7.5701   7.6141   7.6753   7.8762
     7.9121   8.0106   8.2043   8.2594   8.3298   8.3610   8.4545   8.5072
     8.5528   8.7894   8.9273

     occupation numbers 
     1.0000   1.0000   1.0000   1.0000   1.0000   1.0000   1.0000   1.0000
     1.0000   1.0000   1.0000   1.0000   1.0000   1.0000   1.0000   1.0000
     1.0000   1.0000   1.0000   1.0000   1.0000   1.0000   1.0000   1.0000
     1.0000   1.0000   1.0000   1.0000   1.0000   1.0000   1.0000   1.0000
     1.0000   1.0000   1.0000   1.0000   1.0000   1.0000   1.0000   1.0000
     1.0000   1.0000   1.0000   1.0000   1.0000   1.0000   1.0000   1.0000
     1.0000   1.0000   1.0000   1.0000   1.0000   1.0000   1.0000   1.0000
     1.0000   1.0000   1.0000   1.0000   1.0000   1.0000   1.0000   1.0000
     1.0000   1.0000   1.0000   1.0000   1.0000   1.0000   1.0000   1.0000
     1.0000   1.0000   1.0000   1.0000   1.0000   1.0000   1.0000   1.0000
     1.0000   1.0000   1.0000   1.0000   1.0000   1.0000   1.0000   1.0000
     1.0000   1.0000   1.0000   1.0000   1.0000   1.0000   1.0000   1.0000
     1.0000   1.0000   1.0000   1.0000   1.0000   1.0000   1.0000   1.0000
     1.0000   1.0000   1.0000   1.0000   1.0000   1.0000   1.0000   1.0000
     1.0000   1.0000   1.0000   1.0000   1.0000   1.0000   1.0000   1.0000
     1.0000   1.0000   1.0000   1.0000   1.0000   1.0000   1.0000   1.0000
     1.0000   1.0000   1.0000   1.0000   1.0000   1.0000   1.0000   1.0000
     1.0000   1.0000   1.0000   1.0000   1.0000   1.0000   1.0000   1.0000
     1.0000   1.0000   1.0000   1.0000   1.0000   1.0000   1.0000   1.0000
     1.0000   1.0000   1.0000   1.0000   1.0000   1.0000   1.0000   1.0000
     0.9999   0.9999   0.9999   0.9998   0.9993   0.9987   0.9985   0.9982
     0.9982   0.9977   0.9976   0.9970   0.9966   0.9963   0.9959   0.9950
     0.9947   0.9936   0.9931   0.9917   0.9879   0.9871   0.9864   0.9837
     0.9825   0.9795   0.9745   0.9648   0.9516   0.9475   0.9394   0.9356
     0.9223   0.9134   0.9079   0.9066   0.9034   0.8967   0.8905   0.8636
     0.8537   0.8209   0.7449   0.7408   0.7342   0.7293   0.7239   0.7169
     0.7139   0.7043   0.7003   0.6925   0.6878   0.6812   0.6761   0.6715
     0.6539   0.6482   0.6436   0.6248   0.4540   0.4060   0.3696   0.3230
     0.3176   0.2222   0.1724   0.0727   0.0384   0.0194   0.0067   0.0032
     0.0003   0.0002   0.0001   0.0001   0.0001   0.0000   0.0000   0.0000
     0.0000   0.0000   0.0000   0.0000   0.0000   0.0000   0.0000   0.0000
     0.0000   0.0000   0.0000   0.0000   0.0000   0.0000   0.0000   0.0000
     0.0000   0.0000   0.0000

          k =-0.5000 0.2500 0.0000 ( 65138 PWs)   bands (ev):

   -92.6945 -92.6421 -92.5481 -92.5034 -92.4436 -92.4008 -92.3833 -92.2638
   -56.0481 -56.0288 -55.9055 -55.8951 -55.8890 -55.8820 -55.8460 -55.8174
   -55.8019 -55.8003 -55.7928 -55.7505 -55.7348 -55.6945 -55.6745 -55.6439
   -55.6386 -55.5890 -55.5889 -55.5860 -55.5776 -55.5389 -55.5137 -55.4301
   -31.2677 -31.2564 -31.1099 -31.0571 -31.0248 -30.9324 -30.7728 -30.6545
   -29.8378 -29.8007 -29.7713 -29.6645 -14.9753 -14.9305 -14.8519 -14.7473
   -14.7068 -14.5842 -14.4966 -14.3589 -14.0579 -14.0280 -14.0165 -13.9818
   -13.9727 -13.9485 -13.9244 -13.8893 -13.8743 -13.8536 -13.8160 -13.7957
   -13.6866 -13.6303 -13.5813 -13.5786 -13.5654 -13.4629 -13.4446 -13.3205
   -13.2589 -13.1945 -13.1579 -13.0613 -13.0222 -13.0099 -12.9925 -12.9669
   -12.9395 -12.9319 -12.9036 -12.8023 -12.7658 -12.7193 -12.7043 -12.6856
   -12.6166 -12.6083 -12.5530 -12.5322 -12.3549 -12.3162 -12.1997 -12.1471
   -12.1128 -11.7636 -11.7513 -11.7373 -11.7245 -11.7045 -11.6744 -11.5920
   -11.5845 -11.5603 -11.5253 -11.4978 -11.4884  -2.4319  -2.3901  -2.2422
    -2.1992  -2.0387  -1.9636  -1.8215  -1.6841  -1.6291  -1.6016  -1.5631
    -1.5241  -1.4430  -1.3275  -1.2708  -1.2470  -1.2291  -1.2199  -1.1446
    -1.1151  -1.0777  -1.0601  -0.9999  -0.9689  -0.9318  -0.8967  -0.8678
    -0.8101  -0.7808  -0.7377  -0.7055  -0.6020  -0.5739  -0.4871  -0.4211
    -0.3943  -0.3377  -0.2509  -0.2145  -0.1174  -0.0719  -0.0196   0.0375
     0.0546   0.1308   0.1590   0.1909   0.2386   0.2802   0.5906   0.6575
     0.7380   0.7642   1.0288   1.0836   1.1609   1.1810   1.3597   1.3951
     1.4326   1.4433   1.4624   1.4807   1.5482   1.5946   1.6363   1.6618
     1.7974   1.8250   1.8532   1.8675   1.9186   1.9302   1.9459   1.9632
     1.9802   2.0026   2.0544   2.0626   2.0986   2.1234   2.1565   2.2087
     2.3297   2.4216   2.4396   2.4565   2.4848   2.5313   2.5602   2.6289
     2.6612   2.6668   2.7041   2.7359   2.7599   2.8438   2.8869   2.8990
     2.9044   2.9259   2.9478   2.9607   2.9748   2.9896   3.0102   3.0234
     3.0322   3.0403   3.0512   3.0630   3.5910   3.6427   3.7818   3.8045
     4.0870   4.1573   4.2080   4.4260   4.7923   4.8892   5.0462   5.0888
     5.4117   5.4384   5.5943   5.6298   5.7550   5.7937   6.3891   6.3983
     6.5017   6.6032   7.2878   7.3314   7.5821   7.7210   7.8016   7.8941
     7.9241   8.0331   8.3135   8.4155   8.5123   8.5293   8.5710   8.5871
     8.6736   8.7362   8.7779

     occupation numbers 
     1.0000   1.0000   1.0000   1.0000   1.0000   1.0000   1.0000   1.0000
     1.0000   1.0000   1.0000   1.0000   1.0000   1.0000   1.0000   1.0000
     1.0000   1.0000   1.0000   1.0000   1.0000   1.0000   1.0000   1.0000
     1.0000   1.0000   1.0000   1.0000   1.0000   1.0000   1.0000   1.0000
     1.0000   1.0000   1.0000   1.0000   1.0000   1.0000   1.0000   1.0000
     1.0000   1.0000   1.0000   1.0000   1.0000   1.0000   1.0000   1.0000
     1.0000   1.0000   1.0000   1.0000   1.0000   1.0000   1.0000   1.0000
     1.0000   1.0000   1.0000   1.0000   1.0000   1.0000   1.0000   1.0000
     1.0000   1.0000   1.0000   1.0000   1.0000   1.0000   1.0000   1.0000
     1.0000   1.0000   1.0000   1.0000   1.0000   1.0000   1.0000   1.0000
     1.0000   1.0000   1.0000   1.0000   1.0000   1.0000   1.0000   1.0000
     1.0000   1.0000   1.0000   1.0000   1.0000   1.0000   1.0000   1.0000
     1.0000   1.0000   1.0000   1.0000   1.0000   1.0000   1.0000   1.0000
     1.0000   1.0000   1.0000   1.0000   1.0000   1.0000   1.0000   1.0000
     1.0000   1.0000   1.0000   1.0000   1.0000   1.0000   1.0000   1.0000
     1.0000   1.0000   1.0000   1.0000   1.0000   1.0000   1.0000   1.0000
     1.0000   1.0000   1.0000   1.0000   1.0000   1.0000   1.0000   1.0000
     1.0000   1.0000   1.0000   1.0000   1.0000   1.0000   1.0000   1.0000
     1.0000   1.0000   1.0000   1.0000   1.0000   1.0000   1.0000   1.0000
     1.0000   1.0000   1.0000   1.0000   1.0000   1.0000   1.0000   1.0000
     0.9999   0.9999   0.9997   0.9996   0.9994   0.9993   0.9983   0.9980
     0.9976   0.9975   0.9973   0.9970   0.9960   0.9951   0.9941   0.9935
     0.9887   0.9874   0.9860   0.9852   0.9822   0.9814   0.9803   0.9791
     0.9778   0.9759   0.9712   0.9704   0.9666   0.9638   0.9597   0.9525
     0.9319   0.9121   0.9078   0.9035   0.8962   0.8832   0.8745   0.8522
     0.8409   0.8389   0.8249   0.8125   0.8028   0.7664   0.7463   0.7405
     0.7379   0.7274   0.7165   0.7100   0.7028   0.6952   0.6844   0.6773
     0.6726   0.6683   0.6624   0.6559   0.3511   0.3230   0.2527   0.2421
     0.1315   0.1106   0.0970   0.0524   0.0151   0.0104   0.0055   0.0046
     0.0010   0.0009   0.0004   0.0003   0.0002   0.0001   0.0000   0.0000
     0.0000   0.0000   0.0000   0.0000   0.0000   0.0000   0.0000   0.0000
     0.0000   0.0000   0.0000   0.0000   0.0000   0.0000   0.0000   0.0000
     0.0000   0.0000   0.0000

     the Fermi energy is     3.3334 ev

!    total energy              =   -4441.66718645 Ry
     estimated scf accuracy    <          6.6E-09 Ry
     smearing contrib. (-TS)   =      -1.15474842 Ry
     internal energy E=F+TS    =   -4440.51243803 Ry

     The total energy is F=E-TS. E is the sum of the following terms:
     one-electron contribution =  -20804.93211956 Ry
     hartree contribution      =   10534.56640564 Ry
     xc contribution           =    -694.18889598 Ry
     ewald contribution        =    6800.21061325 Ry
     one-center paw contrib.   =    -276.16844139 Ry
      -> PAW hartree energy AE =      25.15733254 Ry
      -> PAW hartree energy PS =     -25.04128073 Ry
      -> PAW xc energy AE      =     -16.51671374 Ry
      -> PAW xc energy PS      =       6.87613522 Ry
      -> total E_H with PAW    =   10534.68245745 Ry
      -> total E_XC with PAW   =    -703.82947450 Ry

     convergence has been achieved in  47 iterations

     Writing all to output data dir /bsuhome/zayahcortright/scratch/pwscf.save/
 
     init_run     :      8.07s CPU      8.60s WALL (       1 calls)
     electrons    :    746.28s CPU    825.75s WALL (       1 calls)

     Called by init_run:
     wfcinit      :      6.04s CPU      6.23s WALL (       1 calls)
     wfcinit:atom :      0.05s CPU      0.07s WALL (       5 calls)
     wfcinit:wfcr :      5.72s CPU      5.82s WALL (       5 calls)
     potinit      :      0.21s CPU      0.24s WALL (       1 calls)
     hinit0       :      0.86s CPU      0.94s WALL (       1 calls)

     Called by electrons:
     c_bands      :    603.23s CPU    615.47s WALL (      47 calls)
     sum_band     :    105.43s CPU    143.08s WALL (      47 calls)
     v_of_rho     :      5.17s CPU      5.49s WALL (      48 calls)
     v_h          :      0.45s CPU      0.45s WALL (      48 calls)
     v_xc         :      4.72s CPU      5.04s WALL (      48 calls)
     newd         :     18.50s CPU     47.40s WALL (      48 calls)
     PAW_pot      :      1.56s CPU      1.60s WALL (      48 calls)
     mix_rho      :     12.16s CPU     12.50s WALL (      47 calls)

     Called by c_bands:
     init_us_2    :      6.49s CPU      6.58s WALL (     475 calls)
     init_us_2:cp :      6.49s CPU      6.58s WALL (     475 calls)
     cegterg      :    571.47s CPU    583.32s WALL (     235 calls)

     Called by sum_band:
     sum_band:wei :      0.34s CPU      0.34s WALL (      47 calls)
     sum_band:loo :     84.80s CPU     85.48s WALL (      47 calls)
     sum_band:buf :      1.36s CPU      1.42s WALL (     235 calls)
     sum_band:ini :      2.98s CPU      2.99s WALL (     235 calls)
     sum_band:cal :     18.70s CPU     18.75s WALL (     235 calls)
     sum_band:bec :      0.56s CPU      0.58s WALL (     235 calls)
     addusdens    :     18.04s CPU     54.96s WALL (      47 calls)
                                        0.00s GPU  (      47 calls)
     addusd:skk   :      0.29s CPU      1.96s WALL (     188 calls)
                                        0.00s GPU  (     188 calls)

     Called by *egterg:
     cdiaghg      :     58.96s CPU     59.25s WALL (    1317 calls)
     cegterg:over :     46.32s CPU     46.56s WALL (    1082 calls)
     cegterg:upda :     48.41s CPU     49.47s WALL (    1082 calls)
     cegterg:last :     70.67s CPU     70.92s WALL (     433 calls)
     cdiaghg:chol :      3.27s CPU      3.30s WALL (    1317 calls)
     cdiaghg:inve :      3.60s CPU      3.62s WALL (    1317 calls)
     cdiaghg:para :      7.58s CPU      7.63s WALL (    2634 calls)
     h_psi        :    283.70s CPU    288.59s WALL (    1322 calls)
     s_psi        :     37.95s CPU     38.07s WALL (    1322 calls)
     g_psi        :      2.54s CPU      2.55s WALL (    1082 calls)

     Called by h_psi:
     h_psi:calbec :     44.32s CPU     44.52s WALL (    1322 calls)
     vloc_psi     :    196.17s CPU    198.34s WALL (    1322 calls)
     add_vuspsi   :     37.50s CPU     37.74s WALL (    1322 calls)

     General routines
     calbec       :     63.01s CPU     63.27s WALL (    1557 calls)
     fft          :      4.27s CPU      4.32s WALL (     622 calls)
     ffts         :      4.58s CPU      4.62s WALL (    5049 calls)
     fftw         :    175.58s CPU    177.32s WALL (  318423 calls)
     interpolate  :      0.39s CPU      0.40s WALL (      48 calls)
 
     Parallel routines

     PAW routines
     PAW_pot      :      1.56s CPU      1.60s WALL (      48 calls)
 
     PWSCF        :  12m36.45s CPU  14m 0.17s WALL

 
   This run was terminated on:   0:23: 4  22Jun2024            

=------------------------------------------------------------------------------=
   JOB DONE.
=------------------------------------------------------------------------------=
